<LesHouchesEvents version="3.0">
<header>
<!--
#*********************************************************************
#                                                                    *
#                        MadGraph5_aMC@NLO                           *
#                                                                    *
#                           Going Beyond                             *
#                                                                    *
#                   http://madgraph.hep.uiuc.edu                     *
#                   http://madgraph.phys.ucl.ac.be                   *
#                   http://amcatnlo.cern.ch                          *
#                                                                    *
#                     The MadGraph5_aMC@NLO team                     *
#                                                                    *
#....................................................................*
#                                                                    *
# This file contains all the information necessary to reproduce      *
# the events generated:                                              *
#                                                                    *
# 1. software version                                                *
# 2. proc_card          : code generation info including model       *
# 3. param_card         : model primary parameters in the LH format  *
# 4. run_card           : running parameters (collider and cuts)     *
# 5. pythia_card        : present only if pythia has been run        *
# 6. pgs_card           : present only if pgs has been run           *
# 7. delphes_cards      : present only if delphes has been run       *
#                                                                    *
#                                                                    *
#*********************************************************************
-->
<MGVersion>
#5.2.2.3
</MGVersion>
<MG5ProcCard>
#************************************************************
#*                     MadGraph5_aMC@NLO                    *
#*                                                          *
#*                *                       *                 *
#*                  *        * *        *                   *
#*                    * * * * 5 * * * *                     *
#*                  *        * *        *                   *
#*                *                       *                 *
#*                                                          *
#*                                                          *
#*         VERSION 2.2.3                 2015-02-10         *
#*                                                          *
#*    The MadGraph5_aMC@NLO Development Team - Find us at   *
#*    https://server06.fynu.ucl.ac.be/projects/madgraph     *
#*                                                          *
#************************************************************
#*                                                          *
#*               Command File for MadGraph5_aMC@NLO         *
#*                                                          *
#*     run as ./bin/mg5_aMC  filename                       *
#*                                                          *
#************************************************************
set group_subprocesses Auto
set ignore_six_quark_processes False
set loop_optimized_output True
set gauge unitary
set complex_mass_scheme False
import model sm
define p = g u c d s u~ c~ d~ s~
define j = g u c d s u~ c~ d~ s~
define l+ = e+ mu+
define l- = e- mu-
define vl = ve vm vt
define vl~ = ve~ vm~ vt~
import model Zprime_UFO
generate p p > zph, zph > j j
add process p p > zph, zph > b b~
output Dijet_signal
</MG5ProcCard>
<MGProcCard>
#*********************************************************************
#                        MadGraph/MadEvent                           *
#                   http://madgraph.hep.uiuc.edu                     *
#                                                                    *
#                          proc_card.dat                             *
#*********************************************************************
#                                                                    *
#            This Files is generated by MADGRAPH 5                   *
#                                                                    *
# WARNING: This Files is generated for MADEVENT (compatibility issue)*
#          This files is NOT a valid MG4 proc_card.dat               *
#          Running this in MG4 will NEVER reproduce the result of MG5*
#                                                                    *
#*********************************************************************
#*********************************************************************
# Process(es) requested : mg2 input                                  *
#*********************************************************************
# Begin PROCESS # This is TAG. Do not modify this line
p p > zph , zph > j j           #Process
# Be carefull the coupling are here in MG5 convention
          
end_coup           # End the couplings input

done               # this tells MG there are no more procs
# End PROCESS  # This is TAG. Do not modify this line
#*********************************************************************
# Model information                                                  *
#*********************************************************************
# Begin MODEL  # This is TAG. Do not modify this line
Zprime_UFO
# End   MODEL  # This is TAG. Do not modify this line
#*********************************************************************
# Start multiparticle definitions                                    *
#*********************************************************************
# Begin MULTIPARTICLES # This is TAG. Do not modify this line

# End  MULTIPARTICLES # This is TAG. Do not modify this line
</MGProcCard>
<MGRunCard>
#*********************************************************************
#                       MadGraph5_aMC@NLO                            *
#                                                                    *
#                     run_card.dat MadEvent                          *
#                                                                    *
#  This file is used to set the parameters of the run.               *
#                                                                    *
#  Some notation/conventions:                                        *
#                                                                    *
#   Lines starting with a '# ' are info or comments                  *
#                                                                    *
#   mind the format:   value    = variable     ! comment             *
#*********************************************************************
#
#*******************                                                 
# Running parameters
#*******************                                                 
#                                                                    
#*********************************************************************
# Tag name for the run (one word)                                    *
#*********************************************************************
  tag_1     = run_tag ! name of the run 
#*********************************************************************
# Run to generate the grid pack                                      *
#*********************************************************************
  .false.     = gridpack  !True = setting up the grid pack
#*********************************************************************
# Number of events and rnd seed                                      *
# Warning: Do not generate more than 1M events in a single run       *
# If you want to run Pythia, avoid more than 50k events in a run.    *
#*********************************************************************
  2000 = nevents ! Number of unweighted events requested 
 1920 = iseed   ! rnd seed (0=assigned automatically=default))
#*********************************************************************
# Collider type and energy                                           *
# lpp: 0=No PDF, 1=proton, -1=antiproton, 2=photon from proton,      *
#                                         3=photon from electron     *
#*********************************************************************
        1     = lpp1    ! beam 1 type 
        1     = lpp2    ! beam 2 type
     4000     = ebeam1  ! beam 1 total energy in GeV
     4000     = ebeam2  ! beam 2 total energy in GeV
#*********************************************************************
# Beam polarization from -100 (left-handed) to 100 (right-handed)    *
#*********************************************************************
        0     = polbeam1 ! beam polarization for beam 1
        0     = polbeam2 ! beam polarization for beam 2
#*********************************************************************
# PDF CHOICE: this automatically fixes also alpha_s and its evol.    *
#*********************************************************************
 'nn23lo1'    = pdlabel     ! PDF set                                     
 230000    = lhaid     ! if pdlabel=lhapdf, this is the lhapdf number
#*********************************************************************
# Renormalization and factorization scales                           *
#*********************************************************************
 F        = fixed_ren_scale  ! if .true. use fixed ren scale
 F        = fixed_fac_scale  ! if .true. use fixed fac scale
 91.1880  = scale            ! fixed ren scale
 91.1880  = dsqrt_q2fact1    ! fixed fact scale for pdf1
 91.1880  = dsqrt_q2fact2    ! fixed fact scale for pdf2
 1        = scalefact        ! scale factor for event-by-event scales
#*********************************************************************
# Matching - Warning! ickkw > 1 is still beta
#*********************************************************************
 0        = ickkw            ! 0 no matching, 1 MLM, 2 CKKW matching
 1        = highestmult      ! for ickkw=2, highest mult group
 1        = ktscheme         ! for ickkw=1, 1 Durham kT, 2 Pythia pTE
 1        = alpsfact         ! scale factor for QCD emission vx
 F        = chcluster        ! cluster only according to channel diag
 T        = pdfwgt           ! for ickkw=1, perform pdf reweighting
 5        = asrwgtflavor     ! highest quark flavor for a_s reweight
 T        = clusinfo         ! include clustering tag in output
 3.0      = lhe_version       ! Change the way clustering information pass to shower.        
#*********************************************************************
#**********************************************************
#
#**********************************************************
# Automatic ptj and mjj cuts if xqcut > 0
# (turn off for VBF and single top processes)
#**********************************************************
   T  = auto_ptj_mjj  ! Automatic setting of ptj and mjj
#**********************************************************
#                                                                    
#**********************************
# BW cutoff (M+/-bwcutoff*Gamma)
#**********************************
  15  = bwcutoff      ! (M+/-bwcutoff*Gamma)
#**********************************************************
# Apply pt/E/eta/dr/mij cuts on decay products or not
# (note that etmiss/ptll/ptheavy/ht/sorted cuts always apply)
#**********************************************************
   T  = cut_decays    ! Cut decay products 
#*************************************************************
# Number of helicities to sum per event (0 = all helicities)
# 0 gives more stable result, but longer run time (needed for
# long decay chains e.g.).
# Use >=2 if most helicities contribute, e.g. pure QCD.
#*************************************************************
   0  = nhel          ! Number of helicities used per event
#*******************                                                 
# Standard Cuts
#*******************                                                 
#                                                                    
#*********************************************************************
# Minimum and maximum pt's (for max, -1 means no cut)                *
#*********************************************************************
 20  = ptj       ! minimum pt for the jets 
  0  = ptb       ! minimum pt for the b 
 10  = pta       ! minimum pt for the photons 
 10  = ptl       ! minimum pt for the charged leptons 
  0  = misset    ! minimum missing Et (sum of neutrino's momenta)
  0  = ptheavy   ! minimum pt for one heavy final state
 1.0 = ptonium   ! minimum pt for the quarkonium states
 -1  = ptjmax    ! maximum pt for the jets
 -1  = ptbmax    ! maximum pt for the b
 -1  = ptamax    ! maximum pt for the photons
 -1  = ptlmax    ! maximum pt for the charged leptons
 -1  = missetmax ! maximum missing Et (sum of neutrino's momenta)
#*********************************************************************
# Minimum and maximum E's (in the center of mass frame)              *
#*********************************************************************
  0  = ej     ! minimum E for the jets 
  0  = eb     ! minimum E for the b 
  0  = ea     ! minimum E for the photons 
  0  = el     ! minimum E for the charged leptons 
 -1   = ejmax ! maximum E for the jets
 -1   = ebmax ! maximum E for the b
 -1   = eamax ! maximum E for the photons
 -1   = elmax ! maximum E for the charged leptons
#*********************************************************************
# Maximum and minimum absolute rapidity (for max, -1 means no cut)   *
#*********************************************************************
   5  = etaj    ! max rap for the jets 
  -1  = etab    ! max rap for the b
 2.5  = etaa    ! max rap for the photons 
 2.5  = etal    ! max rap for the charged leptons 
 0.6  = etaonium ! max rap for the quarkonium states
   0  = etajmin ! min rap for the jets
   0  = etabmin ! min rap for the b
   0  = etaamin ! min rap for the photons
   0  = etalmin ! main rap for the charged leptons
#*********************************************************************
# Minimum and maximum DeltaR distance                                *
#*********************************************************************
 0.4 = drjj    ! min distance between jets 
 0   = drbb    ! min distance between b's 
 0.4 = drll    ! min distance between leptons 
 0.4 = draa    ! min distance between gammas 
 0   = drbj    ! min distance between b and jet 
 0.4 = draj    ! min distance between gamma and jet 
 0.4 = drjl    ! min distance between jet and lepton 
 0   = drab    ! min distance between gamma and b 
 0   = drbl    ! min distance between b and lepton 
 0.4 = dral    ! min distance between gamma and lepton 
 -1  = drjjmax ! max distance between jets
 -1  = drbbmax ! max distance between b's
 -1  = drllmax ! max distance between leptons
 -1  = draamax ! max distance between gammas
 -1  = drbjmax ! max distance between b and jet
 -1  = drajmax ! max distance between gamma and jet
 -1  = drjlmax ! max distance between jet and lepton
 -1  = drabmax ! max distance between gamma and b
 -1  = drblmax ! max distance between b and lepton
 -1  = dralmax ! maxdistance between gamma and lepton
#*********************************************************************
# Minimum and maximum invariant mass for pairs                       *
# WARNING: for four lepton final state mmll cut require to have      *
#          different lepton masses for each flavor!                  *           
#*********************************************************************
 0   = mmjj    ! min invariant mass of a jet pair 
 0   = mmbb    ! min invariant mass of a b pair 
 0   = mmaa    ! min invariant mass of gamma gamma pair
 0   = mmll    ! min invariant mass of l+l- (same flavour) lepton pair
 -1  = mmjjmax ! max invariant mass of a jet pair
 -1  = mmbbmax ! max invariant mass of a b pair
 -1  = mmaamax ! max invariant mass of gamma gamma pair
 -1  = mmllmax ! max invariant mass of l+l- (same flavour) lepton pair
#*********************************************************************
# Minimum and maximum invariant mass for all letpons                 *
#*********************************************************************
 0   = mmnl    ! min invariant mass for all letpons (l+- and vl) 
 -1  = mmnlmax ! max invariant mass for all letpons (l+- and vl) 
#*********************************************************************
# Minimum and maximum pt for 4-momenta sum of leptons                *
#*********************************************************************
 0   = ptllmin  ! Minimum pt for 4-momenta sum of leptons(l and vl)
 -1  = ptllmax  ! Maximum pt for 4-momenta sum of leptons(l and vl)
#*********************************************************************
# Inclusive cuts                                                     *
#*********************************************************************
 0  = xptj ! minimum pt for at least one jet  
 0  = xptb ! minimum pt for at least one b 
 0  = xpta ! minimum pt for at least one photon 
 0  = xptl ! minimum pt for at least one charged lepton 
#*********************************************************************
# Control the pt's of the jets sorted by pt                          *
#*********************************************************************
 0   = ptj1min ! minimum pt for the leading jet in pt
 0   = ptj2min ! minimum pt for the second jet in pt
 0   = ptj3min ! minimum pt for the third jet in pt
 0   = ptj4min ! minimum pt for the fourth jet in pt
 -1  = ptj1max ! maximum pt for the leading jet in pt 
 -1  = ptj2max ! maximum pt for the second jet in pt
 -1  = ptj3max ! maximum pt for the third jet in pt
 -1  = ptj4max ! maximum pt for the fourth jet in pt
 0   = cutuse  ! reject event if fails any (0) / all (1) jet pt cuts
#*********************************************************************
# Control the pt's of leptons sorted by pt                           *
#*********************************************************************
 0   = ptl1min ! minimum pt for the leading lepton in pt
 0   = ptl2min ! minimum pt for the second lepton in pt
 0   = ptl3min ! minimum pt for the third lepton in pt
 0   = ptl4min ! minimum pt for the fourth lepton in pt
 -1  = ptl1max ! maximum pt for the leading lepton in pt 
 -1  = ptl2max ! maximum pt for the second lepton in pt
 -1  = ptl3max ! maximum pt for the third lepton in pt
 -1  = ptl4max ! maximum pt for the fourth lepton in pt
#*********************************************************************
# Control the Ht(k)=Sum of k leading jets                            *
#*********************************************************************
 0   = htjmin ! minimum jet HT=Sum(jet pt)
 -1  = htjmax ! maximum jet HT=Sum(jet pt)
 0   = ihtmin  !inclusive Ht for all partons (including b)
 -1  = ihtmax  !inclusive Ht for all partons (including b)
 0   = ht2min ! minimum Ht for the two leading jets
 0   = ht3min ! minimum Ht for the three leading jets
 0   = ht4min ! minimum Ht for the four leading jets
 -1  = ht2max ! maximum Ht for the two leading jets
 -1  = ht3max ! maximum Ht for the three leading jets
 -1  = ht4max ! maximum Ht for the four leading jets
#***********************************************************************
# Photon-isolation cuts, according to hep-ph/9801442                   *
# When ptgmin=0, all the other parameters are ignored                  *
# When ptgmin>0, pta and draj are not going to be used                 *
#***********************************************************************
   0 = ptgmin ! Min photon transverse momentum
 0.4 = R0gamma ! Radius of isolation code
 1.0 = xn ! n parameter of eq.(3.4) in hep-ph/9801442
 1.0 = epsgamma ! epsilon_gamma parameter of eq.(3.4) in hep-ph/9801442
 .true. = isoEM ! isolate photons from EM energy (photons and leptons)
#*********************************************************************
# WBF cuts                                                           *
#*********************************************************************
 0   = xetamin ! minimum rapidity for two jets in the WBF case  
 0   = deltaeta ! minimum rapidity for two jets in the WBF case 
#*********************************************************************
# KT DURHAM CUT                                                      *
#*********************************************************************
 -1    =  ktdurham        
 0.4  =  dparameter 
#*********************************************************************
# maximal pdg code for quark to be considered as a light jet         *
# (otherwise b cuts are applied)                                     *
#*********************************************************************
 4 = maxjetflavor    ! Maximum jet pdg code
#*********************************************************************
# Jet measure cuts                                                   *
#*********************************************************************
 0   = xqcut   ! minimum kt jet measure between partons
#*********************************************************************
#
#*********************************************************************
# Store info for systematics studies                                 *
# WARNING: If use_syst is T, matched Pythia output is                *
#          meaningful ONLY if plotted taking matchscale              *
#          reweighting into account!                                 *
#*********************************************************************
   F  = use_syst      ! Enable systematics studies
#
#**************************************
# Parameter of the systematics study
#  will be used by SysCalc (if installed)
#**************************************                                  
#
0.5 1 2 = sys_scalefact  # factorization/renormalization scale factor
0.5 1 2 = sys_alpsfact  # \alpha_s emission scale factors
30 50 = sys_matchscale # variation of merging scale
# PDF sets and number of members (0 or none for all members).
CT10nlo.LHgrid = sys_pdf # matching scales
# MSTW2008nlo68cl.LHgrid 1  = sys_pdf
</MGRunCard>
<slha>
######################################################################
## PARAM_CARD AUTOMATICALY GENERATED BY MG5 FOLLOWING UFO MODEL   ####
######################################################################
##                                                                  ##
##  Width set on Auto will be computed following the information    ##
##        present in the decay.py files of the model.               ##
##        See  arXiv:1402.1178 for more details.                    ##
##                                                                  ##
######################################################################

###################################
## INFORMATION FOR CKMBLOCK
###################################
Block ckmblock 
    1 2.277360e-01 # cabi 

###################################
## INFORMATION FOR FRBLOCK
###################################
Block frblock 
    1 1.000000e+00 # gz 

###################################
## INFORMATION FOR MASS
###################################
Block mass 
    1 5.040000e-03 # MD 
    2 2.550000e-03 # MU 
    3 1.010000e-01 # MS 
    4 1.270000e+00 # MC 
    5 4.700000e+00 # MB 
    6 1.720000e+02 # MT 
   11 5.110000e-04 # Me 
   13 1.056600e-01 # MM 
   15 1.777000e+00 # MTA 
   23 9.118760e+01 # MZ 
   25 1.200000e+02 # MH 
  10030 1.900000e+03 # MZph 
  10031 3.000000e+02 # MZpl 
## Dependent parameters, given by model restrictions.
## Those values should be edited following the 
## analytical expression. MG5 ignores those values 
## but they are important for interfacing the output of MG5
## to external program such as Pythia.
  12 0.000000 # ve : 0.0 
  14 0.000000 # vm : 0.0 
  16 0.000000 # vt : 0.0 
  21 0.000000 # g : 0.0 
  22 0.000000 # a : 0.0 
  24 79.824360 # w+ : cmath.sqrt(MZ__exp__2/2. + cmath.sqrt(MZ__exp__4/4. - (aEW*cmath.pi*MZ__exp__2)/(Gf*sqrt__2))) 

###################################
## INFORMATION FOR SMINPUTS
###################################
Block sminputs 
    1 1.279000e+02 # aEWM1 
    2 1.166370e-05 # Gf 
    3 1.184000e-01 # aS 

###################################
## INFORMATION FOR YUKAWA
###################################
Block yukawa 
    1 5.040000e-03 # ymdo 
    2 2.550000e-03 # ymup 
    3 1.010000e-01 # yms 
    4 1.270000e+00 # ymc 
    5 4.700000e+00 # ymb 
    6 1.720000e+02 # ymt 
   11 5.110000e-04 # yme 
   13 1.056600e-01 # ymm 
   15 1.777000e+00 # ymtau 

###################################
## INFORMATION FOR DECAY
###################################
DECAY   6 1.508336e+00 # WT 
DECAY  23 2.495200e+00 # WZ 
DECAY  24 2.085000e+00 # WW 
DECAY  25 5.753088e-03 # WH 
## Dependent parameters, given by model restrictions.
## Those values should be edited following the 
## analytical expression. MG5 ignores those values 
## but they are important for interfacing the output of MG5
## to external program such as Pythia.
DECAY  1 0.000000 # d : 0.0 
DECAY  2 0.000000 # u : 0.0 
DECAY  3 0.000000 # s : 0.0 
DECAY  4 0.000000 # c : 0.0 
DECAY  5 0.000000 # b : 0.0 
DECAY  11 0.000000 # e- : 0.0 
DECAY  12 0.000000 # ve : 0.0 
DECAY  13 0.000000 # mu- : 0.0 
DECAY  14 0.000000 # vm : 0.0 
DECAY  15 0.000000 # ta- : 0.0 
DECAY  16 0.000000 # vt : 0.0 
DECAY  21 0.000000 # g : 0.0 
DECAY  22 0.000000 # a : 0.0 
DECAY  10030 0.308725 # zph : (gz__exp__2*MZph*(5 + cmath.sqrt(1 - (4*MT__exp__2)/MZph__exp__2)))/(144.*cmath.pi) 
DECAY  10031 0.132629 # zpl : (5*gz__exp__2*MZpl)/(144.*cmath.pi) 
#===========================================================
# QUANTUM NUMBERS OF NEW STATE(S) (NON SM PDG CODE)
#===========================================================

Block QNUMBERS 10030  # zph 
        1 0  # 3 times electric charge
        2 3  # number of spin states (2S+1)
        3 1  # colour rep (1: singlet, 3: triplet, 8: octet)
        4 0  # Particle/Antiparticle distinction (0=own anti)
Block QNUMBERS 10031  # zpl 
        1 0  # 3 times electric charge
        2 3  # number of spin states (2S+1)
        3 1  # colour rep (1: singlet, 3: triplet, 8: octet)
        4 0  # Particle/Antiparticle distinction (0=own anti)
</slha>
## END BANNER##
<MGGenerationInfo>
#  Number of Events        :         3954
#  Integrated weight (pb)  :  0.51006E-01
#  Max wgt                 :  0.18106E-04
#  Average wgt             :  0.12900E-04
</MGGenerationInfo>
</header>
<init>
     2212     2212  0.40000000000E+04  0.40000000000E+04 0 0  247000  247000 2   1
  0.51030620897E-01  0.10554092065E-03  0.18105690000E-04   0
</init>
<event>
 5   0  0.1799738E-04  0.1892697E+04  0.7818609E-02  0.8658500E-01
        2   -1    0    0  501    0  0.00000000000E+00  0.00000000000E+00  0.13467934968E+04  0.13467934968E+04  0.25500000920E-02 0.  1.
       -2   -1    0    0    0  501  0.00000000000E+00  0.00000000000E+00 -0.66496846119E+03  0.66496846120E+03  0.25500000920E-02 0. -1.
    10030    2    1    2    0    0  0.00000000000E+00  0.00000000000E+00  0.68182503557E+03  0.20117619580E+04  0.18926966995E+04 0.  0.
        1    1    3    3  502    0 -0.57263664171E+03  0.53386755796E+03  0.90600359909E+03  0.11974012754E+04  0.50400001928E-02 0.  1.
       -1    1    3    3    0  502  0.57263664171E+03 -0.53386755796E+03 -0.22417856351E+03  0.81436068252E+03  0.50400001928E-02 0. -1.
</event>
<event>
 5   0  0.1799738E-04  0.1907411E+04  0.7818609E-02  0.8651176E-01
        2   -1    0    0  501    0  0.00000000000E+00  0.00000000000E+00  0.21440790792E+04  0.21440790792E+04  0.25500000920E-02 0. -1.
       -2   -1    0    0    0  501  0.00000000000E+00  0.00000000000E+00 -0.42421673349E+03  0.42421673350E+03  0.25500000920E-02 0.  1.
    10030    2    1    2    0    0  0.00000000000E+00  0.00000000000E+00  0.17198623457E+04  0.25682958127E+04  0.19074110447E+04 0.  0.
        1    1    3    3  502    0  0.67008935385E+03 -0.20822252925E+03 -0.97526191846E+01  0.70176312061E+03  0.50400001928E-02 0.  1.
       -1    1    3    3    0  502 -0.67008935385E+03  0.20822252925E+03  0.17296149649E+04  0.18665326921E+04  0.50400001928E-02 0. -1.
</event>
<event>
 5   0  0.1765328E-04  0.1900351E+04  0.7818609E-02  0.8654682E-01
       -2   -1    0    0    0  501  0.00000000000E+00  0.00000000000E+00  0.37839549075E+03  0.37839549076E+03  0.25500000920E-02 0.  1.
        2   -1    0    0  501    0  0.00000000000E+00  0.00000000000E+00 -0.23859510812E+04  0.23859510812E+04  0.25500000920E-02 0. -1.
    10030    2    1    2    0    0  0.00000000000E+00  0.00000000000E+00 -0.20075555904E+04  0.27643465720E+04  0.19003506311E+04 0.  0.
        3    1    3    3  502    0  0.12365380440E+03 -0.18300347085E+03 -0.23480928344E+04  0.23584572294E+04  0.10100000352E+00 0. -1.
       -3    1    3    3    0  502 -0.12365380440E+03  0.18300347085E+03  0.34053724396E+03  0.40588934256E+03  0.10100000352E+00 0.  1.
</event>
<event>
 5   0  0.1799738E-04  0.1905888E+04  0.7818609E-02  0.8651931E-01
       -2   -1    0    0    0  501  0.00000000000E+00  0.00000000000E+00  0.84672197527E+03  0.84672197527E+03  0.25500000920E-02 0. -1.
        2   -1    0    0  501    0  0.00000000000E+00  0.00000000000E+00 -0.10724911542E+04  0.10724911542E+04  0.25500000920E-02 0.  1.
    10030    2    1    2    0    0  0.00000000000E+00  0.00000000000E+00 -0.22576917894E+03  0.19192131295E+04  0.19058875398E+04 0.  0.
        1    1    3    3  502    0 -0.49535894325E+03  0.72085752163E+03 -0.49379616615E+03  0.10044156027E+04  0.50400001928E-02 0.  1.
       -1    1    3    3    0  502  0.49535894325E+03 -0.72085752163E+03  0.26802698722E+03  0.91479752681E+03  0.50400001928E-02 0. -1.
</event>
<event>
 5   0  0.1765328E-04  0.1893283E+04  0.7818609E-02  0.8658207E-01
        2   -1    0    0  501    0  0.00000000000E+00  0.00000000000E+00  0.80378615758E+03  0.80378615759E+03  0.25500000920E-02 0. -1.
       -2   -1    0    0    0  501  0.00000000000E+00  0.00000000000E+00 -0.11148864318E+04  0.11148864318E+04  0.25500000920E-02 0.  1.
    10030    2    1    2    0    0  0.00000000000E+00  0.00000000000E+00 -0.31110027424E+03  0.19186725894E+04  0.18932831602E+04 0.  0.
        3    1    3    3  502    0 -0.47518512676E+03  0.49497862290E+03  0.50536549586E+03  0.85217312586E+03  0.10100000352E+00 0. -1.
       -3    1    3    3    0  502  0.47518512676E+03 -0.49497862290E+03 -0.81646577010E+03  0.10664994636E+04  0.10100000352E+00 0.  1.
</event>
<event>
 5   0  0.8905646E-05  0.1892766E+04  0.7818609E-02  0.8658466E-01
        1   -1    0    0  501    0  0.00000000000E+00  0.00000000000E+00  0.13461630450E+04  0.13461630450E+04  0.50400001928E-02 0. -1.
       -1   -1    0    0    0  501  0.00000000000E+00  0.00000000000E+00 -0.66532838904E+03  0.66532838906E+03  0.50400001928E-02 0.  1.
    10030    2    1    2    0    0  0.00000000000E+00  0.00000000000E+00  0.68083465596E+03  0.20114914341E+04  0.18927656909E+04 0.  0.
        1    1    3    3  502    0 -0.26424865925E+03  0.83682301013E+03 -0.36124357283E+02  0.87829668872E+03  0.50400001928E-02 0.  1.
       -1    1    3    3    0  502  0.26424865925E+03 -0.83682301013E+03  0.71695901325E+03  0.11331947454E+04  0.50400001928E-02 0. -1.
</event>
<event>
 5   0  0.8681396E-05  0.1909184E+04  0.7818609E-02  0.8650299E-01
       -1   -1    0    0    0  501  0.00000000000E+00  0.00000000000E+00  0.94912300990E+03  0.94912300991E+03  0.50400001928E-02 0. -1.
        1   -1    0    0  501    0  0.00000000000E+00  0.00000000000E+00 -0.96009208924E+03  0.96009208925E+03  0.50400001928E-02 0.  1.
    10030    2    1    2    0    0  0.00000000000E+00  0.00000000000E+00 -0.10969079337E+02  0.19092150992E+04  0.19091835884E+04 0.  0.
        3    1    3    3  502    0 -0.83638339079E+03  0.14753057527E+03  0.43034720118E+03  0.95210355045E+03  0.10100000352E+00 0. -1.
       -3    1    3    3    0  502  0.83638339079E+03 -0.14753057527E+03 -0.44131628052E+03  0.95711154871E+03  0.10100000352E+00 0.  1.
</event>
<event>
 5   0  0.1799738E-04  0.1929266E+04  0.7818609E-02  0.8640424E-01
        2   -1    0    0  501    0  0.00000000000E+00  0.00000000000E+00  0.11914359495E+04  0.11914359495E+04  0.25500000920E-02 0. -1.
       -2   -1    0    0    0  501  0.00000000000E+00  0.00000000000E+00 -0.78100473989E+03  0.78100473990E+03  0.25500000920E-02 0.  1.
    10030    2    1    2    0    0  0.00000000000E+00  0.00000000000E+00  0.41043120958E+03  0.19724406894E+04  0.19292663101E+04 0.  0.
        1    1    3    3  502    0  0.62532079825E+03  0.32390684898E+02 -0.54499151777E+03  0.83011505929E+03  0.50400001928E-02 0.  1.
       -1    1    3    3    0  502 -0.62532079825E+03 -0.32390684898E+02  0.95542272735E+03  0.11423256301E+04  0.50400001928E-02 0. -1.
</event>
<event>
 5   0  0.8602017E-05  0.2045848E+04  0.7818609E-02  0.8585480E-01
        1   -1    0    0  501    0  0.00000000000E+00  0.00000000000E+00  0.16234839350E+04  0.16234839350E+04  0.50400001928E-02 0. -1.
       -1   -1    0    0    0  501  0.00000000000E+00  0.00000000000E+00 -0.64452348295E+03  0.64452348297E+03  0.50400001928E-02 0.  1.
    10030    2    1    2    0    0  0.00000000000E+00  0.00000000000E+00  0.97896045207E+03  0.22680074180E+04  0.20458480103E+04 0.  0.
        2    1    3    3  502    0 -0.82676392638E+03  0.34820144657E+03 -0.55412732127E+02  0.89880665788E+03  0.25500000920E-02 0. -1.
       -2    1    3    3    0  502  0.82676392638E+03 -0.34820144657E+03  0.10343731842E+04  0.13692007601E+04  0.25500000920E-02 0.  1.
</event>
<event>
 5   0  0.1799738E-04  0.1913051E+04  0.7818609E-02  0.8648387E-01
       -2   -1    0    0    0  501  0.00000000000E+00  0.00000000000E+00  0.76656152935E+03  0.76656152935E+03  0.25500000920E-02 0.  1.
        2   -1    0    0  501    0  0.00000000000E+00  0.00000000000E+00 -0.11935646878E+04  0.11935646878E+04  0.25500000920E-02 0. -1.
    10030    2    1    2    0    0  0.00000000000E+00  0.00000000000E+00 -0.42700315846E+03  0.19601262172E+04  0.19130507285E+04 0.  0.
        1    1    3    3  502    0  0.51648340678E+03  0.27804554436E+03  0.56065457827E+03  0.81141727266E+03  0.50400001928E-02 0.  1.
       -1    1    3    3    0  502 -0.51648340678E+03 -0.27804554436E+03 -0.98765773673E+03  0.11487089445E+04  0.50400001928E-02 0. -1.
</event>
<event>
 5   0  0.6375750E-05  0.1825281E+04  0.7818609E-02  0.8692970E-01
       -4   -1    0    0    0  501  0.00000000000E+00  0.00000000000E+00  0.64390887439E+03  0.64391012682E+03  0.12699999809E+01 0. -1.
        4   -1    0    0  501    0  0.00000000000E+00  0.00000000000E+00 -0.12935221831E+04  0.12935228065E+04  0.12699999809E+01 0.  1.
    10030    2    1    2    0    0  0.00000000000E+00  0.00000000000E+00 -0.64961330866E+03  0.19374329333E+04  0.18252805046E+04 0.  0.
        1    1    3    3  502    0 -0.68436129121E+03  0.18267165259E+03  0.28604757481E+03  0.76389955141E+03  0.50400001928E-02 0. -1.
       -1    1    3    3    0  502  0.68436129121E+03 -0.18267165259E+03 -0.93566088347E+03  0.11735333819E+04  0.50400001928E-02 0.  1.
</event>
<event>
 5   0  0.1790832E-04  0.1879597E+04  0.7818609E-02  0.8665079E-01
        2   -1    0    0  501    0  0.00000000000E+00  0.00000000000E+00  0.13072784252E+04  0.13072784252E+04  0.25500000920E-02 0. -1.
       -2   -1    0    0    0  501  0.00000000000E+00  0.00000000000E+00 -0.67561839478E+03  0.67561839479E+03  0.25500000920E-02 0.  1.
    10030    2    1    2    0    0  0.00000000000E+00  0.00000000000E+00  0.63166003040E+03  0.19828968200E+04  0.18795971389E+04 0.  0.
        5    1    3    3  502    0  0.65994473578E+02  0.89903906255E+03  0.35574688580E+02  0.90217190989E+03  0.46999998093E+01 0.  1.
       -5    1    3    3    0  502 -0.65994473578E+02 -0.89903906255E+03  0.59608534182E+03  0.10807249101E+04  0.46999998093E+01 0. -1.
</event>
<event>
 5   0  0.8587082E-05  0.1915864E+04  0.7818609E-02  0.8647000E-01
       -1   -1    0    0    0  501  0.00000000000E+00  0.00000000000E+00  0.38241643451E+03  0.38241643454E+03  0.50400001928E-02 0. -1.
        1   -1    0    0  501    0  0.00000000000E+00  0.00000000000E+00 -0.23995663210E+04  0.23995663210E+04  0.50400001928E-02 0.  1.
    10030    2    1    2    0    0  0.00000000000E+00  0.00000000000E+00 -0.20171498864E+04  0.27819827555E+04  0.19158638750E+04 0.  0.
        5    1    3    3  502    0  0.83018659942E+03  0.35456037656E+02 -0.17006305323E+04  0.18927845144E+04  0.46999998093E+01 0.  1.
       -5    1    3    3    0  502 -0.83018659942E+03 -0.35456037656E+02 -0.31651935412E+03  0.88919824111E+03  0.46999998093E+01 0. -1.
</event>
<event>
 5   0  0.8905646E-05  0.1904598E+04  0.7818609E-02  0.8652571E-01
        1   -1    0    0  501    0  0.00000000000E+00  0.00000000000E+00  0.10689831359E+04  0.10689831359E+04  0.50400001928E-02 0. -1.
       -1   -1    0    0    0  501  0.00000000000E+00  0.00000000000E+00 -0.84835135629E+03  0.84835135631E+03  0.50400001928E-02 0.  1.
    10030    2    1    2    0    0  0.00000000000E+00  0.00000000000E+00  0.22063177959E+03  0.19173344922E+04  0.19045979032E+04 0.  0.
        1    1    3    3  502    0 -0.86566267451E+02 -0.23545440033E+03  0.10351217538E+04  0.10650866343E+04  0.50400001928E-02 0. -1.
       -1    1    3    3    0  502  0.86566267451E+02  0.23545440033E+03 -0.81448997419E+03  0.85224785795E+03  0.50400001928E-02 0.  1.
</event>
<event>
 5   0  0.8681396E-05  0.1893058E+04  0.7818609E-02  0.8658320E-01
        1   -1    0    0  501    0  0.00000000000E+00  0.00000000000E+00  0.14443529902E+04  0.14443529902E+04  0.50400001928E-02 0. -1.
       -1   -1    0    0    0  501  0.00000000000E+00  0.00000000000E+00 -0.62028936159E+03  0.62028936161E+03  0.50400001928E-02 0.  1.
    10030    2    1    2    0    0  0.00000000000E+00  0.00000000000E+00  0.82406362859E+03  0.20646423518E+04  0.18930576264E+04 0.  0.
        3    1    3    3  502    0 -0.34185781954E+03  0.15409716801E+03 -0.53582320025E+03  0.65400246031E+03  0.10100000352E+00 0.  1.
       -3    1    3    3    0  502  0.34185781954E+03 -0.15409716801E+03  0.13598868288E+04  0.14106398915E+04  0.10100000352E+00 0. -1.
</event>
<event>
 5   0  0.8681396E-05  0.1943725E+04  0.7818609E-02  0.8633393E-01
       -1   -1    0    0    0  501  0.00000000000E+00  0.00000000000E+00  0.10329067079E+04  0.10329067079E+04  0.50400001928E-02 0.  1.
        1   -1    0    0  501    0  0.00000000000E+00  0.00000000000E+00 -0.91442615491E+03  0.91442615492E+03  0.50400001928E-02 0. -1.
    10030    2    1    2    0    0  0.00000000000E+00  0.00000000000E+00  0.11848055299E+03  0.19473328628E+04  0.19437251959E+04 0.  0.
        3    1    3    3  502    0 -0.74686804547E+03  0.58016748079E+03 -0.16502943932E+03  0.96002130661E+03  0.10100000352E+00 0. -1.
       -3    1    3    3    0  502  0.74686804547E+03 -0.58016748079E+03  0.28350999231E+03  0.98731155622E+03  0.10100000352E+00 0.  1.
</event>
<event>
 5   0  0.1799738E-04  0.1892679E+04  0.7818609E-02  0.8658509E-01
       -2   -1    0    0    0  501  0.00000000000E+00  0.00000000000E+00  0.89355282306E+03  0.89355282307E+03  0.25500000920E-02 0. -1.
        2   -1    0    0  501    0  0.00000000000E+00  0.00000000000E+00 -0.10022447709E+04  0.10022447709E+04  0.25500000920E-02 0.  1.
    10030    2    1    2    0    0  0.00000000000E+00  0.00000000000E+00 -0.10869194786E+03  0.18957975940E+04  0.18926792063E+04 0.  0.
        1    1    3    3  502    0 -0.38703034900E+03 -0.23217050626E+03  0.77880750620E+03  0.90013152748E+03  0.50400001928E-02 0. -1.
       -1    1    3    3    0  502  0.38703034900E+03  0.23217050626E+03 -0.88749945406E+03  0.99566606652E+03  0.50400001928E-02 0.  1.
</event>
<event>
 5   0  0.8567844E-05  0.1875854E+04  0.7818609E-02  0.8666969E-01
        1   -1    0    0  501    0  0.00000000000E+00  0.00000000000E+00  0.11136902518E+04  0.11136902518E+04  0.50400001928E-02 0. -1.
       -1   -1    0    0    0  501  0.00000000000E+00  0.00000000000E+00 -0.78990322623E+03  0.78990322625E+03  0.50400001928E-02 0.  1.
    10030    2    1    2    0    0  0.00000000000E+00  0.00000000000E+00  0.32378702556E+03  0.19035934781E+04  0.18758544964E+04 0.  0.
        4    1    3    3  502    0 -0.26658174398E+03  0.89919858604E+03  0.15270496800E+03  0.95023383622E+03  0.12699999809E+01 0.  1.
       -4    1    3    3    0  502  0.26658174398E+03 -0.89919858604E+03  0.17108205757E+03  0.95335964183E+03  0.12699999809E+01 0. -1.
</event>
<event>
 5   0  0.8905646E-05  0.1904311E+04  0.7818609E-02  0.8652714E-01
        1   -1    0    0  501    0  0.00000000000E+00  0.00000000000E+00  0.73387459650E+03  0.73387459652E+03  0.50400001928E-02 0.  1.
       -1   -1    0    0    0  501  0.00000000000E+00  0.00000000000E+00 -0.12353607033E+04  0.12353607033E+04  0.50400001928E-02 0. -1.
    10030    2    1    2    0    0  0.00000000000E+00  0.00000000000E+00 -0.50148610682E+03  0.19692352998E+04  0.19043107285E+04 0.  0.
        1    1    3    3  502    0  0.77242994555E+03  0.47836543559E+03 -0.54526610418E+03  0.10596209866E+04  0.50400001928E-02 0.  1.
       -1    1    3    3    0  502 -0.77242994555E+03 -0.47836543559E+03  0.43779997362E+02  0.90961431329E+03  0.50400001928E-02 0. -1.
</event>
<event>
 5   0  0.1658711E-04  0.1899097E+04  0.7818609E-02  0.8655306E-01
        2   -1    0    0  501    0  0.00000000000E+00  0.00000000000E+00  0.12114917411E+04  0.12114917411E+04  0.25500000920E-02 0. -1.
       -2   -1    0    0    0  501  0.00000000000E+00  0.00000000000E+00 -0.74424127046E+03  0.74424127046E+03  0.25500000920E-02 0.  1.
    10030    2    1    2    0    0  0.00000000000E+00  0.00000000000E+00  0.46725047064E+03  0.19557330116E+04  0.18990967880E+04 0.  0.
        2    1    3    3  502    0 -0.60991951720E+03  0.64533160504E+03 -0.11284155596E+03  0.89509100916E+03  0.25500000920E-02 0.  1.
       -2    1    3    3    0  502  0.60991951720E+03 -0.64533160504E+03  0.58009202660E+03  0.10606420024E+04  0.25500000920E-02 0. -1.
</event>
<event>
 5   0  0.8681396E-05  0.1917657E+04  0.7818609E-02  0.8646117E-01
       -1   -1    0    0    0  501  0.00000000000E+00  0.00000000000E+00  0.44390973196E+03  0.44390973199E+03  0.50400001928E-02 0.  1.
        1   -1    0    0  501    0  0.00000000000E+00  0.00000000000E+00 -0.20710333127E+04  0.20710333127E+04  0.50400001928E-02 0. -1.
    10030    2    1    2    0    0  0.00000000000E+00  0.00000000000E+00 -0.16271235808E+04  0.25149430447E+04  0.19176567396E+04 0.  0.
        3    1    3    3  502    0  0.75534071254E+03  0.53216105717E+03 -0.47761927383E+03  0.10401226676E+04  0.10100000352E+00 0.  1.
       -3    1    3    3    0  502 -0.75534071254E+03 -0.53216105717E+03 -0.11495043069E+04  0.14748203771E+04  0.10100000352E+00 0. -1.
</event>
<event>
 5   0  0.1765328E-04  0.1908142E+04  0.7818609E-02  0.8650814E-01
       -2   -1    0    0    0  501  0.00000000000E+00  0.00000000000E+00  0.48184691423E+03  0.48184691423E+03  0.25500000920E-02 0. -1.
        2   -1    0    0  501    0  0.00000000000E+00  0.00000000000E+00 -0.18890876000E+04  0.18890876000E+04  0.25500000920E-02 0.  1.
    10030    2    1    2    0    0  0.00000000000E+00  0.00000000000E+00 -0.14072406858E+04  0.23709345143E+04  0.19081415364E+04 0.  0.
        3    1    3    3  502    0  0.18640343386E+03 -0.28492727607E+03 -0.18110268165E+04  0.18427555272E+04  0.10100000352E+00 0.  1.
       -3    1    3    3    0  502 -0.18640343386E+03  0.28492727607E+03  0.40378613070E+03  0.52817898704E+03  0.10100000352E+00 0. -1.
</event>
<event>
 5   0  0.8905646E-05  0.1890446E+04  0.7818609E-02  0.8659627E-01
        1   -1    0    0  501    0  0.00000000000E+00  0.00000000000E+00  0.19694721935E+04  0.19694721935E+04  0.50400001928E-02 0. -1.
       -1   -1    0    0    0  501  0.00000000000E+00  0.00000000000E+00 -0.45364779415E+03  0.45364779417E+03  0.50400001928E-02 0.  1.
    10030    2    1    2    0    0  0.00000000000E+00  0.00000000000E+00  0.15158243993E+04  0.24231199876E+04  0.18904462079E+04 0.  0.
        1    1    3    3  502    0 -0.86155028709E+03 -0.24980717396E+03  0.37600841087E+03  0.97265350789E+03  0.50400001928E-02 0.  1.
       -1    1    3    3    0  502  0.86155028709E+03  0.24980717396E+03  0.11398159884E+04  0.14504664797E+04  0.50400001928E-02 0. -1.
</event>
<event>
 5   0  0.1658711E-04  0.1802581E+04  0.7818609E-02  0.8704928E-01
       -2   -1    0    0    0  501  0.00000000000E+00  0.00000000000E+00  0.58665289925E+03  0.58665289926E+03  0.25500000920E-02 0. -1.
        2   -1    0    0  501    0  0.00000000000E+00  0.00000000000E+00 -0.13846759865E+04  0.13846759865E+04  0.25500000920E-02 0.  1.
    10030    2    1    2    0    0  0.00000000000E+00  0.00000000000E+00 -0.79802308726E+03  0.19713288858E+04  0.18025805746E+04 0.  0.
        2    1    3    3  502    0  0.52898417590E+03  0.51784671490E+03  0.16325402685E+03  0.75805102452E+03  0.25500000920E-02 0. -1.
       -2    1    3    3    0  502 -0.52898417590E+03 -0.51784671490E+03 -0.96127711411E+03  0.12132778613E+04  0.25500000920E-02 0.  1.
</event>
<event>
 5   0  0.8602017E-05  0.1921194E+04  0.7818609E-02  0.8644378E-01
       -1   -1    0    0    0  501  0.00000000000E+00  0.00000000000E+00  0.11748984813E+04  0.11748984814E+04  0.50400001928E-02 0.  1.
        1   -1    0    0  501    0  0.00000000000E+00  0.00000000000E+00 -0.78538420222E+03  0.78538420223E+03  0.50400001928E-02 0. -1.
    10030    2    1    2    0    0  0.00000000000E+00  0.00000000000E+00  0.38951427913E+03  0.19602826836E+04  0.19211941146E+04 0.  0.
        2    1    3    3  502    0  0.41667348858E+03 -0.34222634802E+03 -0.61640895080E+03  0.81896011136E+03  0.25500000920E-02 0. -1.
       -2    1    3    3    0  502 -0.41667348858E+03  0.34222634802E+03  0.10059232299E+04  0.11413225722E+04  0.25500000920E-02 0.  1.
</event>
<event>
 5   0  0.1765328E-04  0.1899977E+04  0.7818609E-02  0.8654868E-01
       -2   -1    0    0    0  501  0.00000000000E+00  0.00000000000E+00  0.46970830540E+03  0.46970830540E+03  0.25500000920E-02 0. -1.
        2   -1    0    0  501    0  0.00000000000E+00  0.00000000000E+00 -0.19213591553E+04  0.19213591553E+04  0.25500000920E-02 0.  1.
    10030    2    1    2    0    0  0.00000000000E+00  0.00000000000E+00 -0.14516508499E+04  0.23910674607E+04  0.18999772134E+04 0.  0.
        3    1    3    3  502    0  0.86930590580E+02 -0.49512515648E+03  0.28860928005E+03  0.57965608328E+03  0.10100000352E+00 0. -1.
       -3    1    3    3    0  502 -0.86930590580E+02  0.49512515648E+03 -0.17402601300E+04  0.18114113774E+04  0.10100000352E+00 0.  1.
</event>
<event>
 5   0  0.1790832E-04  0.1863755E+04  0.7818609E-02  0.8673111E-01
       -2   -1    0    0    0  501  0.00000000000E+00  0.00000000000E+00  0.12291777570E+04  0.12291777570E+04  0.25500000920E-02 0. -1.
        2   -1    0    0  501    0  0.00000000000E+00  0.00000000000E+00 -0.70648508103E+03  0.70648508104E+03  0.25500000920E-02 0.  1.
    10030    2    1    2    0    0  0.00000000000E+00  0.00000000000E+00  0.52269267601E+03  0.19356628381E+04  0.18637550776E+04 0.  0.
        5    1    3    3  502    0  0.61651811171E+03  0.68148737876E+03  0.42175275324E+03  0.10111464307E+04  0.46999998093E+01 0. -1.
       -5    1    3    3    0  502 -0.61651811171E+03 -0.68148737876E+03  0.10093992277E+03  0.92451640737E+03  0.46999998093E+01 0.  1.
</event>
<event>
 5   0  0.8602017E-05  0.1900205E+04  0.7818609E-02  0.8654754E-01
       -1   -1    0    0    0  501  0.00000000000E+00  0.00000000000E+00  0.11310618856E+04  0.11310618856E+04  0.50400001928E-02 0.  1.
        1   -1    0    0  501    0  0.00000000000E+00  0.00000000000E+00 -0.79809533622E+03  0.79809533623E+03  0.50400001928E-02 0. -1.
    10030    2    1    2    0    0  0.00000000000E+00  0.00000000000E+00  0.33296654941E+03  0.19291572219E+04  0.19002054793E+04 0.  0.
        2    1    3    3  502    0  0.11178900456E+03 -0.91147200095E+02 -0.78691512642E+03  0.80002500575E+03  0.25500000920E-02 0. -1.
       -2    1    3    3    0  502 -0.11178900456E+03  0.91147200095E+02  0.11198816758E+04  0.11291322161E+04  0.25500000920E-02 0.  1.
</event>
<event>
 5   0  0.1765328E-04  0.1897592E+04  0.7818609E-02  0.8656056E-01
        2   -1    0    0  501    0  0.00000000000E+00  0.00000000000E+00  0.14045816282E+04  0.14045816282E+04  0.25500000920E-02 0.  1.
       -2   -1    0    0    0  501  0.00000000000E+00  0.00000000000E+00 -0.64091212660E+03  0.64091212660E+03  0.25500000920E-02 0. -1.
    10030    2    1    2    0    0  0.00000000000E+00  0.00000000000E+00  0.76366950156E+03  0.20454937548E+04  0.18975915243E+04 0.  0.
        3    1    3    3  502    0  0.45283800457E+03 -0.25933174196E+03 -0.47232683728E+03  0.70385215932E+03  0.10100000352E+00 0. -1.
       -3    1    3    3    0  502 -0.45283800457E+03  0.25933174196E+03  0.12359963388E+04  0.13416415954E+04  0.10100000352E+00 0.  1.
</event>
<event>
 5   0  0.1799738E-04  0.1885260E+04  0.7818609E-02  0.8662228E-01
       -2   -1    0    0    0  501  0.00000000000E+00  0.00000000000E+00  0.70209692395E+03  0.70209692396E+03  0.25500000920E-02 0. -1.
        2   -1    0    0  501    0  0.00000000000E+00  0.00000000000E+00 -0.12655677435E+04  0.12655677435E+04  0.25500000920E-02 0.  1.
    10030    2    1    2    0    0  0.00000000000E+00  0.00000000000E+00 -0.56347081956E+03  0.19676646675E+04  0.18852598970E+04 0.  0.
        1    1    3    3  502    0 -0.13214555557E+03 -0.53461466159E+03  0.51673751032E+03  0.75517742209E+03  0.50400001928E-02 0. -1.
       -1    1    3    3    0  502  0.13214555557E+03  0.53461466159E+03 -0.10802083299E+04  0.12124872454E+04  0.50400001928E-02 0.  1.
</event>
<event>
 5   0  0.8587082E-05  0.1902412E+04  0.7818609E-02  0.8653657E-01
       -1   -1    0    0    0  501  0.00000000000E+00  0.00000000000E+00  0.10638059839E+04  0.10638059840E+04  0.50400001928E-02 0. -1.
        1   -1    0    0  501    0  0.00000000000E+00  0.00000000000E+00 -0.85052436160E+03  0.85052436162E+03  0.50400001928E-02 0.  1.
    10030    2    1    2    0    0  0.00000000000E+00  0.00000000000E+00  0.21328162234E+03  0.19143303456E+04  0.19024120536E+04 0.  0.
        5    1    3    3  502    0 -0.48926093005E+03  0.47101515441E+02  0.92609880640E+03  0.10484635900E+04  0.46999998093E+01 0. -1.
       -5    1    3    3    0  502  0.48926093005E+03 -0.47101515441E+02 -0.71281718406E+03  0.86586675552E+03  0.46999998093E+01 0.  1.
</event>
<event>
 5   0  0.1765328E-04  0.1922451E+04  0.7818609E-02  0.8643761E-01
       -2   -1    0    0    0  501  0.00000000000E+00  0.00000000000E+00  0.46487749716E+03  0.46487749717E+03  0.25500000920E-02 0. -1.
        2   -1    0    0  501    0  0.00000000000E+00  0.00000000000E+00 -0.19875216868E+04  0.19875216868E+04  0.25500000920E-02 0.  1.
    10030    2    1    2    0    0  0.00000000000E+00  0.00000000000E+00 -0.15226441896E+04  0.24523991839E+04  0.19224506312E+04 0.  0.
        3    1    3    3  502    0  0.88024661503E+03 -0.28206770784E+03 -0.42488111262E+03  0.10173103092E+04  0.10100000352E+00 0. -1.
       -3    1    3    3    0  502 -0.88024661503E+03  0.28206770784E+03 -0.10977630770E+04  0.14350888748E+04  0.10100000352E+00 0.  1.
</event>
<event>
 5   0  0.8567844E-05  0.1977486E+04  0.7818609E-02  0.8617220E-01
       -1   -1    0    0    0  501  0.00000000000E+00  0.00000000000E+00  0.98281943721E+03  0.98281943722E+03  0.50400001928E-02 0.  1.
        1   -1    0    0  501    0  0.00000000000E+00  0.00000000000E+00 -0.99470216880E+03  0.99470216881E+03  0.50400001928E-02 0. -1.
    10030    2    1    2    0    0  0.00000000000E+00  0.00000000000E+00 -0.11882731590E+02  0.19775216060E+04  0.19774859046E+04 0.  0.
        4    1    3    3  502    0 -0.49880561747E+03 -0.82485813723E+03 -0.22597493231E+03  0.99008296294E+03  0.12699999809E+01 0.  1.
       -4    1    3    3    0  502  0.49880561747E+03  0.82485813723E+03  0.21409220071E+03  0.98743864309E+03  0.12699999809E+01 0. -1.
</event>
<event>
 5   0  0.8905646E-05  0.1898227E+04  0.7818609E-02  0.8655739E-01
        1   -1    0    0  501    0  0.00000000000E+00  0.00000000000E+00  0.97299782638E+03  0.97299782639E+03  0.50400001928E-02 0. -1.
       -1   -1    0    0    0  501  0.00000000000E+00  0.00000000000E+00 -0.92581595181E+03  0.92581595182E+03  0.50400001928E-02 0.  1.
    10030    2    1    2    0    0  0.00000000000E+00  0.00000000000E+00  0.47181874571E+02  0.18988137782E+04  0.18982274982E+04 0.  0.
        1    1    3    3  502    0 -0.56491726145E+03 -0.26230951144E+02  0.78605816854E+03  0.96835273502E+03  0.50400001928E-02 0. -1.
       -1    1    3    3    0  502  0.56491726145E+03  0.26230951144E+02 -0.73887629397E+03  0.93046104319E+03  0.50400001928E-02 0.  1.
</event>
<event>
 5   0  0.8681396E-05  0.1895168E+04  0.7818609E-02  0.8657265E-01
       -1   -1    0    0    0  501  0.00000000000E+00  0.00000000000E+00  0.90085558306E+03  0.90085558307E+03  0.50400001928E-02 0. -1.
        1   -1    0    0  501    0  0.00000000000E+00  0.00000000000E+00 -0.99673677060E+03  0.99673677061E+03  0.50400001928E-02 0.  1.
    10030    2    1    2    0    0  0.00000000000E+00  0.00000000000E+00 -0.95881187545E+02  0.18975923537E+04  0.18951684724E+04 0.  0.
        3    1    3    3  502    0  0.49089086978E+02 -0.22761162361E+02 -0.99518864576E+03  0.99665854725E+03  0.10100000352E+00 0.  1.
       -3    1    3    3    0  502 -0.49089086978E+02  0.22761162361E+02  0.89930745821E+03  0.90093380643E+03  0.10100000352E+00 0. -1.
</event>
<event>
 5   0  0.1810569E-04  0.1971338E+04  0.7818609E-02  0.8620139E-01
        2   -1    0    0  501    0  0.00000000000E+00  0.00000000000E+00  0.94583146260E+03  0.94583146260E+03  0.25500000920E-02 0. -1.
       -2   -1    0    0    0  501  0.00000000000E+00  0.00000000000E+00 -0.10271849292E+04  0.10271849292E+04  0.25500000920E-02 0.  1.
    10030    2    1    2    0    0  0.00000000000E+00  0.00000000000E+00 -0.81353466633E+02  0.19730163918E+04  0.19713384529E+04 0.  0.
        4    1    3    3  502    0 -0.87454095771E+03  0.35653239101E+03  0.24170696048E+03  0.97486465737E+03  0.12699999809E+01 0. -1.
       -4    1    3    3    0  502  0.87454095771E+03 -0.35653239101E+03 -0.32306042712E+03  0.99815173446E+03  0.12699999809E+01 0.  1.
</event>
<event>
 5   0  0.1810569E-04  0.1853426E+04  0.7818609E-02  0.8678393E-01
       -2   -1    0    0    0  501  0.00000000000E+00  0.00000000000E+00  0.47598732110E+03  0.47598732111E+03  0.25500000920E-02 0. -1.
        2   -1    0    0  501    0  0.00000000000E+00  0.00000000000E+00 -0.18042425530E+04  0.18042425530E+04  0.25500000920E-02 0.  1.
    10030    2    1    2    0    0  0.00000000000E+00  0.00000000000E+00 -0.13282552319E+04  0.22802298741E+04  0.18534255630E+04 0.  0.
        4    1    3    3  502    0  0.69304445295E+02 -0.29423649909E+03  0.41362507934E+03  0.51231391030E+03  0.12699999809E+01 0. -1.
       -4    1    3    3    0  502 -0.69304445295E+02  0.29423649909E+03 -0.17418803112E+04  0.17679159638E+04  0.12699999809E+01 0.  1.
</event>
<event>
 5   0  0.8602017E-05  0.1905417E+04  0.7818609E-02  0.8652165E-01
       -1   -1    0    0    0  501  0.00000000000E+00  0.00000000000E+00  0.90240647654E+03  0.90240647655E+03  0.50400001928E-02 0. -1.
        1   -1    0    0  501    0  0.00000000000E+00  0.00000000000E+00 -0.10058143401E+04  0.10058143401E+04  0.50400001928E-02 0.  1.
    10030    2    1    2    0    0  0.00000000000E+00  0.00000000000E+00 -0.10340786357E+03  0.19082208167E+04  0.19054168832E+04 0.  0.
        2    1    3    3  502    0 -0.19756080340E+03  0.93062875146E+03 -0.11000719676E+01  0.95136814864E+03  0.25500000920E-02 0. -1.
       -2    1    3    3    0  502  0.19756080340E+03 -0.93062875146E+03 -0.10230779161E+03  0.95685266803E+03  0.25500000920E-02 0.  1.
</event>
<event>
 5   0  0.8681396E-05  0.1798920E+04  0.7818609E-02  0.8706874E-01
        1   -1    0    0  501    0  0.00000000000E+00  0.00000000000E+00  0.98566838882E+03  0.98566838884E+03  0.50400001928E-02 0. -1.
       -1   -1    0    0    0  501  0.00000000000E+00  0.00000000000E+00 -0.82079135492E+03  0.82079135493E+03  0.50400001928E-02 0.  1.
    10030    2    1    2    0    0  0.00000000000E+00  0.00000000000E+00  0.16487703391E+03  0.18064597438E+04  0.17989197785E+04 0.  0.
        3    1    3    3  502    0  0.59786349423E+03 -0.67148113046E+03  0.10901481507E+03  0.90565551199E+03  0.10100000352E+00 0.  1.
       -3    1    3    3    0  502 -0.59786349423E+03  0.67148113046E+03  0.55862218830E+02  0.90080423178E+03  0.10100000352E+00 0. -1.
</event>
<event>
 5   0  0.8587082E-05  0.1871910E+04  0.7818609E-02  0.8668966E-01
       -1   -1    0    0    0  501  0.00000000000E+00  0.00000000000E+00  0.95675003189E+03  0.95675003190E+03  0.50400001928E-02 0.  1.
        1   -1    0    0  501    0  0.00000000000E+00  0.00000000000E+00 -0.91561181211E+03  0.91561181213E+03  0.50400001928E-02 0. -1.
    10030    2    1    2    0    0  0.00000000000E+00  0.00000000000E+00  0.41138219774E+02  0.18723618440E+04  0.18719098594E+04 0.  0.
        5    1    3    3  502    0 -0.41843051864E+03 -0.73763856662E+03 -0.37549971483E+03  0.92747877589E+03  0.46999998093E+01 0. -1.
       -5    1    3    3    0  502  0.41843051864E+03  0.73763856662E+03  0.41663793460E+03  0.94488306814E+03  0.46999998093E+01 0.  1.
</event>
<event>
 5   0  0.1658711E-04  0.1916457E+04  0.7818609E-02  0.8646708E-01
        2   -1    0    0  501    0  0.00000000000E+00  0.00000000000E+00  0.11108790719E+04  0.11108790719E+04  0.25500000920E-02 0.  1.
       -2   -1    0    0    0  501  0.00000000000E+00  0.00000000000E+00 -0.82655416394E+03  0.82655416394E+03  0.25500000920E-02 0. -1.
    10030    2    1    2    0    0  0.00000000000E+00  0.00000000000E+00  0.28432490795E+03  0.19374332358E+04  0.19164568584E+04 0.  0.
        2    1    3    3  502    0  0.34587112586E+03 -0.78781984756E+03  0.56857866389E+03  0.10312946451E+04  0.25500000920E-02 0.  1.
       -2    1    3    3    0  502 -0.34587112586E+03  0.78781984756E+03 -0.28425375594E+03  0.90613859077E+03  0.25500000920E-02 0. -1.
</event>
<event>
 5   0  0.1765328E-04  0.1935013E+04  0.7818609E-02  0.8637622E-01
        2   -1    0    0  501    0  0.00000000000E+00  0.00000000000E+00  0.18272646415E+04  0.18272646415E+04  0.25500000920E-02 0. -1.
       -2   -1    0    0    0  501  0.00000000000E+00  0.00000000000E+00 -0.51227853238E+03  0.51227853238E+03  0.25500000920E-02 0.  1.
    10030    2    1    2    0    0  0.00000000000E+00  0.00000000000E+00  0.13149861091E+04  0.23395431739E+04  0.19350126086E+04 0.  0.
        3    1    3    3  502    0  0.82681479062E+03  0.34147408098E+03  0.11031113446E+04  0.14202400835E+04  0.10100000352E+00 0. -1.
       -3    1    3    3    0  502 -0.82681479062E+03 -0.34147408098E+03  0.21187476455E+03  0.91930309041E+03  0.10100000352E+00 0.  1.
</event>
<event>
 5   0  0.1799738E-04  0.1908943E+04  0.7818609E-02  0.8650418E-01
       -2   -1    0    0    0  501  0.00000000000E+00  0.00000000000E+00  0.84560913835E+03  0.84560913835E+03  0.25500000920E-02 0.  1.
        2   -1    0    0  501    0  0.00000000000E+00  0.00000000000E+00 -0.10773484789E+04  0.10773484789E+04  0.25500000920E-02 0. -1.
    10030    2    1    2    0    0  0.00000000000E+00  0.00000000000E+00 -0.23173934058E+03  0.19229576173E+04  0.19089428687E+04 0.  0.
        1    1    3    3  502    0 -0.50191828066E+03 -0.67566648552E+03  0.33751079159E+03  0.90684105255E+03  0.50400001928E-02 0.  1.
       -1    1    3    3    0  502  0.50191828066E+03  0.67566648552E+03 -0.56925013216E+03  0.10161165647E+04  0.50400001928E-02 0. -1.
</event>
<event>
 5   0  0.1658711E-04  0.1920002E+04  0.7818609E-02  0.8644964E-01
        2   -1    0    0  501    0  0.00000000000E+00  0.00000000000E+00  0.10106628484E+04  0.10106628484E+04  0.25500000920E-02 0. -1.
       -2   -1    0    0    0  501  0.00000000000E+00  0.00000000000E+00 -0.91187839165E+03  0.91187839165E+03  0.25500000920E-02 0.  1.
    10030    2    1    2    0    0  0.00000000000E+00  0.00000000000E+00  0.98784456726E+02  0.19225412400E+04  0.19200016799E+04 0.  0.
        2    1    3    3  502    0 -0.35203705306E+03 -0.88332765647E+03 -0.82705641332E+02  0.95448313685E+03  0.25500000920E-02 0. -1.
       -2    1    3    3    0  502  0.35203705306E+03  0.88332765647E+03  0.18149009806E+03  0.96805810317E+03  0.25500000920E-02 0.  1.
</event>
<event>
 5   0  0.1765328E-04  0.1911812E+04  0.7818609E-02  0.8648999E-01
       -2   -1    0    0    0  501  0.00000000000E+00  0.00000000000E+00  0.57267128382E+03  0.57267128382E+03  0.25500000920E-02 0.  1.
        2   -1    0    0  501    0  0.00000000000E+00  0.00000000000E+00 -0.15956034631E+04  0.15956034631E+04  0.25500000920E-02 0. -1.
    10030    2    1    2    0    0  0.00000000000E+00  0.00000000000E+00 -0.10229321793E+04  0.21682747469E+04  0.19118120030E+04 0.  0.
        3    1    3    3  502    0  0.54273501545E+02  0.81918825647E+03 -0.10667825164E+04  0.13461203364E+04  0.10100000352E+00 0. -1.
       -3    1    3    3    0  502 -0.54273501545E+02 -0.81918825647E+03  0.43850337126E+02  0.82215441055E+03  0.10100000352E+00 0.  1.
</event>
<event>
 5   0  0.8681396E-05  0.1890092E+04  0.7818609E-02  0.8659804E-01
        1   -1    0    0  501    0  0.00000000000E+00  0.00000000000E+00  0.11567393073E+04  0.11567393073E+04  0.50400001928E-02 0. -1.
       -1   -1    0    0    0  501  0.00000000000E+00  0.00000000000E+00 -0.77209472601E+03  0.77209472602E+03  0.50400001928E-02 0.  1.
    10030    2    1    2    0    0  0.00000000000E+00  0.00000000000E+00  0.38464458125E+03  0.19288340333E+04  0.18900923983E+04 0.  0.
        3    1    3    3  502    0 -0.26374432011E+03  0.59212639432E+03 -0.50947830914E+03  0.82446521511E+03  0.10100000352E+00 0.  1.
       -3    1    3    3    0  502  0.26374432011E+03 -0.59212639432E+03  0.89412289040E+03  0.11043688182E+04  0.10100000352E+00 0. -1.
</event>
<event>
 5   0  0.1790832E-04  0.1883198E+04  0.7818609E-02  0.8663265E-01
       -2   -1    0    0    0  501  0.00000000000E+00  0.00000000000E+00  0.46830953109E+03  0.46830953110E+03  0.25500000920E-02 0.  1.
        2   -1    0    0  501    0  0.00000000000E+00  0.00000000000E+00 -0.18932102405E+04  0.18932102405E+04  0.25500000920E-02 0. -1.
    10030    2    1    2    0    0  0.00000000000E+00  0.00000000000E+00 -0.14249007094E+04  0.23615197716E+04  0.18831977060E+04 0.  0.
        5    1    3    3  502    0 -0.44588830715E+03  0.30668025984E+03  0.25379065262E+03  0.59774655966E+03  0.46999998093E+01 0.  1.
       -5    1    3    3    0  502  0.44588830715E+03 -0.30668025984E+03 -0.16786913621E+04  0.17637732120E+04  0.46999998093E+01 0. -1.
</event>
<event>
 5   0  0.8587082E-05  0.1873888E+04  0.7818609E-02  0.8667964E-01
       -1   -1    0    0    0  501  0.00000000000E+00  0.00000000000E+00  0.68348614935E+03  0.68348614937E+03  0.50400001928E-02 0.  1.
        1   -1    0    0  501    0  0.00000000000E+00  0.00000000000E+00 -0.12843916853E+04  0.12843916853E+04  0.50400001928E-02 0. -1.
    10030    2    1    2    0    0  0.00000000000E+00  0.00000000000E+00 -0.60090553597E+03  0.19678778347E+04  0.18738878593E+04 0.  0.
        5    1    3    3  502    0  0.61221046007E+03 -0.40244600379E+03  0.31285859486E+03  0.79665991725E+03  0.46999998093E+01 0.  1.
       -5    1    3    3    0  502 -0.61221046007E+03  0.40244600379E+03 -0.91376413083E+03  0.11712179175E+04  0.46999998093E+01 0. -1.
</event>
<event>
 5   0  0.8681396E-05  0.1942931E+04  0.7818609E-02  0.8633777E-01
       -1   -1    0    0    0  501  0.00000000000E+00  0.00000000000E+00  0.16515475669E+04  0.16515475670E+04  0.50400001928E-02 0. -1.
        1   -1    0    0  501    0  0.00000000000E+00  0.00000000000E+00 -0.57143093140E+03  0.57143093142E+03  0.50400001928E-02 0.  1.
    10030    2    1    2    0    0  0.00000000000E+00  0.00000000000E+00  0.10801166355E+04  0.22229784984E+04  0.19429311511E+04 0.  0.
        3    1    3    3  502    0 -0.40210645648E+03  0.78586649395E+03  0.10040611977E+04  0.13369422754E+04  0.10100000352E+00 0. -1.
       -3    1    3    3    0  502  0.40210645648E+03 -0.78586649395E+03  0.76055437800E+02  0.88603622300E+03  0.10100000352E+00 0.  1.
</event>
<event>
 5   0  0.1765328E-04  0.1901550E+04  0.7818609E-02  0.8654085E-01
        2   -1    0    0  501    0  0.00000000000E+00  0.00000000000E+00  0.70986391998E+03  0.70986391999E+03  0.25500000920E-02 0. -1.
       -2   -1    0    0    0  501  0.00000000000E+00  0.00000000000E+00 -0.12734458536E+04  0.12734458536E+04  0.25500000920E-02 0.  1.
    10030    2    1    2    0    0  0.00000000000E+00  0.00000000000E+00 -0.56358193361E+03  0.19833097736E+04  0.19015501734E+04 0.  0.
        3    1    3    3  502    0  0.18066951699E+03  0.32009645431E+03 -0.11963447119E+04  0.12515366132E+04  0.10100000352E+00 0.  1.
       -3    1    3    3    0  502 -0.18066951699E+03 -0.32009645431E+03  0.63276277827E+03  0.73177316034E+03  0.10100000352E+00 0. -1.
</event>
<event>
 5   0  0.8905646E-05  0.1903949E+04  0.7818609E-02  0.8652893E-01
       -1   -1    0    0    0  501  0.00000000000E+00  0.00000000000E+00  0.50259887233E+03  0.50259887236E+03  0.50400001928E-02 0. -1.
        1   -1    0    0  501    0  0.00000000000E+00  0.00000000000E+00 -0.18031380201E+04  0.18031380201E+04  0.50400001928E-02 0.  1.
    10030    2    1    2    0    0  0.00000000000E+00  0.00000000000E+00 -0.13005391478E+04  0.23057368925E+04  0.19039486712E+04 0.  0.
        1    1    3    3  502    0 -0.12996807149E+03 -0.12204964746E+02 -0.17922476709E+04  0.17969953741E+04  0.50400001928E-02 0.  1.
       -1    1    3    3    0  502  0.12996807149E+03  0.12204964746E+02  0.49170852311E+03  0.50874151835E+03  0.50400001928E-02 0. -1.
</event>
<event>
 5   0  0.8681396E-05  0.1893864E+04  0.7818609E-02  0.8657917E-01
        1   -1    0    0  501    0  0.00000000000E+00  0.00000000000E+00  0.10681170110E+04  0.10681170110E+04  0.50400001928E-02 0.  1.
       -1   -1    0    0    0  501  0.00000000000E+00  0.00000000000E+00 -0.83949655266E+03  0.83949655268E+03  0.50400001928E-02 0. -1.
    10030    2    1    2    0    0  0.00000000000E+00  0.00000000000E+00  0.22862045831E+03  0.19076135637E+04  0.18938643548E+04 0.  0.
        3    1    3    3  502    0  0.46187961172E+03  0.81561562286E+03  0.24989398685E+03  0.97005599573E+03  0.10100000352E+00 0.  1.
       -3    1    3    3    0  502 -0.46187961172E+03 -0.81561562286E+03 -0.21273528547E+02  0.93755756794E+03  0.10100000352E+00 0. -1.
</event>
<event>
 5   0  0.8602017E-05  0.1907438E+04  0.7818609E-02  0.8651163E-01
       -1   -1    0    0    0  501  0.00000000000E+00  0.00000000000E+00  0.76426664225E+03  0.76426664227E+03  0.50400001928E-02 0.  1.
        1   -1    0    0  501    0  0.00000000000E+00  0.00000000000E+00 -0.11901342873E+04  0.11901342873E+04  0.50400001928E-02 0. -1.
    10030    2    1    2    0    0  0.00000000000E+00  0.00000000000E+00 -0.42586764503E+03  0.19544009296E+04  0.19074380049E+04 0.  0.
        2    1    3    3  502    0 -0.12788888674E+03 -0.10072254758E+03 -0.11757937009E+04  0.11870094465E+04  0.25500000920E-02 0. -1.
       -2    1    3    3    0  502  0.12788888674E+03  0.10072254758E+03  0.74992605590E+03  0.76739148306E+03  0.25500000920E-02 0.  1.
</event>
<event>
 5   0  0.8587082E-05  0.1921957E+04  0.7818609E-02  0.8644004E-01
        1   -1    0    0  501    0  0.00000000000E+00  0.00000000000E+00  0.83313976695E+03  0.83313976696E+03  0.50400001928E-02 0. -1.
       -1   -1    0    0    0  501  0.00000000000E+00  0.00000000000E+00 -0.11084325968E+04  0.11084325968E+04  0.50400001928E-02 0.  1.
    10030    2    1    2    0    0  0.00000000000E+00  0.00000000000E+00 -0.27529282986E+03  0.19415723638E+04  0.19219565816E+04 0.  0.
        5    1    3    3  502    0 -0.25940018951E+03 -0.50340111713E+03  0.64665102168E+03  0.85958174532E+03  0.46999998093E+01 0. -1.
       -5    1    3    3    0  502  0.25940018951E+03  0.50340111713E+03 -0.92194385154E+03  0.10819906185E+04  0.46999998093E+01 0.  1.
</event>
<event>
 5   0  0.1810569E-04  0.1943539E+04  0.7818609E-02  0.8633483E-01
        2   -1    0    0  501    0  0.00000000000E+00  0.00000000000E+00  0.81732933797E+03  0.81732933797E+03  0.25500000920E-02 0.  1.
       -2   -1    0    0    0  501  0.00000000000E+00  0.00000000000E+00 -0.11553926171E+04  0.11553926171E+04  0.25500000920E-02 0. -1.
    10030    2    1    2    0    0  0.00000000000E+00  0.00000000000E+00 -0.33806327917E+03  0.19727219551E+04  0.19435393311E+04 0.  0.
        4    1    3    3  502    0 -0.29356375115E+03 -0.63293711603E+03  0.51754612831E+03  0.86870287018E+03  0.12699999809E+01 0.  1.
       -4    1    3    3    0  502  0.29356375115E+03  0.63293711603E+03 -0.85560940747E+03  0.11040190849E+04  0.12699999809E+01 0. -1.
</event>
<event>
 5   0  0.1799738E-04  0.1911399E+04  0.7818609E-02  0.8649203E-01
       -2   -1    0    0    0  501  0.00000000000E+00  0.00000000000E+00  0.71804466638E+03  0.71804466639E+03  0.25500000920E-02 0.  1.
        2   -1    0    0  501    0  0.00000000000E+00  0.00000000000E+00 -0.12720115212E+04  0.12720115212E+04  0.25500000920E-02 0. -1.
    10030    2    1    2    0    0  0.00000000000E+00  0.00000000000E+00 -0.55396685478E+03  0.19900561876E+04  0.19113985334E+04 0.  0.
        1    1    3    3  502    0 -0.47101784562E+03 -0.50481298850E+03  0.41101799801E+03  0.80351089537E+03  0.50400001928E-02 0.  1.
       -1    1    3    3    0  502  0.47101784562E+03  0.50481298850E+03 -0.96498485280E+03  0.11865452922E+04  0.50400001928E-02 0. -1.
</event>
<event>
 5   0  0.8567844E-05  0.1916774E+04  0.7818609E-02  0.8646551E-01
        1   -1    0    0  501    0  0.00000000000E+00  0.00000000000E+00  0.16559276304E+04  0.16559276304E+04  0.50400001928E-02 0.  1.
       -1   -1    0    0    0  501  0.00000000000E+00  0.00000000000E+00 -0.55467762910E+03  0.55467762912E+03  0.50400001928E-02 0. -1.
    10030    2    1    2    0    0  0.00000000000E+00  0.00000000000E+00  0.11012500013E+04  0.22106052595E+04  0.19167743863E+04 0.  0.
        4    1    3    3  502    0  0.92554986103E+03  0.19152912656E+03  0.73362651189E+03  0.11964678949E+04  0.12699999809E+01 0.  1.
       -4    1    3    3    0  502 -0.92554986103E+03 -0.19152912656E+03  0.36762348943E+03  0.10141373647E+04  0.12699999809E+01 0. -1.
</event>
<event>
 5   0  0.1658711E-04  0.1906507E+04  0.7818609E-02  0.8651624E-01
        2   -1    0    0  501    0  0.00000000000E+00  0.00000000000E+00  0.19166264986E+04  0.19166264986E+04  0.25500000920E-02 0.  1.
       -2   -1    0    0    0  501  0.00000000000E+00  0.00000000000E+00 -0.47411042563E+03  0.47411042564E+03  0.25500000920E-02 0. -1.
    10030    2    1    2    0    0  0.00000000000E+00  0.00000000000E+00  0.14425160729E+04  0.23907369242E+04  0.19065073879E+04 0.  0.
        2    1    3    3  502    0 -0.88368952698E+03 -0.87120876375E+02  0.28651044957E+03  0.93305169466E+03  0.25500000920E-02 0. -1.
       -2    1    3    3    0  502  0.88368952698E+03  0.87120876375E+02  0.11560056233E+04  0.14576852295E+04  0.25500000920E-02 0.  1.
</event>
<event>
 5   0  0.8587082E-05  0.1898565E+04  0.7818609E-02  0.8655571E-01
        1   -1    0    0  501    0  0.00000000000E+00  0.00000000000E+00  0.11880282276E+04  0.11880282276E+04  0.50400001928E-02 0.  1.
       -1   -1    0    0    0  501  0.00000000000E+00  0.00000000000E+00 -0.75851527813E+03  0.75851527815E+03  0.50400001928E-02 0. -1.
    10030    2    1    2    0    0  0.00000000000E+00  0.00000000000E+00  0.42951294944E+03  0.19465435057E+04  0.18985653125E+04 0.  0.
        5    1    3    3  502    0 -0.45199957798E+03  0.66294914341E+03 -0.30531992529E+03  0.85851472440E+03  0.46999998093E+01 0. -1.
       -5    1    3    3    0  502  0.45199957798E+03 -0.66294914341E+03  0.73483287473E+03  0.10880287813E+04  0.46999998093E+01 0.  1.
</event>
<event>
 5   0  0.1658711E-04  0.1884396E+04  0.7818609E-02  0.8662663E-01
       -2   -1    0    0    0  501  0.00000000000E+00  0.00000000000E+00  0.96830956639E+03  0.96830956640E+03  0.25500000920E-02 0. -1.
        2   -1    0    0  501    0  0.00000000000E+00  0.00000000000E+00 -0.91679032854E+03  0.91679032855E+03  0.25500000920E-02 0.  1.
    10030    2    1    2    0    0  0.00000000000E+00  0.00000000000E+00  0.51519237850E+02  0.18850998949E+04  0.18843957605E+04 0.  0.
        2    1    3    3  502    0  0.16779253716E+03 -0.26781748760E+03  0.91370398848E+03  0.96681721166E+03  0.25500000920E-02 0. -1.
       -2    1    3    3    0  502 -0.16779253716E+03  0.26781748760E+03 -0.86218475063E+03  0.91828268328E+03  0.25500000920E-02 0.  1.
</event>
<event>
 5   0  0.8567844E-05  0.1911378E+04  0.7818609E-02  0.8649214E-01
        1   -1    0    0  501    0  0.00000000000E+00  0.00000000000E+00  0.12847100452E+04  0.12847100452E+04  0.50400001928E-02 0. -1.
       -1   -1    0    0    0  501  0.00000000000E+00  0.00000000000E+00 -0.71093182498E+03  0.71093182500E+03  0.50400001928E-02 0.  1.
    10030    2    1    2    0    0  0.00000000000E+00  0.00000000000E+00  0.57377822022E+03  0.19956418702E+04  0.19113777827E+04 0.  0.
        4    1    3    3  502    0  0.12575911303E+03 -0.94638029246E+03  0.33226338590E+03  0.10108667484E+04  0.12699999809E+01 0. -1.
       -4    1    3    3    0  502 -0.12575911303E+03  0.94638029246E+03  0.24151483432E+03  0.98477512183E+03  0.12699999809E+01 0.  1.
</event>
<event>
 5   0  0.8602017E-05  0.1680776E+04  0.7818609E-02  0.8772405E-01
        1   -1    0    0  501    0  0.00000000000E+00  0.00000000000E+00  0.13036617259E+04  0.13036617259E+04  0.50400001928E-02 0.  1.
       -1   -1    0    0    0  501  0.00000000000E+00  0.00000000000E+00 -0.54174494451E+03  0.54174494454E+03  0.50400001928E-02 0. -1.
    10030    2    1    2    0    0  0.00000000000E+00  0.00000000000E+00  0.76191678139E+03  0.18454066705E+04  0.16807761890E+04 0.  0.
        2    1    3    3  502    0  0.47240511488E+03 -0.45957541608E+03  0.95344802820E+03  0.11590682888E+04  0.25500000920E-02 0.  1.
       -2    1    3    3    0  502 -0.47240511488E+03  0.45957541608E+03 -0.19153124680E+03  0.68633838166E+03  0.25500000920E-02 0. -1.
</event>
<event>
 5   0  0.8602017E-05  0.1867705E+04  0.7818609E-02  0.8671101E-01
       -1   -1    0    0    0  501  0.00000000000E+00  0.00000000000E+00  0.49393630741E+03  0.49393630743E+03  0.50400001928E-02 0. -1.
        1   -1    0    0  501    0  0.00000000000E+00  0.00000000000E+00 -0.17655734433E+04  0.17655734433E+04  0.50400001928E-02 0.  1.
    10030    2    1    2    0    0  0.00000000000E+00  0.00000000000E+00 -0.12716371358E+04  0.22595097507E+04  0.18677053590E+04 0.  0.
        2    1    3    3  502    0  0.80158829525E+03  0.41133588366E+03 -0.93299055627E+03  0.12970013039E+04  0.25500000920E-02 0. -1.
       -2    1    3    3    0  502 -0.80158829525E+03 -0.41133588366E+03 -0.33864657957E+03  0.96250844678E+03  0.25500000920E-02 0.  1.
</event>
<event>
 5   0  0.1658711E-04  0.1890183E+04  0.7818609E-02  0.8659758E-01
       -2   -1    0    0    0  501  0.00000000000E+00  0.00000000000E+00  0.57843026212E+03  0.57843026212E+03  0.25500000920E-02 0.  1.
        2   -1    0    0  501    0  0.00000000000E+00  0.00000000000E+00 -0.15441755740E+04  0.15441755740E+04  0.25500000920E-02 0. -1.
    10030    2    1    2    0    0  0.00000000000E+00  0.00000000000E+00 -0.96574531190E+03  0.21226058361E+04  0.18901829351E+04 0.  0.
        2    1    3    3  502    0  0.12219534291E+03 -0.85235498343E+03 -0.92033443497E+03  0.12603397129E+04  0.25500000920E-02 0. -1.
       -2    1    3    3    0  502 -0.12219534291E+03  0.85235498343E+03 -0.45410876933E+02  0.86226612328E+03  0.25500000920E-02 0.  1.
</event>
<event>
 5   0  0.6375750E-05  0.1888668E+04  0.7818609E-02  0.8660518E-01
        3   -1    0    0  501    0  0.00000000000E+00  0.00000000000E+00  0.18905025056E+04  0.18905025083E+04  0.10100000352E+00 0.  1.
       -3   -1    0    0    0  501  0.00000000000E+00  0.00000000000E+00 -0.47170887417E+03  0.47170888498E+03  0.10100000352E+00 0. -1.
    10030    2    1    2    0    0  0.00000000000E+00  0.00000000000E+00  0.14187936314E+04  0.23622113932E+04  0.18886681280E+04 0.  0.
        2    1    3    3  502    0  0.18218232655E+03  0.22489775746E+03 -0.41486664535E+03  0.50584951798E+03  0.25500000920E-02 0. -1.
       -2    1    3    3    0  502 -0.18218232655E+03 -0.22489775746E+03  0.18336602767E+04  0.18563618752E+04  0.25500000920E-02 0.  1.
</event>
<event>
 5   0  0.1790832E-04  0.1884142E+04  0.7818609E-02  0.8662790E-01
       -2   -1    0    0    0  501  0.00000000000E+00  0.00000000000E+00  0.95931251689E+03  0.95931251689E+03  0.25500000920E-02 0. -1.
        2   -1    0    0  501    0  0.00000000000E+00  0.00000000000E+00 -0.92513970473E+03  0.92513970474E+03  0.25500000920E-02 0.  1.
    10030    2    1    2    0    0  0.00000000000E+00  0.00000000000E+00  0.34172812151E+02  0.18844522216E+04  0.18841423499E+04 0.  0.
        5    1    3    3  502    0 -0.65662866093E+03  0.66950451719E+03 -0.72808917455E+02  0.94059594160E+03  0.46999998093E+01 0. -1.
       -5    1    3    3    0  502  0.65662866093E+03 -0.66950451719E+03  0.10698172961E+03  0.94385628003E+03  0.46999998093E+01 0.  1.
</event>
<event>
 5   0  0.1790832E-04  0.1827028E+04  0.7818609E-02  0.8692057E-01
        2   -1    0    0  501    0  0.00000000000E+00  0.00000000000E+00  0.15050537442E+04  0.15050537442E+04  0.25500000920E-02 0. -1.
       -2   -1    0    0    0  501  0.00000000000E+00  0.00000000000E+00 -0.55447040508E+03  0.55447040509E+03  0.25500000920E-02 0.  1.
    10030    2    1    2    0    0  0.00000000000E+00  0.00000000000E+00  0.95058333910E+03  0.20595241493E+04  0.18270279245E+04 0.  0.
        5    1    3    3  502    0  0.71037369843E+03 -0.53642394470E+03  0.24398691239E+03  0.92300224447E+03  0.46999998093E+01 0. -1.
       -5    1    3    3    0  502 -0.71037369843E+03  0.53642394470E+03  0.70659642670E+03  0.11365219048E+04  0.46999998093E+01 0.  1.
</event>
<event>
 5   0  0.1810569E-04  0.1926964E+04  0.7818609E-02  0.8641550E-01
        2   -1    0    0  501    0  0.00000000000E+00  0.00000000000E+00  0.15564635035E+04  0.15564635035E+04  0.25500000920E-02 0. -1.
       -2   -1    0    0    0  501  0.00000000000E+00  0.00000000000E+00 -0.59641449490E+03  0.59641449491E+03  0.25500000920E-02 0.  1.
    10030    2    1    2    0    0  0.00000000000E+00  0.00000000000E+00  0.96004900863E+03  0.21528779984E+04  0.19269638235E+04 0.  0.
        4    1    3    3  502    0  0.35279244852E+03  0.89632098414E+03  0.50351211548E+03  0.10869130056E+04  0.12699999809E+01 0. -1.
       -4    1    3    3    0  502 -0.35279244852E+03 -0.89632098414E+03  0.45653689315E+03  0.10659649929E+04  0.12699999809E+01 0.  1.
</event>
<event>
 5   0  0.8567844E-05  0.1703989E+04  0.7818609E-02  0.8759092E-01
       -1   -1    0    0    0  501  0.00000000000E+00  0.00000000000E+00  0.49044717453E+03  0.49044717455E+03  0.50400001928E-02 0. -1.
        1   -1    0    0  501    0  0.00000000000E+00  0.00000000000E+00 -0.14800674356E+04  0.14800674356E+04  0.50400001928E-02 0.  1.
    10030    2    1    2    0    0  0.00000000000E+00  0.00000000000E+00 -0.98962026106E+03  0.19705146102E+04  0.17039893097E+04 0.  0.
        4    1    3    3  502    0 -0.21042763663E+03 -0.38651196192E+03 -0.13384540904E+04  0.14089472141E+04  0.12699999809E+01 0.  1.
       -4    1    3    3    0  502  0.21042763663E+03  0.38651196192E+03  0.34883382934E+03  0.56156739610E+03  0.12699999809E+01 0. -1.
</event>
<event>
 5   0  0.8602017E-05  0.1894052E+04  0.7818609E-02  0.8657823E-01
       -1   -1    0    0    0  501  0.00000000000E+00  0.00000000000E+00  0.80798075377E+03  0.80798075378E+03  0.50400001928E-02 0. -1.
        1   -1    0    0  501    0  0.00000000000E+00  0.00000000000E+00 -0.11099996450E+04  0.11099996450E+04  0.50400001928E-02 0.  1.
    10030    2    1    2    0    0  0.00000000000E+00  0.00000000000E+00 -0.30201889120E+03  0.19179803988E+04  0.18940521111E+04 0.  0.
        2    1    3    3  502    0 -0.91121666901E+03 -0.22281768153E+03 -0.28263158104E+03  0.97971636083E+03  0.25500000920E-02 0. -1.
       -2    1    3    3    0  502  0.91121666901E+03  0.22281768153E+03 -0.19387310165E+02  0.93826403793E+03  0.25500000920E-02 0.  1.
</event>
<event>
 5   0  0.1658711E-04  0.1884650E+04  0.7818609E-02  0.8662535E-01
        2   -1    0    0  501    0  0.00000000000E+00  0.00000000000E+00  0.16545630016E+04  0.16545630016E+04  0.25500000920E-02 0. -1.
       -2   -1    0    0    0  501  0.00000000000E+00  0.00000000000E+00 -0.53668319835E+03  0.53668319836E+03  0.25500000920E-02 0.  1.
    10030    2    1    2    0    0  0.00000000000E+00  0.00000000000E+00  0.11178798032E+04  0.21912461999E+04  0.18846497431E+04 0.  0.
        2    1    3    3  502    0 -0.70265963083E+03  0.53694929632E+03  0.93735824944E+03  0.12886759063E+04  0.25500000920E-02 0.  1.
       -2    1    3    3    0  502  0.70265963083E+03 -0.53694929632E+03  0.18052155377E+03  0.90257029366E+03  0.25500000920E-02 0. -1.
</event>
<event>
 5   0  0.8602017E-05  0.1918300E+04  0.7818609E-02  0.8645800E-01
       -1   -1    0    0    0  501  0.00000000000E+00  0.00000000000E+00  0.97404416260E+03  0.97404416261E+03  0.50400001928E-02 0. -1.
        1   -1    0    0  501    0  0.00000000000E+00  0.00000000000E+00 -0.94448383404E+03  0.94448383406E+03  0.50400001928E-02 0.  1.
    10030    2    1    2    0    0  0.00000000000E+00  0.00000000000E+00  0.29560328556E+02  0.19185279967E+04  0.19183002531E+04 0.  0.
        2    1    3    3  502    0  0.44574419522E+03 -0.15786748542E+03 -0.81980014351E+03  0.94640493756E+03  0.25500000920E-02 0.  1.
       -2    1    3    3    0  502 -0.44574419522E+03  0.15786748542E+03  0.84936047207E+03  0.97212305911E+03  0.25500000920E-02 0. -1.
</event>
<event>
 5   0  0.1765328E-04  0.1880120E+04  0.7818609E-02  0.8664815E-01
        2   -1    0    0  501    0  0.00000000000E+00  0.00000000000E+00  0.63796087915E+03  0.63796087915E+03  0.25500000920E-02 0. -1.
       -2   -1    0    0    0  501  0.00000000000E+00  0.00000000000E+00 -0.13852154385E+04  0.13852154385E+04  0.25500000920E-02 0.  1.
    10030    2    1    2    0    0  0.00000000000E+00  0.00000000000E+00 -0.74725455936E+03  0.20231763177E+04  0.18801204844E+04 0.  0.
        3    1    3    3  502    0 -0.25749146176E+03 -0.36762153123E+03  0.51521530641E+03  0.68329661587E+03  0.10100000352E+00 0. -1.
       -3    1    3    3    0  502  0.25749146176E+03  0.36762153123E+03 -0.12624698658E+04  0.13398797018E+04  0.10100000352E+00 0.  1.
</event>
<event>
 5   0  0.1790832E-04  0.1887089E+04  0.7818609E-02  0.8661310E-01
        2   -1    0    0  501    0  0.00000000000E+00  0.00000000000E+00  0.21054207641E+04  0.21054207641E+04  0.25500000920E-02 0.  1.
       -2   -1    0    0    0  501  0.00000000000E+00  0.00000000000E+00 -0.42284954700E+03  0.42284954701E+03  0.25500000920E-02 0. -1.
    10030    2    1    2    0    0  0.00000000000E+00  0.00000000000E+00  0.16825712171E+04  0.25282703111E+04  0.18870889925E+04 0.  0.
        5    1    3    3  502    0  0.90425804828E+01 -0.47533736763E+03  0.19332017919E+04  0.19908085392E+04  0.46999998093E+01 0.  1.
       -5    1    3    3    0  502 -0.90425804828E+01  0.47533736763E+03 -0.25063057479E+03  0.53746177199E+03  0.46999998093E+01 0. -1.
</event>
<event>
 5   0  0.8587082E-05  0.1928095E+04  0.7818609E-02  0.8640997E-01
       -1   -1    0    0    0  501  0.00000000000E+00  0.00000000000E+00  0.45557180528E+03  0.45557180531E+03  0.50400001928E-02 0. -1.
        1   -1    0    0  501    0  0.00000000000E+00  0.00000000000E+00 -0.20400469419E+04  0.20400469419E+04  0.50400001928E-02 0.  1.
    10030    2    1    2    0    0  0.00000000000E+00  0.00000000000E+00 -0.15844751366E+04  0.24956187472E+04  0.19280952966E+04 0.  0.
        5    1    3    3  502    0 -0.16245047341E+03  0.26922414091E+03 -0.19717920080E+04  0.19967116985E+04  0.46999998093E+01 0.  1.
       -5    1    3    3    0  502  0.16245047341E+03 -0.26922414091E+03  0.38731687137E+03  0.49890704866E+03  0.46999998093E+01 0. -1.
</event>
<event>
 5   0  0.8681396E-05  0.1900271E+04  0.7818609E-02  0.8654722E-01
       -1   -1    0    0    0  501  0.00000000000E+00  0.00000000000E+00  0.10556003231E+04  0.10556003231E+04  0.50400001928E-02 0.  1.
        1   -1    0    0  501    0  0.00000000000E+00  0.00000000000E+00 -0.85520734589E+03  0.85520734591E+03  0.50400001928E-02 0. -1.
    10030    2    1    2    0    0  0.00000000000E+00  0.00000000000E+00  0.20039297721E+03  0.19108076690E+04  0.19002706656E+04 0.  0.
        3    1    3    3  502    0 -0.54856377439E+02 -0.66787239039E+03  0.77749982554E+03  0.10264349667E+04  0.10100000352E+00 0.  1.
       -3    1    3    3    0  502  0.54856377439E+02  0.66787239039E+03 -0.57710684832E+03  0.88437270230E+03  0.10100000352E+00 0. -1.
</event>
<event>
 5   0  0.1765328E-04  0.1905191E+04  0.7818609E-02  0.8652277E-01
        2   -1    0    0  501    0  0.00000000000E+00  0.00000000000E+00  0.14878325889E+04  0.14878325889E+04  0.25500000920E-02 0. -1.
       -2   -1    0    0    0  501  0.00000000000E+00  0.00000000000E+00 -0.60990627253E+03  0.60990627254E+03  0.25500000920E-02 0.  1.
    10030    2    1    2    0    0  0.00000000000E+00  0.00000000000E+00  0.87792631634E+03  0.20977388614E+04  0.19051912538E+04 0.  0.
        3    1    3    3  502    0 -0.90190406883E+03 -0.63625704054E+01  0.10144239495E+03  0.90761335456E+03  0.10100000352E+00 0. -1.
       -3    1    3    3    0  502  0.90190406883E+03  0.63625704054E+01  0.77648392139E+03  0.11901255069E+04  0.10100000352E+00 0.  1.
</event>
<event>
 5   0  0.1799738E-04  0.1918148E+04  0.7818609E-02  0.8645875E-01
       -2   -1    0    0    0  501  0.00000000000E+00  0.00000000000E+00  0.32695143313E+03  0.32695143314E+03  0.25500000920E-02 0.  1.
        2   -1    0    0  501    0  0.00000000000E+00  0.00000000000E+00 -0.28133333460E+04  0.28133333460E+04  0.25500000920E-02 0. -1.
    10030    2    1    2    0    0  0.00000000000E+00  0.00000000000E+00 -0.24863819128E+04  0.31402847791E+04  0.19181484503E+04 0.  0.
        1    1    3    3  502    0  0.78484639200E+02 -0.90042846101E+03 -0.17683343074E+04  0.19859349120E+04  0.50400001928E-02 0. -1.
       -1    1    3    3    0  502 -0.78484639200E+02  0.90042846101E+03 -0.71804760547E+03  0.11543498671E+04  0.50400001928E-02 0.  1.
</event>
<event>
 5   0  0.1799738E-04  0.1849464E+04  0.7818609E-02  0.8680428E-01
        2   -1    0    0  501    0  0.00000000000E+00  0.00000000000E+00  0.56404951774E+03  0.56404951775E+03  0.25500000920E-02 0. -1.
       -2   -1    0    0    0  501  0.00000000000E+00  0.00000000000E+00 -0.15160540609E+04  0.15160540609E+04  0.25500000920E-02 0.  1.
    10030    2    1    2    0    0  0.00000000000E+00  0.00000000000E+00 -0.95200454320E+03  0.20801035787E+04  0.18494643137E+04 0.  0.
        1    1    3    3  502    0  0.52538612938E+03 -0.61115252245E+03  0.33964240443E+02  0.80665454831E+03  0.50400001928E-02 0. -1.
       -1    1    3    3    0  502 -0.52538612938E+03  0.61115252245E+03 -0.98596878364E+03  0.12734490304E+04  0.50400001928E-02 0.  1.
</event>
<event>
 5   0  0.1658711E-04  0.2027091E+04  0.7818609E-02  0.8594058E-01
       -2   -1    0    0    0  501  0.00000000000E+00  0.00000000000E+00  0.51072211733E+03  0.51072211733E+03  0.25500000920E-02 0. -1.
        2   -1    0    0  501    0  0.00000000000E+00  0.00000000000E+00 -0.20114165133E+04  0.20114165133E+04  0.25500000920E-02 0.  1.
    10030    2    1    2    0    0  0.00000000000E+00  0.00000000000E+00 -0.15006943960E+04  0.25221386307E+04  0.20270914143E+04 0.  0.
        2    1    3    3  502    0  0.45607688151E+03 -0.48651665930E+03 -0.17000108087E+04  0.18261274138E+04  0.25500000920E-02 0.  1.
       -2    1    3    3    0  502 -0.45607688151E+03  0.48651665930E+03  0.19931641273E+03  0.69601121687E+03  0.25500000920E-02 0. -1.
</event>
<event>
 5   0  0.8905646E-05  0.1904929E+04  0.7818609E-02  0.8652407E-01
        1   -1    0    0  501    0  0.00000000000E+00  0.00000000000E+00  0.71799980298E+03  0.71799980299E+03  0.50400001928E-02 0.  1.
       -1   -1    0    0    0  501  0.00000000000E+00  0.00000000000E+00 -0.12634938854E+04  0.12634938854E+04  0.50400001928E-02 0. -1.
    10030    2    1    2    0    0  0.00000000000E+00  0.00000000000E+00 -0.54549408239E+03  0.19814936884E+04  0.19049287239E+04 0.  0.
        1    1    3    3  502    0  0.36673761073E+03  0.67111527073E+03  0.31778238198E+03  0.82817741098E+03  0.50400001928E-02 0.  1.
       -1    1    3    3    0  502 -0.36673761073E+03 -0.67111527073E+03 -0.86327646437E+03  0.11533162774E+04  0.50400001928E-02 0. -1.
</event>
<event>
 5   0  0.1799738E-04  0.1885461E+04  0.7818609E-02  0.8662127E-01
        2   -1    0    0  501    0  0.00000000000E+00  0.00000000000E+00  0.12055367504E+04  0.12055367504E+04  0.25500000920E-02 0.  1.
       -2   -1    0    0    0  501  0.00000000000E+00  0.00000000000E+00 -0.73721572174E+03  0.73721572175E+03  0.25500000920E-02 0. -1.
    10030    2    1    2    0    0  0.00000000000E+00  0.00000000000E+00  0.46832102869E+03  0.19427524722E+04  0.18854608408E+04 0.  0.
        1    1    3    3  502    0  0.51713400840E+02  0.84758729159E+03 -0.18774720605E+03  0.86967091828E+03  0.50400001928E-02 0. -1.
       -1    1    3    3    0  502 -0.51713400840E+02 -0.84758729159E+03  0.65606823474E+03  0.10730815539E+04  0.50400001928E-02 0.  1.
</event>
<event>
 5   0  0.1810569E-04  0.1892631E+04  0.7818609E-02  0.8658533E-01
       -2   -1    0    0    0  501  0.00000000000E+00  0.00000000000E+00  0.54685753386E+03  0.54685753387E+03  0.25500000920E-02 0.  1.
        2   -1    0    0  501    0  0.00000000000E+00  0.00000000000E+00 -0.16375623522E+04  0.16375623522E+04  0.25500000920E-02 0. -1.
    10030    2    1    2    0    0  0.00000000000E+00  0.00000000000E+00 -0.10907048183E+04  0.21844198860E+04  0.18926313000E+04 0.  0.
        4    1    3    3  502    0 -0.46233927581E+03  0.76372477877E+03 -0.18315867532E+03  0.91136263744E+03  0.12699999809E+01 0. -1.
       -4    1    3    3    0  502  0.46233927581E+03 -0.76372477877E+03 -0.90754614300E+03  0.12730572486E+04  0.12699999809E+01 0.  1.
</event>
<event>
 5   0  0.1765328E-04  0.1891421E+04  0.7818609E-02  0.8659138E-01
        2   -1    0    0  501    0  0.00000000000E+00  0.00000000000E+00  0.99662197388E+03  0.99662197388E+03  0.25500000920E-02 0.  1.
       -2   -1    0    0    0  501  0.00000000000E+00  0.00000000000E+00 -0.89739982653E+03  0.89739982653E+03  0.25500000920E-02 0. -1.
    10030    2    1    2    0    0  0.00000000000E+00  0.00000000000E+00  0.99222147347E+02  0.18940218004E+04  0.18914210388E+04 0.  0.
        3    1    3    3  502    0 -0.47333339381E+03 -0.11182197316E+03  0.86178716851E+03  0.98955838099E+03  0.10100000352E+00 0.  1.
       -3    1    3    3    0  502  0.47333339381E+03  0.11182197316E+03 -0.76256502116E+03  0.90446341942E+03  0.10100000352E+00 0. -1.
</event>
<event>
 5   0  0.8587082E-05  0.1893186E+04  0.7818609E-02  0.8658256E-01
       -1   -1    0    0    0  501  0.00000000000E+00  0.00000000000E+00  0.93686994199E+03  0.93686994201E+03  0.50400001928E-02 0.  1.
        1   -1    0    0  501    0  0.00000000000E+00  0.00000000000E+00 -0.95641666528E+03  0.95641666529E+03  0.50400001928E-02 0. -1.
    10030    2    1    2    0    0  0.00000000000E+00  0.00000000000E+00 -0.19546723290E+02  0.18932866073E+04  0.18931857022E+04 0.  0.
        5    1    3    3  502    0  0.36609884749E+03 -0.56450639800E+03  0.65608499764E+03  0.93976882989E+03  0.46999998093E+01 0.  1.
       -5    1    3    3    0  502 -0.36609884749E+03  0.56450639800E+03 -0.67563172093E+03  0.95351777741E+03  0.46999998093E+01 0. -1.
</event>
<event>
 5   0  0.8602017E-05  0.1892371E+04  0.7818609E-02  0.8658663E-01
       -1   -1    0    0    0  501  0.00000000000E+00  0.00000000000E+00  0.50491874872E+03  0.50491874874E+03  0.50400001928E-02 0. -1.
        1   -1    0    0  501    0  0.00000000000E+00  0.00000000000E+00 -0.17730911225E+04  0.17730911225E+04  0.50400001928E-02 0.  1.
    10030    2    1    2    0    0  0.00000000000E+00  0.00000000000E+00 -0.12681723738E+04  0.22780098713E+04  0.18923709478E+04 0.  0.
        2    1    3    3  502    0 -0.92086439573E+03 -0.21681499278E+03 -0.65375527668E+03  0.11499547549E+04  0.25500000920E-02 0. -1.
       -2    1    3    3    0  502  0.92086439573E+03  0.21681499278E+03 -0.61441709713E+03  0.11280551164E+04  0.25500000920E-02 0.  1.
</event>
<event>
 5   0  0.1799738E-04  0.1918861E+04  0.7818609E-02  0.8645525E-01
        2   -1    0    0  501    0  0.00000000000E+00  0.00000000000E+00  0.72346441315E+03  0.72346441316E+03  0.25500000920E-02 0.  1.
       -2   -1    0    0    0  501  0.00000000000E+00  0.00000000000E+00 -0.12723593358E+04  0.12723593358E+04  0.25500000920E-02 0. -1.
    10030    2    1    2    0    0  0.00000000000E+00  0.00000000000E+00 -0.54889492268E+03  0.19958237490E+04  0.19188608081E+04 0.  0.
        1    1    3    3  502    0 -0.67235372644E+02 -0.62404547495E+03  0.48029694597E+03  0.79034075340E+03  0.50400001928E-02 0.  1.
       -1    1    3    3    0  502  0.67235372644E+02  0.62404547495E+03 -0.10291918687E+04  0.12054829956E+04  0.50400001928E-02 0. -1.
</event>
<event>
 5   0  0.1810569E-04  0.1605423E+04  0.7818609E-02  0.8817224E-01
        2   -1    0    0  501    0  0.00000000000E+00  0.00000000000E+00  0.13656411097E+04  0.13656411097E+04  0.25500000920E-02 0. -1.
       -2   -1    0    0    0  501  0.00000000000E+00  0.00000000000E+00 -0.47182628765E+03  0.47182628766E+03  0.25500000920E-02 0.  1.
    10030    2    1    2    0    0  0.00000000000E+00  0.00000000000E+00  0.89381482209E+03  0.18374673974E+04  0.16054225302E+04 0.  0.
        4    1    3    3  502    0  0.35815856441E+03 -0.68539751498E+03  0.20064159021E+03  0.79894053059E+03  0.12699999809E+01 0.  1.
       -4    1    3    3    0  502 -0.35815856441E+03  0.68539751498E+03  0.69317323188E+03  0.10385268668E+04  0.12699999809E+01 0. -1.
</event>
<event>
 5   0  0.1765328E-04  0.1906387E+04  0.7818609E-02  0.8651684E-01
        2   -1    0    0  501    0  0.00000000000E+00  0.00000000000E+00  0.79488581510E+03  0.79488581510E+03  0.25500000920E-02 0. -1.
       -2   -1    0    0    0  501  0.00000000000E+00  0.00000000000E+00 -0.11430289156E+04  0.11430289156E+04  0.25500000920E-02 0.  1.
    10030    2    1    2    0    0  0.00000000000E+00  0.00000000000E+00 -0.34814310054E+03  0.19379147307E+04  0.19063866043E+04 0.  0.
        3    1    3    3  502    0 -0.36169567338E+03 -0.15832778814E+03  0.70785132808E+03  0.81052141335E+03  0.10100000352E+00 0. -1.
       -3    1    3    3    0  502  0.36169567338E+03  0.15832778814E+03 -0.10559944286E+04  0.11273933174E+04  0.10100000352E+00 0.  1.
</event>
<event>
 5   0  0.8905646E-05  0.1903717E+04  0.7818609E-02  0.8653008E-01
       -1   -1    0    0    0  501  0.00000000000E+00  0.00000000000E+00  0.67388537342E+03  0.67388537344E+03  0.50400001928E-02 0.  1.
        1   -1    0    0  501    0  0.00000000000E+00  0.00000000000E+00 -0.13444937085E+04  0.13444937085E+04  0.50400001928E-02 0. -1.
    10030    2    1    2    0    0  0.00000000000E+00  0.00000000000E+00 -0.67060833506E+03  0.20183790819E+04  0.19037170429E+04 0.  0.
        1    1    3    3  502    0 -0.35012911618E+02 -0.79144224650E+03  0.22413996511E+03  0.82331370540E+03  0.50400001928E-02 0.  1.
       -1    1    3    3    0  502  0.35012911618E+02  0.79144224650E+03 -0.89474830017E+03  0.11950653765E+04  0.50400001928E-02 0. -1.
</event>
<event>
 5   0  0.1658711E-04  0.1910173E+04  0.7818609E-02  0.8649809E-01
       -2   -1    0    0    0  501  0.00000000000E+00  0.00000000000E+00  0.54036315088E+03  0.54036315089E+03  0.25500000920E-02 0.  1.
        2   -1    0    0  501    0  0.00000000000E+00  0.00000000000E+00 -0.16881065002E+04  0.16881065002E+04  0.25500000920E-02 0. -1.
    10030    2    1    2    0    0  0.00000000000E+00  0.00000000000E+00 -0.11477433493E+04  0.22284696511E+04  0.19101733403E+04 0.  0.
        2    1    3    3  502    0 -0.16031349890E+02  0.39286333050E+03  0.44156213439E+03  0.59124928682E+03  0.25500000920E-02 0.  1.
       -2    1    3    3    0  502  0.16031349890E+02 -0.39286333050E+03 -0.15893054837E+04  0.16372203642E+04  0.25500000920E-02 0. -1.
</event>
<event>
 5   0  0.8905646E-05  0.1908491E+04  0.7818609E-02  0.8650641E-01
       -1   -1    0    0    0  501  0.00000000000E+00  0.00000000000E+00  0.11411179450E+04  0.11411179450E+04  0.50400001928E-02 0.  1.
        1   -1    0    0  501    0  0.00000000000E+00  0.00000000000E+00 -0.79797572797E+03  0.79797572798E+03  0.50400001928E-02 0. -1.
    10030    2    1    2    0    0  0.00000000000E+00  0.00000000000E+00  0.34314221699E+03  0.19390936730E+04  0.19084909461E+04 0.  0.
        1    1    3    3  502    0  0.50823815145E+03 -0.10755204118E+03  0.98485049128E+03  0.11134648402E+04  0.50400001928E-02 0.  1.
       -1    1    3    3    0  502 -0.50823815145E+03  0.10755204118E+03 -0.64170827429E+03  0.82562883275E+03  0.50400001928E-02 0. -1.
</event>
<event>
 5   0  0.8602017E-05  0.1869278E+04  0.7818609E-02  0.8670301E-01
       -1   -1    0    0    0  501  0.00000000000E+00  0.00000000000E+00  0.10436904844E+04  0.10436904844E+04  0.50400001928E-02 0.  1.
        1   -1    0    0  501    0  0.00000000000E+00  0.00000000000E+00 -0.83698226552E+03  0.83698226554E+03  0.50400001928E-02 0. -1.
    10030    2    1    2    0    0  0.00000000000E+00  0.00000000000E+00  0.20670821886E+03  0.18806727499E+04  0.18692783914E+04 0.  0.
        2    1    3    3  502    0 -0.19350629188E+03  0.91344020973E+03  0.61474367941E+02  0.93573329516E+03  0.25500000920E-02 0. -1.
       -2    1    3    3    0  502  0.19350629188E+03 -0.91344020973E+03  0.14523385092E+03  0.94493945478E+03  0.25500000920E-02 0.  1.
</event>
<event>
 5   0  0.1790832E-04  0.1757061E+04  0.7818609E-02  0.8729473E-01
        2   -1    0    0  501    0  0.00000000000E+00  0.00000000000E+00  0.89516177959E+03  0.89516177959E+03  0.25500000920E-02 0. -1.
       -2   -1    0    0    0  501  0.00000000000E+00  0.00000000000E+00 -0.86220783556E+03  0.86220783557E+03  0.25500000920E-02 0.  1.
    10030    2    1    2    0    0  0.00000000000E+00  0.00000000000E+00  0.32953944027E+02  0.17573696152E+04  0.17570606142E+04 0.  0.
        5    1    3    3  502    0 -0.60780096438E+03 -0.44719171998E+03 -0.43348097708E+03  0.87024726038E+03  0.46999998093E+01 0.  1.
       -5    1    3    3    0  502  0.60780096438E+03  0.44719171998E+03  0.46643492110E+03  0.88712235477E+03  0.46999998093E+01 0. -1.
</event>
<event>
 5   0  0.8905646E-05  0.1911447E+04  0.7818609E-02  0.8649179E-01
        1   -1    0    0  501    0  0.00000000000E+00  0.00000000000E+00  0.19839257447E+04  0.19839257447E+04  0.50400001928E-02 0.  1.
       -1   -1    0    0    0  501  0.00000000000E+00  0.00000000000E+00 -0.46040406911E+03  0.46040406914E+03  0.50400001928E-02 0. -1.
    10030    2    1    2    0    0  0.00000000000E+00  0.00000000000E+00  0.15235216756E+04  0.24443298138E+04  0.19114470808E+04 0.  0.
        1    1    3    3  502    0 -0.31692106043E+03  0.88917613895E+03  0.57065062174E+03  0.11030481842E+04  0.50400001928E-02 0. -1.
       -1    1    3    3    0  502  0.31692106043E+03 -0.88917613895E+03  0.95287105385E+03  0.13412816296E+04  0.50400001928E-02 0.  1.
</event>
<event>
 5   0  0.1810569E-04  0.1830419E+04  0.7818609E-02  0.8690288E-01
       -2   -1    0    0    0  501  0.00000000000E+00  0.00000000000E+00  0.80511960094E+03  0.80511960094E+03  0.25500000920E-02 0.  1.
        2   -1    0    0  501    0  0.00000000000E+00  0.00000000000E+00 -0.10403526499E+04  0.10403526499E+04  0.25500000920E-02 0. -1.
    10030    2    1    2    0    0  0.00000000000E+00  0.00000000000E+00 -0.23523304899E+03  0.18454722509E+04  0.18304188705E+04 0.  0.
        4    1    3    3  502    0  0.42227466989E+03 -0.71937927536E+03 -0.49725571924E+03  0.97112682069E+03  0.12699999809E+01 0. -1.
       -4    1    3    3    0  502 -0.42227466989E+03  0.71937927536E+03  0.26202267024E+03  0.87434543018E+03  0.12699999809E+01 0.  1.
</event>
<event>
 5   0  0.6375750E-05  0.1891112E+04  0.7818609E-02  0.8659293E-01
       -3   -1    0    0    0  501  0.00000000000E+00  0.00000000000E+00  0.80655520318E+03  0.80655520950E+03  0.10100000352E+00 0. -1.
        3   -1    0    0  501    0  0.00000000000E+00  0.00000000000E+00 -0.11085120195E+04  0.11085120241E+04  0.10100000352E+00 0.  1.
    10030    2    1    2    0    0  0.00000000000E+00  0.00000000000E+00 -0.30195681630E+03  0.19150672336E+04  0.18911119983E+04 0.  0.
        2    1    3    3  502    0 -0.48806377373E+02  0.75194644361E+03  0.42745819495E+03  0.86632905121E+03  0.25500000920E-02 0. -1.
       -2    1    3    3    0  502  0.48806377373E+02 -0.75194644361E+03 -0.72941501125E+03  0.10487381824E+04  0.25500000920E-02 0.  1.
</event>
<event>
 5   0  0.1765328E-04  0.1878605E+04  0.7818609E-02  0.8665580E-01
       -2   -1    0    0    0  501  0.00000000000E+00  0.00000000000E+00  0.76245344072E+03  0.76245344072E+03  0.25500000920E-02 0.  1.
        2   -1    0    0  501    0  0.00000000000E+00  0.00000000000E+00 -0.11571709689E+04  0.11571709689E+04  0.25500000920E-02 0. -1.
    10030    2    1    2    0    0  0.00000000000E+00  0.00000000000E+00 -0.39471752820E+03  0.19196244096E+04  0.18786047873E+04 0.  0.
        3    1    3    3  502    0 -0.75717479096E+03 -0.55158286283E+03 -0.12706974076E+03  0.94535921630E+03  0.10100000352E+00 0. -1.
       -3    1    3    3    0  502  0.75717479096E+03  0.55158286283E+03 -0.26764778744E+03  0.97426519334E+03  0.10100000352E+00 0.  1.
</event>
<event>
 5   0  0.1765328E-04  0.1923478E+04  0.7818609E-02  0.8643258E-01
        2   -1    0    0  501    0  0.00000000000E+00  0.00000000000E+00  0.10078582719E+04  0.10078582720E+04  0.25500000920E-02 0. -1.
       -2   -1    0    0    0  501  0.00000000000E+00  0.00000000000E+00 -0.91772974438E+03  0.91772974439E+03  0.25500000920E-02 0.  1.
    10030    2    1    2    0    0  0.00000000000E+00  0.00000000000E+00  0.90128527563E+02  0.19255880163E+04  0.19234775947E+04 0.  0.
        3    1    3    3  502    0 -0.36080582608E+03 -0.23930201644E+03  0.90478191419E+03  0.10030337091E+04  0.10100000352E+00 0. -1.
       -3    1    3    3    0  502  0.36080582608E+03  0.23930201644E+03 -0.81465338663E+03  0.92255430721E+03  0.10100000352E+00 0.  1.
</event>
<event>
 5   0  0.8681396E-05  0.1892949E+04  0.7818609E-02  0.8658374E-01
       -1   -1    0    0    0  501  0.00000000000E+00  0.00000000000E+00  0.53116259674E+03  0.53116259677E+03  0.50400001928E-02 0. -1.
        1   -1    0    0  501    0  0.00000000000E+00  0.00000000000E+00 -0.16865151837E+04  0.16865151837E+04  0.50400001928E-02 0.  1.
    10030    2    1    2    0    0  0.00000000000E+00  0.00000000000E+00 -0.11553525870E+04  0.22176777805E+04  0.18929487943E+04 0.  0.
        3    1    3    3  502    0 -0.46184420953E+03  0.53429913135E+03  0.16052651330E+03  0.72425438025E+03  0.10100000352E+00 0. -1.
       -3    1    3    3    0  502  0.46184420953E+03 -0.53429913135E+03 -0.13158791003E+04  0.14934234002E+04  0.10100000352E+00 0.  1.
</event>
<event>
 5   0  0.1658711E-04  0.1900739E+04  0.7818609E-02  0.8654489E-01
       -2   -1    0    0    0  501  0.00000000000E+00  0.00000000000E+00  0.49257710379E+03  0.49257710380E+03  0.25500000920E-02 0. -1.
        2   -1    0    0  501    0  0.00000000000E+00  0.00000000000E+00 -0.18336262802E+04  0.18336262802E+04  0.25500000920E-02 0.  1.
    10030    2    1    2    0    0  0.00000000000E+00  0.00000000000E+00 -0.13410491764E+04  0.23262033840E+04  0.19007391431E+04 0.  0.
        2    1    3    3  502    0  0.71361505272E+03 -0.19548924215E+03  0.59422557127E+02  0.74228938263E+03  0.25500000920E-02 0. -1.
       -2    1    3    3    0  502 -0.71361505272E+03  0.19548924215E+03 -0.14004717335E+04  0.15839140014E+04  0.25500000920E-02 0.  1.
</event>
<event>
 5   0  0.1810569E-04  0.1935044E+04  0.7818609E-02  0.8637607E-01
        2   -1    0    0  501    0  0.00000000000E+00  0.00000000000E+00  0.11976755917E+04  0.11976755917E+04  0.25500000920E-02 0. -1.
       -2   -1    0    0    0  501  0.00000000000E+00  0.00000000000E+00 -0.78159662538E+03  0.78159662539E+03  0.25500000920E-02 0.  1.
    10030    2    1    2    0    0  0.00000000000E+00  0.00000000000E+00  0.41607896629E+03  0.19792722171E+04  0.19350443930E+04 0.  0.
        4    1    3    3  502    0  0.44439021329E+03 -0.74505221087E+02 -0.66772133671E+03  0.80553527920E+03  0.12699999809E+01 0.  1.
       -4    1    3    3    0  502 -0.44439021329E+03  0.74505221087E+02  0.10838003030E+04  0.11737369379E+04  0.12699999809E+01 0. -1.
</event>
<event>
 5   0  0.1810569E-04  0.1902824E+04  0.7818609E-02  0.8653452E-01
       -2   -1    0    0    0  501  0.00000000000E+00  0.00000000000E+00  0.11948183072E+04  0.11948183072E+04  0.25500000920E-02 0. -1.
        2   -1    0    0  501    0  0.00000000000E+00  0.00000000000E+00 -0.75759165920E+03  0.75759165920E+03  0.25500000920E-02 0.  1.
    10030    2    1    2    0    0  0.00000000000E+00  0.00000000000E+00  0.43722664803E+03  0.19524099664E+04  0.19028235691E+04 0.  0.
        4    1    3    3  502    0 -0.74576245052E+03  0.16173968393E+02 -0.38733493574E+03  0.84050770086E+03  0.12699999809E+01 0.  1.
       -4    1    3    3    0  502  0.74576245052E+03 -0.16173968393E+02  0.82456158377E+03  0.11119022656E+04  0.12699999809E+01 0. -1.
</event>
<event>
 5   0  0.8567844E-05  0.1887848E+04  0.7818609E-02  0.8660929E-01
       -1   -1    0    0    0  501  0.00000000000E+00  0.00000000000E+00  0.80649152858E+03  0.80649152860E+03  0.50400001928E-02 0. -1.
        1   -1    0    0  501    0  0.00000000000E+00  0.00000000000E+00 -0.11047763904E+04  0.11047763904E+04  0.50400001928E-02 0.  1.
    10030    2    1    2    0    0  0.00000000000E+00  0.00000000000E+00 -0.29828486181E+03  0.19112679190E+04  0.18878482988E+04 0.  0.
        4    1    3    3  502    0  0.78327837353E+03 -0.11966901417E+03 -0.66848324451E+03  0.10366856537E+04  0.12699999809E+01 0.  1.
       -4    1    3    3    0  502 -0.78327837353E+03  0.11966901417E+03  0.37019838270E+03  0.87458226534E+03  0.12699999809E+01 0. -1.
</event>
<event>
 5   0  0.8681396E-05  0.1913300E+04  0.7818609E-02  0.8648264E-01
       -1   -1    0    0    0  501  0.00000000000E+00  0.00000000000E+00  0.15647649632E+04  0.15647649632E+04  0.50400001928E-02 0. -1.
        1   -1    0    0  501    0  0.00000000000E+00  0.00000000000E+00 -0.58486702382E+03  0.58486702385E+03  0.50400001928E-02 0.  1.
    10030    2    1    2    0    0  0.00000000000E+00  0.00000000000E+00  0.97989793934E+03  0.21496319870E+04  0.19133002138E+04 0.  0.
        3    1    3    3  502    0  0.75532653058E+03  0.40387130235E+03  0.11232697753E+02  0.85659580921E+03  0.10100000352E+00 0.  1.
       -3    1    3    3    0  502 -0.75532653058E+03 -0.40387130235E+03  0.96866524159E+03  0.12930361778E+04  0.10100000352E+00 0. -1.
</event>
<event>
 5   0  0.8905646E-05  0.1902026E+04  0.7818609E-02  0.8653848E-01
       -1   -1    0    0    0  501  0.00000000000E+00  0.00000000000E+00  0.72561300578E+03  0.72561300580E+03  0.50400001928E-02 0.  1.
        1   -1    0    0  501    0  0.00000000000E+00  0.00000000000E+00 -0.12464305009E+04  0.12464305009E+04  0.50400001928E-02 0. -1.
    10030    2    1    2    0    0  0.00000000000E+00  0.00000000000E+00 -0.52081749515E+03  0.19720435067E+04  0.19020264796E+04 0.  0.
        1    1    3    3  502    0 -0.45322096033E+03  0.57535634948E+03 -0.88935455944E+03  0.11521265990E+04  0.50400001928E-02 0. -1.
       -1    1    3    3    0  502  0.45322096033E+03 -0.57535634948E+03  0.36853706429E+03  0.81991690771E+03  0.50400001928E-02 0.  1.
</event>
<event>
 5   0  0.8567844E-05  0.1980206E+04  0.7818609E-02  0.8615931E-01
       -1   -1    0    0    0  501  0.00000000000E+00  0.00000000000E+00  0.79302425680E+03  0.79302425682E+03  0.50400001928E-02 0.  1.
        1   -1    0    0  501    0  0.00000000000E+00  0.00000000000E+00 -0.12361592234E+04  0.12361592234E+04  0.50400001928E-02 0. -1.
    10030    2    1    2    0    0  0.00000000000E+00  0.00000000000E+00 -0.44313496657E+03  0.20291834802E+04  0.19802063018E+04 0.  0.
        4    1    3    3  502    0  0.11441869756E+03 -0.92947263442E+03  0.10777171525E+03  0.94267034110E+03  0.12699999809E+01 0.  1.
       -4    1    3    3    0  502 -0.11441869756E+03  0.92947263442E+03 -0.55090668182E+03  0.10865131391E+04  0.12699999809E+01 0. -1.
</event>
<event>
 5   0  0.8905646E-05  0.1902147E+04  0.7818609E-02  0.8653788E-01
       -1   -1    0    0    0  501  0.00000000000E+00  0.00000000000E+00  0.37919530959E+03  0.37919530962E+03  0.50400001928E-02 0. -1.
        1   -1    0    0  501    0  0.00000000000E+00  0.00000000000E+00 -0.23854221956E+04  0.23854221956E+04  0.50400001928E-02 0.  1.
    10030    2    1    2    0    0  0.00000000000E+00  0.00000000000E+00 -0.20062268860E+04  0.27646175052E+04  0.19021471110E+04 0.  0.
        1    1    3    3  502    0 -0.47566319702E+03  0.32496360957E+03 -0.21030015550E+04  0.21804752613E+04  0.50400001928E-02 0.  1.
       -1    1    3    3    0  502  0.47566319702E+03 -0.32496360957E+03  0.96774669050E+02  0.58414224392E+03  0.50400001928E-02 0. -1.
</event>
<event>
 5   0  0.1658711E-04  0.1889514E+04  0.7818609E-02  0.8660094E-01
        2   -1    0    0  501    0  0.00000000000E+00  0.00000000000E+00  0.18593339087E+04  0.18593339087E+04  0.25500000920E-02 0.  1.
       -2   -1    0    0    0  501  0.00000000000E+00  0.00000000000E+00 -0.48004591373E+03  0.48004591374E+03  0.25500000920E-02 0. -1.
    10030    2    1    2    0    0  0.00000000000E+00  0.00000000000E+00  0.13792879949E+04  0.23393798224E+04  0.18895138477E+04 0.  0.
        2    1    3    3  502    0 -0.33686873115E+03 -0.86229194946E+03  0.92304101423E+03  0.13072997598E+04  0.25500000920E-02 0.  1.
       -2    1    3    3    0  502  0.33686873115E+03  0.86229194946E+03  0.45624698071E+03  0.10320800626E+04  0.25500000920E-02 0. -1.
</event>
<event>
 5   0  0.8567844E-05  0.1938783E+04  0.7818609E-02  0.8635789E-01
        1   -1    0    0  501    0  0.00000000000E+00  0.00000000000E+00  0.12506013767E+04  0.12506013767E+04  0.50400001928E-02 0.  1.
       -1   -1    0    0    0  501  0.00000000000E+00  0.00000000000E+00 -0.75141463626E+03  0.75141463627E+03  0.50400001928E-02 0. -1.
    10030    2    1    2    0    0  0.00000000000E+00  0.00000000000E+00  0.49918674043E+03  0.20020160130E+04  0.19387833077E+04 0.  0.
        4    1    3    3  502    0  0.33535552242E+03 -0.27064063597E+03  0.11462507077E+04  0.12245823689E+04  0.12699999809E+01 0.  1.
       -4    1    3    3    0  502 -0.33535552242E+03  0.27064063597E+03 -0.64706396732E+03  0.77743364409E+03  0.12699999809E+01 0. -1.
</event>
<event>
 5   0  0.1658711E-04  0.1904300E+04  0.7818609E-02  0.8652719E-01
       -2   -1    0    0    0  501  0.00000000000E+00  0.00000000000E+00  0.47915542980E+03  0.47915542981E+03  0.25500000920E-02 0. -1.
        2   -1    0    0  501    0  0.00000000000E+00  0.00000000000E+00 -0.18920567162E+04  0.18920567162E+04  0.25500000920E-02 0.  1.
    10030    2    1    2    0    0  0.00000000000E+00  0.00000000000E+00 -0.14129012864E+04  0.23712121460E+04  0.19042996078E+04 0.  0.
        2    1    3    3  502    0  0.62525917015E+03 -0.56465481618E+03 -0.15405102349E+03  0.85645537487E+03  0.25500000920E-02 0. -1.
       -2    1    3    3    0  502 -0.62525917015E+03  0.56465481618E+03 -0.12588502629E+04  0.15147567711E+04  0.25500000920E-02 0.  1.
</event>
<event>
 5   0  0.8905646E-05  0.1953280E+04  0.7818609E-02  0.8628781E-01
        1   -1    0    0  501    0  0.00000000000E+00  0.00000000000E+00  0.10108992688E+04  0.10108992688E+04  0.50400001928E-02 0.  1.
       -1   -1    0    0    0  501  0.00000000000E+00  0.00000000000E+00 -0.94354158879E+03  0.94354158880E+03  0.50400001928E-02 0. -1.
    10030    2    1    2    0    0  0.00000000000E+00  0.00000000000E+00  0.67357680005E+02  0.19544408576E+04  0.19532798081E+04 0.  0.
        1    1    3    3  502    0 -0.51250658514E+03  0.47360243391E+03 -0.65000121564E+03  0.95365813873E+03  0.50400001928E-02 0. -1.
       -1    1    3    3    0  502  0.51250658514E+03 -0.47360243391E+03  0.71735889565E+03  0.10007827189E+04  0.50400001928E-02 0.  1.
</event>
<event>
 5   0  0.8681396E-05  0.1966411E+04  0.7818609E-02  0.8622488E-01
       -1   -1    0    0    0  501  0.00000000000E+00  0.00000000000E+00  0.60632703960E+03  0.60632703962E+03  0.50400001928E-02 0. -1.
        1   -1    0    0  501    0  0.00000000000E+00  0.00000000000E+00 -0.15943428176E+04  0.15943428176E+04  0.50400001928E-02 0.  1.
    10030    2    1    2    0    0  0.00000000000E+00  0.00000000000E+00 -0.98801577796E+03  0.22006698572E+04  0.19664111073E+04 0.  0.
        3    1    3    3  502    0 -0.48587575845E+03 -0.49317946315E+03  0.28729555125E+03  0.74955985717E+03  0.10100000352E+00 0. -1.
       -3    1    3    3    0  502  0.48587575845E+03  0.49317946315E+03 -0.12753113292E+04  0.14511100000E+04  0.10100000352E+00 0.  1.
</event>
<event>
 5   0  0.1658711E-04  0.1893180E+04  0.7818609E-02  0.8658258E-01
       -2   -1    0    0    0  501  0.00000000000E+00  0.00000000000E+00  0.51794085453E+03  0.51794085454E+03  0.25500000920E-02 0.  1.
        2   -1    0    0  501    0  0.00000000000E+00  0.00000000000E+00 -0.17299907431E+04  0.17299907431E+04  0.25500000920E-02 0. -1.
    10030    2    1    2    0    0  0.00000000000E+00  0.00000000000E+00 -0.12120498885E+04  0.22479315976E+04  0.18931802701E+04 0.  0.
        2    1    3    3  502    0 -0.58965242098E+03  0.68322556308E+03 -0.26695308238E+03  0.94114350437E+03  0.25500000920E-02 0.  1.
       -2    1    3    3    0  502  0.58965242098E+03 -0.68322556308E+03 -0.94509680616E+03  0.13067880932E+04  0.25500000920E-02 0. -1.
</event>
<event>
 5   0  0.1799738E-04  0.1879305E+04  0.7818609E-02  0.8665227E-01
        2   -1    0    0  501    0  0.00000000000E+00  0.00000000000E+00  0.84337646349E+03  0.84337646349E+03  0.25500000920E-02 0.  1.
       -2   -1    0    0    0  501  0.00000000000E+00  0.00000000000E+00 -0.10469184995E+04  0.10469184995E+04  0.25500000920E-02 0. -1.
    10030    2    1    2    0    0  0.00000000000E+00  0.00000000000E+00 -0.20354203601E+03  0.18902949630E+04  0.18793045753E+04 0.  0.
        1    1    3    3  502    0 -0.46006132398E+03 -0.21387314534E+03 -0.89731248583E+03  0.10308093138E+04  0.50400001928E-02 0. -1.
       -1    1    3    3    0  502  0.46006132398E+03  0.21387314534E+03  0.69377044982E+03  0.85948564921E+03  0.50400001928E-02 0.  1.
</event>
<event>
 5   0  0.1790832E-04  0.1874836E+04  0.7818609E-02  0.8667485E-01
        2   -1    0    0  501    0  0.00000000000E+00  0.00000000000E+00  0.70037773151E+03  0.70037773151E+03  0.25500000920E-02 0. -1.
       -2   -1    0    0    0  501  0.00000000000E+00  0.00000000000E+00 -0.12546830540E+04  0.12546830540E+04  0.25500000920E-02 0.  1.
    10030    2    1    2    0    0  0.00000000000E+00  0.00000000000E+00 -0.55430532248E+03  0.19550607855E+04  0.18748355353E+04 0.  0.
        5    1    3    3  502    0 -0.64173801539E+03 -0.48117884345E+03  0.22875577739E+03  0.83409355319E+03  0.46999998093E+01 0. -1.
       -5    1    3    3    0  502  0.64173801539E+03  0.48117884345E+03 -0.78306109987E+03  0.11209672323E+04  0.46999998093E+01 0.  1.
</event>
<event>
 5   0  0.8567844E-05  0.1623796E+04  0.7818609E-02  0.8806061E-01
       -1   -1    0    0    0  501  0.00000000000E+00  0.00000000000E+00  0.36878094457E+03  0.36878094461E+03  0.50400001928E-02 0. -1.
        1   -1    0    0  501    0  0.00000000000E+00  0.00000000000E+00 -0.17874532473E+04  0.17874532473E+04  0.50400001928E-02 0.  1.
    10030    2    1    2    0    0  0.00000000000E+00  0.00000000000E+00 -0.14186723027E+04  0.21562341919E+04  0.16237964121E+04 0.  0.
        4    1    3    3  502    0  0.61484942824E+03  0.52447760350E+03 -0.60596035502E+03  0.10101020447E+04  0.12699999809E+01 0. -1.
       -4    1    3    3    0  502 -0.61484942824E+03 -0.52447760350E+03 -0.81271194769E+03  0.11461321472E+04  0.12699999809E+01 0.  1.
</event>
<event>
 5   0  0.8905646E-05  0.1900624E+04  0.7818609E-02  0.8654546E-01
       -1   -1    0    0    0  501  0.00000000000E+00  0.00000000000E+00  0.56311736552E+03  0.56311736554E+03  0.50400001928E-02 0. -1.
        1   -1    0    0  501    0  0.00000000000E+00  0.00000000000E+00 -0.16037379097E+04  0.16037379097E+04  0.50400001928E-02 0.  1.
    10030    2    1    2    0    0  0.00000000000E+00  0.00000000000E+00 -0.10406205442E+04  0.21668552752E+04  0.19006237573E+04 0.  0.
        1    1    3    3  502    0  0.76263495399E+03  0.22645022164E+03 -0.11129314131E+04  0.13680307402E+04  0.50400001928E-02 0.  1.
       -1    1    3    3    0  502 -0.76263495399E+03 -0.22645022164E+03  0.72310868938E+02  0.79882453500E+03  0.50400001928E-02 0. -1.
</event>
<event>
 5   0  0.8681396E-05  0.1848544E+04  0.7818609E-02  0.8680902E-01
       -1   -1    0    0    0  501  0.00000000000E+00  0.00000000000E+00  0.83668352456E+03  0.83668352458E+03  0.50400001928E-02 0. -1.
        1   -1    0    0  501    0  0.00000000000E+00  0.00000000000E+00 -0.10210293403E+04  0.10210293403E+04  0.50400001928E-02 0.  1.
    10030    2    1    2    0    0  0.00000000000E+00  0.00000000000E+00 -0.18434581573E+03  0.18577128649E+04  0.18485436723E+04 0.  0.
        3    1    3    3  502    0  0.43736526761E+02 -0.62738988630E+03  0.58849568400E+03  0.86131186773E+03  0.10100000352E+00 0. -1.
       -3    1    3    3    0  502 -0.43736526761E+02  0.62738988630E+03 -0.77284149973E+03  0.99640099715E+03  0.10100000352E+00 0.  1.
</event>
<event>
 5   0  0.1765328E-04  0.1889100E+04  0.7818609E-02  0.8660301E-01
        2   -1    0    0  501    0  0.00000000000E+00  0.00000000000E+00  0.99093466417E+03  0.99093466418E+03  0.25500000920E-02 0.  1.
       -2   -1    0    0    0  501  0.00000000000E+00  0.00000000000E+00 -0.90033619198E+03  0.90033619199E+03  0.25500000920E-02 0. -1.
    10030    2    1    2    0    0  0.00000000000E+00  0.00000000000E+00  0.90598472189E+02  0.18912708562E+04  0.18890996184E+04 0.  0.
        3    1    3    3  502    0 -0.40900555803E+03  0.33895970172E+03  0.82721873850E+03  0.98309210017E+03  0.10100000352E+00 0.  1.
       -3    1    3    3    0  502  0.40900555803E+03 -0.33895970172E+03 -0.73662026631E+03  0.90817875599E+03  0.10100000352E+00 0. -1.
</event>
<event>
 5   0  0.1658711E-04  0.1902303E+04  0.7818609E-02  0.8653711E-01
       -2   -1    0    0    0  501  0.00000000000E+00  0.00000000000E+00  0.11072289334E+04  0.11072289334E+04  0.25500000920E-02 0. -1.
        2   -1    0    0  501    0  0.00000000000E+00  0.00000000000E+00 -0.81707526897E+03  0.81707526898E+03  0.25500000920E-02 0.  1.
    10030    2    1    2    0    0  0.00000000000E+00  0.00000000000E+00  0.29015366444E+03  0.19243042024E+04  0.19023032130E+04 0.  0.
        2    1    3    3  502    0 -0.22602978006E+03 -0.17557994977E+03 -0.77248139297E+03  0.82379929760E+03  0.25500000920E-02 0.  1.
       -2    1    3    3    0  502  0.22602978006E+03  0.17557994977E+03  0.10626350574E+04  0.11005049048E+04  0.25500000920E-02 0. -1.
</event>
<event>
 5   0  0.8602017E-05  0.1878767E+04  0.7818609E-02  0.8665498E-01
       -1   -1    0    0    0  501  0.00000000000E+00  0.00000000000E+00  0.79689473068E+03  0.79689473070E+03  0.50400001928E-02 0.  1.
        1   -1    0    0  501    0  0.00000000000E+00  0.00000000000E+00 -0.11073500164E+04  0.11073500164E+04  0.50400001928E-02 0. -1.
    10030    2    1    2    0    0  0.00000000000E+00  0.00000000000E+00 -0.31045528570E+03  0.19042447471E+04  0.18787670352E+04 0.  0.
        2    1    3    3  502    0 -0.44766896434E+03 -0.72960157407E+03 -0.54740554806E+03  0.10160604276E+04  0.25500000920E-02 0. -1.
       -2    1    3    3    0  502  0.44766896434E+03  0.72960157407E+03  0.23695026236E+03  0.88818431947E+03  0.25500000920E-02 0.  1.
</event>
<event>
 5   0  0.8602017E-05  0.1902989E+04  0.7818609E-02  0.8653370E-01
        1   -1    0    0  501    0  0.00000000000E+00  0.00000000000E+00  0.11124698923E+04  0.11124698923E+04  0.50400001928E-02 0. -1.
       -1   -1    0    0    0  501  0.00000000000E+00  0.00000000000E+00 -0.81381235976E+03  0.81381235977E+03  0.50400001928E-02 0.  1.
    10030    2    1    2    0    0  0.00000000000E+00  0.00000000000E+00  0.29865753258E+03  0.19262822521E+04  0.19029889629E+04 0.  0.
        2    1    3    3  502    0 -0.59642717393E+01 -0.45189882822E+03  0.99689112869E+03  0.10945501569E+04  0.25500000920E-02 0. -1.
       -2    1    3    3    0  502  0.59642717393E+01  0.45189882822E+03 -0.69823359612E+03  0.83173209523E+03  0.25500000920E-02 0.  1.
</event>
<event>
 5   0  0.1810569E-04  0.1963060E+04  0.7818609E-02  0.8624089E-01
       -2   -1    0    0    0  501  0.00000000000E+00  0.00000000000E+00  0.56980413216E+03  0.56980413216E+03  0.25500000920E-02 0.  1.
        2   -1    0    0  501    0  0.00000000000E+00  0.00000000000E+00 -0.16907577345E+04  0.16907577345E+04  0.25500000920E-02 0. -1.
    10030    2    1    2    0    0  0.00000000000E+00  0.00000000000E+00 -0.11209536023E+04  0.22605618667E+04  0.19630595952E+04 0.  0.
        4    1    3    3  502    0 -0.39159233792E+02  0.92033553787E+03 -0.17022494536E+03  0.93676522821E+03  0.12699999809E+01 0.  1.
       -4    1    3    3    0  502  0.39159233792E+02 -0.92033553787E+03 -0.95072865698E+03  0.13237966384E+04  0.12699999809E+01 0. -1.
</event>
<event>
 5   0  0.8681396E-05  0.1888942E+04  0.7818609E-02  0.8660380E-01
        1   -1    0    0  501    0  0.00000000000E+00  0.00000000000E+00  0.14280255222E+04  0.14280255222E+04  0.50400001928E-02 0. -1.
       -1   -1    0    0    0  501  0.00000000000E+00  0.00000000000E+00 -0.62465680215E+03  0.62465680217E+03  0.50400001928E-02 0.  1.
    10030    2    1    2    0    0  0.00000000000E+00  0.00000000000E+00  0.80336872008E+03  0.20526823244E+04  0.18889424090E+04 0.  0.
        3    1    3    3  502    0  0.75751827772E+03 -0.26557850753E+03 -0.13910847095E+03  0.81468832177E+03  0.10100000352E+00 0.  1.
       -3    1    3    3    0  502 -0.75751827772E+03  0.26557850753E+03  0.94247719103E+03  0.12379940026E+04  0.10100000352E+00 0. -1.
</event>
<event>
 5   0  0.1799738E-04  0.1897545E+04  0.7818609E-02  0.8656079E-01
       -2   -1    0    0    0  501  0.00000000000E+00  0.00000000000E+00  0.72955457215E+03  0.72955457216E+03  0.25500000920E-02 0.  1.
        2   -1    0    0  501    0  0.00000000000E+00  0.00000000000E+00 -0.12338611498E+04  0.12338611498E+04  0.25500000920E-02 0. -1.
    10030    2    1    2    0    0  0.00000000000E+00  0.00000000000E+00 -0.50430657767E+03  0.19634157220E+04  0.18975447750E+04 0.  0.
        1    1    3    3  502    0 -0.14943306284E+03  0.88657932143E+03  0.61376783620E+02  0.90117714299E+03  0.50400001928E-02 0. -1.
       -1    1    3    3    0  502  0.14943306284E+03 -0.88657932143E+03 -0.56568336129E+03  0.10622385790E+04  0.50400001928E-02 0.  1.
</event>
<event>
 5   0  0.8602017E-05  0.1895548E+04  0.7818609E-02  0.8657075E-01
        1   -1    0    0  501    0  0.00000000000E+00  0.00000000000E+00  0.14886388705E+04  0.14886388705E+04  0.50400001928E-02 0. -1.
       -1   -1    0    0    0  501  0.00000000000E+00  0.00000000000E+00 -0.60342096785E+03  0.60342096788E+03  0.50400001928E-02 0.  1.
    10030    2    1    2    0    0  0.00000000000E+00  0.00000000000E+00  0.88521790265E+03  0.20920598384E+04  0.18955483724E+04 0.  0.
        2    1    3    3  502    0 -0.17994968149E+03 -0.61823248515E+03  0.12101815620E+04  0.13708146142E+04  0.25500000920E-02 0. -1.
       -2    1    3    3    0  502  0.17994968149E+03  0.61823248515E+03 -0.32496365930E+03  0.72124522420E+03  0.25500000920E-02 0.  1.
</event>
<event>
 5   0  0.8567844E-05  0.1914501E+04  0.7818609E-02  0.8647672E-01
        1   -1    0    0  501    0  0.00000000000E+00  0.00000000000E+00  0.95388782157E+03  0.95388782159E+03  0.50400001928E-02 0.  1.
       -1   -1    0    0    0  501  0.00000000000E+00  0.00000000000E+00 -0.96062499007E+03  0.96062499009E+03  0.50400001928E-02 0. -1.
    10030    2    1    2    0    0  0.00000000000E+00  0.00000000000E+00 -0.67371685014E+01  0.19145128117E+04  0.19145009576E+04 0.  0.
        4    1    3    3  502    0  0.13325607222E+03  0.29564520193E+03  0.89728320479E+03  0.95408701317E+03  0.12699999809E+01 0.  1.
       -4    1    3    3    0  502 -0.13325607222E+03 -0.29564520193E+03 -0.90402037329E+03  0.96042579850E+03  0.12699999809E+01 0. -1.
</event>
<event>
 5   0  0.1810569E-04  0.1896505E+04  0.7818609E-02  0.8656598E-01
        2   -1    0    0  501    0  0.00000000000E+00  0.00000000000E+00  0.16889371148E+04  0.16889371148E+04  0.25500000920E-02 0. -1.
       -2   -1    0    0    0  501  0.00000000000E+00  0.00000000000E+00 -0.53239539776E+03  0.53239539777E+03  0.25500000920E-02 0.  1.
    10030    2    1    2    0    0  0.00000000000E+00  0.00000000000E+00  0.11565417170E+04  0.22213325126E+04  0.18965045184E+04 0.  0.
        4    1    3    3  502    0 -0.39466440987E+03  0.85378897520E+03  0.71914158850E+03  0.11840109154E+04  0.12699999809E+01 0. -1.
       -4    1    3    3    0  502  0.39466440987E+03 -0.85378897520E+03  0.43740012854E+03  0.10373215972E+04  0.12699999809E+01 0.  1.
</event>
<event>
 5   0  0.1658711E-04  0.1916075E+04  0.7818609E-02  0.8646896E-01
        2   -1    0    0  501    0  0.00000000000E+00  0.00000000000E+00  0.75901644061E+03  0.75901644062E+03  0.25500000920E-02 0. -1.
       -2   -1    0    0    0  501  0.00000000000E+00  0.00000000000E+00 -0.12092436520E+04  0.12092436520E+04  0.25500000920E-02 0.  1.
    10030    2    1    2    0    0  0.00000000000E+00  0.00000000000E+00 -0.45022721140E+03  0.19682600926E+04  0.19160749595E+04 0.  0.
        2    1    3    3  502    0  0.53157313277E+03  0.74221456098E+03 -0.52351332175E+03  0.10523871189E+04  0.25500000920E-02 0.  1.
       -2    1    3    3    0  502 -0.53157313277E+03 -0.74221456098E+03  0.73286110348E+02  0.91587297372E+03  0.25500000920E-02 0. -1.
</event>
<event>
 5   0  0.8587082E-05  0.1864883E+04  0.7818609E-02  0.8672536E-01
       -1   -1    0    0    0  501  0.00000000000E+00  0.00000000000E+00  0.66257562566E+03  0.66257562568E+03  0.50400001928E-02 0. -1.
        1   -1    0    0  501    0  0.00000000000E+00  0.00000000000E+00 -0.13122237858E+04  0.13122237858E+04  0.50400001928E-02 0.  1.
    10030    2    1    2    0    0  0.00000000000E+00  0.00000000000E+00 -0.64964816014E+03  0.19747994115E+04  0.18648833700E+04 0.  0.
        5    1    3    3  502    0 -0.35063829342E+03 -0.35555549792E+03 -0.11586735154E+04  0.12617104779E+04  0.46999998093E+01 0.  1.
       -5    1    3    3    0  502  0.35063829342E+03  0.35555549792E+03  0.50902535522E+03  0.71308893357E+03  0.46999998093E+01 0. -1.
</event>
<event>
 5   0  0.1790832E-04  0.1888959E+04  0.7818609E-02  0.8660372E-01
        2   -1    0    0  501    0  0.00000000000E+00  0.00000000000E+00  0.77654495805E+03  0.77654495805E+03  0.25500000920E-02 0. -1.
       -2   -1    0    0    0  501  0.00000000000E+00  0.00000000000E+00 -0.11487313321E+04  0.11487313321E+04  0.25500000920E-02 0.  1.
    10030    2    1    2    0    0  0.00000000000E+00  0.00000000000E+00 -0.37218637403E+03  0.19252762901E+04  0.18889589981E+04 0.  0.
        5    1    3    3  502    0 -0.11233486447E+03  0.86827373885E+03 -0.54716548564E+03  0.10324391343E+04  0.46999998093E+01 0.  1.
       -5    1    3    3    0  502  0.11233486447E+03 -0.86827373885E+03  0.17497911161E+03  0.89283715584E+03  0.46999998093E+01 0. -1.
</event>
<event>
 5   0  0.1658711E-04  0.1913566E+04  0.7818609E-02  0.8648133E-01
       -2   -1    0    0    0  501  0.00000000000E+00  0.00000000000E+00  0.10105906288E+04  0.10105906288E+04  0.25500000920E-02 0.  1.
        2   -1    0    0  501    0  0.00000000000E+00  0.00000000000E+00 -0.90584051261E+03  0.90584051261E+03  0.25500000920E-02 0. -1.
    10030    2    1    2    0    0  0.00000000000E+00  0.00000000000E+00  0.10475011624E+03  0.19164311415E+04  0.19135662343E+04 0.  0.
        2    1    3    3  502    0 -0.34747727737E+03 -0.64989523239E+03 -0.55872670725E+03  0.92481338916E+03  0.25500000920E-02 0. -1.
       -2    1    3    3    0  502  0.34747727737E+03  0.64989523239E+03  0.66347682348E+03  0.99161775230E+03  0.25500000920E-02 0.  1.
</event>
<event>
 5   0  0.6375750E-05  0.1935650E+04  0.7818609E-02  0.8637312E-01
       -4   -1    0    0    0  501  0.00000000000E+00  0.00000000000E+00  0.17387317783E+04  0.17387322421E+04  0.12699999809E+01 0. -1.
        4   -1    0    0  501    0  0.00000000000E+00  0.00000000000E+00 -0.53871635647E+03  0.53871785345E+03  0.12699999809E+01 0.  1.
    10030    2    1    2    0    0  0.00000000000E+00  0.00000000000E+00  0.12000154219E+04  0.22774500956E+04  0.19356502590E+04 0.  0.
        2    1    3    3  502    0 -0.79760646577E+03  0.52461733892E+03  0.41291256659E+03  0.10401424009E+04  0.25500000920E-02 0.  1.
       -2    1    3    3    0  502  0.79760646577E+03 -0.52461733892E+03  0.78710285527E+03  0.12373076947E+04  0.25500000920E-02 0. -1.
</event>
<event>
 5   0  0.8681396E-05  0.1912972E+04  0.7818609E-02  0.8648426E-01
        1   -1    0    0  501    0  0.00000000000E+00  0.00000000000E+00  0.88265330769E+03  0.88265330770E+03  0.50400001928E-02 0.  1.
       -1   -1    0    0    0  501  0.00000000000E+00  0.00000000000E+00 -0.10364945389E+04  0.10364945389E+04  0.50400001928E-02 0. -1.
    10030    2    1    2    0    0  0.00000000000E+00  0.00000000000E+00 -0.15384123117E+03  0.19191478466E+04  0.19129718588E+04 0.  0.
        3    1    3    3  502    0 -0.46924684613E+03 -0.57346982715E+03  0.52985024552E+03  0.91093443130E+03  0.10100000352E+00 0.  1.
       -3    1    3    3    0  502  0.46924684613E+03  0.57346982715E+03 -0.68369147669E+03  0.10082134153E+04  0.10100000352E+00 0. -1.
</event>
<event>
 5   0  0.1799738E-04  0.1884163E+04  0.7818609E-02  0.8662780E-01
        2   -1    0    0  501    0  0.00000000000E+00  0.00000000000E+00  0.11152941465E+04  0.11152941465E+04  0.25500000920E-02 0. -1.
       -2   -1    0    0    0  501  0.00000000000E+00  0.00000000000E+00 -0.79576998128E+03  0.79576998128E+03  0.25500000920E-02 0.  1.
    10030    2    1    2    0    0  0.00000000000E+00  0.00000000000E+00  0.31952416526E+03  0.19110641278E+04  0.18841630525E+04 0.  0.
        1    1    3    3  502    0 -0.53849670067E+03 -0.76731180950E+03  0.64768662417E+02  0.93964945021E+03  0.50400001928E-02 0.  1.
       -1    1    3    3    0  502  0.53849670067E+03  0.76731180950E+03  0.25475550285E+03  0.97141467761E+03  0.50400001928E-02 0. -1.
</event>
<event>
 5   0  0.8681396E-05  0.1908240E+04  0.7818609E-02  0.8650766E-01
       -1   -1    0    0    0  501  0.00000000000E+00  0.00000000000E+00  0.13397417282E+04  0.13397417282E+04  0.50400001928E-02 0.  1.
        1   -1    0    0  501    0  0.00000000000E+00  0.00000000000E+00 -0.67949260195E+03  0.67949260197E+03  0.50400001928E-02 0. -1.
    10030    2    1    2    0    0  0.00000000000E+00  0.00000000000E+00  0.66024912628E+03  0.20192343302E+04  0.19082396001E+04 0.  0.
        3    1    3    3  502    0 -0.94215931106E+03 -0.22355345104E+02  0.17253008773E+03  0.95808693251E+03  0.10100000352E+00 0.  1.
       -3    1    3    3    0  502  0.94215931106E+03  0.22355345104E+02  0.48771903856E+03  0.10611473977E+04  0.10100000352E+00 0. -1.
</event>
<event>
 5   0  0.1658711E-04  0.1894089E+04  0.7818609E-02  0.8657804E-01
       -2   -1    0    0    0  501  0.00000000000E+00  0.00000000000E+00  0.53887039128E+03  0.53887039129E+03  0.25500000920E-02 0. -1.
        2   -1    0    0  501    0  0.00000000000E+00  0.00000000000E+00 -0.16643953442E+04  0.16643953442E+04  0.25500000920E-02 0.  1.
    10030    2    1    2    0    0  0.00000000000E+00  0.00000000000E+00 -0.11255249529E+04  0.22032657355E+04  0.18940890902E+04 0.  0.
        2    1    3    3  502    0 -0.29554814981E+03  0.23548429889E+03  0.44737059248E+03  0.58561250917E+03  0.25500000920E-02 0. -1.
       -2    1    3    3    0  502  0.29554814981E+03 -0.23548429889E+03 -0.15728955454E+04  0.16176532263E+04  0.25500000920E-02 0.  1.
</event>
<event>
 5   0  0.1765328E-04  0.1919239E+04  0.7818609E-02  0.8645339E-01
       -2   -1    0    0    0  501  0.00000000000E+00  0.00000000000E+00  0.58344406710E+03  0.58344406710E+03  0.25500000920E-02 0. -1.
        2   -1    0    0  501    0  0.00000000000E+00  0.00000000000E+00 -0.15783342616E+04  0.15783342616E+04  0.25500000920E-02 0.  1.
    10030    2    1    2    0    0  0.00000000000E+00  0.00000000000E+00 -0.99489019446E+03  0.21617783287E+04  0.19192391834E+04 0.  0.
        3    1    3    3  502    0 -0.41437213270E+03  0.46146608525E+03  0.32736002545E+03  0.70129865867E+03  0.10100000352E+00 0. -1.
       -3    1    3    3    0  502  0.41437213270E+03 -0.46146608525E+03 -0.13222502199E+04  0.14604796700E+04  0.10100000352E+00 0.  1.
</event>
<event>
 5   0  0.1799738E-04  0.1846476E+04  0.7818609E-02  0.8681967E-01
        2   -1    0    0  501    0  0.00000000000E+00  0.00000000000E+00  0.13018561917E+04  0.13018561917E+04  0.25500000920E-02 0. -1.
       -2   -1    0    0    0  501  0.00000000000E+00  0.00000000000E+00 -0.65473344476E+03  0.65473344476E+03  0.25500000920E-02 0.  1.
    10030    2    1    2    0    0  0.00000000000E+00  0.00000000000E+00  0.64712274698E+03  0.19565896365E+04  0.18464764163E+04 0.  0.
        1    1    3    3  502    0 -0.15025989117E+03 -0.79222621489E+03 -0.15288343349E+03  0.82071539203E+03  0.50400001928E-02 0.  1.
       -1    1    3    3    0  502  0.15025989117E+03  0.79222621489E+03  0.80000618047E+03  0.11358742445E+04  0.50400001928E-02 0. -1.
</event>
<event>
 5   0  0.1790832E-04  0.1909276E+04  0.7818609E-02  0.8650253E-01
        2   -1    0    0  501    0  0.00000000000E+00  0.00000000000E+00  0.83386983022E+03  0.83386983022E+03  0.25500000920E-02 0.  1.
       -2   -1    0    0    0  501  0.00000000000E+00  0.00000000000E+00 -0.10928967683E+04  0.10928967683E+04  0.25500000920E-02 0. -1.
    10030    2    1    2    0    0  0.00000000000E+00  0.00000000000E+00 -0.25902693812E+03  0.19267665986E+04  0.19092759284E+04 0.  0.
        5    1    3    3  502    0  0.73393732305E+03  0.58817159094E+03 -0.29441708466E+03  0.98555229404E+03  0.46999998093E+01 0. -1.
       -5    1    3    3    0  502 -0.73393732305E+03 -0.58817159094E+03  0.35390146547E+02  0.94121430451E+03  0.46999998093E+01 0.  1.
</event>
<event>
 5   0  0.8567844E-05  0.1897134E+04  0.7818609E-02  0.8656284E-01
       -1   -1    0    0    0  501  0.00000000000E+00  0.00000000000E+00  0.59799158146E+03  0.59799158149E+03  0.50400001928E-02 0. -1.
        1   -1    0    0  501    0  0.00000000000E+00  0.00000000000E+00 -0.15046695373E+04  0.15046695373E+04  0.50400001928E-02 0.  1.
    10030    2    1    2    0    0  0.00000000000E+00  0.00000000000E+00 -0.90667795582E+03  0.21026611188E+04  0.18971343824E+04 0.  0.
        4    1    3    3  502    0  0.48314169468E+03  0.73564344817E+03 -0.84547818323E+03  0.12204229395E+04  0.12699999809E+01 0. -1.
       -4    1    3    3    0  502 -0.48314169468E+03 -0.73564344817E+03 -0.61199772591E+02  0.88223817931E+03  0.12699999809E+01 0.  1.
</event>
<event>
 5   0  0.8587082E-05  0.1797390E+04  0.7818609E-02  0.8707689E-01
        1   -1    0    0  501    0  0.00000000000E+00  0.00000000000E+00  0.20191157201E+04  0.20191157201E+04  0.50400001928E-02 0.  1.
       -1   -1    0    0    0  501  0.00000000000E+00  0.00000000000E+00 -0.40000330498E+03  0.40000330501E+03  0.50400001928E-02 0. -1.
    10030    2    1    2    0    0  0.00000000000E+00  0.00000000000E+00  0.16191124151E+04  0.24191190251E+04  0.17973902873E+04 0.  0.
        5    1    3    3  502    0  0.40321619546E+02  0.30455105207E+03  0.19462326556E+04  0.19703352040E+04  0.46999998093E+01 0.  1.
       -5    1    3    3    0  502 -0.40321619546E+02 -0.30455105207E+03 -0.32712024052E+03  0.44878382109E+03  0.46999998093E+01 0. -1.
</event>
<event>
 5   0  0.1810569E-04  0.1894102E+04  0.7818609E-02  0.8657798E-01
        2   -1    0    0  501    0  0.00000000000E+00  0.00000000000E+00  0.98971895432E+03  0.98971895432E+03  0.25500000920E-02 0.  1.
       -2   -1    0    0    0  501  0.00000000000E+00  0.00000000000E+00 -0.90622232135E+03  0.90622232136E+03  0.25500000920E-02 0. -1.
    10030    2    1    2    0    0  0.00000000000E+00  0.00000000000E+00  0.83496632967E+02  0.18959412757E+04  0.18941018011E+04 0.  0.
        4    1    3    3  502    0 -0.76130655176E+03 -0.49452057902E+02 -0.51992997188E+03  0.92323450994E+03  0.12699999809E+01 0. -1.
       -4    1    3    3    0  502  0.76130655176E+03  0.49452057902E+02  0.60342660484E+03  0.97270676574E+03  0.12699999809E+01 0.  1.
</event>
<event>
 5   0  0.8567844E-05  0.1895022E+04  0.7818609E-02  0.8657338E-01
       -1   -1    0    0    0  501  0.00000000000E+00  0.00000000000E+00  0.86500048125E+03  0.86500048127E+03  0.50400001928E-02 0.  1.
        1   -1    0    0  501    0  0.00000000000E+00  0.00000000000E+00 -0.10378919961E+04  0.10378919961E+04  0.50400001928E-02 0. -1.
    10030    2    1    2    0    0  0.00000000000E+00  0.00000000000E+00 -0.17289151482E+03  0.19028924774E+04  0.18950219799E+04 0.  0.
        4    1    3    3  502    0  0.33261717683E+03  0.11829846421E+03  0.79649378071E+03  0.87122480943E+03  0.12699999809E+01 0.  1.
       -4    1    3    3    0  502 -0.33261717683E+03 -0.11829846421E+03 -0.96938529552E+03  0.10316676679E+04  0.12699999809E+01 0. -1.
</event>
<event>
 5   0  0.8905646E-05  0.1837808E+04  0.7818609E-02  0.8686448E-01
        1   -1    0    0  501    0  0.00000000000E+00  0.00000000000E+00  0.10674847464E+04  0.10674847465E+04  0.50400001928E-02 0. -1.
       -1   -1    0    0    0  501  0.00000000000E+00  0.00000000000E+00 -0.79100350176E+03  0.79100350178E+03  0.50400001928E-02 0.  1.
    10030    2    1    2    0    0  0.00000000000E+00  0.00000000000E+00  0.27648124469E+03  0.18584882482E+04  0.18378075770E+04 0.  0.
        1    1    3    3  502    0  0.75989920859E+02 -0.20732418422E+03 -0.76377564655E+03  0.79505410113E+03  0.50400001928E-02 0.  1.
       -1    1    3    3    0  502 -0.75989920859E+02  0.20732418422E+03  0.10402568912E+04  0.10634341471E+04  0.50400001928E-02 0. -1.
</event>
<event>
 5   0  0.1799738E-04  0.1907447E+04  0.7818609E-02  0.8651159E-01
       -2   -1    0    0    0  501  0.00000000000E+00  0.00000000000E+00  0.49271029452E+03  0.49271029452E+03  0.25500000920E-02 0.  1.
        2   -1    0    0  501    0  0.00000000000E+00  0.00000000000E+00 -0.18460911947E+04  0.18460911947E+04  0.25500000920E-02 0. -1.
    10030    2    1    2    0    0  0.00000000000E+00  0.00000000000E+00 -0.13533809002E+04  0.23388014892E+04  0.19074466035E+04 0.  0.
        1    1    3    3  502    0  0.12380505059E+03 -0.87185712135E+03 -0.11257426418E+04  0.14292512117E+04  0.50400001928E-02 0. -1.
       -1    1    3    3    0  502 -0.12380505059E+03  0.87185712135E+03 -0.22763825836E+03  0.90955027749E+03  0.50400001928E-02 0.  1.
</event>
<event>
 5   0  0.8587082E-05  0.1888134E+04  0.7818609E-02  0.8660785E-01
       -1   -1    0    0    0  501  0.00000000000E+00  0.00000000000E+00  0.51123793428E+03  0.51123793431E+03  0.50400001928E-02 0.  1.
        1   -1    0    0  501    0  0.00000000000E+00  0.00000000000E+00 -0.17433421219E+04  0.17433421219E+04  0.50400001928E-02 0. -1.
    10030    2    1    2    0    0  0.00000000000E+00  0.00000000000E+00 -0.12321041876E+04  0.22545800562E+04  0.18881341321E+04 0.  0.
        5    1    3    3  502    0 -0.67657933346E+03  0.53158723241E+03 -0.10798957453E+04  0.13807756845E+04  0.46999998093E+01 0. -1.
       -5    1    3    3    0  502  0.67657933346E+03 -0.53158723241E+03 -0.15220844231E+03  0.87380437172E+03  0.46999998093E+01 0.  1.
</event>
<event>
 5   0  0.1810569E-04  0.1901197E+04  0.7818609E-02  0.8654261E-01
        2   -1    0    0  501    0  0.00000000000E+00  0.00000000000E+00  0.12340407040E+04  0.12340407040E+04  0.25500000920E-02 0.  1.
       -2   -1    0    0    0  501  0.00000000000E+00  0.00000000000E+00 -0.73225871922E+03  0.73225871922E+03  0.25500000920E-02 0. -1.
    10030    2    1    2    0    0  0.00000000000E+00  0.00000000000E+00  0.50178198475E+03  0.19662994232E+04  0.19011965341E+04 0.  0.
        4    1    3    3  502    0 -0.60580577003E+03  0.59837836660E+03  0.68794670376E+03  0.10946824109E+04  0.12699999809E+01 0.  1.
       -4    1    3    3    0  502  0.60580577003E+03 -0.59837836660E+03 -0.18616471901E+03  0.87161701229E+03  0.12699999809E+01 0. -1.
</event>
<event>
 5   0  0.1799738E-04  0.1886220E+04  0.7818609E-02  0.8661746E-01
        2   -1    0    0  501    0  0.00000000000E+00  0.00000000000E+00  0.84473475219E+03  0.84473475219E+03  0.25500000920E-02 0. -1.
       -2   -1    0    0    0  501  0.00000000000E+00  0.00000000000E+00 -0.10529414697E+04  0.10529414697E+04  0.25500000920E-02 0.  1.
    10030    2    1    2    0    0  0.00000000000E+00  0.00000000000E+00 -0.20820671751E+03  0.18976762219E+04  0.18862197661E+04 0.  0.
        1    1    3    3  502    0 -0.24353077426E+02  0.15913440699E+02  0.84428323910E+03  0.84478429070E+03  0.50400001928E-02 0. -1.
       -1    1    3    3    0  502  0.24353077426E+02 -0.15913440699E+02 -0.10524899566E+04  0.10528919312E+04  0.50400001928E-02 0.  1.
</event>
<event>
 5   0  0.1765328E-04  0.1891887E+04  0.7818609E-02  0.8658905E-01
        2   -1    0    0  501    0  0.00000000000E+00  0.00000000000E+00  0.11516113690E+04  0.11516113690E+04  0.25500000920E-02 0. -1.
       -2   -1    0    0    0  501  0.00000000000E+00  0.00000000000E+00 -0.77700584424E+03  0.77700584425E+03  0.25500000920E-02 0.  1.
    10030    2    1    2    0    0  0.00000000000E+00  0.00000000000E+00  0.37460552475E+03  0.19286172132E+04  0.18918866393E+04 0.  0.
        3    1    3    3  502    0  0.37429288800E+03  0.70988066758E+03  0.69780775910E+03  0.10634666930E+04  0.10100000352E+00 0. -1.
       -3    1    3    3    0  502 -0.37429288800E+03 -0.70988066758E+03 -0.32320223435E+03  0.86515052026E+03  0.10100000352E+00 0.  1.
</event>
<event>
 5   0  0.1658711E-04  0.1905690E+04  0.7818609E-02  0.8652030E-01
       -2   -1    0    0    0  501  0.00000000000E+00  0.00000000000E+00  0.11188813032E+04  0.11188813032E+04  0.25500000920E-02 0. -1.
        2   -1    0    0  501    0  0.00000000000E+00  0.00000000000E+00 -0.81144724291E+03  0.81144724292E+03  0.25500000920E-02 0.  1.
    10030    2    1    2    0    0  0.00000000000E+00  0.00000000000E+00  0.30743406029E+03  0.19303285461E+04  0.19056895326E+04 0.  0.
        2    1    3    3  502    0 -0.42272113886E+03  0.95543575004E+02 -0.70583644514E+03  0.82826736218E+03  0.25500000920E-02 0.  1.
       -2    1    3    3    0  502  0.42272113886E+03 -0.95543575004E+02  0.10132705054E+04  0.11020611839E+04  0.25500000920E-02 0. -1.
</event>
<event>
 5   0  0.1799738E-04  0.1897271E+04  0.7818609E-02  0.8656216E-01
        2   -1    0    0  501    0  0.00000000000E+00  0.00000000000E+00  0.12754988218E+04  0.12754988218E+04  0.25500000920E-02 0. -1.
       -2   -1    0    0    0  501  0.00000000000E+00  0.00000000000E+00 -0.70553500860E+03  0.70553500860E+03  0.25500000920E-02 0.  1.
    10030    2    1    2    0    0  0.00000000000E+00  0.00000000000E+00  0.56996381315E+03  0.19810338304E+04  0.18972707473E+04 0.  0.
        1    1    3    3  502    0  0.27099202496E+02  0.76643749195E+03  0.86797661362E+03  0.11582504900E+04  0.50400001928E-02 0. -1.
       -1    1    3    3    0  502 -0.27099202496E+02 -0.76643749195E+03 -0.29801280046E+03  0.82278334032E+03  0.50400001928E-02 0.  1.
</event>
<event>
 5   0  0.1790832E-04  0.1910961E+04  0.7818609E-02  0.8649420E-01
        2   -1    0    0  501    0  0.00000000000E+00  0.00000000000E+00  0.18422820367E+04  0.18422820367E+04  0.25500000920E-02 0.  1.
       -2   -1    0    0    0  501  0.00000000000E+00  0.00000000000E+00 -0.49555005994E+03  0.49555005995E+03  0.25500000920E-02 0. -1.
    10030    2    1    2    0    0  0.00000000000E+00  0.00000000000E+00  0.13467319768E+04  0.23378320967E+04  0.19109609873E+04 0.  0.
        5    1    3    3  502    0 -0.59692283695E+03 -0.18012814197E+03 -0.21234605191E+03  0.65869261159E+03  0.46999998093E+01 0. -1.
       -5    1    3    3    0  502  0.59692283695E+03  0.18012814197E+03  0.15590780287E+04  0.16791394851E+04  0.46999998093E+01 0.  1.
</event>
<event>
 5   0  0.1658711E-04  0.1918601E+04  0.7818609E-02  0.8645652E-01
        2   -1    0    0  501    0  0.00000000000E+00  0.00000000000E+00  0.25501271778E+04  0.25501271778E+04  0.25500000920E-02 0.  1.
       -2   -1    0    0    0  501  0.00000000000E+00  0.00000000000E+00 -0.36086740919E+03  0.36086740920E+03  0.25500000920E-02 0. -1.
    10030    2    1    2    0    0  0.00000000000E+00  0.00000000000E+00  0.21892597686E+04  0.29109945870E+04  0.19186013528E+04 0.  0.
        2    1    3    3  502    0 -0.27684191106E+03  0.48293314285E+03 -0.90759519638E+02  0.56400634269E+03  0.25500000920E-02 0. -1.
       -2    1    3    3    0  502  0.27684191106E+03 -0.48293314285E+03  0.22800192883E+04  0.23469882443E+04  0.25500000920E-02 0.  1.
</event>
<event>
 5   0  0.8681396E-05  0.1847161E+04  0.7818609E-02  0.8681614E-01
        1   -1    0    0  501    0  0.00000000000E+00  0.00000000000E+00  0.90013697419E+03  0.90013697420E+03  0.50400001928E-02 0.  1.
       -1   -1    0    0    0  501  0.00000000000E+00  0.00000000000E+00 -0.94763462830E+03  0.94763462832E+03  0.50400001928E-02 0. -1.
    10030    2    1    2    0    0  0.00000000000E+00  0.00000000000E+00 -0.47497654115E+02  0.18477716025E+04  0.18471610292E+04 0.  0.
        3    1    3    3  502    0  0.23279794815E+02 -0.33273487820E+03  0.83778292150E+03  0.90173980825E+03  0.10100000352E+00 0.  1.
       -3    1    3    3    0  502 -0.23279794815E+02  0.33273487820E+03 -0.88528057561E+03  0.94603179427E+03  0.10100000352E+00 0. -1.
</event>
<event>
 5   0  0.8905646E-05  0.1827455E+04  0.7818609E-02  0.8691834E-01
        1   -1    0    0  501    0  0.00000000000E+00  0.00000000000E+00  0.12557653130E+04  0.12557653130E+04  0.50400001928E-02 0.  1.
       -1   -1    0    0    0  501  0.00000000000E+00  0.00000000000E+00 -0.66485186485E+03  0.66485186487E+03  0.50400001928E-02 0. -1.
    10030    2    1    2    0    0  0.00000000000E+00  0.00000000000E+00  0.59091344816E+03  0.19206171779E+04  0.18274549627E+04 0.  0.
        1    1    3    3  502    0 -0.83800211401E+03  0.19871955295E+03  0.61623945384E+03  0.10590033373E+04  0.50400001928E-02 0.  1.
       -1    1    3    3    0  502  0.83800211401E+03 -0.19871955295E+03 -0.25326005682E+02  0.86161384065E+03  0.50400001928E-02 0. -1.
</event>
<event>
 5   0  0.1658711E-04  0.1901159E+04  0.7818609E-02  0.8654280E-01
        2   -1    0    0  501    0  0.00000000000E+00  0.00000000000E+00  0.81978371274E+03  0.81978371274E+03  0.25500000920E-02 0.  1.
       -2   -1    0    0    0  501  0.00000000000E+00  0.00000000000E+00 -0.11022439911E+04  0.11022439911E+04  0.25500000920E-02 0. -1.
    10030    2    1    2    0    0  0.00000000000E+00  0.00000000000E+00 -0.28246027834E+03  0.19220277038E+04  0.19011593004E+04 0.  0.
        2    1    3    3  502    0  0.10766151724E+03 -0.93710028597E+03 -0.26022395354E+03  0.97850112635E+03  0.25500000920E-02 0.  1.
       -2    1    3    3    0  502 -0.10766151724E+03  0.93710028597E+03 -0.22236324801E+02  0.94352657748E+03  0.25500000920E-02 0. -1.
</event>
<event>
 5   0  0.1790832E-04  0.1883466E+04  0.7818609E-02  0.8663130E-01
        2   -1    0    0  501    0  0.00000000000E+00  0.00000000000E+00  0.26393172327E+04  0.26393172327E+04  0.25500000920E-02 0. -1.
       -2   -1    0    0    0  501  0.00000000000E+00  0.00000000000E+00 -0.33601912980E+03  0.33601912981E+03  0.25500000920E-02 0.  1.
    10030    2    1    2    0    0  0.00000000000E+00  0.00000000000E+00  0.23032981029E+04  0.29753363625E+04  0.18834660388E+04 0.  0.
        5    1    3    3  502    0 -0.13388507785E+03 -0.91801657338E+03  0.89614856961E+03  0.12898775104E+04  0.46999998093E+01 0.  1.
       -5    1    3    3    0  502  0.13388507785E+03  0.91801657338E+03  0.14071495333E+04  0.16854588521E+04  0.46999998093E+01 0. -1.
</event>
<event>
 5   0  0.1790832E-04  0.1906619E+04  0.7818609E-02  0.8651569E-01
        2   -1    0    0  501    0  0.00000000000E+00  0.00000000000E+00  0.18083380524E+04  0.18083380524E+04  0.25500000920E-02 0. -1.
       -2   -1    0    0    0  501  0.00000000000E+00  0.00000000000E+00 -0.50256026895E+03  0.50256026896E+03  0.25500000920E-02 0.  1.
    10030    2    1    2    0    0  0.00000000000E+00  0.00000000000E+00  0.13057777834E+04  0.23108983213E+04  0.19066188481E+04 0.  0.
        5    1    3    3  502    0 -0.47573166437E+03 -0.26268699706E+03  0.16021968897E+04  0.16918575703E+04  0.46999998093E+01 0. -1.
       -5    1    3    3    0  502  0.47573166437E+03  0.26268699706E+03 -0.29641910624E+03  0.61904075105E+03  0.46999998093E+01 0.  1.
</event>
<event>
 5   0  0.8567844E-05  0.1757484E+04  0.7818609E-02  0.8729241E-01
        1   -1    0    0  501    0  0.00000000000E+00  0.00000000000E+00  0.11906869648E+04  0.11906869648E+04  0.50400001928E-02 0. -1.
       -1   -1    0    0    0  501  0.00000000000E+00  0.00000000000E+00 -0.64852293810E+03  0.64852293812E+03  0.50400001928E-02 0.  1.
    10030    2    1    2    0    0  0.00000000000E+00  0.00000000000E+00  0.54216402668E+03  0.18392099029E+04  0.17574843485E+04 0.  0.
        4    1    3    3  502    0 -0.63301408377E+03  0.38082138854E+03  0.76908304966E+03  0.10664061658E+04  0.12699999809E+01 0. -1.
       -4    1    3    3    0  502  0.63301408377E+03 -0.38082138854E+03 -0.22691902298E+03  0.77280373713E+03  0.12699999809E+01 0.  1.
</event>
<event>
 5   0  0.8587082E-05  0.1898155E+04  0.7818609E-02  0.8655776E-01
        1   -1    0    0  501    0  0.00000000000E+00  0.00000000000E+00  0.17154717236E+04  0.17154717236E+04  0.50400001928E-02 0. -1.
       -1   -1    0    0    0  501  0.00000000000E+00  0.00000000000E+00 -0.52507288566E+03  0.52507288569E+03  0.50400001928E-02 0.  1.
    10030    2    1    2    0    0  0.00000000000E+00  0.00000000000E+00  0.11903988380E+04  0.22405446093E+04  0.18981545651E+04 0.  0.
        5    1    3    3  502    0 -0.17765874987E+03  0.80881937496E+03  0.11424864760E+04  0.14110453042E+04  0.46999998093E+01 0. -1.
       -5    1    3    3    0  502  0.17765874987E+03 -0.80881937496E+03  0.47912361948E+02  0.82949930509E+03  0.46999998093E+01 0.  1.
</event>
<event>
 5   0  0.1799738E-04  0.1895049E+04  0.7818609E-02  0.8657325E-01
        2   -1    0    0  501    0  0.00000000000E+00  0.00000000000E+00  0.74845864698E+03  0.74845864699E+03  0.25500000920E-02 0.  1.
       -2   -1    0    0    0  501  0.00000000000E+00  0.00000000000E+00 -0.11995354546E+04  0.11995354546E+04  0.25500000920E-02 0. -1.
    10030    2    1    2    0    0  0.00000000000E+00  0.00000000000E+00 -0.45107680765E+03  0.19479941016E+04  0.18950490056E+04 0.  0.
        1    1    3    3  502    0 -0.15807354164E+03  0.90884424986E+03 -0.44795726804E+03  0.10255002823E+04  0.50400001928E-02 0. -1.
       -1    1    3    3    0  502  0.15807354164E+03 -0.90884424986E+03 -0.31195396087E+01  0.92249381928E+03  0.50400001928E-02 0.  1.
</event>
<event>
 5   0  0.1810569E-04  0.1942436E+04  0.7818609E-02  0.8634017E-01
       -2   -1    0    0    0  501  0.00000000000E+00  0.00000000000E+00  0.59475535844E+03  0.59475535845E+03  0.25500000920E-02 0. -1.
        2   -1    0    0  501    0  0.00000000000E+00  0.00000000000E+00 -0.15859708174E+04  0.15859708174E+04  0.25500000920E-02 0.  1.
    10030    2    1    2    0    0  0.00000000000E+00  0.00000000000E+00 -0.99121545899E+03  0.21807261759E+04  0.19424362455E+04 0.  0.
        4    1    3    3  502    0  0.69389420500E+03 -0.67944953854E+03 -0.48319792383E+03  0.10847224021E+04  0.12699999809E+01 0. -1.
       -4    1    3    3    0  502 -0.69389420500E+03  0.67944953854E+03 -0.50801753516E+03  0.10960037738E+04  0.12699999809E+01 0.  1.
</event>
<event>
 5   0  0.1658711E-04  0.1889476E+04  0.7818609E-02  0.8660112E-01
       -2   -1    0    0    0  501  0.00000000000E+00  0.00000000000E+00  0.48341781878E+03  0.48341781879E+03  0.25500000920E-02 0.  1.
        2   -1    0    0  501    0  0.00000000000E+00  0.00000000000E+00 -0.18462916404E+04  0.18462916404E+04  0.25500000920E-02 0. -1.
    10030    2    1    2    0    0  0.00000000000E+00  0.00000000000E+00 -0.13628738216E+04  0.23297094592E+04  0.18894764118E+04 0.  0.
        2    1    3    3  502    0 -0.72931159643E+03 -0.16881655949E+03  0.29151566508E+02  0.74916236510E+03  0.25500000920E-02 0.  1.
       -2    1    3    3    0  502  0.72931159643E+03  0.16881655949E+03 -0.13920253881E+04  0.15805470941E+04  0.25500000920E-02 0. -1.
</event>
<event>
 5   0  0.1658711E-04  0.1900927E+04  0.7818609E-02  0.8654395E-01
        2   -1    0    0  501    0  0.00000000000E+00  0.00000000000E+00  0.10812440779E+04  0.10812440779E+04  0.25500000920E-02 0. -1.
       -2   -1    0    0    0  501  0.00000000000E+00  0.00000000000E+00 -0.83550094569E+03  0.83550094570E+03  0.25500000920E-02 0.  1.
    10030    2    1    2    0    0  0.00000000000E+00  0.00000000000E+00  0.24574313217E+03  0.19167450236E+04  0.19009265631E+04 0.  0.
        2    1    3    3  502    0 -0.46078236194E+03  0.51111439401E+03  0.78393539742E+03  0.10431265581E+04  0.25500000920E-02 0. -1.
       -2    1    3    3    0  502  0.46078236194E+03 -0.51111439401E+03 -0.53819226525E+03  0.87361846548E+03  0.25500000920E-02 0.  1.
</event>
<event>
 5   0  0.8602017E-05  0.1914521E+04  0.7818609E-02  0.8647662E-01
        1   -1    0    0  501    0  0.00000000000E+00  0.00000000000E+00  0.20127851270E+04  0.20127851270E+04  0.50400001928E-02 0.  1.
       -1   -1    0    0    0  501  0.00000000000E+00  0.00000000000E+00 -0.45526355992E+03  0.45526355995E+03  0.50400001928E-02 0. -1.
    10030    2    1    2    0    0  0.00000000000E+00  0.00000000000E+00  0.15575215670E+04  0.24680486869E+04  0.19145210600E+04 0.  0.
        2    1    3    3  502    0 -0.68708858654E+03 -0.50726034066E+02  0.16355013723E+04  0.17746911267E+04  0.25500000920E-02 0.  1.
       -2    1    3    3    0  502  0.68708858654E+03  0.50726034066E+02 -0.77979805278E+02  0.69335756022E+03  0.25500000920E-02 0. -1.
</event>
<event>
 5   0  0.8681396E-05  0.1912140E+04  0.7818609E-02  0.8648837E-01
       -1   -1    0    0    0  501  0.00000000000E+00  0.00000000000E+00  0.72210663201E+03  0.72210663203E+03  0.50400001928E-02 0.  1.
        1   -1    0    0  501    0  0.00000000000E+00  0.00000000000E+00 -0.12658372578E+04  0.12658372578E+04  0.50400001928E-02 0. -1.
    10030    2    1    2    0    0  0.00000000000E+00  0.00000000000E+00 -0.54373062579E+03  0.19879438898E+04  0.19121396172E+04 0.  0.
        3    1    3    3  502    0 -0.81140365967E+03  0.50388451716E+03 -0.22783099393E+03  0.98192793908E+03  0.10100000352E+00 0. -1.
       -3    1    3    3    0  502  0.81140365967E+03 -0.50388451716E+03 -0.31589963185E+03  0.10060159508E+04  0.10100000352E+00 0.  1.
</event>
<event>
 5   0  0.1790832E-04  0.1901200E+04  0.7818609E-02  0.8654260E-01
        2   -1    0    0  501    0  0.00000000000E+00  0.00000000000E+00  0.19581903148E+04  0.19581903148E+04  0.25500000920E-02 0. -1.
       -2   -1    0    0    0  501  0.00000000000E+00  0.00000000000E+00 -0.46146684685E+03  0.46146684686E+03  0.25500000920E-02 0.  1.
    10030    2    1    2    0    0  0.00000000000E+00  0.00000000000E+00  0.14967234679E+04  0.24196571616E+04  0.19011995267E+04 0.  0.
        5    1    3    3  502    0  0.42715615900E+02  0.73163676317E+03  0.15188457386E+04  0.16864256416E+04  0.46999998093E+01 0. -1.
       -5    1    3    3    0  502 -0.42715615900E+02 -0.73163676317E+03 -0.22122270691E+02  0.73323152000E+03  0.46999998093E+01 0.  1.
</event>
<event>
 5   0  0.1799738E-04  0.1870891E+04  0.7818609E-02  0.8669483E-01
        2   -1    0    0  501    0  0.00000000000E+00  0.00000000000E+00  0.13236929436E+04  0.13236929436E+04  0.25500000920E-02 0.  1.
       -2   -1    0    0    0  501  0.00000000000E+00  0.00000000000E+00 -0.66107377542E+03  0.66107377542E+03  0.25500000920E-02 0. -1.
    10030    2    1    2    0    0  0.00000000000E+00  0.00000000000E+00  0.66261916821E+03  0.19847667190E+04  0.18708914364E+04 0.  0.
        1    1    3    3  502    0  0.79478157437E+03 -0.26861725223E+03  0.77029022981E+03  0.11389381095E+04  0.50400001928E-02 0.  1.
       -1    1    3    3    0  502 -0.79478157437E+03  0.26861725223E+03 -0.10767106160E+03  0.84582860952E+03  0.50400001928E-02 0. -1.
</event>
<event>
 5   0  0.8567844E-05  0.1872911E+04  0.7818609E-02  0.8668459E-01
        1   -1    0    0  501    0  0.00000000000E+00  0.00000000000E+00  0.97247689267E+03  0.97247689268E+03  0.50400001928E-02 0.  1.
       -1   -1    0    0    0  501  0.00000000000E+00  0.00000000000E+00 -0.90176881078E+03  0.90176881080E+03  0.50400001928E-02 0. -1.
    10030    2    1    2    0    0  0.00000000000E+00  0.00000000000E+00  0.70708081885E+02  0.18742457035E+04  0.18729114566E+04 0.  0.
        4    1    3    3  502    0 -0.42596404327E+03  0.17845279838E+03 -0.77987773909E+03  0.90636729213E+03  0.12699999809E+01 0. -1.
       -4    1    3    3    0  502  0.42596404327E+03 -0.17845279838E+03  0.85058582098E+03  0.96787841135E+03  0.12699999809E+01 0.  1.
</event>
<event>
 5   0  0.8681396E-05  0.1895391E+04  0.7818609E-02  0.8657154E-01
       -1   -1    0    0    0  501  0.00000000000E+00  0.00000000000E+00  0.11319479736E+04  0.11319479737E+04  0.50400001928E-02 0. -1.
        1   -1    0    0  501    0  0.00000000000E+00  0.00000000000E+00 -0.79343485593E+03  0.79343485594E+03  0.50400001928E-02 0.  1.
    10030    2    1    2    0    0  0.00000000000E+00  0.00000000000E+00  0.33851311772E+03  0.19253828296E+04  0.18953912287E+04 0.  0.
        3    1    3    3  502    0  0.61908151543E+02  0.42307549404E+03 -0.68988116343E+03  0.81164125249E+03  0.10100000352E+00 0.  1.
       -3    1    3    3    0  502 -0.61908151543E+02 -0.42307549404E+03  0.10283942812E+04  0.11137415771E+04  0.10100000352E+00 0. -1.
</event>
<event>
 5   0  0.1790832E-04  0.1925924E+04  0.7818609E-02  0.8642059E-01
        2   -1    0    0  501    0  0.00000000000E+00  0.00000000000E+00  0.85692103512E+03  0.85692103513E+03  0.25500000920E-02 0.  1.
       -2   -1    0    0    0  501  0.00000000000E+00  0.00000000000E+00 -0.10821252860E+04  0.10821252860E+04  0.25500000920E-02 0. -1.
    10030    2    1    2    0    0  0.00000000000E+00  0.00000000000E+00 -0.22520425086E+03  0.19390463211E+04  0.19259241109E+04 0.  0.
        5    1    3    3  502    0  0.27501713212E+03  0.40149926692E+03 -0.94918944342E+03  0.10666858834E+04  0.46999998093E+01 0. -1.
       -5    1    3    3    0  502 -0.27501713212E+03 -0.40149926692E+03  0.72398519256E+03  0.87236043774E+03  0.46999998093E+01 0.  1.
</event>
<event>
 5   0  0.1790832E-04  0.1922339E+04  0.7818609E-02  0.8643816E-01
       -2   -1    0    0    0  501  0.00000000000E+00  0.00000000000E+00  0.49692338566E+03  0.49692338567E+03  0.25500000920E-02 0. -1.
        2   -1    0    0  501    0  0.00000000000E+00  0.00000000000E+00 -0.18591337018E+04  0.18591337018E+04  0.25500000920E-02 0.  1.
    10030    2    1    2    0    0  0.00000000000E+00  0.00000000000E+00 -0.13622103162E+04  0.23560570875E+04  0.19223392141E+04 0.  0.
        5    1    3    3  502    0  0.17482824671E+03 -0.63953886536E+03 -0.15339904399E+04  0.16711444091E+04  0.46999998093E+01 0.  1.
       -5    1    3    3    0  502 -0.17482824671E+03  0.63953886536E+03  0.17178012376E+03  0.68491267843E+03  0.46999998093E+01 0. -1.
</event>
<event>
 5   0  0.1658711E-04  0.1772100E+04  0.7818609E-02  0.8721279E-01
       -2   -1    0    0    0  501  0.00000000000E+00  0.00000000000E+00  0.68502248573E+03  0.68502248574E+03  0.25500000920E-02 0.  1.
        2   -1    0    0  501    0  0.00000000000E+00  0.00000000000E+00 -0.11460712987E+04  0.11460712987E+04  0.25500000920E-02 0. -1.
    10030    2    1    2    0    0  0.00000000000E+00  0.00000000000E+00 -0.46104881293E+03  0.18310937844E+04  0.17721000083E+04 0.  0.
        2    1    3    3  502    0 -0.88296616910E+03 -0.29786058691E+01 -0.30678152582E+03  0.93474757687E+03  0.25500000920E-02 0. -1.
       -2    1    3    3    0  502  0.88296616910E+03  0.29786058691E+01 -0.15426728710E+03  0.89634620753E+03  0.25500000920E-02 0.  1.
</event>
<event>
 5   0  0.1810569E-04  0.1925249E+04  0.7818609E-02  0.8642390E-01
        2   -1    0    0  501    0  0.00000000000E+00  0.00000000000E+00  0.17834915827E+04  0.17834915827E+04  0.25500000920E-02 0. -1.
       -2   -1    0    0    0  501  0.00000000000E+00  0.00000000000E+00 -0.51956819343E+03  0.51956819344E+03  0.25500000920E-02 0.  1.
    10030    2    1    2    0    0  0.00000000000E+00  0.00000000000E+00  0.12639233892E+04  0.23030597761E+04  0.19252485550E+04 0.  0.
        4    1    3    3  502    0  0.34420757406E+03  0.71019232245E+03  0.12912972522E+04  0.15133744399E+04  0.12699999809E+01 0. -1.
       -4    1    3    3    0  502 -0.34420757406E+03 -0.71019232245E+03 -0.27373862991E+02  0.78968533618E+03  0.12699999809E+01 0.  1.
</event>
<event>
 5   0  0.8905646E-05  0.1955851E+04  0.7818609E-02  0.8627545E-01
        1   -1    0    0  501    0  0.00000000000E+00  0.00000000000E+00  0.94600353631E+03  0.94600353632E+03  0.50400001928E-02 0.  1.
       -1   -1    0    0    0  501  0.00000000000E+00  0.00000000000E+00 -0.10109242910E+04  0.10109242910E+04  0.50400001928E-02 0. -1.
    10030    2    1    2    0    0  0.00000000000E+00  0.00000000000E+00 -0.64920754702E+02  0.19569278273E+04  0.19558506633E+04 0.  0.
        1    1    3    3  502    0  0.73734343941E+02  0.14076977510E+03  0.93299854156E+03  0.94643497486E+03  0.50400001928E-02 0.  1.
       -1    1    3    3    0  502 -0.73734343941E+02 -0.14076977510E+03 -0.99791929626E+03  0.10104928525E+04  0.50400001928E-02 0. -1.
</event>
<event>
 5   0  0.8905646E-05  0.1900807E+04  0.7818609E-02  0.8654455E-01
        1   -1    0    0  501    0  0.00000000000E+00  0.00000000000E+00  0.10015912481E+04  0.10015912481E+04  0.50400001928E-02 0. -1.
       -1   -1    0    0    0  501  0.00000000000E+00  0.00000000000E+00 -0.90183135276E+03  0.90183135277E+03  0.50400001928E-02 0.  1.
    10030    2    1    2    0    0  0.00000000000E+00  0.00000000000E+00  0.99759895342E+02  0.19034226009E+04  0.19008065553E+04 0.  0.
        1    1    3    3  502    0  0.36276680017E+03  0.20018498484E+03 -0.80662910174E+03  0.90682097861E+03  0.50400001928E-02 0.  1.
       -1    1    3    3    0  502 -0.36276680017E+03 -0.20018498484E+03  0.90638899708E+03  0.99660162227E+03  0.50400001928E-02 0. -1.
</event>
<event>
 5   0  0.8681396E-05  0.1922943E+04  0.7818609E-02  0.8643520E-01
       -1   -1    0    0    0  501  0.00000000000E+00  0.00000000000E+00  0.58509714278E+03  0.58509714281E+03  0.50400001928E-02 0. -1.
        1   -1    0    0  501    0  0.00000000000E+00  0.00000000000E+00 -0.15799549223E+04  0.15799549223E+04  0.50400001928E-02 0.  1.
    10030    2    1    2    0    0  0.00000000000E+00  0.00000000000E+00 -0.99485777948E+03  0.21650520651E+04  0.19229426521E+04 0.  0.
        3    1    3    3  502    0 -0.52262768328E+03 -0.60250965570E+03 -0.11019359461E+04  0.13603015916E+04  0.10100000352E+00 0.  1.
       -3    1    3    3    0  502  0.52262768328E+03  0.60250965570E+03  0.10707816667E+03  0.80475047345E+03  0.10100000352E+00 0. -1.
</event>
<event>
 5   0  0.1799738E-04  0.1620578E+04  0.7818609E-02  0.8808005E-01
       -2   -1    0    0    0  501  0.00000000000E+00  0.00000000000E+00  0.36294787576E+03  0.36294787577E+03  0.25500000920E-02 0. -1.
        2   -1    0    0  501    0  0.00000000000E+00  0.00000000000E+00 -0.18089882691E+04  0.18089882691E+04  0.25500000920E-02 0.  1.
    10030    2    1    2    0    0  0.00000000000E+00  0.00000000000E+00 -0.14460403933E+04  0.21719361449E+04  0.16205782296E+04 0.  0.
        1    1    3    3  502    0  0.23320870809E+03 -0.56276594616E+03 -0.14391015073E+04  0.15627235713E+04  0.50400001928E-02 0.  1.
       -1    1    3    3    0  502 -0.23320870809E+03  0.56276594616E+03 -0.69388859829E+01  0.60921257361E+03  0.50400001928E-02 0. -1.
</event>
<event>
 5   0  0.6375750E-05  0.1876570E+04  0.7818609E-02  0.8666607E-01
       -3   -1    0    0    0  501  0.00000000000E+00  0.00000000000E+00  0.14952040211E+04  0.14952040245E+04  0.10100000352E+00 0.  1.
        3   -1    0    0  501    0  0.00000000000E+00  0.00000000000E+00 -0.58880202374E+03  0.58880203240E+03  0.10100000352E+00 0. -1.
    10030    2    1    2    0    0  0.00000000000E+00  0.00000000000E+00  0.90640199732E+03  0.20840060569E+04  0.18765704528E+04 0.  0.
        5    1    3    3  502    0 -0.19862744066E+03  0.25078446382E+03  0.14327520486E+04  0.14680416310E+04  0.46999998093E+01 0.  1.
       -5    1    3    3    0  502  0.19862744066E+03 -0.25078446382E+03 -0.52635005129E+03  0.61596442589E+03  0.46999998093E+01 0. -1.
</event>
<event>
 5   0  0.1658711E-04  0.1921384E+04  0.7818609E-02  0.8644285E-01
        2   -1    0    0  501    0  0.00000000000E+00  0.00000000000E+00  0.15477018728E+04  0.15477018728E+04  0.25500000920E-02 0.  1.
       -2   -1    0    0    0  501  0.00000000000E+00  0.00000000000E+00 -0.59632244313E+03  0.59632244314E+03  0.25500000920E-02 0. -1.
    10030    2    1    2    0    0  0.00000000000E+00  0.00000000000E+00  0.95137942963E+03  0.21440243159E+04  0.19213842531E+04 0.  0.
        2    1    3    3  502    0 -0.66232208738E+03  0.57829964469E+03  0.90761880732E+03  0.12636743749E+04  0.25500000920E-02 0.  1.
       -2    1    3    3    0  502  0.66232208738E+03 -0.57829964469E+03  0.43760622313E+02  0.88034994096E+03  0.25500000920E-02 0. -1.
</event>
<event>
 5   0  0.8567844E-05  0.1889079E+04  0.7818609E-02  0.8660312E-01
       -1   -1    0    0    0  501  0.00000000000E+00  0.00000000000E+00  0.82936421315E+03  0.82936421316E+03  0.50400001928E-02 0. -1.
        1   -1    0    0  501    0  0.00000000000E+00  0.00000000000E+00 -0.10757092604E+04  0.10757092604E+04  0.50400001928E-02 0.  1.
    10030    2    1    2    0    0  0.00000000000E+00  0.00000000000E+00 -0.24634504728E+03  0.19050734736E+04  0.18890788913E+04 0.  0.
        4    1    3    3  502    0  0.11804830662E+03  0.77921152161E+03 -0.64820245164E+03  0.10204283558E+04  0.12699999809E+01 0.  1.
       -4    1    3    3    0  502 -0.11804830662E+03 -0.77921152161E+03  0.40185740436E+03  0.88464511780E+03  0.12699999809E+01 0. -1.
</event>
<event>
 5   0  0.8587082E-05  0.1910579E+04  0.7818609E-02  0.8649608E-01
        1   -1    0    0  501    0  0.00000000000E+00  0.00000000000E+00  0.11534956233E+04  0.11534956234E+04  0.50400001928E-02 0.  1.
       -1   -1    0    0    0  501  0.00000000000E+00  0.00000000000E+00 -0.79114137551E+03  0.79114137553E+03  0.50400001928E-02 0. -1.
    10030    2    1    2    0    0  0.00000000000E+00  0.00000000000E+00  0.36235424783E+03  0.19446369989E+04  0.19105790893E+04 0.  0.
        5    1    3    3  502    0 -0.58644344299E+02 -0.58862800195E+02  0.11497988546E+04  0.11528067854E+04  0.46999998093E+01 0.  1.
       -5    1    3    3    0  502  0.58644344299E+02  0.58862800195E+02 -0.78744460675E+03  0.79183021353E+03  0.46999998093E+01 0. -1.
</event>
<event>
 5   0  0.1799738E-04  0.1895895E+04  0.7818609E-02  0.8656903E-01
        2   -1    0    0  501    0  0.00000000000E+00  0.00000000000E+00  0.16281632214E+04  0.16281632214E+04  0.25500000920E-02 0.  1.
       -2   -1    0    0    0  501  0.00000000000E+00  0.00000000000E+00 -0.55191285706E+03  0.55191285707E+03  0.25500000920E-02 0. -1.
    10030    2    1    2    0    0  0.00000000000E+00  0.00000000000E+00  0.10762503644E+04  0.21800760785E+04  0.18958947390E+04 0.  0.
        1    1    3    3  502    0 -0.53798222244E+03 -0.56596773756E+03 -0.79892682362E+02  0.78493769965E+03  0.50400001928E-02 0. -1.
       -1    1    3    3    0  502  0.53798222244E+03  0.56596773756E+03  0.11561430467E+04  0.13951383789E+04  0.50400001928E-02 0.  1.
</event>
<event>
 5   0  0.8681396E-05  0.1824447E+04  0.7818609E-02  0.8693406E-01
       -1   -1    0    0    0  501  0.00000000000E+00  0.00000000000E+00  0.15227303536E+04  0.15227303536E+04  0.50400001928E-02 0.  1.
        1   -1    0    0  501    0  0.00000000000E+00  0.00000000000E+00 -0.54648670919E+03  0.54648670921E+03  0.50400001928E-02 0. -1.
    10030    2    1    2    0    0  0.00000000000E+00  0.00000000000E+00  0.97624364443E+03  0.20692170628E+04  0.18244472039E+04 0.  0.
        3    1    3    3  502    0 -0.13675891454E+03  0.50930442297E+03  0.13323353832E+04  0.14329031996E+04  0.10100000352E+00 0.  1.
       -3    1    3    3    0  502  0.13675891454E+03 -0.50930442297E+03 -0.35609173874E+03  0.63631386325E+03  0.10100000352E+00 0. -1.
</event>
<event>
 5   0  0.1658711E-04  0.1890298E+04  0.7818609E-02  0.8659701E-01
        2   -1    0    0  501    0  0.00000000000E+00  0.00000000000E+00  0.14926211274E+04  0.14926211274E+04  0.25500000920E-02 0. -1.
       -2   -1    0    0    0  501  0.00000000000E+00  0.00000000000E+00 -0.59848164695E+03  0.59848164696E+03  0.25500000920E-02 0.  1.
    10030    2    1    2    0    0  0.00000000000E+00  0.00000000000E+00  0.89413948046E+03  0.20911027744E+04  0.18902977021E+04 0.  0.
        2    1    3    3  502    0 -0.75882878416E+03  0.20602551490E+03 -0.13308265057E+03  0.79748268217E+03  0.25500000920E-02 0.  1.
       -2    1    3    3    0  502  0.75882878416E+03 -0.20602551490E+03  0.10272221310E+04  0.12936200922E+04  0.25500000920E-02 0. -1.
</event>
<event>
 5   0  0.1658711E-04  0.1796706E+04  0.7818609E-02  0.8708053E-01
        2   -1    0    0  501    0  0.00000000000E+00  0.00000000000E+00  0.12891836083E+04  0.12891836083E+04  0.25500000920E-02 0.  1.
       -2   -1    0    0    0  501  0.00000000000E+00  0.00000000000E+00 -0.62600741193E+03  0.62600741193E+03  0.25500000920E-02 0. -1.
    10030    2    1    2    0    0  0.00000000000E+00  0.00000000000E+00  0.66317619636E+03  0.19151910202E+04  0.17967064247E+04 0.  0.
        2    1    3    3  502    0  0.69313289946E+03 -0.43695237583E+03 -0.61047372356E+02  0.82163701033E+03  0.25500000920E-02 0.  1.
       -2    1    3    3    0  502 -0.69313289946E+03  0.43695237583E+03  0.72422356872E+03  0.10935540099E+04  0.25500000920E-02 0. -1.
</event>
<event>
 5   0  0.1658711E-04  0.1891418E+04  0.7818609E-02  0.8659140E-01
       -2   -1    0    0    0  501  0.00000000000E+00  0.00000000000E+00  0.60297787088E+03  0.60297787089E+03  0.25500000920E-02 0. -1.
        2   -1    0    0  501    0  0.00000000000E+00  0.00000000000E+00 -0.14832483573E+04  0.14832483573E+04  0.25500000920E-02 0.  1.
    10030    2    1    2    0    0  0.00000000000E+00  0.00000000000E+00 -0.88027048641E+03  0.20862262282E+04  0.18914184481E+04 0.  0.
        2    1    3    3  502    0 -0.62615414865E+02 -0.23817062927E+03 -0.14472614331E+04  0.14680638932E+04  0.25500000920E-02 0.  1.
       -2    1    3    3    0  502  0.62615414865E+02  0.23817062927E+03  0.56699094665E+03  0.61816233501E+03  0.25500000920E-02 0. -1.
</event>
<event>
 5   0  0.1765328E-04  0.1922388E+04  0.7818609E-02  0.8643792E-01
       -2   -1    0    0    0  501  0.00000000000E+00  0.00000000000E+00  0.99950638055E+03  0.99950638055E+03  0.25500000920E-02 0. -1.
        2   -1    0    0  501    0  0.00000000000E+00  0.00000000000E+00 -0.92435011700E+03  0.92435011700E+03  0.25500000920E-02 0.  1.
    10030    2    1    2    0    0  0.00000000000E+00  0.00000000000E+00  0.75156263547E+02  0.19238564976E+04  0.19223879315E+04 0.  0.
        3    1    3    3  502    0 -0.47591723512E+02  0.35435375868E+02  0.99767183891E+03  0.99943471341E+03  0.10100000352E+00 0. -1.
       -3    1    3    3    0  502  0.47591723512E+02 -0.35435375868E+02 -0.92251557536E+03  0.92442178414E+03  0.10100000352E+00 0.  1.
</event>
<event>
 5   0  0.1799738E-04  0.1897478E+04  0.7818609E-02  0.8656113E-01
        2   -1    0    0  501    0  0.00000000000E+00  0.00000000000E+00  0.16383821449E+04  0.16383821449E+04  0.25500000920E-02 0. -1.
       -2   -1    0    0    0  501  0.00000000000E+00  0.00000000000E+00 -0.54938694488E+03  0.54938694489E+03  0.25500000920E-02 0.  1.
    10030    2    1    2    0    0  0.00000000000E+00  0.00000000000E+00  0.10889952000E+04  0.21877690898E+04  0.18974780749E+04 0.  0.
        1    1    3    3  502    0  0.69017115269E+03  0.15129523709E+03 -0.18551696855E+03  0.73050873672E+03  0.50400001928E-02 0.  1.
       -1    1    3    3    0  502 -0.69017115269E+03 -0.15129523709E+03  0.12745121686E+04  0.14572603531E+04  0.50400001928E-02 0. -1.
</event>
<event>
 5   0  0.1790832E-04  0.1912714E+04  0.7818609E-02  0.8648554E-01
        2   -1    0    0  501    0  0.00000000000E+00  0.00000000000E+00  0.10747848538E+04  0.10747848538E+04  0.25500000920E-02 0. -1.
       -2   -1    0    0    0  501  0.00000000000E+00  0.00000000000E+00 -0.85097841718E+03  0.85097841719E+03  0.25500000920E-02 0.  1.
    10030    2    1    2    0    0  0.00000000000E+00  0.00000000000E+00  0.22380643665E+03  0.19257632710E+04  0.19127140024E+04 0.  0.
        5    1    3    3  502    0  0.43141205660E+03 -0.51401274771E+03 -0.57411984080E+03  0.88315409130E+03  0.46999998093E+01 0.  1.
       -5    1    3    3    0  502 -0.43141205660E+03  0.51401274771E+03  0.79792627745E+03  0.10426091797E+04  0.46999998093E+01 0. -1.
</event>
<event>
 5   0  0.8567844E-05  0.1930897E+04  0.7818609E-02  0.8639628E-01
       -1   -1    0    0    0  501  0.00000000000E+00  0.00000000000E+00  0.16276574344E+04  0.16276574344E+04  0.50400001928E-02 0. -1.
        1   -1    0    0  501    0  0.00000000000E+00  0.00000000000E+00 -0.57265800877E+03  0.57265800879E+03  0.50400001928E-02 0.  1.
    10030    2    1    2    0    0  0.00000000000E+00  0.00000000000E+00  0.10549994256E+04  0.22003154432E+04  0.19308972685E+04 0.  0.
        4    1    3    3  502    0  0.34005555791E+03 -0.15748809450E+03  0.15413927933E+04  0.15862955710E+04  0.12699999809E+01 0. -1.
       -4    1    3    3    0  502 -0.34005555791E+03  0.15748809450E+03 -0.48639336771E+03  0.61401987218E+03  0.12699999809E+01 0.  1.
</event>
<event>
 5   0  0.8587082E-05  0.1866507E+04  0.7818609E-02  0.8671710E-01
       -1   -1    0    0    0  501  0.00000000000E+00  0.00000000000E+00  0.70073771209E+03  0.70073771211E+03  0.50400001928E-02 0. -1.
        1   -1    0    0  501    0  0.00000000000E+00  0.00000000000E+00 -0.12429219348E+04  0.12429219349E+04  0.50400001928E-02 0.  1.
    10030    2    1    2    0    0  0.00000000000E+00  0.00000000000E+00 -0.54218422275E+03  0.19436596470E+04  0.18665071904E+04 0.  0.
        5    1    3    3  502    0 -0.75673109075E+03 -0.23782321105E+03 -0.78308430133E+03  0.11146501408E+04  0.46999998093E+01 0.  1.
       -5    1    3    3    0  502  0.75673109075E+03  0.23782321105E+03  0.24090007858E+03  0.82900950615E+03  0.46999998093E+01 0. -1.
</event>
<event>
 5   0  0.1810569E-04  0.1885247E+04  0.7818609E-02  0.8662235E-01
        2   -1    0    0  501    0  0.00000000000E+00  0.00000000000E+00  0.72590516781E+03  0.72590516781E+03  0.25500000920E-02 0.  1.
       -2   -1    0    0    0  501  0.00000000000E+00  0.00000000000E+00 -0.12240435149E+04  0.12240435149E+04  0.25500000920E-02 0. -1.
    10030    2    1    2    0    0  0.00000000000E+00  0.00000000000E+00 -0.49813834712E+03  0.19499486827E+04  0.18852474778E+04 0.  0.
        4    1    3    3  502    0 -0.77476313663E+03  0.50654644734E+03 -0.43319749159E+03  0.10220121823E+04  0.12699999809E+01 0.  1.
       -4    1    3    3    0  502  0.77476313663E+03 -0.50654644734E+03 -0.64940855538E+02  0.92793650042E+03  0.12699999809E+01 0. -1.
</event>
<event>
 5   0  0.1658711E-04  0.1911014E+04  0.7818609E-02  0.8649393E-01
        2   -1    0    0  501    0  0.00000000000E+00  0.00000000000E+00  0.21098364866E+04  0.21098364866E+04  0.25500000920E-02 0.  1.
       -2   -1    0    0    0  501  0.00000000000E+00  0.00000000000E+00 -0.43273209794E+03  0.43273209795E+03  0.25500000920E-02 0. -1.
    10030    2    1    2    0    0  0.00000000000E+00  0.00000000000E+00  0.16771043887E+04  0.25425685846E+04  0.19110143581E+04 0.  0.
        2    1    3    3  502    0 -0.54831806297E+03  0.35168903768E+03  0.17686109491E+04  0.18847606126E+04  0.25500000920E-02 0.  1.
       -2    1    3    3    0  502  0.54831806297E+03 -0.35168903768E+03 -0.91506560436E+02  0.65780797199E+03  0.25500000920E-02 0. -1.
</event>
<event>
 5   0  0.8587082E-05  0.1909056E+04  0.7818609E-02  0.8650362E-01
       -1   -1    0    0    0  501  0.00000000000E+00  0.00000000000E+00  0.98643532518E+03  0.98643532519E+03  0.50400001928E-02 0. -1.
        1   -1    0    0  501    0  0.00000000000E+00  0.00000000000E+00 -0.92365297007E+03  0.92365297008E+03  0.50400001928E-02 0.  1.
    10030    2    1    2    0    0  0.00000000000E+00  0.00000000000E+00  0.62782355106E+02  0.19100882953E+04  0.19090562254E+04 0.  0.
        5    1    3    3  502    0  0.22671835203E+03 -0.83499565211E+03 -0.37191839026E+03  0.94178783662E+03  0.46999998093E+01 0.  1.
       -5    1    3    3    0  502 -0.22671835203E+03  0.83499565211E+03  0.43470074537E+03  0.96830045865E+03  0.46999998093E+01 0. -1.
</event>
<event>
 5   0  0.8602017E-05  0.1884069E+04  0.7818609E-02  0.8662827E-01
        1   -1    0    0  501    0  0.00000000000E+00  0.00000000000E+00  0.20932599666E+04  0.20932599666E+04  0.50400001928E-02 0.  1.
       -1   -1    0    0    0  501  0.00000000000E+00  0.00000000000E+00 -0.42394577918E+03  0.42394577921E+03  0.50400001928E-02 0. -1.
    10030    2    1    2    0    0  0.00000000000E+00  0.00000000000E+00  0.16693141874E+04  0.25172057458E+04  0.18840687117E+04 0.  0.
        2    1    3    3  502    0 -0.97334750037E+02  0.48277080016E+03  0.19075683404E+04  0.19701164108E+04  0.25500000920E-02 0.  1.
       -2    1    3    3    0  502  0.97334750037E+02 -0.48277080016E+03 -0.23825415295E+03  0.54708933499E+03  0.25500000920E-02 0. -1.
</event>
<event>
 5   0  0.1790832E-04  0.1896644E+04  0.7818609E-02  0.8656528E-01
       -2   -1    0    0    0  501  0.00000000000E+00  0.00000000000E+00  0.94536456911E+03  0.94536456912E+03  0.25500000920E-02 0.  1.
        2   -1    0    0  501    0  0.00000000000E+00  0.00000000000E+00 -0.95128906199E+03  0.95128906199E+03  0.25500000920E-02 0. -1.
    10030    2    1    2    0    0  0.00000000000E+00  0.00000000000E+00 -0.59244928774E+01  0.18966536311E+04  0.18966443780E+04 0.  0.
        5    1    3    3  502    0  0.66719929133E+02  0.70439951769E+03 -0.63436270938E+03  0.95029909319E+03  0.46999998093E+01 0. -1.
       -5    1    3    3    0  502 -0.66719929133E+02 -0.70439951769E+03  0.62843821651E+03  0.94635453791E+03  0.46999998093E+01 0.  1.
</event>
<event>
 5   0  0.8602017E-05  0.1893948E+04  0.7818609E-02  0.8657874E-01
       -1   -1    0    0    0  501  0.00000000000E+00  0.00000000000E+00  0.11056355133E+04  0.11056355133E+04  0.50400001928E-02 0. -1.
        1   -1    0    0  501    0  0.00000000000E+00  0.00000000000E+00 -0.81108122306E+03  0.81108122308E+03  0.50400001928E-02 0.  1.
    10030    2    1    2    0    0  0.00000000000E+00  0.00000000000E+00  0.29455429023E+03  0.19167167364E+04  0.18939484728E+04 0.  0.
        2    1    3    3  502    0  0.72734107415E+03 -0.58916161172E+03  0.29261331635E+03  0.98069312009E+03  0.25500000920E-02 0.  1.
       -2    1    3    3    0  502 -0.72734107415E+03  0.58916161172E+03  0.19409738876E+01  0.93602361629E+03  0.25500000920E-02 0. -1.
</event>
<event>
 5   0  0.8681396E-05  0.1885441E+04  0.7818609E-02  0.8662137E-01
       -1   -1    0    0    0  501  0.00000000000E+00  0.00000000000E+00  0.49878458467E+03  0.49878458470E+03  0.50400001928E-02 0.  1.
        1   -1    0    0  501    0  0.00000000000E+00  0.00000000000E+00 -0.17817757230E+04  0.17817757230E+04  0.50400001928E-02 0. -1.
    10030    2    1    2    0    0  0.00000000000E+00  0.00000000000E+00 -0.12829911383E+04  0.22805603077E+04  0.18854413425E+04 0.  0.
        3    1    3    3  502    0  0.41165742037E+03 -0.78337042256E+03 -0.10345406857E+04  0.13613983588E+04  0.10100000352E+00 0. -1.
       -3    1    3    3    0  502 -0.41165742037E+03  0.78337042256E+03 -0.24845045256E+03  0.91916194888E+03  0.10100000352E+00 0.  1.
</event>
<event>
 5   0  0.8905646E-05  0.1887047E+04  0.7818609E-02  0.8661331E-01
       -1   -1    0    0    0  501  0.00000000000E+00  0.00000000000E+00  0.10523761894E+04  0.10523761894E+04  0.50400001928E-02 0.  1.
        1   -1    0    0  501    0  0.00000000000E+00  0.00000000000E+00 -0.84592985148E+03  0.84592985150E+03  0.50400001928E-02 0. -1.
    10030    2    1    2    0    0  0.00000000000E+00  0.00000000000E+00  0.20644633788E+03  0.18983060409E+04  0.18870468289E+04 0.  0.
        1    1    3    3  502    0  0.93800501034E+03  0.10177411781E+03  0.98186992806E+02  0.94860532154E+03  0.50400001928E-02 0.  1.
       -1    1    3    3    0  502 -0.93800501034E+03 -0.10177411781E+03  0.10825934507E+03  0.94970071933E+03  0.50400001928E-02 0. -1.
</event>
<event>
 5   0  0.1799738E-04  0.1830503E+04  0.7818609E-02  0.8690244E-01
        2   -1    0    0  501    0  0.00000000000E+00  0.00000000000E+00  0.22708460567E+04  0.22708460567E+04  0.25500000920E-02 0.  1.
       -2   -1    0    0    0  501  0.00000000000E+00  0.00000000000E+00 -0.36888695374E+03  0.36888695375E+03  0.25500000920E-02 0. -1.
    10030    2    1    2    0    0  0.00000000000E+00  0.00000000000E+00  0.19019591029E+04  0.26397330104E+04  0.18305031923E+04 0.  0.
        1    1    3    3  502    0 -0.41729425928E+03  0.63657331548E+03  0.21803171439E+03  0.79176885094E+03  0.50400001928E-02 0. -1.
       -1    1    3    3    0  502  0.41729425928E+03 -0.63657331548E+03  0.16839273885E+04  0.18479641595E+04  0.50400001928E-02 0.  1.
</event>
<event>
 5   0  0.1765328E-04  0.1868551E+04  0.7818609E-02  0.8670671E-01
        2   -1    0    0  501    0  0.00000000000E+00  0.00000000000E+00  0.82018960659E+03  0.82018960659E+03  0.25500000920E-02 0.  1.
       -2   -1    0    0    0  501  0.00000000000E+00  0.00000000000E+00 -0.10642308809E+04  0.10642308809E+04  0.25500000920E-02 0. -1.
    10030    2    1    2    0    0  0.00000000000E+00  0.00000000000E+00 -0.24404127429E+03  0.18844204875E+04  0.18685514256E+04 0.  0.
        3    1    3    3  502    0 -0.27477430703E+03 -0.78201095142E+03 -0.55676060109E+03  0.99851110413E+03  0.10100000352E+00 0. -1.
       -3    1    3    3    0  502  0.27477430703E+03  0.78201095142E+03  0.31271932680E+03  0.88590938334E+03  0.10100000352E+00 0.  1.
</event>
<event>
 5   0  0.1790832E-04  0.1892798E+04  0.7818609E-02  0.8658450E-01
       -2   -1    0    0    0  501  0.00000000000E+00  0.00000000000E+00  0.41937152283E+03  0.41937152284E+03  0.25500000920E-02 0. -1.
        2   -1    0    0  501    0  0.00000000000E+00  0.00000000000E+00 -0.21357453438E+04  0.21357453438E+04  0.25500000920E-02 0.  1.
    10030    2    1    2    0    0  0.00000000000E+00  0.00000000000E+00 -0.17163738210E+04  0.25551168667E+04  0.18927976936E+04 0.  0.
        5    1    3    3  502    0  0.66901707016E+03  0.33732740356E+03 -0.16386611349E+04  0.18018340719E+04  0.46999998093E+01 0.  1.
       -5    1    3    3    0  502 -0.66901707016E+03 -0.33732740356E+03 -0.77712686051E+02  0.75328279480E+03  0.46999998093E+01 0. -1.
</event>
<event>
 5   0  0.1810569E-04  0.1962882E+04  0.7818609E-02  0.8624174E-01
        2   -1    0    0  501    0  0.00000000000E+00  0.00000000000E+00  0.98946919578E+03  0.98946919579E+03  0.25500000920E-02 0.  1.
       -2   -1    0    0    0  501  0.00000000000E+00  0.00000000000E+00 -0.97347817481E+03  0.97347817481E+03  0.25500000920E-02 0. -1.
    10030    2    1    2    0    0  0.00000000000E+00  0.00000000000E+00  0.15991020975E+02  0.19629473706E+04  0.19628822346E+04 0.  0.
        4    1    3    3  502    0 -0.46363745721E+03  0.66258263583E+03 -0.54812510353E+03  0.97694328549E+03  0.12699999809E+01 0.  1.
       -4    1    3    3    0  502  0.46363745721E+03 -0.66258263583E+03  0.56411612451E+03  0.98600408511E+03  0.12699999809E+01 0. -1.
</event>
<event>
 5   0  0.1799738E-04  0.1894570E+04  0.7818609E-02  0.8657564E-01
        2   -1    0    0  501    0  0.00000000000E+00  0.00000000000E+00  0.13684305509E+04  0.13684305509E+04  0.25500000920E-02 0.  1.
       -2   -1    0    0    0  501  0.00000000000E+00  0.00000000000E+00 -0.65575010243E+03  0.65575010243E+03  0.25500000920E-02 0. -1.
    10030    2    1    2    0    0  0.00000000000E+00  0.00000000000E+00  0.71268044845E+03  0.20241806533E+04  0.18945695806E+04 0.  0.
        1    1    3    3  502    0 -0.63164875911E+03  0.67115612086E+03  0.59021697753E+03  0.10944344540E+04  0.50400001928E-02 0.  1.
       -1    1    3    3    0  502  0.63164875911E+03 -0.67115612086E+03  0.12246347092E+03  0.92974619934E+03  0.50400001928E-02 0. -1.
</event>
<event>
 5   0  0.8602017E-05  0.1870946E+04  0.7818609E-02  0.8669455E-01
       -1   -1    0    0    0  501  0.00000000000E+00  0.00000000000E+00  0.50519853053E+03  0.50519853056E+03  0.50400001928E-02 0. -1.
        1   -1    0    0  501    0  0.00000000000E+00  0.00000000000E+00 -0.17322101683E+04  0.17322101683E+04  0.50400001928E-02 0.  1.
    10030    2    1    2    0    0  0.00000000000E+00  0.00000000000E+00 -0.12270116378E+04  0.22374086989E+04  0.18709463184E+04 0.  0.
        2    1    3    3  502    0 -0.90653113793E+03 -0.15926101736E+02 -0.88896557052E+03  0.12697685342E+04  0.25500000920E-02 0. -1.
       -2    1    3    3    0  502  0.90653113793E+03  0.15926101736E+02 -0.33804606724E+03  0.96764016470E+03  0.25500000920E-02 0.  1.
</event>
<event>
 5   0  0.8681396E-05  0.1893712E+04  0.7818609E-02  0.8657993E-01
        1   -1    0    0  501    0  0.00000000000E+00  0.00000000000E+00  0.99063519565E+03  0.99063519567E+03  0.50400001928E-02 0. -1.
       -1   -1    0    0    0  501  0.00000000000E+00  0.00000000000E+00 -0.90501130931E+03  0.90501130932E+03  0.50400001928E-02 0.  1.
    10030    2    1    2    0    0  0.00000000000E+00  0.00000000000E+00  0.85623886344E+02  0.18956465050E+04  0.18937117579E+04 0.  0.
        3    1    3    3  502    0  0.90347750127E+02  0.42925072046E+03  0.88278612908E+03  0.98576379364E+03  0.10100000352E+00 0. -1.
       -3    1    3    3    0  502 -0.90347750127E+02 -0.42925072046E+03 -0.79716224273E+03  0.90988271135E+03  0.10100000352E+00 0.  1.
</event>
<event>
 5   0  0.1765328E-04  0.1872945E+04  0.7818609E-02  0.8668442E-01
        2   -1    0    0  501    0  0.00000000000E+00  0.00000000000E+00  0.89081877863E+03  0.89081877863E+03  0.25500000920E-02 0.  1.
       -2   -1    0    0    0  501  0.00000000000E+00  0.00000000000E+00 -0.98446557657E+03  0.98446557657E+03  0.25500000920E-02 0. -1.
    10030    2    1    2    0    0  0.00000000000E+00  0.00000000000E+00 -0.93646797935E+02  0.18752843552E+04  0.18729446575E+04 0.  0.
        3    1    3    3  502    0 -0.55338095743E+03  0.21564032377E+03  0.67813162710E+03  0.90143981893E+03  0.10100000352E+00 0.  1.
       -3    1    3    3    0  502  0.55338095743E+03 -0.21564032377E+03 -0.77177842503E+03  0.97384453627E+03  0.10100000352E+00 0. -1.
</event>
<event>
 5   0  0.1765328E-04  0.1912561E+04  0.7818609E-02  0.8648629E-01
       -2   -1    0    0    0  501  0.00000000000E+00  0.00000000000E+00  0.59703363387E+03  0.59703363388E+03  0.25500000920E-02 0.  1.
        2   -1    0    0  501    0  0.00000000000E+00  0.00000000000E+00 -0.15316928896E+04  0.15316928896E+04  0.25500000920E-02 0. -1.
    10030    2    1    2    0    0  0.00000000000E+00  0.00000000000E+00 -0.93465925573E+03  0.21287265235E+04  0.19125607670E+04 0.  0.
        3    1    3    3  502    0  0.69777256562E+03  0.13026820419E+03 -0.11805478963E+04  0.13775157727E+04  0.10100000352E+00 0.  1.
       -3    1    3    3    0  502 -0.69777256562E+03 -0.13026820419E+03  0.24588864056E+03  0.75121075080E+03  0.10100000352E+00 0. -1.
</event>
<event>
 5   0  0.8602017E-05  0.1888868E+04  0.7818609E-02  0.8660417E-01
       -1   -1    0    0    0  501  0.00000000000E+00  0.00000000000E+00  0.79064239985E+03  0.79064239986E+03  0.50400001928E-02 0. -1.
        1   -1    0    0  501    0  0.00000000000E+00  0.00000000000E+00 -0.11281408502E+04  0.11281408502E+04  0.50400001928E-02 0.  1.
    10030    2    1    2    0    0  0.00000000000E+00  0.00000000000E+00 -0.33749845030E+03  0.19187832500E+04  0.18888684329E+04 0.  0.
        2    1    3    3  502    0  0.48915442383E+03 -0.71683795701E+03 -0.54724550981E+03  0.10259660594E+04  0.25500000920E-02 0.  1.
       -2    1    3    3    0  502 -0.48915442383E+03  0.71683795701E+03  0.20974705951E+03  0.89281719066E+03  0.25500000920E-02 0. -1.
</event>
<event>
 5   0  0.8905646E-05  0.1897491E+04  0.7818609E-02  0.8656106E-01
       -1   -1    0    0    0  501  0.00000000000E+00  0.00000000000E+00  0.73659029494E+03  0.73659029496E+03  0.50400001928E-02 0.  1.
        1   -1    0    0  501    0  0.00000000000E+00  0.00000000000E+00 -0.12220061266E+04  0.12220061267E+04  0.50400001928E-02 0. -1.
    10030    2    1    2    0    0  0.00000000000E+00  0.00000000000E+00 -0.48541583170E+03  0.19585964216E+04  0.18974908203E+04 0.  0.
        1    1    3    3  502    0 -0.85795747170E+03  0.95114245194E+02 -0.64906071533E+03  0.10800081273E+04  0.50400001928E-02 0. -1.
       -1    1    3    3    0  502  0.85795747170E+03 -0.95114245194E+02  0.16364488363E+03  0.87858829428E+03  0.50400001928E-02 0.  1.
</event>
<event>
 5   0  0.1790832E-04  0.1908148E+04  0.7818609E-02  0.8650811E-01
        2   -1    0    0  501    0  0.00000000000E+00  0.00000000000E+00  0.14833379761E+04  0.14833379761E+04  0.25500000920E-02 0. -1.
       -2   -1    0    0    0  501  0.00000000000E+00  0.00000000000E+00 -0.61365429791E+03  0.61365429792E+03  0.25500000920E-02 0.  1.
    10030    2    1    2    0    0  0.00000000000E+00  0.00000000000E+00  0.86968367823E+03  0.20969922741E+04  0.19081475041E+04 0.  0.
        5    1    3    3  502    0 -0.25439655535E+03 -0.72399524749E+03 -0.18813603969E+03  0.79012909401E+03  0.46999998093E+01 0.  1.
       -5    1    3    3    0  502  0.25439655535E+03  0.72399524749E+03  0.10578197179E+04  0.13068631801E+04  0.46999998093E+01 0. -1.
</event>
<event>
 5   0  0.8567844E-05  0.1646193E+04  0.7818609E-02  0.8792662E-01
        1   -1    0    0  501    0  0.00000000000E+00  0.00000000000E+00  0.14167374051E+04  0.14167374051E+04  0.50400001928E-02 0. -1.
       -1   -1    0    0    0  501  0.00000000000E+00  0.00000000000E+00 -0.47820267152E+03  0.47820267154E+03  0.50400001928E-02 0.  1.
    10030    2    1    2    0    0  0.00000000000E+00  0.00000000000E+00  0.93853473359E+03  0.18949400767E+04  0.16461927129E+04 0.  0.
        4    1    3    3  502    0  0.20236557204E+03 -0.72351757437E+03  0.85631334813E+03  0.11391679719E+04  0.12699999809E+01 0.  1.
       -4    1    3    3    0  502 -0.20236557204E+03  0.72351757437E+03  0.82221385466E+02  0.75577210474E+03  0.12699999809E+01 0. -1.
</event>
<event>
 5   0  0.8905646E-05  0.1998444E+04  0.7818609E-02  0.8607349E-01
        1   -1    0    0  501    0  0.00000000000E+00  0.00000000000E+00  0.88947068967E+03  0.88947068968E+03  0.50400001928E-02 0.  1.
       -1   -1    0    0    0  501  0.00000000000E+00  0.00000000000E+00 -0.11225153641E+04  0.11225153641E+04  0.50400001928E-02 0. -1.
    10030    2    1    2    0    0  0.00000000000E+00  0.00000000000E+00 -0.23304467446E+03  0.20119860538E+04  0.19984439098E+04 0.  0.
        1    1    3    3  502    0  0.45076789553E+02  0.62747568352E+03 -0.89811210613E+03  0.10965231441E+04  0.50400001928E-02 0. -1.
       -1    1    3    3    0  502 -0.45076789553E+02 -0.62747568352E+03  0.66506743167E+03  0.91546290971E+03  0.50400001928E-02 0.  1.
</event>
<event>
 5   0  0.1810569E-04  0.1877222E+04  0.7818609E-02  0.8666278E-01
        2   -1    0    0  501    0  0.00000000000E+00  0.00000000000E+00  0.28098075688E+04  0.28098075688E+04  0.25500000920E-02 0.  1.
       -2   -1    0    0    0  501  0.00000000000E+00  0.00000000000E+00 -0.31354124945E+03  0.31354124946E+03  0.25500000920E-02 0. -1.
    10030    2    1    2    0    0  0.00000000000E+00  0.00000000000E+00  0.24962663194E+04  0.31233488183E+04  0.18772219643E+04 0.  0.
        4    1    3    3  502    0  0.31755003900E+03 -0.57715136618E+02 -0.21830932158E+03  0.38965322667E+03  0.12699999809E+01 0. -1.
       -4    1    3    3    0  502 -0.31755003900E+03  0.57715136618E+02  0.27145756410E+04  0.27336955916E+04  0.12699999809E+01 0.  1.
</event>
<event>
 5   0  0.8681396E-05  0.1879972E+04  0.7818609E-02  0.8664890E-01
       -1   -1    0    0    0  501  0.00000000000E+00  0.00000000000E+00  0.17124139835E+04  0.17124139835E+04  0.50400001928E-02 0.  1.
        1   -1    0    0  501    0  0.00000000000E+00  0.00000000000E+00 -0.51598134228E+03  0.51598134231E+03  0.50400001928E-02 0. -1.
    10030    2    1    2    0    0  0.00000000000E+00  0.00000000000E+00  0.11964326412E+04  0.22283953258E+04  0.18799719846E+04 0.  0.
        3    1    3    3  502    0 -0.16266250021E+03 -0.43575574549E+03  0.15664476495E+04  0.16340441877E+04  0.10100000352E+00 0.  1.
       -3    1    3    3    0  502  0.16266250021E+03  0.43575574549E+03 -0.37001500832E+03  0.59435113803E+03  0.10100000352E+00 0. -1.
</event>
<event>
 5   0  0.8905646E-05  0.1906073E+04  0.7818609E-02  0.8651839E-01
        1   -1    0    0  501    0  0.00000000000E+00  0.00000000000E+00  0.97215184413E+03  0.97215184414E+03  0.50400001928E-02 0. -1.
       -1   -1    0    0    0  501  0.00000000000E+00  0.00000000000E+00 -0.93429692755E+03  0.93429692756E+03  0.50400001928E-02 0.  1.
    10030    2    1    2    0    0  0.00000000000E+00  0.00000000000E+00  0.37854916577E+02  0.19064487717E+04  0.19060729064E+04 0.  0.
        1    1    3    3  502    0 -0.48143134556E+03  0.59597741051E+03  0.58588424771E+03  0.96448201957E+03  0.50400001928E-02 0. -1.
       -1    1    3    3    0  502  0.48143134556E+03 -0.59597741051E+03 -0.54802933114E+03  0.94196675214E+03  0.50400001928E-02 0.  1.
</event>
<event>
 5   0  0.8905646E-05  0.1888838E+04  0.7818609E-02  0.8660432E-01
        1   -1    0    0  501    0  0.00000000000E+00  0.00000000000E+00  0.11927343054E+04  0.11927343054E+04  0.50400001928E-02 0.  1.
       -1   -1    0    0    0  501  0.00000000000E+00  0.00000000000E+00 -0.74780064828E+03  0.74780064829E+03  0.50400001928E-02 0. -1.
    10030    2    1    2    0    0  0.00000000000E+00  0.00000000000E+00  0.44493365715E+03  0.19405349537E+04  0.18888382534E+04 0.  0.
        1    1    3    3  502    0  0.46399849235E+03  0.71876782381E+03 -0.18848832316E+03  0.87604202721E+03  0.50400001928E-02 0. -1.
       -1    1    3    3    0  502 -0.46399849235E+03 -0.71876782381E+03  0.63342198030E+03  0.10644929265E+04  0.50400001928E-02 0.  1.
</event>
<event>
 5   0  0.8587082E-05  0.1932923E+04  0.7818609E-02  0.8638640E-01
       -1   -1    0    0    0  501  0.00000000000E+00  0.00000000000E+00  0.96857012772E+03  0.96857012773E+03  0.50400001928E-02 0. -1.
        1   -1    0    0  501    0  0.00000000000E+00  0.00000000000E+00 -0.96435773394E+03  0.96435773396E+03  0.50400001928E-02 0.  1.
    10030    2    1    2    0    0  0.00000000000E+00  0.00000000000E+00  0.42123937722E+01  0.19329278617E+04  0.19329232717E+04 0.  0.
        5    1    3    3  502    0  0.78596401382E+03  0.33980803226E+03 -0.44602104786E+03  0.96548733546E+03  0.46999998093E+01 0.  1.
       -5    1    3    3    0  502 -0.78596401382E+03 -0.33980803226E+03  0.45023344163E+03  0.96744052622E+03  0.46999998093E+01 0. -1.
</event>
<event>
 5   0  0.8587082E-05  0.1892281E+04  0.7818609E-02  0.8658708E-01
        1   -1    0    0  501    0  0.00000000000E+00  0.00000000000E+00  0.15300761564E+04  0.15300761564E+04  0.50400001928E-02 0. -1.
       -1   -1    0    0    0  501  0.00000000000E+00  0.00000000000E+00 -0.58505707817E+03  0.58505707820E+03  0.50400001928E-02 0.  1.
    10030    2    1    2    0    0  0.00000000000E+00  0.00000000000E+00  0.94501907825E+03  0.21151332346E+04  0.18922810420E+04 0.  0.
        5    1    3    3  502    0 -0.35894876216E+03  0.13573235669E+03  0.14391648125E+04  0.14894579329E+04  0.46999998093E+01 0. -1.
       -5    1    3    3    0  502  0.35894876216E+03 -0.13573235669E+03 -0.49414573422E+03  0.62567530170E+03  0.46999998093E+01 0.  1.
</event>
<event>
 5   0  0.8602017E-05  0.1714323E+04  0.7818609E-02  0.8753238E-01
       -1   -1    0    0    0  501  0.00000000000E+00  0.00000000000E+00  0.73073769984E+03  0.73073769986E+03  0.50400001928E-02 0. -1.
        1   -1    0    0  501    0  0.00000000000E+00  0.00000000000E+00 -0.10054573252E+04  0.10054573252E+04  0.50400001928E-02 0.  1.
    10030    2    1    2    0    0  0.00000000000E+00  0.00000000000E+00 -0.27471962535E+03  0.17361950251E+04  0.17143226921E+04 0.  0.
        2    1    3    3  502    0  0.23317483913E+03  0.16685264622E+03 -0.95545016416E+03  0.99754464930E+03  0.25500000920E-02 0.  1.
       -2    1    3    3    0  502 -0.23317483913E+03 -0.16685264622E+03  0.68073053880E+03  0.73865037577E+03  0.25500000920E-02 0. -1.
</event>
<event>
 5   0  0.8602017E-05  0.1948278E+04  0.7818609E-02  0.8631192E-01
       -1   -1    0    0    0  501  0.00000000000E+00  0.00000000000E+00  0.71181129759E+03  0.71181129761E+03  0.50400001928E-02 0.  1.
        1   -1    0    0  501    0  0.00000000000E+00  0.00000000000E+00 -0.13331431504E+04  0.13331431504E+04  0.50400001928E-02 0. -1.
    10030    2    1    2    0    0  0.00000000000E+00  0.00000000000E+00 -0.62133185284E+03  0.20449544480E+04  0.19482775529E+04 0.  0.
        2    1    3    3  502    0 -0.25573468675E+03 -0.86553624806E+03 -0.69545377120E+03  0.11393898256E+04  0.25500000920E-02 0. -1.
       -2    1    3    3    0  502  0.25573468675E+03  0.86553624806E+03  0.74121918357E+02  0.90556462249E+03  0.25500000920E-02 0.  1.
</event>
<event>
 5   0  0.8602017E-05  0.1923719E+04  0.7818609E-02  0.8643139E-01
        1   -1    0    0  501    0  0.00000000000E+00  0.00000000000E+00  0.22119807017E+04  0.22119807018E+04  0.50400001928E-02 0. -1.
       -1   -1    0    0    0  501  0.00000000000E+00  0.00000000000E+00 -0.41825595216E+03  0.41825595219E+03  0.50400001928E-02 0.  1.
    10030    2    1    2    0    0  0.00000000000E+00  0.00000000000E+00  0.17937247496E+04  0.26302366539E+04  0.19237194126E+04 0.  0.
        2    1    3    3  502    0 -0.54973411726E+03  0.49347924763E+03  0.54638866974E+02  0.74075284226E+03  0.25500000920E-02 0.  1.
       -2    1    3    3    0  502  0.54973411726E+03 -0.49347924763E+03  0.17390858826E+04  0.18894838117E+04  0.25500000920E-02 0. -1.
</event>
<event>
 5   0  0.1790832E-04  0.1910960E+04  0.7818609E-02  0.8649420E-01
       -2   -1    0    0    0  501  0.00000000000E+00  0.00000000000E+00  0.41303158341E+03  0.41303158342E+03  0.25500000920E-02 0. -1.
        2   -1    0    0  501    0  0.00000000000E+00  0.00000000000E+00 -0.22103433325E+04  0.22103433325E+04  0.25500000920E-02 0.  1.
    10030    2    1    2    0    0  0.00000000000E+00  0.00000000000E+00 -0.17973117491E+04  0.26233749159E+04  0.19109595564E+04 0.  0.
        5    1    3    3  502    0  0.79743273073E+03 -0.38149735186E+02 -0.17801147564E+03  0.81796365310E+03  0.46999998093E+01 0. -1.
       -5    1    3    3    0  502 -0.79743273073E+03  0.38149735186E+02 -0.16193002735E+04  0.18054112628E+04  0.46999998093E+01 0.  1.
</event>
<event>
 5   0  0.8905646E-05  0.1928516E+04  0.7818609E-02  0.8640791E-01
       -1   -1    0    0    0  501  0.00000000000E+00  0.00000000000E+00  0.56451318282E+03  0.56451318284E+03  0.50400001928E-02 0.  1.
        1   -1    0    0  501    0  0.00000000000E+00  0.00000000000E+00 -0.16470712952E+04  0.16470712952E+04  0.50400001928E-02 0. -1.
    10030    2    1    2    0    0  0.00000000000E+00  0.00000000000E+00 -0.10825581123E+04  0.22115844780E+04  0.19285159675E+04 0.  0.
        1    1    3    3  502    0 -0.10213367265E+03 -0.36723636811E+03  0.47444716383E+03  0.60859999050E+03  0.50400001928E-02 0.  1.
       -1    1    3    3    0  502  0.10213367265E+03  0.36723636811E+03 -0.15570052762E+04  0.16029844875E+04  0.50400001928E-02 0. -1.
</event>
<event>
 5   0  0.6375750E-05  0.1900377E+04  0.7818609E-02  0.8654669E-01
       -3   -1    0    0    0  501  0.00000000000E+00  0.00000000000E+00  0.77982407248E+03  0.77982407903E+03  0.10100000352E+00 0. -1.
        3   -1    0    0  501    0  0.00000000000E+00  0.00000000000E+00 -0.11577721827E+04  0.11577721871E+04  0.10100000352E+00 0.  1.
    10030    2    1    2    0    0  0.00000000000E+00  0.00000000000E+00 -0.37794811020E+03  0.19375962661E+04  0.19003774668E+04 0.  0.
        4    1    3    3  502    0  0.67422332611E+02  0.85221009045E+03 -0.61188580771E+03  0.10512914267E+04  0.12699999809E+01 0.  1.
       -4    1    3    3    0  502 -0.67422332611E+02 -0.85221009045E+03  0.23393769751E+03  0.88630483945E+03  0.12699999809E+01 0. -1.
</event>
<event>
 5   0  0.1765328E-04  0.1906215E+04  0.7818609E-02  0.8651769E-01
        2   -1    0    0  501    0  0.00000000000E+00  0.00000000000E+00  0.24874636832E+04  0.24874636832E+04  0.25500000920E-02 0.  1.
       -2   -1    0    0    0  501  0.00000000000E+00  0.00000000000E+00 -0.36519674459E+03  0.36519674460E+03  0.25500000920E-02 0. -1.
    10030    2    1    2    0    0  0.00000000000E+00  0.00000000000E+00  0.21222669386E+04  0.28526604278E+04  0.19062147197E+04 0.  0.
        3    1    3    3  502    0 -0.22838622541E+03  0.23041453440E+03 -0.28002461311E+03  0.42856145390E+03  0.10100000352E+00 0. -1.
       -3    1    3    3    0  502  0.22838622541E+03 -0.23041453440E+03  0.24022915517E+04  0.24240989739E+04  0.10100000352E+00 0.  1.
</event>
<event>
 5   0  0.8567844E-05  0.1933913E+04  0.7818609E-02  0.8638158E-01
       -1   -1    0    0    0  501  0.00000000000E+00  0.00000000000E+00  0.66855076069E+03  0.66855076071E+03  0.50400001928E-02 0.  1.
        1   -1    0    0  501    0  0.00000000000E+00  0.00000000000E+00 -0.13985544235E+04  0.13985544235E+04  0.50400001928E-02 0. -1.
    10030    2    1    2    0    0  0.00000000000E+00  0.00000000000E+00 -0.73000366279E+03  0.20671051842E+04  0.19339127423E+04 0.  0.
        4    1    3    3  502    0 -0.65872651536E+03  0.70771384020E+03 -0.38098170581E+03  0.10391959270E+04  0.12699999809E+01 0.  1.
       -4    1    3    3    0  502  0.65872651536E+03 -0.70771384020E+03 -0.34902195698E+03  0.10279092572E+04  0.12699999809E+01 0. -1.
</event>
<event>
 5   0  0.1810569E-04  0.1896751E+04  0.7818609E-02  0.8656475E-01
        2   -1    0    0  501    0  0.00000000000E+00  0.00000000000E+00  0.10757221763E+04  0.10757221763E+04  0.25500000920E-02 0. -1.
       -2   -1    0    0    0  501  0.00000000000E+00  0.00000000000E+00 -0.83610458399E+03  0.83610458400E+03  0.25500000920E-02 0.  1.
    10030    2    1    2    0    0  0.00000000000E+00  0.00000000000E+00  0.23961759234E+03  0.19118267603E+04  0.18967511621E+04 0.  0.
        4    1    3    3  502    0 -0.57556165259E+03 -0.61834035166E+02  0.87699184974E+03  0.10508144371E+04  0.12699999809E+01 0. -1.
       -4    1    3    3    0  502  0.57556165259E+03  0.61834035166E+02 -0.63737425740E+03  0.86101232322E+03  0.12699999809E+01 0.  1.
</event>
<event>
 5   0  0.1799738E-04  0.1971849E+04  0.7818609E-02  0.8619896E-01
        2   -1    0    0  501    0  0.00000000000E+00  0.00000000000E+00  0.10468293490E+04  0.10468293490E+04  0.25500000920E-02 0.  1.
       -2   -1    0    0    0  501  0.00000000000E+00  0.00000000000E+00 -0.92856334810E+03  0.92856334811E+03  0.25500000920E-02 0. -1.
    10030    2    1    2    0    0  0.00000000000E+00  0.00000000000E+00  0.11826600094E+03  0.19753926971E+04  0.19718492490E+04 0.  0.
        1    1    3    3  502    0  0.76329482430E+03  0.85268673132E+02  0.67843288903E+03  0.10247735947E+04  0.50400001928E-02 0.  1.
       -1    1    3    3    0  502 -0.76329482430E+03 -0.85268673132E+02 -0.56016688809E+03  0.95061910246E+03  0.50400001928E-02 0. -1.
</event>
<event>
 5   0  0.8681396E-05  0.1908131E+04  0.7818609E-02  0.8650819E-01
       -1   -1    0    0    0  501  0.00000000000E+00  0.00000000000E+00  0.70674035917E+03  0.70674035919E+03  0.50400001928E-02 0. -1.
        1   -1    0    0  501    0  0.00000000000E+00  0.00000000000E+00 -0.12879429878E+04  0.12879429878E+04  0.50400001928E-02 0.  1.
    10030    2    1    2    0    0  0.00000000000E+00  0.00000000000E+00 -0.58120262862E+03  0.19946833470E+04  0.19081313265E+04 0.  0.
        3    1    3    3  502    0  0.64390191397E+03  0.66105338892E+03 -0.37460156683E+02  0.92358244427E+03  0.10100000352E+00 0. -1.
       -3    1    3    3    0  502 -0.64390191397E+03 -0.66105338892E+03 -0.54374247194E+03  0.10711009027E+04  0.10100000352E+00 0.  1.
</event>
<event>
 5   0  0.1765328E-04  0.1898088E+04  0.7818609E-02  0.8655809E-01
       -2   -1    0    0    0  501  0.00000000000E+00  0.00000000000E+00  0.11300209408E+04  0.11300209408E+04  0.25500000920E-02 0. -1.
        2   -1    0    0  501    0  0.00000000000E+00  0.00000000000E+00 -0.79705124894E+03  0.79705124894E+03  0.25500000920E-02 0.  1.
    10030    2    1    2    0    0  0.00000000000E+00  0.00000000000E+00  0.33296969187E+03  0.19270721898E+04  0.18980880930E+04 0.  0.
        3    1    3    3  502    0 -0.38977008223E+02  0.89291006081E+03 -0.15757088800E+03  0.90754403685E+03  0.10100000352E+00 0.  1.
       -3    1    3    3    0  502  0.38977008223E+02 -0.89291006081E+03  0.49054057988E+03  0.10195281529E+04  0.10100000352E+00 0. -1.
</event>
<event>
 5   0  0.8567844E-05  0.1835646E+04  0.7818609E-02  0.8687570E-01
       -1   -1    0    0    0  501  0.00000000000E+00  0.00000000000E+00  0.29851343653E+03  0.29851343657E+03  0.50400001928E-02 0.  1.
        1   -1    0    0  501    0  0.00000000000E+00  0.00000000000E+00 -0.28219801589E+04  0.28219801589E+04  0.50400001928E-02 0. -1.
    10030    2    1    2    0    0  0.00000000000E+00  0.00000000000E+00 -0.25234667224E+04  0.31204935955E+04  0.18356459301E+04 0.  0.
        4    1    3    3  502    0 -0.30172836241E+03 -0.22843673944E+03 -0.26831684279E+04  0.27097265128E+04  0.12699999809E+01 0. -1.
       -4    1    3    3    0  502  0.30172836241E+03  0.22843673944E+03  0.15970170551E+03  0.41076708273E+03  0.12699999809E+01 0.  1.
</event>
<event>
 5   0  0.1658711E-04  0.1913708E+04  0.7818609E-02  0.8648063E-01
        2   -1    0    0  501    0  0.00000000000E+00  0.00000000000E+00  0.70006406620E+03  0.70006406620E+03  0.25500000920E-02 0. -1.
       -2   -1    0    0    0  501  0.00000000000E+00  0.00000000000E+00 -0.13078370784E+04  0.13078370784E+04  0.25500000920E-02 0.  1.
    10030    2    1    2    0    0  0.00000000000E+00  0.00000000000E+00 -0.60777301220E+03  0.20079011446E+04  0.19137081732E+04 0.  0.
        2    1    3    3  502    0 -0.14371996684E+03 -0.82327174640E+03 -0.79280276280E+03  0.11519409785E+04  0.25500000920E-02 0.  1.
       -2    1    3    3    0  502  0.14371996684E+03  0.82327174640E+03  0.18502975060E+03  0.85596016607E+03  0.25500000920E-02 0. -1.
</event>
<event>
 5   0  0.8567844E-05  0.1917652E+04  0.7818609E-02  0.8646119E-01
        1   -1    0    0  501    0  0.00000000000E+00  0.00000000000E+00  0.17366016263E+04  0.17366016263E+04  0.50400001928E-02 0.  1.
       -1   -1    0    0    0  501  0.00000000000E+00  0.00000000000E+00 -0.52939454622E+03  0.52939454624E+03  0.50400001928E-02 0. -1.
    10030    2    1    2    0    0  0.00000000000E+00  0.00000000000E+00  0.12072070801E+04  0.22659961726E+04  0.19176521373E+04 0.  0.
        4    1    3    3  502    0  0.24247683644E+03  0.30016401015E+03 -0.43359582028E+03  0.58043121683E+03  0.12699999809E+01 0. -1.
       -4    1    3    3    0  502 -0.24247683644E+03 -0.30016401015E+03  0.16408029004E+04  0.16855649557E+04  0.12699999809E+01 0.  1.
</event>
<event>
 5   0  0.8567844E-05  0.1889696E+04  0.7818609E-02  0.8660002E-01
       -1   -1    0    0    0  501  0.00000000000E+00  0.00000000000E+00  0.93441786646E+03  0.93441786648E+03  0.50400001928E-02 0.  1.
        1   -1    0    0  501    0  0.00000000000E+00  0.00000000000E+00 -0.95539503047E+03  0.95539503048E+03  0.50400001928E-02 0. -1.
    10030    2    1    2    0    0  0.00000000000E+00  0.00000000000E+00 -0.20977164009E+02  0.18898128970E+04  0.18896964688E+04 0.  0.
        4    1    3    3  502    0 -0.23047428819E+03  0.23522512439E+03 -0.89614312111E+03  0.95473732674E+03  0.12699999809E+01 0. -1.
       -4    1    3    3    0  502  0.23047428819E+03 -0.23522512439E+03  0.87516595710E+03  0.93507557022E+03  0.12699999809E+01 0.  1.
</event>
<event>
 5   0  0.8602017E-05  0.1878103E+04  0.7818609E-02  0.8665833E-01
       -1   -1    0    0    0  501  0.00000000000E+00  0.00000000000E+00  0.96683893093E+03  0.96683893095E+03  0.50400001928E-02 0. -1.
        1   -1    0    0  501    0  0.00000000000E+00  0.00000000000E+00 -0.91206268070E+03  0.91206268071E+03  0.50400001928E-02 0.  1.
    10030    2    1    2    0    0  0.00000000000E+00  0.00000000000E+00  0.54776250237E+02  0.18789016117E+04  0.18781029867E+04 0.  0.
        2    1    3    3  502    0  0.89328185937E+03  0.23838396582E+03 -0.13711510161E+03  0.93465498796E+03  0.25500000920E-02 0.  1.
       -2    1    3    3    0  502 -0.89328185937E+03 -0.23838396582E+03  0.19189135184E+03  0.94424662369E+03  0.25500000920E-02 0. -1.
</event>
<event>
 5   0  0.1658711E-04  0.1898223E+04  0.7818609E-02  0.8655741E-01
       -2   -1    0    0    0  501  0.00000000000E+00  0.00000000000E+00  0.15877131146E+04  0.15877131146E+04  0.25500000920E-02 0.  1.
        2   -1    0    0  501    0  0.00000000000E+00  0.00000000000E+00 -0.56736496989E+03  0.56736496990E+03  0.25500000920E-02 0. -1.
    10030    2    1    2    0    0  0.00000000000E+00  0.00000000000E+00  0.10203481447E+04  0.21550780845E+04  0.18982231729E+04 0.  0.
        2    1    3    3  502    0 -0.45398248981E+01 -0.64322574242E+03  0.13024998375E+04  0.14526753913E+04  0.25500000920E-02 0.  1.
       -2    1    3    3    0  502  0.45398248981E+01  0.64322574242E+03 -0.28215169278E+03  0.70240269324E+03  0.25500000920E-02 0. -1.
</event>
<event>
 5   0  0.1799738E-04  0.1870143E+04  0.7818609E-02  0.8669863E-01
       -2   -1    0    0    0  501  0.00000000000E+00  0.00000000000E+00  0.62424032249E+03  0.62424032250E+03  0.25500000920E-02 0. -1.
        2   -1    0    0  501    0  0.00000000000E+00  0.00000000000E+00 -0.14006758554E+04  0.14006758554E+04  0.25500000920E-02 0.  1.
    10030    2    1    2    0    0  0.00000000000E+00  0.00000000000E+00 -0.77643553292E+03  0.20249161779E+04  0.18701426124E+04 0.  0.
        1    1    3    3  502    0  0.23021812983E+02 -0.91664754211E+03 -0.18978697866E+03  0.93637162367E+03  0.50400001928E-02 0. -1.
       -1    1    3    3    0  502 -0.23021812983E+02  0.91664754211E+03 -0.58664855426E+03  0.10885445542E+04  0.50400001928E-02 0.  1.
</event>
<event>
 5   0  0.1790832E-04  0.1895611E+04  0.7818609E-02  0.8657044E-01
       -2   -1    0    0    0  501  0.00000000000E+00  0.00000000000E+00  0.10875901892E+04  0.10875901892E+04  0.25500000920E-02 0. -1.
        2   -1    0    0  501    0  0.00000000000E+00  0.00000000000E+00 -0.82598722713E+03  0.82598722714E+03  0.25500000920E-02 0.  1.
    10030    2    1    2    0    0  0.00000000000E+00  0.00000000000E+00  0.26160296204E+03  0.19135774163E+04  0.18956113574E+04 0.  0.
        5    1    3    3  502    0 -0.91074233272E+03  0.80414975208E+02 -0.12135657436E+03  0.92231647117E+03  0.46999998093E+01 0.  1.
       -5    1    3    3    0  502  0.91074233272E+03 -0.80414975208E+02  0.38295953640E+03  0.99126094514E+03  0.46999998093E+01 0. -1.
</event>
<event>
 5   0  0.1799738E-04  0.1901870E+04  0.7818609E-02  0.8653926E-01
        2   -1    0    0  501    0  0.00000000000E+00  0.00000000000E+00  0.84317627466E+03  0.84317627466E+03  0.25500000920E-02 0.  1.
       -2   -1    0    0    0  501  0.00000000000E+00  0.00000000000E+00 -0.10724651851E+04  0.10724651851E+04  0.25500000920E-02 0. -1.
    10030    2    1    2    0    0  0.00000000000E+00  0.00000000000E+00 -0.22928891049E+03  0.19156414598E+04  0.19018698163E+04 0.  0.
        1    1    3    3  502    0 -0.73348609713E+03 -0.34514396610E+03  0.38609823334E+03  0.89788532554E+03  0.50400001928E-02 0.  1.
       -1    1    3    3    0  502  0.73348609713E+03  0.34514396610E+03 -0.61538714383E+03  0.10177561343E+04  0.50400001928E-02 0. -1.
</event>
<event>
 5   0  0.8905646E-05  0.1896548E+04  0.7818609E-02  0.8656577E-01
       -1   -1    0    0    0  501  0.00000000000E+00  0.00000000000E+00  0.78300775966E+03  0.78300775967E+03  0.50400001928E-02 0. -1.
        1   -1    0    0  501    0  0.00000000000E+00  0.00000000000E+00 -0.11484220361E+04  0.11484220361E+04  0.50400001928E-02 0.  1.
    10030    2    1    2    0    0  0.00000000000E+00  0.00000000000E+00 -0.36541427643E+03  0.19314297958E+04  0.18965477749E+04 0.  0.
        1    1    3    3  502    0  0.50592094995E+03 -0.79147113594E+03 -0.31486605973E+03  0.99071852825E+03  0.50400001928E-02 0. -1.
       -1    1    3    3    0  502 -0.50592094995E+03  0.79147113594E+03 -0.50548216707E+02  0.94071126753E+03  0.50400001928E-02 0.  1.
</event>
<event>
 5   0  0.1790832E-04  0.1894372E+04  0.7818609E-02  0.8657663E-01
        2   -1    0    0  501    0  0.00000000000E+00  0.00000000000E+00  0.13580443244E+04  0.13580443244E+04  0.25500000920E-02 0. -1.
       -2   -1    0    0    0  501  0.00000000000E+00  0.00000000000E+00 -0.66062749444E+03  0.66062749444E+03  0.25500000920E-02 0.  1.
    10030    2    1    2    0    0  0.00000000000E+00  0.00000000000E+00  0.69741682995E+03  0.20186718188E+04  0.18943721064E+04 0.  0.
        5    1    3    3  502    0 -0.84000071650E+03 -0.42750765951E+03  0.44853175036E+03  0.10438231765E+04  0.46999998093E+01 0. -1.
       -5    1    3    3    0  502  0.84000071650E+03  0.42750765951E+03  0.24888507959E+03  0.97484864236E+03  0.46999998093E+01 0.  1.
</event>
<event>
 5   0  0.6375750E-05  0.1897533E+04  0.7818609E-02  0.8656086E-01
        3   -1    0    0  501    0  0.00000000000E+00  0.00000000000E+00  0.65714995220E+03  0.65714995996E+03  0.10100000352E+00 0.  1.
       -3   -1    0    0    0  501  0.00000000000E+00  0.00000000000E+00 -0.13697900115E+04  0.13697900152E+04  0.10100000352E+00 0. -1.
    10030    2    1    2    0    0  0.00000000000E+00  0.00000000000E+00 -0.71264005931E+03  0.20269399752E+04  0.18975325581E+04 0.  0.
        3    1    3    3  502    0 -0.59050634981E+03  0.27580451303E+03  0.38018783158E+03  0.75452546416E+03  0.10100000352E+00 0.  1.
       -3    1    3    3    0  502  0.59050634981E+03 -0.27580451303E+03 -0.10928278909E+04  0.12724145110E+04  0.10100000352E+00 0. -1.
</event>
<event>
 5   0  0.1810569E-04  0.1849794E+04  0.7818609E-02  0.8680259E-01
        2   -1    0    0  501    0  0.00000000000E+00  0.00000000000E+00  0.10103053252E+04  0.10103053252E+04  0.25500000920E-02 0.  1.
       -2   -1    0    0    0  501  0.00000000000E+00  0.00000000000E+00 -0.84670852373E+03  0.84670852373E+03  0.25500000920E-02 0. -1.
    10030    2    1    2    0    0  0.00000000000E+00  0.00000000000E+00  0.16359680149E+03  0.18570138489E+04  0.18497936430E+04 0.  0.
        4    1    3    3  502    0  0.30407462305E+03 -0.66471639270E+02  0.95614722106E+03  0.10055341747E+04  0.12699999809E+01 0.  1.
       -4    1    3    3    0  502 -0.30407462305E+03  0.66471639270E+02 -0.79255041958E+03  0.85147967426E+03  0.12699999809E+01 0. -1.
</event>
<event>
 5   0  0.1810569E-04  0.1920757E+04  0.7818609E-02  0.8644593E-01
       -2   -1    0    0    0  501  0.00000000000E+00  0.00000000000E+00  0.49919471066E+03  0.49919471066E+03  0.25500000920E-02 0. -1.
        2   -1    0    0  501    0  0.00000000000E+00  0.00000000000E+00 -0.18476296938E+04  0.18476296938E+04  0.25500000920E-02 0.  1.
    10030    2    1    2    0    0  0.00000000000E+00  0.00000000000E+00 -0.13484349831E+04  0.23468244044E+04  0.19207571116E+04 0.  0.
        4    1    3    3  502    0  0.41137535112E+03 -0.64733870094E+03 -0.13803931908E+04  0.15791656175E+04  0.12699999809E+01 0.  1.
       -4    1    3    3    0  502 -0.41137535112E+03  0.64733870094E+03  0.31958207718E+02  0.76765878695E+03  0.12699999809E+01 0. -1.
</event>
<event>
 5   0  0.8602017E-05  0.1898753E+04  0.7818609E-02  0.8655477E-01
       -1   -1    0    0    0  501  0.00000000000E+00  0.00000000000E+00  0.94305684156E+03  0.94305684158E+03  0.50400001928E-02 0.  1.
        1   -1    0    0  501    0  0.00000000000E+00  0.00000000000E+00 -0.95573818737E+03  0.95573818739E+03  0.50400001928E-02 0. -1.
    10030    2    1    2    0    0  0.00000000000E+00  0.00000000000E+00 -0.12681345809E+02  0.18987950290E+04  0.18987526815E+04 0.  0.
        2    1    3    3  502    0  0.21301328817E+03 -0.35324793946E+03  0.84875539346E+03  0.94368664588E+03  0.25500000920E-02 0.  1.
       -2    1    3    3    0  502 -0.21301328817E+03  0.35324793946E+03 -0.86143673927E+03  0.95510838309E+03  0.25500000920E-02 0. -1.
</event>
<event>
 5   0  0.8681396E-05  0.1898143E+04  0.7818609E-02  0.8655781E-01
       -1   -1    0    0    0  501  0.00000000000E+00  0.00000000000E+00  0.11884582294E+04  0.11884582294E+04  0.50400001928E-02 0. -1.
        1   -1    0    0  501    0  0.00000000000E+00  0.00000000000E+00 -0.75790321429E+03  0.75790321430E+03  0.50400001928E-02 0.  1.
    10030    2    1    2    0    0  0.00000000000E+00  0.00000000000E+00  0.43055501506E+03  0.19463614437E+04  0.18981425785E+04 0.  0.
        3    1    3    3  502    0  0.10842378795E+03  0.14241594711E+03 -0.74043912232E+03  0.76176644968E+03  0.10100000352E+00 0.  1.
       -3    1    3    3    0  502 -0.10842378795E+03 -0.14241594711E+03  0.11709941374E+04  0.11845949940E+04  0.10100000352E+00 0. -1.
</event>
<event>
 5   0  0.8587082E-05  0.1920056E+04  0.7818609E-02  0.8644937E-01
       -1   -1    0    0    0  501  0.00000000000E+00  0.00000000000E+00  0.11837998468E+04  0.11837998468E+04  0.50400001928E-02 0. -1.
        1   -1    0    0  501    0  0.00000000000E+00  0.00000000000E+00 -0.77855513215E+03  0.77855513217E+03  0.50400001928E-02 0.  1.
    10030    2    1    2    0    0  0.00000000000E+00  0.00000000000E+00  0.40524471468E+03  0.19623549790E+04  0.19200556723E+04 0.  0.
        5    1    3    3  502    0 -0.56519652940E+03 -0.44732266147E+03 -0.44545013975E+03  0.84734443841E+03  0.46999998093E+01 0. -1.
       -5    1    3    3    0  502  0.56519652940E+03  0.44732266147E+03  0.85069485443E+03  0.11150105406E+04  0.46999998093E+01 0.  1.
</event>
<event>
 5   0  0.1810569E-04  0.1919201E+04  0.7818609E-02  0.8645358E-01
        2   -1    0    0  501    0  0.00000000000E+00  0.00000000000E+00  0.11549682207E+04  0.11549682207E+04  0.25500000920E-02 0. -1.
       -2   -1    0    0    0  501  0.00000000000E+00  0.00000000000E+00 -0.79727983788E+03  0.79727983788E+03  0.25500000920E-02 0.  1.
    10030    2    1    2    0    0  0.00000000000E+00  0.00000000000E+00  0.35768838282E+03  0.19522480586E+04  0.19192007459E+04 0.  0.
        4    1    3    3  502    0  0.27961946136E+03 -0.12742542461E+03 -0.74587864837E+03  0.80669749783E+03  0.12699999809E+01 0.  1.
       -4    1    3    3    0  502 -0.27961946136E+03  0.12742542461E+03  0.11035670312E+04  0.11455505607E+04  0.12699999809E+01 0. -1.
</event>
<event>
 5   0  0.1790832E-04  0.1861180E+04  0.7818609E-02  0.8674424E-01
       -2   -1    0    0    0  501  0.00000000000E+00  0.00000000000E+00  0.48542135803E+03  0.48542135803E+03  0.25500000920E-02 0.  1.
        2   -1    0    0  501    0  0.00000000000E+00  0.00000000000E+00 -0.17840127051E+04  0.17840127051E+04  0.25500000920E-02 0. -1.
    10030    2    1    2    0    0  0.00000000000E+00  0.00000000000E+00 -0.12985913471E+04  0.22694340632E+04  0.18611801311E+04 0.  0.
        5    1    3    3  502    0  0.68553973060E+03  0.54443362788E+03 -0.10341226880E+04  0.13549186401E+04  0.46999998093E+01 0. -1.
       -5    1    3    3    0  502 -0.68553973060E+03 -0.54443362788E+03 -0.26446865906E+03  0.91451542306E+03  0.46999998093E+01 0.  1.
</event>
<event>
 5   0  0.1799738E-04  0.1901171E+04  0.7818609E-02  0.8654274E-01
        2   -1    0    0  501    0  0.00000000000E+00  0.00000000000E+00  0.24452029356E+04  0.24452029356E+04  0.25500000920E-02 0. -1.
       -2   -1    0    0    0  501  0.00000000000E+00  0.00000000000E+00 -0.36954497605E+03  0.36954497606E+03  0.25500000920E-02 0.  1.
    10030    2    1    2    0    0  0.00000000000E+00  0.00000000000E+00  0.20756579595E+04  0.28147479116E+04  0.19011706502E+04 0.  0.
        1    1    3    3  502    0 -0.82376282459E+03  0.13711549120E+03  0.36548618192E+03  0.91157336420E+03  0.50400001928E-02 0. -1.
       -1    1    3    3    0  502  0.82376282459E+03 -0.13711549120E+03  0.17101717776E+04  0.19031745474E+04  0.50400001928E-02 0.  1.
</event>
<event>
 5   0  0.1799738E-04  0.1866073E+04  0.7818609E-02  0.8671931E-01
        2   -1    0    0  501    0  0.00000000000E+00  0.00000000000E+00  0.48977043079E+03  0.48977043080E+03  0.25500000920E-02 0.  1.
       -2   -1    0    0    0  501  0.00000000000E+00  0.00000000000E+00 -0.17774799171E+04  0.17774799172E+04  0.25500000920E-02 0. -1.
    10030    2    1    2    0    0  0.00000000000E+00  0.00000000000E+00 -0.12877094864E+04  0.22672503479E+04  0.18660729940E+04 0.  0.
        1    1    3    3  502    0 -0.74239198404E+03 -0.43382667457E+03 -0.20375902842E+03  0.88366802773E+03  0.50400001928E-02 0.  1.
       -1    1    3    3    0  502  0.74239198404E+03  0.43382667457E+03 -0.10839504579E+04  0.13835823202E+04  0.50400001928E-02 0. -1.
</event>
<event>
 5   0  0.8587082E-05  0.1902266E+04  0.7818609E-02  0.8653729E-01
       -1   -1    0    0    0  501  0.00000000000E+00  0.00000000000E+00  0.12830191530E+04  0.12830191530E+04  0.50400001928E-02 0. -1.
        1   -1    0    0  501    0  0.00000000000E+00  0.00000000000E+00 -0.70509801051E+03  0.70509801053E+03  0.50400001928E-02 0.  1.
    10030    2    1    2    0    0  0.00000000000E+00  0.00000000000E+00  0.57792114250E+03  0.19881171635E+04  0.19022662824E+04 0.  0.
        5    1    3    3  502    0  0.65475818502E+03  0.44030686432E+03  0.84401631488E+03  0.11554064416E+04  0.46999998093E+01 0. -1.
       -5    1    3    3    0  502 -0.65475818502E+03 -0.44030686432E+03 -0.26609517237E+03  0.83271072190E+03  0.46999998093E+01 0.  1.
</event>
<event>
 5   0  0.6375750E-05  0.1877763E+04  0.7818609E-02  0.8666005E-01
       -3   -1    0    0    0  501  0.00000000000E+00  0.00000000000E+00  0.57205721485E+03  0.57205722377E+03  0.10100000352E+00 0.  1.
        3   -1    0    0  501    0  0.00000000000E+00  0.00000000000E+00 -0.15409264016E+04  0.15409264049E+04  0.10100000352E+00 0. -1.
    10030    2    1    2    0    0  0.00000000000E+00  0.00000000000E+00 -0.96886918675E+03  0.21129836287E+04  0.18777625819E+04 0.  0.
        2    1    3    3  502    0  0.60333814954E+03  0.29833248748E+03  0.25214581448E+03  0.71874662263E+03  0.25500000920E-02 0.  1.
       -2    1    3    3    0  502 -0.60333814954E+03 -0.29833248748E+03 -0.12210150012E+04  0.13942370060E+04  0.25500000920E-02 0. -1.
</event>
<event>
 5   0  0.1810569E-04  0.1876333E+04  0.7818609E-02  0.8666727E-01
       -2   -1    0    0    0  501  0.00000000000E+00  0.00000000000E+00  0.79829160229E+03  0.79829160229E+03  0.25500000920E-02 0.  1.
        2   -1    0    0  501    0  0.00000000000E+00  0.00000000000E+00 -0.11025503071E+04  0.11025503071E+04  0.25500000920E-02 0. -1.
    10030    2    1    2    0    0  0.00000000000E+00  0.00000000000E+00 -0.30425870484E+03  0.19008419094E+04  0.18763332873E+04 0.  0.
        4    1    3    3  502    0  0.80305729572E+02  0.44598948843E+03 -0.98432101540E+03  0.10836259079E+04  0.12699999809E+01 0. -1.
       -4    1    3    3    0  502 -0.80305729572E+02 -0.44598948843E+03  0.68006231056E+03  0.81721600152E+03  0.12699999809E+01 0.  1.
</event>
<event>
 5   0  0.8567844E-05  0.1916622E+04  0.7818609E-02  0.8646626E-01
       -1   -1    0    0    0  501  0.00000000000E+00  0.00000000000E+00  0.14249463030E+04  0.14249463030E+04  0.50400001928E-02 0.  1.
        1   -1    0    0  501    0  0.00000000000E+00  0.00000000000E+00 -0.64448750168E+03  0.64448750170E+03  0.50400001928E-02 0. -1.
    10030    2    1    2    0    0  0.00000000000E+00  0.00000000000E+00  0.78045880135E+03  0.20694338047E+04  0.19166221150E+04 0.  0.
        4    1    3    3  502    0 -0.14660879165E+03  0.35954653362E+03 -0.55574606810E+03  0.67795512590E+03  0.12699999809E+01 0. -1.
       -4    1    3    3    0  502  0.14660879165E+03 -0.35954653362E+03  0.13362048694E+04  0.13914786788E+04  0.12699999809E+01 0.  1.
</event>
<event>
 5   0  0.1810569E-04  0.1864083E+04  0.7818609E-02  0.8672944E-01
       -2   -1    0    0    0  501  0.00000000000E+00  0.00000000000E+00  0.95194445628E+03  0.95194445628E+03  0.25500000920E-02 0. -1.
        2   -1    0    0  501    0  0.00000000000E+00  0.00000000000E+00 -0.91255461616E+03  0.91255461616E+03  0.25500000920E-02 0.  1.
    10030    2    1    2    0    0  0.00000000000E+00  0.00000000000E+00  0.39389840118E+02  0.18644990724E+04  0.18640829466E+04 0.  0.
        4    1    3    3  502    0 -0.50821305088E+03  0.73974504319E+03  0.27114010155E+03  0.93756162548E+03  0.12699999809E+01 0. -1.
       -4    1    3    3    0  502  0.50821305088E+03 -0.73974504319E+03 -0.23175026143E+03  0.92693744696E+03  0.12699999809E+01 0.  1.
</event>
<event>
 5   0  0.8681396E-05  0.1892654E+04  0.7818609E-02  0.8658522E-01
        1   -1    0    0  501    0  0.00000000000E+00  0.00000000000E+00  0.12581945739E+04  0.12581945739E+04  0.50400001928E-02 0.  1.
       -1   -1    0    0    0  501  0.00000000000E+00  0.00000000000E+00 -0.71176186176E+03  0.71176186178E+03  0.50400001928E-02 0. -1.
    10030    2    1    2    0    0  0.00000000000E+00  0.00000000000E+00  0.54643271217E+03  0.19699564357E+04  0.18926541284E+04 0.  0.
        3    1    3    3  502    0  0.55904769481E+02 -0.73994622202E+03 -0.33804245182E+03  0.81542532715E+03  0.10100000352E+00 0. -1.
       -3    1    3    3    0  502 -0.55904769481E+02  0.73994622202E+03  0.88447516399E+03  0.11545311086E+04  0.10100000352E+00 0.  1.
</event>
<event>
 5   0  0.8567844E-05  0.1946016E+04  0.7818609E-02  0.8632284E-01
        1   -1    0    0  501    0  0.00000000000E+00  0.00000000000E+00  0.14170761742E+04  0.14170761742E+04  0.50400001928E-02 0.  1.
       -1   -1    0    0    0  501  0.00000000000E+00  0.00000000000E+00 -0.66809709779E+03  0.66809709781E+03  0.50400001928E-02 0. -1.
    10030    2    1    2    0    0  0.00000000000E+00  0.00000000000E+00  0.74897907638E+03  0.20851732720E+04  0.19460159088E+04 0.  0.
        4    1    3    3  502    0  0.44466142170E+03 -0.63171902343E+03  0.10083575893E+04  0.12702674306E+04  0.12699999809E+01 0.  1.
       -4    1    3    3    0  502 -0.44466142170E+03  0.63171902343E+03 -0.25937851288E+03  0.81490584140E+03  0.12699999809E+01 0. -1.
</event>
<event>
 5   0  0.8602017E-05  0.1880350E+04  0.7818609E-02  0.8664700E-01
        1   -1    0    0  501    0  0.00000000000E+00  0.00000000000E+00  0.13462029798E+04  0.13462029798E+04  0.50400001928E-02 0.  1.
       -1   -1    0    0    0  501  0.00000000000E+00  0.00000000000E+00 -0.65660918882E+03  0.65660918884E+03  0.50400001928E-02 0. -1.
    10030    2    1    2    0    0  0.00000000000E+00  0.00000000000E+00  0.68959379101E+03  0.20028121687E+04  0.18803502297E+04 0.  0.
        2    1    3    3  502    0 -0.37678942231E+03  0.45435381341E+03 -0.43465616420E+03  0.73303044794E+03  0.25500000920E-02 0. -1.
       -2    1    3    3    0  502  0.37678942231E+03 -0.45435381341E+03  0.11242499552E+04  0.12697817207E+04  0.25500000920E-02 0.  1.
</event>
<event>
 5   0  0.1799738E-04  0.1932429E+04  0.7818609E-02  0.8638881E-01
       -2   -1    0    0    0  501  0.00000000000E+00  0.00000000000E+00  0.10989534853E+04  0.10989534853E+04  0.25500000920E-02 0. -1.
        2   -1    0    0  501    0  0.00000000000E+00  0.00000000000E+00 -0.84950854795E+03  0.84950854796E+03  0.25500000920E-02 0.  1.
    10030    2    1    2    0    0  0.00000000000E+00  0.00000000000E+00  0.24944493738E+03  0.19484620333E+04  0.19324289168E+04 0.  0.
        1    1    3    3  502    0 -0.14274403948E+03 -0.68793028276E+03  0.79351024452E+03  0.10598501983E+04  0.50400001928E-02 0. -1.
       -1    1    3    3    0  502  0.14274403948E+03  0.68793028276E+03 -0.54406530714E+03  0.88861183495E+03  0.50400001928E-02 0.  1.
</event>
<event>
 5   0  0.8905646E-05  0.1875631E+04  0.7818609E-02  0.8667082E-01
       -1   -1    0    0    0  501  0.00000000000E+00  0.00000000000E+00  0.78446407601E+03  0.78446407603E+03  0.50400001928E-02 0.  1.
        1   -1    0    0  501    0  0.00000000000E+00  0.00000000000E+00 -0.11211447834E+04  0.11211447834E+04  0.50400001928E-02 0. -1.
    10030    2    1    2    0    0  0.00000000000E+00  0.00000000000E+00 -0.33668070734E+03  0.19056088594E+04  0.18756308875E+04 0.  0.
        1    1    3    3  502    0  0.32634340047E+03  0.87113294594E+03 -0.47591389564E+02  0.93147064630E+03  0.50400001928E-02 0.  1.
       -1    1    3    3    0  502 -0.32634340047E+03 -0.87113294594E+03 -0.28908931778E+03  0.97413821309E+03  0.50400001928E-02 0. -1.
</event>
<event>
 5   0  0.1799738E-04  0.1860354E+04  0.7818609E-02  0.8674846E-01
        2   -1    0    0  501    0  0.00000000000E+00  0.00000000000E+00  0.10174827441E+04  0.10174827441E+04  0.25500000920E-02 0.  1.
       -2   -1    0    0    0  501  0.00000000000E+00  0.00000000000E+00 -0.85036242740E+03  0.85036242740E+03  0.25500000920E-02 0. -1.
    10030    2    1    2    0    0  0.00000000000E+00  0.00000000000E+00  0.16712031669E+03  0.18678451715E+04  0.18603538331E+04 0.  0.
        1    1    3    3  502    0 -0.91550032296E+03 -0.15322374536E+03  0.14389155033E+03  0.93932057135E+03  0.50400001928E-02 0. -1.
       -1    1    3    3    0  502  0.91550032296E+03  0.15322374536E+03  0.23228766358E+02  0.92852460015E+03  0.50400001928E-02 0.  1.
</event>
<event>
 5   0  0.1658711E-04  0.1882222E+04  0.7818609E-02  0.8663756E-01
       -2   -1    0    0    0  501  0.00000000000E+00  0.00000000000E+00  0.67406874437E+03  0.67406874437E+03  0.25500000920E-02 0.  1.
        2   -1    0    0  501    0  0.00000000000E+00  0.00000000000E+00 -0.13139463147E+04  0.13139463147E+04  0.25500000920E-02 0. -1.
    10030    2    1    2    0    0  0.00000000000E+00  0.00000000000E+00 -0.63987757031E+03  0.19880150590E+04  0.18822222425E+04 0.  0.
        2    1    3    3  502    0  0.15433439688E+03 -0.74360418185E+03  0.26711040458E+03  0.80505543509E+03  0.25500000920E-02 0. -1.
       -2    1    3    3    0  502 -0.15433439688E+03  0.74360418185E+03 -0.90698797489E+03  0.11829596240E+04  0.25500000920E-02 0.  1.
</event>
<event>
 5   0  0.1810569E-04  0.1868902E+04  0.7818609E-02  0.8670493E-01
       -2   -1    0    0    0  501  0.00000000000E+00  0.00000000000E+00  0.12140171798E+04  0.12140171798E+04  0.25500000920E-02 0.  1.
        2   -1    0    0  501    0  0.00000000000E+00  0.00000000000E+00 -0.71926360805E+03  0.71926360805E+03  0.25500000920E-02 0. -1.
    10030    2    1    2    0    0  0.00000000000E+00  0.00000000000E+00  0.49475357171E+03  0.19332807878E+04  0.18689016849E+04 0.  0.
        4    1    3    3  502    0  0.43092747693E+03  0.71561132344E+03  0.68060992930E+03  0.10775108099E+04  0.12699999809E+01 0.  1.
       -4    1    3    3    0  502 -0.43092747693E+03 -0.71561132344E+03 -0.18585635759E+03  0.85576997795E+03  0.12699999809E+01 0. -1.
</event>
<event>
 5   0  0.8567844E-05  0.1897647E+04  0.7818609E-02  0.8656029E-01
       -1   -1    0    0    0  501  0.00000000000E+00  0.00000000000E+00  0.61750817055E+03  0.61750817057E+03  0.50400001928E-02 0.  1.
        1   -1    0    0  501    0  0.00000000000E+00  0.00000000000E+00 -0.14579010646E+04  0.14579010646E+04  0.50400001928E-02 0. -1.
    10030    2    1    2    0    0  0.00000000000E+00  0.00000000000E+00 -0.84039289404E+03  0.20754092352E+04  0.18976467735E+04 0.  0.
        4    1    3    3  502    0 -0.81318797169E+03 -0.46000082273E+03 -0.23919808274E+03  0.96441317385E+03  0.12699999809E+01 0.  1.
       -4    1    3    3    0  502  0.81318797169E+03  0.46000082273E+03 -0.60119481130E+03  0.11109960613E+04  0.12699999809E+01 0. -1.
</event>
<event>
 5   0  0.8905646E-05  0.1878255E+04  0.7818609E-02  0.8665757E-01
        1   -1    0    0  501    0  0.00000000000E+00  0.00000000000E+00  0.23381893397E+04  0.23381893397E+04  0.50400001928E-02 0.  1.
       -1   -1    0    0    0  501  0.00000000000E+00  0.00000000000E+00 -0.37719803415E+03  0.37719803418E+03  0.50400001928E-02 0. -1.
    10030    2    1    2    0    0  0.00000000000E+00  0.00000000000E+00  0.19609913056E+04  0.27153873739E+04  0.18782549587E+04 0.  0.
        1    1    3    3  502    0 -0.39347865228E+03  0.26287015406E+03  0.21532350122E+04  0.22046195103E+04  0.50400001928E-02 0.  1.
       -1    1    3    3    0  502  0.39347865228E+03 -0.26287015406E+03 -0.19224370660E+03  0.51076786356E+03  0.50400001928E-02 0. -1.
</event>
<event>
 5   0  0.1810569E-04  0.1842039E+04  0.7818609E-02  0.8684258E-01
       -2   -1    0    0    0  501  0.00000000000E+00  0.00000000000E+00  0.62434619603E+03  0.62434619604E+03  0.25500000920E-02 0. -1.
        2   -1    0    0  501    0  0.00000000000E+00  0.00000000000E+00 -0.13586643022E+04  0.13586643022E+04  0.25500000920E-02 0.  1.
    10030    2    1    2    0    0  0.00000000000E+00  0.00000000000E+00 -0.73431810618E+03  0.19830104983E+04  0.18420389668E+04 0.  0.
        4    1    3    3  502    0  0.15611527915E+03 -0.88707660483E+03 -0.16008884070E+03  0.91482617640E+03  0.12699999809E+01 0. -1.
       -4    1    3    3    0  502 -0.15611527915E+03  0.88707660483E+03 -0.57422926548E+03  0.10681843219E+04  0.12699999809E+01 0.  1.
</event>
<event>
 5   0  0.1790832E-04  0.1884591E+04  0.7818609E-02  0.8662564E-01
        2   -1    0    0  501    0  0.00000000000E+00  0.00000000000E+00  0.88539993482E+03  0.88539993483E+03  0.25500000920E-02 0. -1.
       -2   -1    0    0    0  501  0.00000000000E+00  0.00000000000E+00 -0.10028476814E+04  0.10028476814E+04  0.25500000920E-02 0.  1.
    10030    2    1    2    0    0  0.00000000000E+00  0.00000000000E+00 -0.11744774658E+03  0.18882476162E+04  0.18845914908E+04 0.  0.
        5    1    3    3  502    0 -0.59038655978E+03 -0.46535592049E+03  0.51052158580E+03  0.90871711895E+03  0.46999998093E+01 0.  1.
       -5    1    3    3    0  502  0.59038655978E+03  0.46535592049E+03 -0.62796933238E+03  0.97953049729E+03  0.46999998093E+01 0. -1.
</event>
<event>
 5   0  0.8602017E-05  0.1838404E+04  0.7818609E-02  0.8686139E-01
        1   -1    0    0  501    0  0.00000000000E+00  0.00000000000E+00  0.17530949671E+04  0.17530949671E+04  0.50400001928E-02 0.  1.
       -1   -1    0    0    0  501  0.00000000000E+00  0.00000000000E+00 -0.48196600940E+03  0.48196600943E+03  0.50400001928E-02 0. -1.
    10030    2    1    2    0    0  0.00000000000E+00  0.00000000000E+00  0.12711289577E+04  0.22350609766E+04  0.18384038571E+04 0.  0.
        2    1    3    3  502    0 -0.49360555034E+03 -0.50541213850E+03 -0.79407094337E+02  0.71091023042E+03  0.25500000920E-02 0. -1.
       -2    1    3    3    0  502  0.49360555034E+03  0.50541213850E+03  0.13505360521E+04  0.15241507462E+04  0.25500000920E-02 0.  1.
</event>
<event>
 5   0  0.8681396E-05  0.1856550E+04  0.7818609E-02  0.8676792E-01
       -1   -1    0    0    0  501  0.00000000000E+00  0.00000000000E+00  0.85682789563E+03  0.85682789565E+03  0.50400001928E-02 0. -1.
        1   -1    0    0  501    0  0.00000000000E+00  0.00000000000E+00 -0.10056793350E+04  0.10056793350E+04  0.50400001928E-02 0.  1.
    10030    2    1    2    0    0  0.00000000000E+00  0.00000000000E+00 -0.14885143937E+03  0.18625072307E+04  0.18565496043E+04 0.  0.
        3    1    3    3  502    0 -0.36654543983E+02  0.83223026858E+03  0.33645336118E+03  0.89841618974E+03  0.10100000352E+00 0. -1.
       -3    1    3    3    0  502  0.36654543983E+02 -0.83223026858E+03 -0.48530480054E+03  0.96409104091E+03  0.10100000352E+00 0.  1.
</event>
<event>
 5   0  0.1658711E-04  0.1898454E+04  0.7818609E-02  0.8655627E-01
        2   -1    0    0  501    0  0.00000000000E+00  0.00000000000E+00  0.19490382903E+04  0.19490382903E+04  0.25500000920E-02 0.  1.
       -2   -1    0    0    0  501  0.00000000000E+00  0.00000000000E+00 -0.46229543567E+03  0.46229543567E+03  0.25500000920E-02 0. -1.
    10030    2    1    2    0    0  0.00000000000E+00  0.00000000000E+00  0.14867428546E+04  0.24113337260E+04  0.18984535871E+04 0.  0.
        2    1    3    3  502    0 -0.83364375794E+03 -0.45392712436E+03  0.74901700833E+03  0.12091477280E+04  0.25500000920E-02 0. -1.
       -2    1    3    3    0  502  0.83364375794E+03  0.45392712436E+03  0.73772584631E+03  0.12021859980E+04  0.25500000920E-02 0.  1.
</event>
<event>
 5   0  0.1810569E-04  0.1879782E+04  0.7818609E-02  0.8664986E-01
       -2   -1    0    0    0  501  0.00000000000E+00  0.00000000000E+00  0.10045465350E+04  0.10045465350E+04  0.25500000920E-02 0.  1.
        2   -1    0    0  501    0  0.00000000000E+00  0.00000000000E+00 -0.87939705050E+03  0.87939705050E+03  0.25500000920E-02 0. -1.
    10030    2    1    2    0    0  0.00000000000E+00  0.00000000000E+00  0.12514948449E+03  0.18839435855E+04  0.18797821788E+04 0.  0.
        4    1    3    3  502    0  0.28631678589E+03  0.48522805018E+03  0.81655001646E+03  0.99205801486E+03  0.12699999809E+01 0.  1.
       -4    1    3    3    0  502 -0.28631678589E+03 -0.48522805018E+03 -0.69140053197E+03  0.89188557062E+03  0.12699999809E+01 0. -1.
</event>
<event>
 5   0  0.8905646E-05  0.1894680E+04  0.7818609E-02  0.8657509E-01
       -1   -1    0    0    0  501  0.00000000000E+00  0.00000000000E+00  0.13302581034E+04  0.13302581034E+04  0.50400001928E-02 0. -1.
        1   -1    0    0  501    0  0.00000000000E+00  0.00000000000E+00 -0.67464586165E+03  0.67464586167E+03  0.50400001928E-02 0.  1.
    10030    2    1    2    0    0  0.00000000000E+00  0.00000000000E+00  0.65561224173E+03  0.20049039651E+04  0.18946800515E+04 0.  0.
        1    1    3    3  502    0 -0.80772759222E+03 -0.33079004767E+03 -0.61865766813E+02  0.87502759499E+03  0.50400001928E-02 0.  1.
       -1    1    3    3    0  502  0.80772759222E+03  0.33079004767E+03  0.71747800854E+03  0.11298763701E+04  0.50400001928E-02 0. -1.
</event>
<event>
 5   0  0.8905646E-05  0.1919740E+04  0.7818609E-02  0.8645092E-01
        1   -1    0    0  501    0  0.00000000000E+00  0.00000000000E+00  0.71400750655E+03  0.71400750657E+03  0.50400001928E-02 0.  1.
       -1   -1    0    0    0  501  0.00000000000E+00  0.00000000000E+00 -0.12903931293E+04  0.12903931293E+04  0.50400001928E-02 0. -1.
    10030    2    1    2    0    0  0.00000000000E+00  0.00000000000E+00 -0.57638562272E+03  0.20044006358E+04  0.19197399623E+04 0.  0.
        1    1    3    3  502    0  0.39623522518E+03  0.39282379502E+03  0.52730047537E+03  0.76769699684E+03  0.50400001928E-02 0.  1.
       -1    1    3    3    0  502 -0.39623522518E+03 -0.39282379502E+03 -0.11036860981E+04  0.12367036390E+04  0.50400001928E-02 0. -1.
</event>
<event>
 5   0  0.1765328E-04  0.1822945E+04  0.7818609E-02  0.8694192E-01
        2   -1    0    0  501    0  0.00000000000E+00  0.00000000000E+00  0.12896562488E+04  0.12896562488E+04  0.25500000920E-02 0. -1.
       -2   -1    0    0    0  501  0.00000000000E+00  0.00000000000E+00 -0.64418869757E+03  0.64418869757E+03  0.25500000920E-02 0.  1.
    10030    2    1    2    0    0  0.00000000000E+00  0.00000000000E+00  0.64546755120E+03  0.19338449463E+04  0.18229448475E+04 0.  0.
        3    1    3    3  502    0 -0.34131657072E+03 -0.41500789739E+02 -0.57275397247E+03  0.66803176584E+03  0.10100000352E+00 0.  1.
       -3    1    3    3    0  502  0.34131657072E+03  0.41500789739E+02  0.12182215237E+04  0.12658131805E+04  0.10100000352E+00 0. -1.
</event>
<event>
 5   0  0.8567844E-05  0.1890707E+04  0.7818609E-02  0.8659496E-01
       -1   -1    0    0    0  501  0.00000000000E+00  0.00000000000E+00  0.86337501104E+03  0.86337501105E+03  0.50400001928E-02 0.  1.
        1   -1    0    0  501    0  0.00000000000E+00  0.00000000000E+00 -0.10351164356E+04  0.10351164356E+04  0.50400001928E-02 0. -1.
    10030    2    1    2    0    0  0.00000000000E+00  0.00000000000E+00 -0.17174142459E+03  0.18984914467E+04  0.18907074486E+04 0.  0.
        4    1    3    3  502    0  0.77932320783E+03 -0.50478428761E+03 -0.26419751089E+03  0.96537753078E+03  0.12699999809E+01 0.  1.
       -4    1    3    3    0  502 -0.77932320783E+03  0.50478428761E+03  0.92456086306E+02  0.93311391591E+03  0.12699999809E+01 0. -1.
</event>
<event>
 5   0  0.8905646E-05  0.1844100E+04  0.7818609E-02  0.8683193E-01
        1   -1    0    0  501    0  0.00000000000E+00  0.00000000000E+00  0.25308398697E+04  0.25308398697E+04  0.50400001928E-02 0.  1.
       -1   -1    0    0    0  501  0.00000000000E+00  0.00000000000E+00 -0.33592661001E+03  0.33592661004E+03  0.50400001928E-02 0. -1.
    10030    2    1    2    0    0  0.00000000000E+00  0.00000000000E+00  0.21949132597E+04  0.28667664798E+04  0.18441002771E+04 0.  0.
        1    1    3    3  502    0  0.44741921615E+03 -0.79799808998E+03  0.12760049304E+04  0.15700870960E+04  0.50400001928E-02 0. -1.
       -1    1    3    3    0  502 -0.44741921615E+03  0.79799808998E+03  0.91890832933E+03  0.12966793838E+04  0.50400001928E-02 0.  1.
</event>
<event>
 5   0  0.8905646E-05  0.1916878E+04  0.7818609E-02  0.8646501E-01
       -1   -1    0    0    0  501  0.00000000000E+00  0.00000000000E+00  0.45747149310E+03  0.45747149313E+03  0.50400001928E-02 0.  1.
        1   -1    0    0  501    0  0.00000000000E+00  0.00000000000E+00 -0.20080049473E+04  0.20080049474E+04  0.50400001928E-02 0. -1.
    10030    2    1    2    0    0  0.00000000000E+00  0.00000000000E+00 -0.15505334542E+04  0.24654764405E+04  0.19168776919E+04 0.  0.
        1    1    3    3  502    0 -0.44111402915E+03 -0.31637317430E+03 -0.17912227097E+04  0.18716710095E+04  0.50400001928E-02 0. -1.
       -1    1    3    3    0  502  0.44111402915E+03  0.31637317430E+03  0.24068925546E+03  0.59380543096E+03  0.50400001928E-02 0.  1.
</event>
<event>
 5   0  0.8681396E-05  0.1891241E+04  0.7818609E-02  0.8659229E-01
        1   -1    0    0  501    0  0.00000000000E+00  0.00000000000E+00  0.49731536996E+03  0.49731536998E+03  0.50400001928E-02 0.  1.
       -1   -1    0    0    0  501  0.00000000000E+00  0.00000000000E+00 -0.17980502483E+04  0.17980502483E+04  0.50400001928E-02 0. -1.
    10030    2    1    2    0    0  0.00000000000E+00  0.00000000000E+00 -0.13007348784E+04  0.22953656183E+04  0.18912408884E+04 0.  0.
        3    1    3    3  502    0 -0.50374712533E+03  0.72779407121E+03 -0.24645980384E+03  0.91879694246E+03  0.10100000352E+00 0.  1.
       -3    1    3    3    0  502  0.50374712533E+03 -0.72779407121E+03 -0.10542750745E+04  0.13765686758E+04  0.10100000352E+00 0. -1.
</event>
<event>
 5   0  0.1790832E-04  0.1885884E+04  0.7818609E-02  0.8661915E-01
        2   -1    0    0  501    0  0.00000000000E+00  0.00000000000E+00  0.17925002592E+04  0.17925002592E+04  0.25500000920E-02 0.  1.
       -2   -1    0    0    0  501  0.00000000000E+00  0.00000000000E+00 -0.49603322640E+03  0.49603322640E+03  0.25500000920E-02 0. -1.
    10030    2    1    2    0    0  0.00000000000E+00  0.00000000000E+00  0.12964670328E+04  0.22885334856E+04  0.18858840759E+04 0.  0.
        5    1    3    3  502    0  0.47021756928E+03 -0.72987443894E+03  0.10945935470E+04  0.13971321992E+04  0.46999998093E+01 0.  1.
       -5    1    3    3    0  502 -0.47021756928E+03  0.72987443894E+03  0.20187348586E+03  0.89140128639E+03  0.46999998093E+01 0. -1.
</event>
<event>
 5   0  0.8567844E-05  0.1929753E+04  0.7818609E-02  0.8640186E-01
       -1   -1    0    0    0  501  0.00000000000E+00  0.00000000000E+00  0.19458840090E+04  0.19458840090E+04  0.50400001928E-02 0.  1.
        1   -1    0    0  501    0  0.00000000000E+00  0.00000000000E+00 -0.47843904538E+03  0.47843904540E+03  0.50400001928E-02 0. -1.
    10030    2    1    2    0    0  0.00000000000E+00  0.00000000000E+00  0.14674449636E+04  0.24243230544E+04  0.19297532357E+04 0.  0.
        4    1    3    3  502    0 -0.50582109139E+03 -0.77648244689E+03  0.39614515013E+03  0.10078256594E+04  0.12699999809E+01 0. -1.
       -4    1    3    3    0  502  0.50582109139E+03  0.77648244689E+03  0.10712998135E+04  0.14164973950E+04  0.12699999809E+01 0.  1.
</event>
<event>
 5   0  0.8905646E-05  0.1880307E+04  0.7818609E-02  0.8664721E-01
        1   -1    0    0  501    0  0.00000000000E+00  0.00000000000E+00  0.83624434707E+03  0.83624434708E+03  0.50400001928E-02 0.  1.
       -1   -1    0    0    0  501  0.00000000000E+00  0.00000000000E+00 -0.10569745486E+04  0.10569745486E+04  0.50400001928E-02 0. -1.
    10030    2    1    2    0    0  0.00000000000E+00  0.00000000000E+00 -0.22073020153E+03  0.18932188957E+04  0.18803074124E+04 0.  0.
        1    1    3    3  502    0  0.19095604005E+03  0.70968718089E+02 -0.10344845606E+04  0.10543524432E+04  0.50400001928E-02 0. -1.
       -1    1    3    3    0  502 -0.19095604005E+03 -0.70968718089E+02  0.81375435911E+03  0.83886645253E+03  0.50400001928E-02 0.  1.
</event>
<event>
 5   0  0.8905646E-05  0.1910511E+04  0.7818609E-02  0.8649642E-01
        1   -1    0    0  501    0  0.00000000000E+00  0.00000000000E+00  0.67908220456E+03  0.67908220458E+03  0.50400001928E-02 0. -1.
       -1   -1    0    0    0  501  0.00000000000E+00  0.00000000000E+00 -0.13437443158E+04  0.13437443158E+04  0.50400001928E-02 0.  1.
    10030    2    1    2    0    0  0.00000000000E+00  0.00000000000E+00 -0.66466211121E+03  0.20228265204E+04  0.19105107719E+04 0.  0.
        1    1    3    3  502    0 -0.57740323557E+03 -0.72492005164E+03 -0.57747948408E+03  0.10919643457E+04  0.50400001928E-02 0. -1.
       -1    1    3    3    0  502  0.57740323557E+03  0.72492005164E+03 -0.87182627124E+02  0.93086217466E+03  0.50400001928E-02 0.  1.
</event>
<event>
 5   0  0.1790832E-04  0.1926555E+04  0.7818609E-02  0.8641750E-01
        2   -1    0    0  501    0  0.00000000000E+00  0.00000000000E+00  0.92912718737E+03  0.92912718738E+03  0.25500000920E-02 0. -1.
       -2   -1    0    0    0  501  0.00000000000E+00  0.00000000000E+00 -0.99868311114E+03  0.99868311114E+03  0.25500000920E-02 0.  1.
    10030    2    1    2    0    0  0.00000000000E+00  0.00000000000E+00 -0.69555923765E+02  0.19278102985E+04  0.19265550915E+04 0.  0.
        5    1    3    3  502    0  0.22991612214E+03  0.30477516181E+03 -0.91973655624E+03  0.99583469781E+03  0.46999998093E+01 0.  1.
       -5    1    3    3    0  502 -0.22991612214E+03 -0.30477516181E+03  0.85018063248E+03  0.93197560071E+03  0.46999998093E+01 0. -1.
</event>
<event>
 5   0  0.1810569E-04  0.1883819E+04  0.7818609E-02  0.8662953E-01
       -2   -1    0    0    0  501  0.00000000000E+00  0.00000000000E+00  0.59082017714E+03  0.59082017715E+03  0.25500000920E-02 0. -1.
        2   -1    0    0  501    0  0.00000000000E+00  0.00000000000E+00 -0.15016306554E+04  0.15016306554E+04  0.25500000920E-02 0.  1.
    10030    2    1    2    0    0  0.00000000000E+00  0.00000000000E+00 -0.91081047826E+03  0.20924508326E+04  0.18838191950E+04 0.  0.
        4    1    3    3  502    0 -0.62001674838E+03  0.40697581263E+03  0.18953945076E+03  0.76549127796E+03  0.12699999809E+01 0. -1.
       -4    1    3    3    0  502  0.62001674838E+03 -0.40697581263E+03 -0.11003499290E+04  0.13269595546E+04  0.12699999809E+01 0.  1.
</event>
<event>
 5   0  0.8587082E-05  0.1851991E+04  0.7818609E-02  0.8679129E-01
       -1   -1    0    0    0  501  0.00000000000E+00  0.00000000000E+00  0.73464215873E+03  0.73464215874E+03  0.50400001928E-02 0.  1.
        1   -1    0    0  501    0  0.00000000000E+00  0.00000000000E+00 -0.11671913113E+04  0.11671913113E+04  0.50400001928E-02 0. -1.
    10030    2    1    2    0    0  0.00000000000E+00  0.00000000000E+00 -0.43254915256E+03  0.19018334700E+04  0.18519913008E+04 0.  0.
        5    1    3    3  502    0 -0.61167219515E+03  0.53108969839E+03 -0.67695307321E+03  0.10556925193E+04  0.46999998093E+01 0. -1.
       -5    1    3    3    0  502  0.61167219515E+03 -0.53108969839E+03  0.24440392065E+03  0.84614095071E+03  0.46999998093E+01 0.  1.
</event>
<event>
 5   0  0.1810569E-04  0.1919889E+04  0.7818609E-02  0.8645019E-01
       -2   -1    0    0    0  501  0.00000000000E+00  0.00000000000E+00  0.62300090331E+03  0.62300090331E+03  0.25500000920E-02 0. -1.
        2   -1    0    0  501    0  0.00000000000E+00  0.00000000000E+00 -0.14791200493E+04  0.14791200493E+04  0.25500000920E-02 0.  1.
    10030    2    1    2    0    0  0.00000000000E+00  0.00000000000E+00 -0.85611914595E+03  0.21021209526E+04  0.19198886705E+04 0.  0.
        4    1    3    3  502    0 -0.11745038587E+03  0.45583363692E+03  0.48795749561E+03  0.67799928327E+03  0.12699999809E+01 0. -1.
       -4    1    3    3    0  502  0.11745038587E+03 -0.45583363692E+03 -0.13440766416E+04  0.14241216693E+04  0.12699999809E+01 0.  1.
</event>
<event>
 5   0  0.8681396E-05  0.1867599E+04  0.7818609E-02  0.8671154E-01
       -1   -1    0    0    0  501  0.00000000000E+00  0.00000000000E+00  0.56235002704E+03  0.56235002707E+03  0.50400001928E-02 0.  1.
        1   -1    0    0  501    0  0.00000000000E+00  0.00000000000E+00 -0.15506032406E+04  0.15506032406E+04  0.50400001928E-02 0. -1.
    10030    2    1    2    0    0  0.00000000000E+00  0.00000000000E+00 -0.98825321359E+03  0.21129532677E+04  0.18675992871E+04 0.  0.
        3    1    3    3  502    0  0.76535119061E+03  0.52831823381E+03 -0.39880095888E+03  0.10118917018E+04  0.10100000352E+00 0.  1.
       -3    1    3    3    0  502 -0.76535119061E+03 -0.52831823381E+03 -0.58945225472E+03  0.11010615659E+04  0.10100000352E+00 0. -1.
</event>
<event>
 5   0  0.1658711E-04  0.1834654E+04  0.7818609E-02  0.8688085E-01
       -2   -1    0    0    0  501  0.00000000000E+00  0.00000000000E+00  0.56619870015E+03  0.56619870016E+03  0.25500000920E-02 0.  1.
        2   -1    0    0  501    0  0.00000000000E+00  0.00000000000E+00 -0.14862079239E+04  0.14862079239E+04  0.25500000920E-02 0. -1.
    10030    2    1    2    0    0  0.00000000000E+00  0.00000000000E+00 -0.92000922377E+03  0.20524066241E+04  0.18346541851E+04 0.  0.
        2    1    3    3  502    0 -0.36085926338E+03 -0.43350985570E+03 -0.12692880551E+04  0.13889716951E+04  0.25500000920E-02 0. -1.
       -2    1    3    3    0  502  0.36085926338E+03  0.43350985570E+03  0.34927883134E+03  0.66343492898E+03  0.25500000920E-02 0.  1.
</event>
<event>
 5   0  0.1799738E-04  0.1898413E+04  0.7818609E-02  0.8655647E-01
        2   -1    0    0  501    0  0.00000000000E+00  0.00000000000E+00  0.16280358092E+04  0.16280358092E+04  0.25500000920E-02 0.  1.
       -2   -1    0    0    0  501  0.00000000000E+00  0.00000000000E+00 -0.55342330048E+03  0.55342330048E+03  0.25500000920E-02 0. -1.
    10030    2    1    2    0    0  0.00000000000E+00  0.00000000000E+00  0.10746125087E+04  0.21814591097E+04  0.18984129696E+04 0.  0.
        1    1    3    3  502    0  0.32715586134E+03  0.87557582583E+03  0.72726880314E+03  0.11843073488E+04  0.50400001928E-02 0.  1.
       -1    1    3    3    0  502 -0.32715586134E+03 -0.87557582583E+03  0.34734370557E+03  0.99715176087E+03  0.50400001928E-02 0. -1.
</event>
<event>
 5   0  0.8567844E-05  0.1911738E+04  0.7818609E-02  0.8649035E-01
        1   -1    0    0  501    0  0.00000000000E+00  0.00000000000E+00  0.15039759772E+04  0.15039759772E+04  0.50400001928E-02 0.  1.
       -1   -1    0    0    0  501  0.00000000000E+00  0.00000000000E+00 -0.60751363589E+03  0.60751363591E+03  0.50400001928E-02 0. -1.
    10030    2    1    2    0    0  0.00000000000E+00  0.00000000000E+00  0.89646234133E+03  0.21114896131E+04  0.19117383861E+04 0.  0.
        4    1    3    3  502    0 -0.82555391221E+03 -0.23134802652E+02 -0.83312527517E+02  0.83007052182E+03  0.12699999809E+01 0. -1.
       -4    1    3    3    0  502  0.82555391221E+03  0.23134802652E+02  0.97977486884E+03  0.12814190913E+04  0.12699999809E+01 0.  1.
</event>
<event>
 5   0  0.1799738E-04  0.1892417E+04  0.7818609E-02  0.8658640E-01
       -2   -1    0    0    0  501  0.00000000000E+00  0.00000000000E+00  0.69784733622E+03  0.69784733622E+03  0.25500000920E-02 0.  1.
        2   -1    0    0  501    0  0.00000000000E+00  0.00000000000E+00 -0.12829600976E+04  0.12829600977E+04  0.25500000920E-02 0. -1.
    10030    2    1    2    0    0  0.00000000000E+00  0.00000000000E+00 -0.58511276143E+03  0.19808074339E+04  0.18924167476E+04 0.  0.
        1    1    3    3  502    0  0.94613904592E+03 -0.10736322061E+02 -0.28837953508E+03  0.98916991418E+03  0.50400001928E-02 0.  1.
       -1    1    3    3    0  502 -0.94613904592E+03  0.10736322061E+02 -0.29673322635E+03  0.99163751970E+03  0.50400001928E-02 0. -1.
</event>
<event>
 5   0  0.8602017E-05  0.1932893E+04  0.7818609E-02  0.8638655E-01
        1   -1    0    0  501    0  0.00000000000E+00  0.00000000000E+00  0.10967991076E+04  0.10967991077E+04  0.50400001928E-02 0. -1.
       -1   -1    0    0    0  501  0.00000000000E+00  0.00000000000E+00 -0.85158579663E+03  0.85158579664E+03  0.50400001928E-02 0.  1.
    10030    2    1    2    0    0  0.00000000000E+00  0.00000000000E+00  0.24521331101E+03  0.19483849043E+04  0.19328926942E+04 0.  0.
        2    1    3    3  502    0 -0.83960534728E+02 -0.62448604672E+03  0.86127354746E+03  0.10671571194E+04  0.25500000920E-02 0. -1.
       -2    1    3    3    0  502  0.83960534728E+02  0.62448604672E+03 -0.61606023644E+03  0.88122778489E+03  0.25500000920E-02 0.  1.
</event>
<event>
 5   0  0.1810569E-04  0.1812886E+04  0.7818609E-02  0.8699477E-01
       -2   -1    0    0    0  501  0.00000000000E+00  0.00000000000E+00  0.83093491226E+03  0.83093491227E+03  0.25500000920E-02 0. -1.
        2   -1    0    0  501    0  0.00000000000E+00  0.00000000000E+00 -0.98881219485E+03  0.98881219485E+03  0.25500000920E-02 0.  1.
    10030    2    1    2    0    0  0.00000000000E+00  0.00000000000E+00 -0.15787728258E+03  0.18197471071E+04  0.18128856273E+04 0.  0.
        4    1    3    3  502    0 -0.90536235853E+03 -0.32480897983E+02 -0.10906811716E+03  0.91248752105E+03  0.12699999809E+01 0. -1.
       -4    1    3    3    0  502  0.90536235853E+03  0.32480897983E+02 -0.48809165420E+02  0.90725958607E+03  0.12699999809E+01 0.  1.
</event>
<event>
 5   0  0.1765328E-04  0.1919053E+04  0.7818609E-02  0.8645430E-01
        2   -1    0    0  501    0  0.00000000000E+00  0.00000000000E+00  0.12930835414E+04  0.12930835414E+04  0.25500000920E-02 0.  1.
       -2   -1    0    0    0  501  0.00000000000E+00  0.00000000000E+00 -0.71201176856E+03  0.71201176857E+03  0.25500000920E-02 0. -1.
    10030    2    1    2    0    0  0.00000000000E+00  0.00000000000E+00  0.58107177286E+03  0.20050953100E+04  0.19190525780E+04 0.  0.
        3    1    3    3  502    0  0.29930777531E+03  0.29645339676E+03  0.11912917807E+04  0.12635845353E+04  0.10100000352E+00 0.  1.
       -3    1    3    3    0  502 -0.29930777531E+03 -0.29645339676E+03 -0.61022000786E+03  0.74151077470E+03  0.10100000352E+00 0. -1.
</event>
<event>
 5   0  0.8602017E-05  0.1910599E+04  0.7818609E-02  0.8649598E-01
       -1   -1    0    0    0  501  0.00000000000E+00  0.00000000000E+00  0.72151849756E+03  0.72151849757E+03  0.50400001928E-02 0.  1.
        1   -1    0    0  501    0  0.00000000000E+00  0.00000000000E+00 -0.12648290894E+04  0.12648290894E+04  0.50400001928E-02 0. -1.
    10030    2    1    2    0    0  0.00000000000E+00  0.00000000000E+00 -0.54331059188E+03  0.19863475870E+04  0.19105994706E+04 0.  0.
        2    1    3    3  502    0 -0.63394802055E+03 -0.74517053426E+02 -0.10105759283E+04  0.11952851504E+04  0.25500000920E-02 0. -1.
       -2    1    3    3    0  502  0.63394802055E+03  0.74517053426E+02  0.46726533638E+03  0.79106243660E+03  0.25500000920E-02 0.  1.
</event>
<event>
 5   0  0.8567844E-05  0.1887251E+04  0.7818609E-02  0.8661229E-01
        1   -1    0    0  501    0  0.00000000000E+00  0.00000000000E+00  0.16367260370E+04  0.16367260370E+04  0.50400001928E-02 0. -1.
       -1   -1    0    0    0  501  0.00000000000E+00  0.00000000000E+00 -0.54403041046E+03  0.54403041049E+03  0.50400001928E-02 0.  1.
    10030    2    1    2    0    0  0.00000000000E+00  0.00000000000E+00  0.10926956266E+04  0.21807564475E+04  0.18872506328E+04 0.  0.
        4    1    3    3  502    0 -0.23135055865E+03 -0.75793615123E+03  0.11383045684E+04  0.13869856501E+04  0.12699999809E+01 0. -1.
       -4    1    3    3    0  502  0.23135055865E+03  0.75793615123E+03 -0.45608941836E+02  0.79377079739E+03  0.12699999809E+01 0.  1.
</event>
<event>
 5   0  0.8681396E-05  0.1709383E+04  0.7818609E-02  0.8756031E-01
       -1   -1    0    0    0  501  0.00000000000E+00  0.00000000000E+00  0.40389464934E+03  0.40389464937E+03  0.50400001928E-02 0. -1.
        1   -1    0    0  501    0  0.00000000000E+00  0.00000000000E+00 -0.18086334397E+04  0.18086334397E+04  0.50400001928E-02 0.  1.
    10030    2    1    2    0    0  0.00000000000E+00  0.00000000000E+00 -0.14047387904E+04  0.22125280891E+04  0.17093827763E+04 0.  0.
        3    1    3    3  502    0  0.61106149257E+03  0.47411355035E+03 -0.11731929681E+04  0.14051909325E+04  0.10100000352E+00 0.  1.
       -3    1    3    3    0  502 -0.61106149257E+03 -0.47411355035E+03 -0.23154582229E+03  0.80733715655E+03  0.10100000352E+00 0. -1.
</event>
<event>
 5   0  0.8681396E-05  0.1881288E+04  0.7818609E-02  0.8664227E-01
       -1   -1    0    0    0  501  0.00000000000E+00  0.00000000000E+00  0.91847799627E+03  0.91847799629E+03  0.50400001928E-02 0.  1.
        1   -1    0    0  501    0  0.00000000000E+00  0.00000000000E+00 -0.96334465028E+03  0.96334465030E+03  0.50400001928E-02 0. -1.
    10030    2    1    2    0    0  0.00000000000E+00  0.00000000000E+00 -0.44866654012E+02  0.18818226466E+04  0.18812877123E+04 0.  0.
        3    1    3    3  502    0  0.23147613267E+03 -0.89385851561E+03 -0.20205779340E+03  0.94519395258E+03  0.10100000352E+00 0. -1.
       -3    1    3    3    0  502 -0.23147613267E+03  0.89385851561E+03  0.15719113939E+03  0.93662869400E+03  0.10100000352E+00 0.  1.
</event>
<event>
 5   0  0.1799738E-04  0.1905410E+04  0.7818609E-02  0.8652168E-01
        2   -1    0    0  501    0  0.00000000000E+00  0.00000000000E+00  0.84785940251E+03  0.84785940251E+03  0.25500000920E-02 0. -1.
       -2   -1    0    0    0  501  0.00000000000E+00  0.00000000000E+00 -0.10705162373E+04  0.10705162373E+04  0.25500000920E-02 0.  1.
    10030    2    1    2    0    0  0.00000000000E+00  0.00000000000E+00 -0.22265683476E+03  0.19183756398E+04  0.19054104621E+04 0.  0.
        1    1    3    3  502    0 -0.50572228098E+02  0.70735601830E+03 -0.75184687773E+03  0.10335297840E+04  0.50400001928E-02 0.  1.
       -1    1    3    3    0  502  0.50572228098E+02 -0.70735601830E+03  0.52919004297E+03  0.88484585577E+03  0.50400001928E-02 0. -1.
</event>
<event>
 5   0  0.1790832E-04  0.1625908E+04  0.7818609E-02  0.8804788E-01
        2   -1    0    0  501    0  0.00000000000E+00  0.00000000000E+00  0.89582070024E+03  0.89582070024E+03  0.25500000920E-02 0. -1.
       -2   -1    0    0    0  501  0.00000000000E+00  0.00000000000E+00 -0.73775314384E+03  0.73775314384E+03  0.25500000920E-02 0.  1.
    10030    2    1    2    0    0  0.00000000000E+00  0.00000000000E+00  0.15806755640E+03  0.16335738441E+04  0.16259084081E+04 0.  0.
        5    1    3    3  502    0 -0.33162343971E+02 -0.79141588444E+03  0.26274441220E+03  0.83456309488E+03  0.46999998093E+01 0.  1.
       -5    1    3    3    0  502  0.33162343971E+02  0.79141588444E+03 -0.10467685579E+03  0.79901074920E+03  0.46999998093E+01 0. -1.
</event>
<event>
 5   0  0.1658711E-04  0.1857048E+04  0.7818609E-02  0.8676537E-01
       -2   -1    0    0    0  501  0.00000000000E+00  0.00000000000E+00  0.21342563604E+04  0.21342563604E+04  0.25500000920E-02 0.  1.
        2   -1    0    0  501    0  0.00000000000E+00  0.00000000000E+00 -0.40396106610E+03  0.40396106611E+03  0.25500000920E-02 0. -1.
    10030    2    1    2    0    0  0.00000000000E+00  0.00000000000E+00  0.17302952943E+04  0.25382174265E+04  0.18570476296E+04 0.  0.
        2    1    3    3  502    0  0.10526187712E+03  0.60304404173E+01  0.21260480310E+04  0.21286607666E+04  0.25500000920E-02 0.  1.
       -2    1    3    3    0  502 -0.10526187712E+03 -0.60304404173E+01 -0.39575273677E+03  0.40955665988E+03  0.25500000920E-02 0. -1.
</event>
<event>
 5   0  0.8905646E-05  0.1936035E+04  0.7818609E-02  0.8637125E-01
       -1   -1    0    0    0  501  0.00000000000E+00  0.00000000000E+00  0.54194049652E+03  0.54194049655E+03  0.50400001928E-02 0. -1.
        1   -1    0    0  501    0  0.00000000000E+00  0.00000000000E+00 -0.17290786307E+04  0.17290786307E+04  0.50400001928E-02 0.  1.
    10030    2    1    2    0    0  0.00000000000E+00  0.00000000000E+00 -0.11871381341E+04  0.22710191272E+04  0.19360348464E+04 0.  0.
        1    1    3    3  502    0  0.85784108604E+03 -0.22803580782E+03 -0.14052270176E+03  0.89868698015E+03  0.50400001928E-02 0. -1.
       -1    1    3    3    0  502 -0.85784108604E+03  0.22803580782E+03 -0.10466154324E+04  0.13723321471E+04  0.50400001928E-02 0.  1.
</event>
<event>
 5   0  0.1658711E-04  0.1892660E+04  0.7818609E-02  0.8658518E-01
        2   -1    0    0  501    0  0.00000000000E+00  0.00000000000E+00  0.86127613703E+03  0.86127613703E+03  0.25500000920E-02 0.  1.
       -2   -1    0    0    0  501  0.00000000000E+00  0.00000000000E+00 -0.10397835234E+04  0.10397835234E+04  0.25500000920E-02 0. -1.
    10030    2    1    2    0    0  0.00000000000E+00  0.00000000000E+00 -0.17850738636E+03  0.19010596604E+04  0.18926602826E+04 0.  0.
        2    1    3    3  502    0  0.70081154552E+03 -0.59808914259E+03 -0.30629896162E+03  0.97091013936E+03  0.25500000920E-02 0.  1.
       -2    1    3    3    0  502 -0.70081154552E+03  0.59808914259E+03  0.12779157526E+03  0.93014952106E+03  0.25500000920E-02 0. -1.
</event>
<event>
 5   0  0.8905646E-05  0.1908833E+04  0.7818609E-02  0.8650472E-01
       -1   -1    0    0    0  501  0.00000000000E+00  0.00000000000E+00  0.55753901967E+03  0.55753901969E+03  0.50400001928E-02 0.  1.
        1   -1    0    0  501    0  0.00000000000E+00  0.00000000000E+00 -0.16338064165E+04  0.16338064165E+04  0.50400001928E-02 0. -1.
    10030    2    1    2    0    0  0.00000000000E+00  0.00000000000E+00 -0.10762673968E+04  0.21913454362E+04  0.19088329710E+04 0.  0.
        1    1    3    3  502    0 -0.10998702981E+03 -0.39709348732E+03 -0.15264369911E+04  0.15810725070E+04  0.50400001928E-02 0. -1.
       -1    1    3    3    0  502  0.10998702981E+03  0.39709348732E+03  0.45016959434E+03  0.61027292918E+03  0.50400001928E-02 0.  1.
</event>
<event>
 5   0  0.8587082E-05  0.1901277E+04  0.7818609E-02  0.8654221E-01
       -1   -1    0    0    0  501  0.00000000000E+00  0.00000000000E+00  0.60434972951E+03  0.60434972953E+03  0.50400001928E-02 0. -1.
        1   -1    0    0  501    0  0.00000000000E+00  0.00000000000E+00 -0.14953492797E+04  0.14953492797E+04  0.50400001928E-02 0.  1.
    10030    2    1    2    0    0  0.00000000000E+00  0.00000000000E+00 -0.89099955016E+03  0.20996990092E+04  0.19012773945E+04 0.  0.
        5    1    3    3  502    0  0.28170573998E+03 -0.87683809862E+03 -0.18535583903E+03  0.93945838236E+03  0.46999998093E+01 0. -1.
       -5    1    3    3    0  502 -0.28170573998E+03  0.87683809862E+03 -0.70564371113E+03  0.11602406268E+04  0.46999998093E+01 0.  1.
</event>
<event>
 5   0  0.1810569E-04  0.1892714E+04  0.7818609E-02  0.8658492E-01
        2   -1    0    0  501    0  0.00000000000E+00  0.00000000000E+00  0.10846214478E+04  0.10846214478E+04  0.25500000920E-02 0. -1.
       -2   -1    0    0    0  501  0.00000000000E+00  0.00000000000E+00 -0.82571769097E+03  0.82571769097E+03  0.25500000920E-02 0.  1.
    10030    2    1    2    0    0  0.00000000000E+00  0.00000000000E+00  0.25890375682E+03  0.19103391388E+04  0.18927135203E+04 0.  0.
        4    1    3    3  502    0  0.36610858245E+03  0.45610552475E+03  0.88037061125E+03  0.10569398138E+04  0.12699999809E+01 0. -1.
       -4    1    3    3    0  502 -0.36610858245E+03 -0.45610552475E+03 -0.62146685444E+03  0.85339932500E+03  0.12699999809E+01 0.  1.
</event>
<event>
 5   0  0.8681396E-05  0.1885479E+04  0.7818609E-02  0.8662118E-01
        1   -1    0    0  501    0  0.00000000000E+00  0.00000000000E+00  0.23613957145E+04  0.23613957145E+04  0.50400001928E-02 0.  1.
       -1   -1    0    0    0  501  0.00000000000E+00  0.00000000000E+00 -0.37636976983E+03  0.37636976986E+03  0.50400001928E-02 0. -1.
    10030    2    1    2    0    0  0.00000000000E+00  0.00000000000E+00  0.19850259446E+04  0.27377654843E+04  0.18854792087E+04 0.  0.
        3    1    3    3  502    0 -0.35038057603E+03  0.32681785572E+03  0.21714130569E+04  0.22236481585E+04  0.10100000352E+00 0.  1.
       -3    1    3    3    0  502  0.35038057603E+03 -0.32681785572E+03 -0.18638711229E+03  0.51411732582E+03  0.10100000352E+00 0. -1.
</event>
<event>
 5   0  0.6375750E-05  0.1893383E+04  0.7818609E-02  0.8658157E-01
        3   -1    0    0  501    0  0.00000000000E+00  0.00000000000E+00  0.35551214482E+03  0.35551215917E+03  0.10100000352E+00 0.  1.
       -3   -1    0    0    0  501  0.00000000000E+00  0.00000000000E+00 -0.25209389403E+04  0.25209389423E+04  0.10100000352E+00 0. -1.
    10030    2    1    2    0    0  0.00000000000E+00  0.00000000000E+00 -0.21654267955E+04  0.28764511015E+04  0.18933826166E+04 0.  0.
        4    1    3    3  502    0 -0.76299456734E+02  0.91205456177E+03 -0.71508370899E+03  0.11614695237E+04  0.12699999809E+01 0. -1.
       -4    1    3    3    0  502  0.76299456734E+02 -0.91205456177E+03 -0.14503430865E+04  0.17149815778E+04  0.12699999809E+01 0.  1.
</event>
<event>
 5   0  0.8905646E-05  0.1895300E+04  0.7818609E-02  0.8657200E-01
        1   -1    0    0  501    0  0.00000000000E+00  0.00000000000E+00  0.67520927298E+03  0.67520927300E+03  0.50400001928E-02 0.  1.
       -1   -1    0    0    0  501  0.00000000000E+00  0.00000000000E+00 -0.13300173599E+04  0.13300173599E+04  0.50400001928E-02 0. -1.
    10030    2    1    2    0    0  0.00000000000E+00  0.00000000000E+00 -0.65480808694E+03  0.20052266329E+04  0.18952995063E+04 0.  0.
        1    1    3    3  502    0  0.12385733766E+03 -0.74939271186E+03  0.27212815886E+03  0.80683567816E+03  0.50400001928E-02 0.  1.
       -1    1    3    3    0  502 -0.12385733766E+03  0.74939271186E+03 -0.92693624580E+03  0.11983909548E+04  0.50400001928E-02 0. -1.
</event>
<event>
 5   0  0.8602017E-05  0.1853302E+04  0.7818609E-02  0.8678456E-01
        1   -1    0    0  501    0  0.00000000000E+00  0.00000000000E+00  0.11016754341E+04  0.11016754341E+04  0.50400001928E-02 0. -1.
       -1   -1    0    0    0  501  0.00000000000E+00  0.00000000000E+00 -0.77943318004E+03  0.77943318006E+03  0.50400001928E-02 0.  1.
    10030    2    1    2    0    0  0.00000000000E+00  0.00000000000E+00  0.32224225403E+03  0.18811086141E+04  0.18533023358E+04 0.  0.
        2    1    3    3  502    0  0.58871709549E+03 -0.63587338334E+03 -0.17207166842E+03  0.88347690249E+03  0.25500000920E-02 0.  1.
       -2    1    3    3    0  502 -0.58871709549E+03  0.63587338334E+03  0.49431392245E+03  0.99763171165E+03  0.25500000920E-02 0. -1.
</event>
<event>
 5   0  0.8567844E-05  0.1900427E+04  0.7818609E-02  0.8654644E-01
        1   -1    0    0  501    0  0.00000000000E+00  0.00000000000E+00  0.31334340795E+03  0.31334340799E+03  0.50400001928E-02 0.  1.
       -1   -1    0    0    0  501  0.00000000000E+00  0.00000000000E+00 -0.28815209712E+04  0.28815209712E+04  0.50400001928E-02 0. -1.
    10030    2    1    2    0    0  0.00000000000E+00  0.00000000000E+00 -0.25681775633E+04  0.31948643792E+04  0.19004269008E+04 0.  0.
        4    1    3    3  502    0  0.13725345138E+02 -0.90907365949E+03 -0.17484601944E+04  0.19707150904E+04  0.12699999809E+01 0. -1.
       -4    1    3    3    0  502 -0.13725345138E+02  0.90907365949E+03 -0.81971736893E+03  0.12241492888E+04  0.12699999809E+01 0.  1.
</event>
<event>
 5   0  0.8587082E-05  0.1894518E+04  0.7818609E-02  0.8657590E-01
       -1   -1    0    0    0  501  0.00000000000E+00  0.00000000000E+00  0.13258272685E+04  0.13258272685E+04  0.50400001928E-02 0.  1.
        1   -1    0    0  501    0  0.00000000000E+00  0.00000000000E+00 -0.67678484777E+03  0.67678484779E+03  0.50400001928E-02 0. -1.
    10030    2    1    2    0    0  0.00000000000E+00  0.00000000000E+00  0.64904242071E+03  0.20026121163E+04  0.18945182038E+04 0.  0.
        5    1    3    3  502    0  0.55477889627E+03 -0.24651417821E+03 -0.44410388845E+03  0.75219626264E+03  0.46999998093E+01 0. -1.
       -5    1    3    3    0  502 -0.55477889627E+03  0.24651417821E+03  0.10931463092E+04  0.12504158536E+04  0.46999998093E+01 0.  1.
</event>
<event>
 5   0  0.1799738E-04  0.1847331E+04  0.7818609E-02  0.8681526E-01
        2   -1    0    0  501    0  0.00000000000E+00  0.00000000000E+00  0.24316224837E+04  0.24316224837E+04  0.25500000920E-02 0.  1.
       -2   -1    0    0    0  501  0.00000000000E+00  0.00000000000E+00 -0.35085967180E+03  0.35085967181E+03  0.25500000920E-02 0. -1.
    10030    2    1    2    0    0  0.00000000000E+00  0.00000000000E+00  0.20807628119E+04  0.27824821555E+04  0.18473313364E+04 0.  0.
        1    1    3    3  502    0 -0.64163621078E+03  0.97878274114E+02  0.50530735769E+02  0.65102268687E+03  0.50400001928E-02 0. -1.
       -1    1    3    3    0  502  0.64163621078E+03 -0.97878274114E+02  0.20302320761E+04  0.21314594687E+04  0.50400001928E-02 0.  1.
</event>
<event>
 5   0  0.8602017E-05  0.1880566E+04  0.7818609E-02  0.8664591E-01
       -1   -1    0    0    0  501  0.00000000000E+00  0.00000000000E+00  0.75107203229E+03  0.75107203231E+03  0.50400001928E-02 0.  1.
        1   -1    0    0  501    0  0.00000000000E+00  0.00000000000E+00 -0.11771599923E+04  0.11771599923E+04  0.50400001928E-02 0. -1.
    10030    2    1    2    0    0  0.00000000000E+00  0.00000000000E+00 -0.42608795998E+03  0.19282320246E+04  0.18805658167E+04 0.  0.
        2    1    3    3  502    0 -0.14753476419E+02 -0.12567665113E+03 -0.11683896734E+04  0.11752219852E+04  0.25500000920E-02 0. -1.
       -2    1    3    3    0  502  0.14753476419E+02  0.12567665113E+03  0.74230171338E+03  0.75301003937E+03  0.25500000920E-02 0.  1.
</event>
<event>
 5   0  0.1765328E-04  0.1929175E+04  0.7818609E-02  0.8640469E-01
       -2   -1    0    0    0  501  0.00000000000E+00  0.00000000000E+00  0.11564113140E+04  0.11564113140E+04  0.25500000920E-02 0. -1.
        2   -1    0    0  501    0  0.00000000000E+00  0.00000000000E+00 -0.80458292631E+03  0.80458292631E+03  0.25500000920E-02 0.  1.
    10030    2    1    2    0    0  0.00000000000E+00  0.00000000000E+00  0.35182838765E+03  0.19609942403E+04  0.19291747448E+04 0.  0.
        3    1    3    3  502    0 -0.78383363468E+03 -0.25205820925E+03 -0.33486792251E+03  0.88885603076E+03  0.10100000352E+00 0. -1.
       -3    1    3    3    0  502  0.78383363468E+03  0.25205820925E+03  0.68669631016E+03  0.10721382095E+04  0.10100000352E+00 0.  1.
</event>
<event>
 5   0  0.8567844E-05  0.1874913E+04  0.7818609E-02  0.8667445E-01
       -1   -1    0    0    0  501  0.00000000000E+00  0.00000000000E+00  0.68129475820E+03  0.68129475822E+03  0.50400001928E-02 0. -1.
        1   -1    0    0  501    0  0.00000000000E+00  0.00000000000E+00 -0.12899334320E+04  0.12899334320E+04  0.50400001928E-02 0.  1.
    10030    2    1    2    0    0  0.00000000000E+00  0.00000000000E+00 -0.60863867380E+03  0.19712281902E+04  0.18749132094E+04 0.  0.
        4    1    3    3  502    0  0.93590733053E+03 -0.33304462425E+02 -0.34882043327E+03  0.99935430460E+03  0.12699999809E+01 0.  1.
       -4    1    3    3    0  502 -0.93590733053E+03  0.33304462425E+02 -0.25981824054E+03  0.97187388563E+03  0.12699999809E+01 0. -1.
</event>
<event>
 5   0  0.1799738E-04  0.1895573E+04  0.7818609E-02  0.8657063E-01
       -2   -1    0    0    0  501  0.00000000000E+00  0.00000000000E+00  0.12566469114E+04  0.12566469114E+04  0.25500000920E-02 0. -1.
        2   -1    0    0  501    0  0.00000000000E+00  0.00000000000E+00 -0.71483850133E+03  0.71483850133E+03  0.25500000920E-02 0.  1.
    10030    2    1    2    0    0  0.00000000000E+00  0.00000000000E+00  0.54180841005E+03  0.19714854127E+04  0.18955733643E+04 0.  0.
        1    1    3    3  502    0  0.68664425949E+03 -0.76100778007E+02 -0.40394761346E+03  0.80027829032E+03  0.50400001928E-02 0.  1.
       -1    1    3    3    0  502 -0.68664425949E+03  0.76100778007E+02  0.94575602351E+03  0.11712071224E+04  0.50400001928E-02 0. -1.
</event>
<event>
 5   0  0.8681396E-05  0.1789176E+04  0.7818609E-02  0.8712077E-01
        1   -1    0    0  501    0  0.00000000000E+00  0.00000000000E+00  0.26083019619E+04  0.26083019619E+04  0.50400001928E-02 0. -1.
       -1   -1    0    0    0  501  0.00000000000E+00  0.00000000000E+00 -0.30682340426E+03  0.30682340430E+03  0.50400001928E-02 0.  1.
    10030    2    1    2    0    0  0.00000000000E+00  0.00000000000E+00  0.23014785576E+04  0.29151253662E+04  0.17891764444E+04 0.  0.
        3    1    3    3  502    0 -0.64246886999E+03  0.28033627177E+02  0.21639769633E+04  0.22575093446E+04  0.10100000352E+00 0. -1.
       -3    1    3    3    0  502  0.64246886999E+03 -0.28033627177E+02  0.13750159432E+03  0.65761602155E+03  0.10100000352E+00 0.  1.
</event>
<event>
 5   0  0.1810569E-04  0.1769033E+04  0.7818609E-02  0.8722943E-01
        2   -1    0    0  501    0  0.00000000000E+00  0.00000000000E+00  0.12608276607E+04  0.12608276607E+04  0.25500000920E-02 0. -1.
       -2   -1    0    0    0  501  0.00000000000E+00  0.00000000000E+00 -0.62052052315E+03  0.62052052315E+03  0.25500000920E-02 0.  1.
    10030    2    1    2    0    0  0.00000000000E+00  0.00000000000E+00  0.64030713755E+03  0.18813481839E+04  0.17690330010E+04 0.  0.
        4    1    3    3  502    0  0.26454151433E+03  0.83767953918E+03  0.43005174257E+03  0.97807736777E+03  0.12699999809E+01 0. -1.
       -4    1    3    3    0  502 -0.26454151433E+03 -0.83767953918E+03  0.21025539498E+03  0.90327081608E+03  0.12699999809E+01 0.  1.
</event>
<event>
 5   0  0.1658711E-04  0.1902950E+04  0.7818609E-02  0.8653389E-01
       -2   -1    0    0    0  501  0.00000000000E+00  0.00000000000E+00  0.75672321737E+03  0.75672321738E+03  0.25500000920E-02 0. -1.
        2   -1    0    0  501    0  0.00000000000E+00  0.00000000000E+00 -0.11963490021E+04  0.11963490021E+04  0.25500000920E-02 0.  1.
    10030    2    1    2    0    0  0.00000000000E+00  0.00000000000E+00 -0.43962578476E+03  0.19530722195E+04  0.19029504103E+04 0.  0.
        2    1    3    3  502    0  0.68262339090E+03  0.66267517099E+03 -0.20559189433E+03  0.97333504153E+03  0.25500000920E-02 0.  1.
       -2    1    3    3    0  502 -0.68262339090E+03 -0.66267517099E+03 -0.23403389042E+03  0.97973717798E+03  0.25500000920E-02 0. -1.
</event>
<event>
 5   0  0.1790832E-04  0.1911113E+04  0.7818609E-02  0.8649345E-01
       -2   -1    0    0    0  501  0.00000000000E+00  0.00000000000E+00  0.98383426171E+03  0.98383426172E+03  0.25500000920E-02 0.  1.
        2   -1    0    0  501    0  0.00000000000E+00  0.00000000000E+00 -0.92809110602E+03  0.92809110603E+03  0.25500000920E-02 0. -1.
    10030    2    1    2    0    0  0.00000000000E+00  0.00000000000E+00  0.55743155688E+02  0.19119253677E+04  0.19111125850E+04 0.  0.
        5    1    3    3  502    0  0.85099390550E+03 -0.43228175187E+03  0.72696859941E+02  0.95726958775E+03  0.46999998093E+01 0. -1.
       -5    1    3    3    0  502 -0.85099390550E+03  0.43228175187E+03 -0.16953704254E+02  0.95465577999E+03  0.46999998093E+01 0.  1.
</event>
<event>
 5   0  0.1658711E-04  0.1894365E+04  0.7818609E-02  0.8657666E-01
        2   -1    0    0  501    0  0.00000000000E+00  0.00000000000E+00  0.95518107082E+03  0.95518107082E+03  0.25500000920E-02 0. -1.
       -2   -1    0    0    0  501  0.00000000000E+00  0.00000000000E+00 -0.93925086956E+03  0.93925086957E+03  0.25500000920E-02 0.  1.
    10030    2    1    2    0    0  0.00000000000E+00  0.00000000000E+00  0.15930201252E+02  0.18944319404E+04  0.18943649610E+04 0.  0.
        2    1    3    3  502    0  0.26434203992E+03  0.65463192776E+03 -0.62351187697E+03  0.94190590593E+03  0.25500000920E-02 0.  1.
       -2    1    3    3    0  502 -0.26434203992E+03 -0.65463192776E+03  0.63944207822E+03  0.95252603445E+03  0.25500000920E-02 0. -1.
</event>
<event>
 5   0  0.1765328E-04  0.1970071E+04  0.7818609E-02  0.8620743E-01
        2   -1    0    0  501    0  0.00000000000E+00  0.00000000000E+00  0.78821981454E+03  0.78821981454E+03  0.25500000920E-02 0. -1.
       -2   -1    0    0    0  501  0.00000000000E+00  0.00000000000E+00 -0.12309950927E+04  0.12309950927E+04  0.25500000920E-02 0.  1.
    10030    2    1    2    0    0  0.00000000000E+00  0.00000000000E+00 -0.44277527820E+03  0.20192149073E+04  0.19700707842E+04 0.  0.
        3    1    3    3  502    0  0.68288205214E+03  0.14568485525E+03  0.49074122425E+03  0.85345118991E+03  0.10100000352E+00 0. -1.
       -3    1    3    3    0  502 -0.68288205214E+03 -0.14568485525E+03 -0.93351650244E+03  0.11657637174E+04  0.10100000352E+00 0.  1.
</event>
<event>
 5   0  0.1765328E-04  0.1909841E+04  0.7818609E-02  0.8649973E-01
        2   -1    0    0  501    0  0.00000000000E+00  0.00000000000E+00  0.11408272762E+04  0.11408272762E+04  0.25500000920E-02 0.  1.
       -2   -1    0    0    0  501  0.00000000000E+00  0.00000000000E+00 -0.79930881688E+03  0.79930881688E+03  0.25500000920E-02 0. -1.
    10030    2    1    2    0    0  0.00000000000E+00  0.00000000000E+00  0.34151845935E+03  0.19401360931E+04  0.19098411457E+04 0.  0.
        3    1    3    3  502    0 -0.68705552901E+03  0.14523515920E+03 -0.48660254369E+03  0.85435390626E+03  0.10100000352E+00 0. -1.
       -3    1    3    3    0  502  0.68705552901E+03 -0.14523515920E+03  0.82812100305E+03  0.10857821869E+04  0.10100000352E+00 0.  1.
</event>
<event>
 5   0  0.1658711E-04  0.1913899E+04  0.7818609E-02  0.8647969E-01
        2   -1    0    0  501    0  0.00000000000E+00  0.00000000000E+00  0.15765189785E+04  0.15765189785E+04  0.25500000920E-02 0.  1.
       -2   -1    0    0    0  501  0.00000000000E+00  0.00000000000E+00 -0.58086962493E+03  0.58086962494E+03  0.25500000920E-02 0. -1.
    10030    2    1    2    0    0  0.00000000000E+00  0.00000000000E+00  0.99564935352E+03  0.21573886034E+04  0.19138986261E+04 0.  0.
        2    1    3    3  502    0 -0.64134061139E+03 -0.70602397773E+03  0.41077021432E+03  0.10385180817E+04  0.25500000920E-02 0. -1.
       -2    1    3    3    0  502  0.64134061139E+03  0.70602397773E+03  0.58487913920E+03  0.11188705217E+04  0.25500000920E-02 0.  1.
</event>
<event>
 5   0  0.6375750E-05  0.2024232E+04  0.7818609E-02  0.8595375E-01
       -3   -1    0    0    0  501  0.00000000000E+00  0.00000000000E+00  0.16089879921E+04  0.16089879953E+04  0.10100000352E+00 0. -1.
        3   -1    0    0  501    0  0.00000000000E+00  0.00000000000E+00 -0.63666019857E+03  0.63666020658E+03  0.10100000352E+00 0.  1.
    10030    2    1    2    0    0  0.00000000000E+00  0.00000000000E+00  0.97232779355E+03  0.22456482019E+04  0.20242318317E+04 0.  0.
        3    1    3    3  502    0  0.50184514700E+03  0.61498914340E+03  0.11827984368E+04  0.14244551065E+04  0.10100000352E+00 0. -1.
       -3    1    3    3    0  502 -0.50184514700E+03 -0.61498914340E+03 -0.21047064324E+03  0.82119309540E+03  0.10100000352E+00 0.  1.
</event>
<event>
 5   0  0.6375750E-05  0.1898788E+04  0.7818609E-02  0.8655460E-01
        4   -1    0    0  501    0  0.00000000000E+00  0.00000000000E+00  0.11606245212E+04  0.11606252160E+04  0.12699999809E+01 0.  1.
       -4   -1    0    0    0  501  0.00000000000E+00  0.00000000000E+00 -0.77660510304E+03  0.77660614147E+03  0.12699999809E+01 0. -1.
    10030    2    1    2    0    0  0.00000000000E+00  0.00000000000E+00  0.38401941814E+03  0.19372313575E+04  0.18987876182E+04 0.  0.
        2    1    3    3  502    0  0.75959386573E+03  0.46345925084E+03  0.52972714242E+03  0.10355617623E+04  0.25500000920E-02 0.  1.
       -2    1    3    3    0  502 -0.75959386573E+03 -0.46345925084E+03 -0.14570772429E+03  0.90166959523E+03  0.25500000920E-02 0. -1.
</event>
<event>
 5   0  0.1765328E-04  0.1871728E+04  0.7818609E-02  0.8669059E-01
        2   -1    0    0  501    0  0.00000000000E+00  0.00000000000E+00  0.66443721833E+03  0.66443721833E+03  0.25500000920E-02 0.  1.
       -2   -1    0    0    0  501  0.00000000000E+00  0.00000000000E+00 -0.13181699412E+04  0.13181699412E+04  0.25500000920E-02 0. -1.
    10030    2    1    2    0    0  0.00000000000E+00  0.00000000000E+00 -0.65373272289E+03  0.19826071595E+04  0.18717277249E+04 0.  0.
        3    1    3    3  502    0  0.88892973497E+03  0.52606863381E+02 -0.63180509185E+03  0.10918522062E+04  0.10100000352E+00 0. -1.
       -3    1    3    3    0  502 -0.88892973497E+03 -0.52606863381E+02 -0.21927631041E+02  0.89075495340E+03  0.10100000352E+00 0.  1.
</event>
<event>
 5   0  0.8567844E-05  0.1900372E+04  0.7818609E-02  0.8654671E-01
        1   -1    0    0  501    0  0.00000000000E+00  0.00000000000E+00  0.10025901105E+04  0.10025901105E+04  0.50400001928E-02 0. -1.
       -1   -1    0    0    0  501  0.00000000000E+00  0.00000000000E+00 -0.90052076390E+03  0.90052076391E+03  0.50400001928E-02 0.  1.
    10030    2    1    2    0    0  0.00000000000E+00  0.00000000000E+00  0.10206934655E+03  0.19031108744E+04  0.19003717659E+04 0.  0.
        4    1    3    3  502    0 -0.80789016831E+03 -0.30092545017E+03 -0.34905205013E+03  0.93009762778E+03  0.12699999809E+01 0.  1.
       -4    1    3    3    0  502  0.80789016831E+03  0.30092545017E+03  0.45112139668E+03  0.97301324660E+03  0.12699999809E+01 0. -1.
</event>
<event>
 5   0  0.1799738E-04  0.1692146E+04  0.7818609E-02  0.8765856E-01
        2   -1    0    0  501    0  0.00000000000E+00  0.00000000000E+00  0.22921289364E+04  0.22921289364E+04  0.25500000920E-02 0. -1.
       -2   -1    0    0    0  501  0.00000000000E+00  0.00000000000E+00 -0.31230347444E+03  0.31230347445E+03  0.25500000920E-02 0.  1.
    10030    2    1    2    0    0  0.00000000000E+00  0.00000000000E+00  0.19798254620E+04  0.26044324109E+04  0.16921463657E+04 0.  0.
        1    1    3    3  502    0 -0.38466484985E+02 -0.76783431323E+03  0.44620419620E+03  0.88890234996E+03  0.50400001928E-02 0.  1.
       -1    1    3    3    0  502  0.38466484985E+02  0.76783431323E+03  0.15336212658E+04  0.17155300609E+04  0.50400001928E-02 0. -1.
</event>
<event>
 5   0  0.1658711E-04  0.1912194E+04  0.7818609E-02  0.8648810E-01
        2   -1    0    0  501    0  0.00000000000E+00  0.00000000000E+00  0.17265139980E+04  0.17265139980E+04  0.25500000920E-02 0. -1.
       -2   -1    0    0    0  501  0.00000000000E+00  0.00000000000E+00 -0.52946063462E+03  0.52946063463E+03  0.25500000920E-02 0.  1.
    10030    2    1    2    0    0  0.00000000000E+00  0.00000000000E+00  0.11970533634E+04  0.22559746327E+04  0.19121937110E+04 0.  0.
        2    1    3    3  502    0 -0.69125648124E+03  0.35122127564E+03  0.12584985648E+04  0.14781781168E+04  0.25500000920E-02 0.  1.
       -2    1    3    3    0  502  0.69125648124E+03 -0.35122127564E+03 -0.61445201407E+02  0.77779651587E+03  0.25500000920E-02 0. -1.
</event>
<event>
 5   0  0.8602017E-05  0.1832912E+04  0.7818609E-02  0.8688990E-01
        1   -1    0    0  501    0  0.00000000000E+00  0.00000000000E+00  0.13691385381E+04  0.13691385381E+04  0.50400001928E-02 0.  1.
       -1   -1    0    0    0  501  0.00000000000E+00  0.00000000000E+00 -0.61344528221E+03  0.61344528224E+03  0.50400001928E-02 0. -1.
    10030    2    1    2    0    0  0.00000000000E+00  0.00000000000E+00  0.75569325586E+03  0.19825838203E+04  0.18329119749E+04 0.  0.
        2    1    3    3  502    0  0.42919686720E+03  0.80472632939E+03  0.47517878152E+03  0.10283916036E+04  0.25500000920E-02 0. -1.
       -2    1    3    3    0  502 -0.42919686720E+03 -0.80472632939E+03  0.28051447434E+03  0.95419221667E+03  0.25500000920E-02 0.  1.
</event>
<event>
 5   0  0.1790832E-04  0.1916093E+04  0.7818609E-02  0.8646887E-01
        2   -1    0    0  501    0  0.00000000000E+00  0.00000000000E+00  0.16567574752E+04  0.16567574752E+04  0.25500000920E-02 0. -1.
       -2   -1    0    0    0  501  0.00000000000E+00  0.00000000000E+00 -0.55400585276E+03  0.55400585276E+03  0.25500000920E-02 0.  1.
    10030    2    1    2    0    0  0.00000000000E+00  0.00000000000E+00  0.11027516224E+04  0.22107633279E+04  0.19160932523E+04 0.  0.
        5    1    3    3  502    0  0.21795652153E+03 -0.69583198561E+03  0.12683446561E+04  0.14630131422E+04  0.46999998093E+01 0. -1.
       -5    1    3    3    0  502 -0.21795652153E+03  0.69583198561E+03 -0.16559303372E+03  0.74775018575E+03  0.46999998093E+01 0.  1.
</event>
<event>
 5   0  0.8681396E-05  0.1905010E+04  0.7818609E-02  0.8652367E-01
        1   -1    0    0  501    0  0.00000000000E+00  0.00000000000E+00  0.14569872394E+04  0.14569872394E+04  0.50400001928E-02 0. -1.
       -1   -1    0    0    0  501  0.00000000000E+00  0.00000000000E+00 -0.62269968170E+03  0.62269968172E+03  0.50400001928E-02 0.  1.
    10030    2    1    2    0    0  0.00000000000E+00  0.00000000000E+00  0.83428755766E+03  0.20796869211E+04  0.19050097010E+04 0.  0.
        3    1    3    3  502    0  0.80015789503E+03 -0.41240935881E+02 -0.14517064348E+03  0.81426531161E+03  0.10100000352E+00 0.  1.
       -3    1    3    3    0  502 -0.80015789503E+03  0.41240935881E+02  0.97945820114E+03  0.12654216095E+04  0.10100000352E+00 0. -1.
</event>
<event>
 5   0  0.8681396E-05  0.1896417E+04  0.7818609E-02  0.8656642E-01
        1   -1    0    0  501    0  0.00000000000E+00  0.00000000000E+00  0.57197205132E+03  0.57197205134E+03  0.50400001928E-02 0.  1.
       -1   -1    0    0    0  501  0.00000000000E+00  0.00000000000E+00 -0.15719294708E+04  0.15719294708E+04  0.50400001928E-02 0. -1.
    10030    2    1    2    0    0  0.00000000000E+00  0.00000000000E+00 -0.99995741952E+03  0.21439015222E+04  0.18964173844E+04 0.  0.
        3    1    3    3  502    0 -0.53562579796E+02 -0.94009537104E+03 -0.62612689130E+03  0.11307887295E+04  0.10100000352E+00 0.  1.
       -3    1    3    3    0  502  0.53562579796E+02  0.94009537104E+03 -0.37383052822E+03  0.10131127927E+04  0.10100000352E+00 0. -1.
</event>
<event>
 5   0  0.8567844E-05  0.1894940E+04  0.7818609E-02  0.8657379E-01
       -1   -1    0    0    0  501  0.00000000000E+00  0.00000000000E+00  0.94479175075E+03  0.94479175077E+03  0.50400001928E-02 0.  1.
        1   -1    0    0  501    0  0.00000000000E+00  0.00000000000E+00 -0.95015612676E+03  0.95015612677E+03  0.50400001928E-02 0. -1.
    10030    2    1    2    0    0  0.00000000000E+00  0.00000000000E+00 -0.53643760058E+01  0.18949478775E+04  0.18949402846E+04 0.  0.
        4    1    3    3  502    0  0.20036533198E+03  0.53072806299E+03 -0.76155248627E+03  0.94962221191E+03  0.12699999809E+01 0. -1.
       -4    1    3    3    0  502 -0.20036533198E+03 -0.53072806299E+03  0.75618811027E+03  0.94532566563E+03  0.12699999809E+01 0.  1.
</event>
<event>
 5   0  0.1810569E-04  0.1897879E+04  0.7818609E-02  0.8655913E-01
        2   -1    0    0  501    0  0.00000000000E+00  0.00000000000E+00  0.64693332609E+03  0.64693332609E+03  0.25500000920E-02 0.  1.
       -2   -1    0    0    0  501  0.00000000000E+00  0.00000000000E+00 -0.13919297160E+04  0.13919297160E+04  0.25500000920E-02 0. -1.
    10030    2    1    2    0    0  0.00000000000E+00  0.00000000000E+00 -0.74499638994E+03  0.20388630421E+04  0.18978785218E+04 0.  0.
        4    1    3    3  502    0 -0.64444549606E+03  0.50679269692E+03 -0.88583942352E+03  0.12070053572E+04  0.12699999809E+01 0. -1.
       -4    1    3    3    0  502  0.64444549606E+03 -0.50679269692E+03  0.14084303357E+03  0.83185768497E+03  0.12699999809E+01 0.  1.
</event>
<event>
 5   0  0.1658711E-04  0.1994855E+04  0.7818609E-02  0.8609030E-01
       -2   -1    0    0    0  501  0.00000000000E+00  0.00000000000E+00  0.70847662728E+03  0.70847662728E+03  0.25500000920E-02 0. -1.
        2   -1    0    0  501    0  0.00000000000E+00  0.00000000000E+00 -0.14042265655E+04  0.14042265655E+04  0.25500000920E-02 0.  1.
    10030    2    1    2    0    0  0.00000000000E+00  0.00000000000E+00 -0.69574993824E+03  0.21127031928E+04  0.19948550835E+04 0.  0.
        2    1    3    3  502    0 -0.76821786198E+03 -0.14449039542E+03 -0.10040112815E+04  0.12724287058E+04  0.25500000920E-02 0.  1.
       -2    1    3    3    0  502  0.76821786198E+03  0.14449039542E+03  0.30826134326E+03  0.84027448705E+03  0.25500000920E-02 0. -1.
</event>
<event>
 5   0  0.1810569E-04  0.1913202E+04  0.7818609E-02  0.8648312E-01
        2   -1    0    0  501    0  0.00000000000E+00  0.00000000000E+00  0.22831390700E+04  0.22831390700E+04  0.25500000920E-02 0. -1.
       -2   -1    0    0    0  501  0.00000000000E+00  0.00000000000E+00 -0.40080165617E+03  0.40080165617E+03  0.25500000920E-02 0.  1.
    10030    2    1    2    0    0  0.00000000000E+00  0.00000000000E+00  0.18823374139E+04  0.26839407262E+04  0.19132024676E+04 0.  0.
        4    1    3    3  502    0  0.27928276439E+03  0.21963385384E+03 -0.30480310210E+03  0.46812865346E+03  0.12699999809E+01 0.  1.
       -4    1    3    3    0  502 -0.27928276439E+03 -0.21963385384E+03  0.21871405160E+04  0.22158120727E+04  0.12699999809E+01 0. -1.
</event>
<event>
 5   0  0.1799738E-04  0.1907490E+04  0.7818609E-02  0.8651137E-01
       -2   -1    0    0    0  501  0.00000000000E+00  0.00000000000E+00  0.15522528885E+04  0.15522528885E+04  0.25500000920E-02 0.  1.
        2   -1    0    0  501    0  0.00000000000E+00  0.00000000000E+00 -0.58600623541E+03  0.58600623541E+03  0.25500000920E-02 0. -1.
    10030    2    1    2    0    0  0.00000000000E+00  0.00000000000E+00  0.96624665310E+03  0.21382591239E+04  0.19074903634E+04 0.  0.
        1    1    3    3  502    0 -0.68909682755E+03 -0.61332693932E+03  0.75449665825E+03  0.11917590275E+04  0.50400001928E-02 0. -1.
       -1    1    3    3    0  502  0.68909682755E+03  0.61332693932E+03  0.21174999485E+03  0.94650009645E+03  0.50400001928E-02 0.  1.
</event>
<event>
 5   0  0.1765328E-04  0.1903153E+04  0.7818609E-02  0.8653289E-01
       -2   -1    0    0    0  501  0.00000000000E+00  0.00000000000E+00  0.53072423901E+03  0.53072423902E+03  0.25500000920E-02 0. -1.
        2   -1    0    0  501    0  0.00000000000E+00  0.00000000000E+00 -0.17061544580E+04  0.17061544580E+04  0.25500000920E-02 0.  1.
    10030    2    1    2    0    0  0.00000000000E+00  0.00000000000E+00 -0.11754302190E+04  0.22368786971E+04  0.19031526753E+04 0.  0.
        3    1    3    3  502    0  0.58868354878E+03 -0.74069965035E+03 -0.70707709103E+03  0.11811614265E+04  0.10100000352E+00 0.  1.
       -3    1    3    3    0  502 -0.58868354878E+03  0.74069965035E+03 -0.46835312800E+03  0.10557172706E+04  0.10100000352E+00 0. -1.
</event>
<event>
 5   0  0.8905646E-05  0.1923781E+04  0.7818609E-02  0.8643109E-01
       -1   -1    0    0    0  501  0.00000000000E+00  0.00000000000E+00  0.55069811697E+03  0.55069811700E+03  0.50400001928E-02 0.  1.
        1   -1    0    0  501    0  0.00000000000E+00  0.00000000000E+00 -0.16801092571E+04  0.16801092571E+04  0.50400001928E-02 0. -1.
    10030    2    1    2    0    0  0.00000000000E+00  0.00000000000E+00 -0.11294111401E+04  0.22308073741E+04  0.19237806571E+04 0.  0.
        1    1    3    3  502    0  0.26606026105E+03  0.92435827466E+03 -0.56771197432E+03  0.11169257667E+04  0.50400001928E-02 0. -1.
       -1    1    3    3    0  502 -0.26606026105E+03 -0.92435827466E+03 -0.56169916576E+03  0.11138816074E+04  0.50400001928E-02 0.  1.
</event>
<event>
 5   0  0.1658711E-04  0.1903512E+04  0.7818609E-02  0.8653110E-01
       -2   -1    0    0    0  501  0.00000000000E+00  0.00000000000E+00  0.69808508242E+03  0.69808508242E+03  0.25500000920E-02 0. -1.
        2   -1    0    0  501    0  0.00000000000E+00  0.00000000000E+00 -0.12976059054E+04  0.12976059054E+04  0.25500000920E-02 0.  1.
    10030    2    1    2    0    0  0.00000000000E+00  0.00000000000E+00 -0.59952082298E+03  0.19956909878E+04  0.19035118339E+04 0.  0.
        2    1    3    3  502    0  0.34310909190E+03  0.46063756333E+03 -0.10954102969E+04  0.12368647995E+04  0.25500000920E-02 0.  1.
       -2    1    3    3    0  502 -0.34310909190E+03 -0.46063756333E+03  0.49588947393E+03  0.75882618831E+03  0.25500000920E-02 0. -1.
</event>
<event>
 5   0  0.8602017E-05  0.1893818E+04  0.7818609E-02  0.8657940E-01
       -1   -1    0    0    0  501  0.00000000000E+00  0.00000000000E+00  0.11939112074E+04  0.11939112074E+04  0.50400001928E-02 0. -1.
        1   -1    0    0  501    0  0.00000000000E+00  0.00000000000E+00 -0.75100788325E+03  0.75100788327E+03  0.50400001928E-02 0.  1.
    10030    2    1    2    0    0  0.00000000000E+00  0.00000000000E+00  0.44290332413E+03  0.19449190907E+04  0.18938180786E+04 0.  0.
        2    1    3    3  502    0  0.30241376659E+03 -0.50300111051E+03 -0.54168211782E+03  0.79867622987E+03  0.25500000920E-02 0. -1.
       -2    1    3    3    0  502 -0.30241376659E+03  0.50300111051E+03  0.98458544195E+03  0.11462428608E+04  0.25500000920E-02 0.  1.
</event>
<event>
 5   0  0.1658711E-04  0.1897753E+04  0.7818609E-02  0.8655976E-01
       -2   -1    0    0    0  501  0.00000000000E+00  0.00000000000E+00  0.92823935824E+03  0.92823935825E+03  0.25500000920E-02 0. -1.
        2   -1    0    0  501    0  0.00000000000E+00  0.00000000000E+00 -0.96997270715E+03  0.96997270715E+03  0.25500000920E-02 0.  1.
    10030    2    1    2    0    0  0.00000000000E+00  0.00000000000E+00 -0.41733348905E+02  0.18982120654E+04  0.18977532434E+04 0.  0.
        2    1    3    3  502    0 -0.13973759737E+03 -0.53601614651E+03 -0.79145993152E+03  0.96604799500E+03  0.25500000920E-02 0.  1.
       -2    1    3    3    0  502  0.13973759737E+03  0.53601614651E+03  0.74972658261E+03  0.93216407039E+03  0.25500000920E-02 0. -1.
</event>
<event>
 5   0  0.1810569E-04  0.1877692E+04  0.7818609E-02  0.8666041E-01
        2   -1    0    0  501    0  0.00000000000E+00  0.00000000000E+00  0.11060685558E+04  0.11060685558E+04  0.25500000920E-02 0. -1.
       -2   -1    0    0    0  501  0.00000000000E+00  0.00000000000E+00 -0.79690515364E+03  0.79690515365E+03  0.25500000920E-02 0.  1.
    10030    2    1    2    0    0  0.00000000000E+00  0.00000000000E+00  0.30916340212E+03  0.19029737094E+04  0.18776919155E+04 0.  0.
        4    1    3    3  502    0 -0.56401444033E+03  0.66028951000E+03  0.51622744668E+03  0.10102410185E+04  0.12699999809E+01 0. -1.
       -4    1    3    3    0  502  0.56401444033E+03 -0.66028951000E+03 -0.20706404456E+03  0.89273269088E+03  0.12699999809E+01 0.  1.
</event>
<event>
 5   0  0.8905646E-05  0.1992365E+04  0.7818609E-02  0.8610199E-01
        1   -1    0    0  501    0  0.00000000000E+00  0.00000000000E+00  0.14245320938E+04  0.14245320938E+04  0.50400001928E-02 0. -1.
       -1   -1    0    0    0  501  0.00000000000E+00  0.00000000000E+00 -0.69663535356E+03  0.69663535358E+03  0.50400001928E-02 0.  1.
    10030    2    1    2    0    0  0.00000000000E+00  0.00000000000E+00  0.72789674026E+03  0.21211674474E+04  0.19923648450E+04 0.  0.
        1    1    3    3  502    0  0.18947975692E+03 -0.78228024564E+03  0.98884734123E+03  0.12750231470E+04  0.50400001928E-02 0. -1.
       -1    1    3    3    0  502 -0.18947975692E+03  0.78228024564E+03 -0.26095060097E+03  0.84614430044E+03  0.50400001928E-02 0.  1.
</event>
<event>
 5   0  0.8681396E-05  0.1906455E+04  0.7818609E-02  0.8651650E-01
        1   -1    0    0  501    0  0.00000000000E+00  0.00000000000E+00  0.10714477505E+04  0.10714477505E+04  0.50400001928E-02 0.  1.
       -1   -1    0    0    0  501  0.00000000000E+00  0.00000000000E+00 -0.84805174023E+03  0.84805174025E+03  0.50400001928E-02 0. -1.
    10030    2    1    2    0    0  0.00000000000E+00  0.00000000000E+00  0.22339601027E+03  0.19194994908E+04  0.19064554854E+04 0.  0.
        3    1    3    3  502    0  0.55216054229E+03 -0.55347126044E+03 -0.43740617934E+03  0.89584366745E+03  0.10100000352E+00 0. -1.
       -3    1    3    3    0  502 -0.55216054229E+03  0.55347126044E+03  0.66080218962E+03  0.10236558233E+04  0.10100000352E+00 0.  1.
</event>
<event>
 5   0  0.1765328E-04  0.1912172E+04  0.7818609E-02  0.8648821E-01
       -2   -1    0    0    0  501  0.00000000000E+00  0.00000000000E+00  0.32240118057E+03  0.32240118058E+03  0.25500000920E-02 0. -1.
        2   -1    0    0  501    0  0.00000000000E+00  0.00000000000E+00 -0.28352886619E+04  0.28352886619E+04  0.25500000920E-02 0.  1.
    10030    2    1    2    0    0  0.00000000000E+00  0.00000000000E+00 -0.25128874813E+04  0.31576898425E+04  0.19121719712E+04 0.  0.
        3    1    3    3  502    0 -0.60960839437E+03  0.64341886874E+03 -0.18483834408E+04  0.20499101418E+04  0.10100000352E+00 0. -1.
       -3    1    3    3    0  502  0.60960839437E+03 -0.64341886874E+03 -0.66450404057E+03  0.11077797007E+04  0.10100000352E+00 0.  1.
</event>
<event>
 5   0  0.8587082E-05  0.1878089E+04  0.7818609E-02  0.8665841E-01
       -1   -1    0    0    0  501  0.00000000000E+00  0.00000000000E+00  0.88606102122E+03  0.88606102123E+03  0.50400001928E-02 0.  1.
        1   -1    0    0  501    0  0.00000000000E+00  0.00000000000E+00 -0.99519584555E+03  0.99519584556E+03  0.50400001928E-02 0. -1.
    10030    2    1    2    0    0  0.00000000000E+00  0.00000000000E+00 -0.10913482433E+03  0.18812568668E+04  0.18780886531E+04 0.  0.
        5    1    3    3  502    0 -0.11058854713E+03 -0.50089746084E+03 -0.84243991661E+03  0.98633422131E+03  0.46999998093E+01 0. -1.
       -5    1    3    3    0  502  0.11058854713E+03  0.50089746084E+03  0.73330509228E+03  0.89492264548E+03  0.46999998093E+01 0.  1.
</event>
<event>
 5   0  0.8567844E-05  0.1836078E+04  0.7818609E-02  0.8687345E-01
       -1   -1    0    0    0  501  0.00000000000E+00  0.00000000000E+00  0.84869366934E+03  0.84869366936E+03  0.50400001928E-02 0. -1.
        1   -1    0    0  501    0  0.00000000000E+00  0.00000000000E+00 -0.99305064988E+03  0.99305064989E+03  0.50400001928E-02 0.  1.
    10030    2    1    2    0    0  0.00000000000E+00  0.00000000000E+00 -0.14435698054E+03  0.18417443193E+04  0.18360782118E+04 0.  0.
        4    1    3    3  502    0 -0.57854547372E+03 -0.91713966885E+01  0.64275883218E+03  0.86483496051E+03  0.12699999809E+01 0. -1.
       -4    1    3    3    0  502  0.57854547372E+03  0.91713966885E+01 -0.78711581271E+03  0.97690935874E+03  0.12699999809E+01 0.  1.
</event>
<event>
 5   0  0.1810569E-04  0.1900740E+04  0.7818609E-02  0.8654488E-01
       -2   -1    0    0    0  501  0.00000000000E+00  0.00000000000E+00  0.12774967439E+04  0.12774967439E+04  0.25500000920E-02 0.  1.
        2   -1    0    0  501    0  0.00000000000E+00  0.00000000000E+00 -0.70701020547E+03  0.70701020547E+03  0.25500000920E-02 0. -1.
    10030    2    1    2    0    0  0.00000000000E+00  0.00000000000E+00  0.57048653843E+03  0.19845069494E+04  0.19007401036E+04 0.  0.
        4    1    3    3  502    0 -0.64266830298E+03  0.61292237437E+03 -0.68055856437E+02  0.89069051705E+03  0.12699999809E+01 0.  1.
       -4    1    3    3    0  502  0.64266830298E+03 -0.61292237437E+03  0.63854239486E+03  0.10938164323E+04  0.12699999809E+01 0. -1.
</event>
<event>
 5   0  0.1799738E-04  0.1914868E+04  0.7818609E-02  0.8647491E-01
        2   -1    0    0  501    0  0.00000000000E+00  0.00000000000E+00  0.12635458606E+04  0.12635458606E+04  0.25500000920E-02 0.  1.
       -2   -1    0    0    0  501  0.00000000000E+00  0.00000000000E+00 -0.72548200123E+03  0.72548200123E+03  0.25500000920E-02 0. -1.
    10030    2    1    2    0    0  0.00000000000E+00  0.00000000000E+00  0.53806385940E+03  0.19890278619E+04  0.19148679115E+04 0.  0.
        1    1    3    3  502    0 -0.37573502913E+03  0.37308639651E+03  0.10976153741E+04  0.12186590093E+04  0.50400001928E-02 0.  1.
       -1    1    3    3    0  502  0.37573502913E+03 -0.37308639651E+03 -0.55955151472E+03  0.77036885258E+03  0.50400001928E-02 0. -1.
</event>
<event>
 5   0  0.8602017E-05  0.1906038E+04  0.7818609E-02  0.8651857E-01
       -1   -1    0    0    0  501  0.00000000000E+00  0.00000000000E+00  0.10387865730E+04  0.10387865730E+04  0.50400001928E-02 0. -1.
        1   -1    0    0  501    0  0.00000000000E+00  0.00000000000E+00 -0.87433315252E+03  0.87433315254E+03  0.50400001928E-02 0.  1.
    10030    2    1    2    0    0  0.00000000000E+00  0.00000000000E+00  0.16445342050E+03  0.19131197256E+04  0.19060383409E+04 0.  0.
        2    1    3    3  502    0 -0.65438930706E+03 -0.22407824133E+03  0.74026070188E+03  0.10131250319E+04  0.25500000920E-02 0. -1.
       -2    1    3    3    0  502  0.65438930706E+03  0.22407824133E+03 -0.57580728137E+03  0.89999469372E+03  0.25500000920E-02 0.  1.
</event>
<event>
 5   0  0.1658711E-04  0.1906754E+04  0.7818609E-02  0.8651502E-01
        2   -1    0    0  501    0  0.00000000000E+00  0.00000000000E+00  0.10588403550E+04  0.10588403550E+04  0.25500000920E-02 0.  1.
       -2   -1    0    0    0  501  0.00000000000E+00  0.00000000000E+00 -0.85841851524E+03  0.85841851524E+03  0.25500000920E-02 0. -1.
    10030    2    1    2    0    0  0.00000000000E+00  0.00000000000E+00  0.20042183976E+03  0.19172588702E+04  0.19067544838E+04 0.  0.
        2    1    3    3  502    0 -0.62161173560E+03  0.70181263837E+03  0.27432965751E+03  0.97683104486E+03  0.25500000920E-02 0.  1.
       -2    1    3    3    0  502  0.62161173560E+03 -0.70181263837E+03 -0.73907817756E+02  0.94042782538E+03  0.25500000920E-02 0. -1.
</event>
<event>
 5   0  0.1799738E-04  0.1902805E+04  0.7818609E-02  0.8653462E-01
       -2   -1    0    0    0  501  0.00000000000E+00  0.00000000000E+00  0.83969657550E+03  0.83969657550E+03  0.25500000920E-02 0.  1.
        2   -1    0    0  501    0  0.00000000000E+00  0.00000000000E+00 -0.10779682619E+04  0.10779682619E+04  0.25500000920E-02 0. -1.
    10030    2    1    2    0    0  0.00000000000E+00  0.00000000000E+00 -0.23827168642E+03  0.19176648374E+04  0.19028045176E+04 0.  0.
        1    1    3    3  502    0  0.34389649626E+03 -0.52281148486E+03  0.60309858881E+03  0.86909410118E+03  0.50400001928E-02 0.  1.
       -1    1    3    3    0  502 -0.34389649626E+03  0.52281148486E+03 -0.84137027523E+03  0.10485707362E+04  0.50400001928E-02 0. -1.
</event>
<event>
 5   0  0.1765328E-04  0.1882682E+04  0.7818609E-02  0.8663525E-01
       -2   -1    0    0    0  501  0.00000000000E+00  0.00000000000E+00  0.43107662881E+03  0.43107662881E+03  0.25500000920E-02 0.  1.
        2   -1    0    0  501    0  0.00000000000E+00  0.00000000000E+00 -0.20556048285E+04  0.20556048285E+04  0.25500000920E-02 0. -1.
    10030    2    1    2    0    0  0.00000000000E+00  0.00000000000E+00 -0.16245281997E+04  0.24866814573E+04  0.18826823414E+04 0.  0.
        3    1    3    3  502    0  0.56391953840E+03 -0.19425743613E+03 -0.17741808601E+04  0.18717529035E+04  0.10100000352E+00 0. -1.
       -3    1    3    3    0  502 -0.56391953840E+03  0.19425743613E+03  0.14965266043E+03  0.61492855378E+03  0.10100000352E+00 0.  1.
</event>
<event>
 5   0  0.1658711E-04  0.1901626E+04  0.7818609E-02  0.8654047E-01
        2   -1    0    0  501    0  0.00000000000E+00  0.00000000000E+00  0.13436066668E+04  0.13436066668E+04  0.25500000920E-02 0.  1.
       -2   -1    0    0    0  501  0.00000000000E+00  0.00000000000E+00 -0.67285003555E+03  0.67285003556E+03  0.25500000920E-02 0. -1.
    10030    2    1    2    0    0  0.00000000000E+00  0.00000000000E+00  0.67075663126E+03  0.20164567024E+04  0.19016264549E+04 0.  0.
        2    1    3    3  502    0 -0.87272452206E+03  0.74184049174E+02  0.72771288642E+03  0.11387350041E+04  0.25500000920E-02 0.  1.
       -2    1    3    3    0  502  0.87272452206E+03 -0.74184049174E+02 -0.56956255162E+02  0.87772169824E+03  0.25500000920E-02 0. -1.
</event>
<event>
 5   0  0.8587082E-05  0.1913173E+04  0.7818609E-02  0.8648327E-01
       -1   -1    0    0    0  501  0.00000000000E+00  0.00000000000E+00  0.57765456812E+03  0.57765456814E+03  0.50400001928E-02 0.  1.
        1   -1    0    0  501    0  0.00000000000E+00  0.00000000000E+00 -0.15840909587E+04  0.15840909587E+04  0.50400001928E-02 0. -1.
    10030    2    1    2    0    0  0.00000000000E+00  0.00000000000E+00 -0.10064363906E+04  0.21617455268E+04  0.19131726306E+04 0.  0.
        5    1    3    3  502    0  0.84982526711E+03  0.34266420896E+02 -0.85499667326E+01  0.85057178660E+03  0.46999998093E+01 0. -1.
       -5    1    3    3    0  502 -0.84982526711E+03 -0.34266420896E+02 -0.99788642383E+03  0.13111737402E+04  0.46999998093E+01 0.  1.
</event>
<event>
 5   0  0.1810569E-04  0.1903525E+04  0.7818609E-02  0.8653104E-01
        2   -1    0    0  501    0  0.00000000000E+00  0.00000000000E+00  0.14115814208E+04  0.14115814208E+04  0.25500000920E-02 0. -1.
       -2   -1    0    0    0  501  0.00000000000E+00  0.00000000000E+00 -0.64172842802E+03  0.64172842802E+03  0.25500000920E-02 0.  1.
    10030    2    1    2    0    0  0.00000000000E+00  0.00000000000E+00  0.76985299281E+03  0.20533098489E+04  0.19035250733E+04 0.  0.
        4    1    3    3  502    0  0.18094300056E+02 -0.73976580550E+03 -0.26072889923E+03  0.78457760768E+03  0.12699999809E+01 0.  1.
       -4    1    3    3    0  502 -0.18094300056E+02  0.73976580550E+03  0.10305818920E+04  0.12687322412E+04  0.12699999809E+01 0. -1.
</event>
<event>
 5   0  0.8681396E-05  0.1919274E+04  0.7818609E-02  0.8645321E-01
        1   -1    0    0  501    0  0.00000000000E+00  0.00000000000E+00  0.15497801142E+04  0.15497801142E+04  0.50400001928E-02 0.  1.
       -1   -1    0    0    0  501  0.00000000000E+00  0.00000000000E+00 -0.59421549373E+03  0.59421549375E+03  0.50400001928E-02 0. -1.
    10030    2    1    2    0    0  0.00000000000E+00  0.00000000000E+00  0.95556462043E+03  0.21439956079E+04  0.19192741917E+04 0.  0.
        3    1    3    3  502    0  0.61257347307E+03  0.49376156056E+03  0.10915262416E+04  0.13455394030E+04  0.10100000352E+00 0.  1.
       -3    1    3    3    0  502 -0.61257347307E+03 -0.49376156056E+03 -0.13596162119E+03  0.79845620496E+03  0.10100000352E+00 0. -1.
</event>
<event>
 5   0  0.8905646E-05  0.1919098E+04  0.7818609E-02  0.8645408E-01
        1   -1    0    0  501    0  0.00000000000E+00  0.00000000000E+00  0.15328180221E+04  0.15328180221E+04  0.50400001928E-02 0.  1.
       -1   -1    0    0    0  501  0.00000000000E+00  0.00000000000E+00 -0.60068075923E+03  0.60068075925E+03  0.50400001928E-02 0. -1.
    10030    2    1    2    0    0  0.00000000000E+00  0.00000000000E+00  0.93213726287E+03  0.21334987814E+04  0.19190980103E+04 0.  0.
        1    1    3    3  502    0  0.35802946565E+03  0.61123577096E+03  0.11856355226E+04  0.13811320930E+04  0.50400001928E-02 0.  1.
       -1    1    3    3    0  502 -0.35802946565E+03 -0.61123577096E+03 -0.25349825973E+03  0.75236668831E+03  0.50400001928E-02 0. -1.
</event>
<event>
 5   0  0.1765328E-04  0.1910706E+04  0.7818609E-02  0.8649546E-01
       -2   -1    0    0    0  501  0.00000000000E+00  0.00000000000E+00  0.94445910357E+03  0.94445910358E+03  0.25500000920E-02 0. -1.
        2   -1    0    0  501    0  0.00000000000E+00  0.00000000000E+00 -0.96637261289E+03  0.96637261289E+03  0.25500000920E-02 0.  1.
    10030    2    1    2    0    0  0.00000000000E+00  0.00000000000E+00 -0.21913509318E+02  0.19108317165E+04  0.19107060598E+04 0.  0.
        3    1    3    3  502    0  0.56897617736E+03 -0.59904160555E+03 -0.49069098700E+03  0.96091747331E+03  0.10100000352E+00 0.  1.
       -3    1    3    3    0  502 -0.56897617736E+03  0.59904160555E+03  0.46877747768E+03  0.94991424316E+03  0.10100000352E+00 0. -1.
</event>
<event>
 5   0  0.6375750E-05  0.1938176E+04  0.7818609E-02  0.8636084E-01
       -3   -1    0    0    0  501  0.00000000000E+00  0.00000000000E+00  0.10025250535E+04  0.10025250586E+04  0.10100000352E+00 0. -1.
        3   -1    0    0  501    0  0.00000000000E+00  0.00000000000E+00 -0.93676622623E+03  0.93676623168E+03  0.10100000352E+00 0.  1.
    10030    2    1    2    0    0  0.00000000000E+00  0.00000000000E+00  0.65758827306E+02  0.19392912903E+04  0.19381760718E+04 0.  0.
        4    1    3    3  502    0  0.76773693333E+03 -0.11380931284E+03  0.61352138520E+03  0.98933445380E+03  0.12699999809E+01 0. -1.
       -4    1    3    3    0  502 -0.76773693333E+03  0.11380931284E+03 -0.54776255789E+03  0.94995683650E+03  0.12699999809E+01 0.  1.
</event>
<event>
 5   0  0.8681396E-05  0.1866228E+04  0.7818609E-02  0.8671852E-01
        1   -1    0    0  501    0  0.00000000000E+00  0.00000000000E+00  0.38360878628E+03  0.38360878631E+03  0.50400001928E-02 0. -1.
       -1   -1    0    0    0  501  0.00000000000E+00  0.00000000000E+00 -0.22697650928E+04  0.22697650928E+04  0.50400001928E-02 0.  1.
    10030    2    1    2    0    0  0.00000000000E+00  0.00000000000E+00 -0.18861563066E+04  0.26533738791E+04  0.18662281023E+04 0.  0.
        3    1    3    3  502    0 -0.50344823471E+03 -0.71790966891E+03 -0.13968198675E+04  0.16492301750E+04  0.10100000352E+00 0.  1.
       -3    1    3    3    0  502  0.50344823471E+03  0.71790966891E+03 -0.48933643901E+03  0.10041437041E+04  0.10100000352E+00 0. -1.
</event>
<event>
 5   0  0.8567844E-05  0.1885970E+04  0.7818609E-02  0.8661872E-01
        1   -1    0    0  501    0  0.00000000000E+00  0.00000000000E+00  0.97021300470E+03  0.97021300472E+03  0.50400001928E-02 0. -1.
       -1   -1    0    0    0  501  0.00000000000E+00  0.00000000000E+00 -0.91652128139E+03  0.91652128141E+03  0.50400001928E-02 0.  1.
    10030    2    1    2    0    0  0.00000000000E+00  0.00000000000E+00  0.53691723308E+02  0.18867342861E+04  0.18859701655E+04 0.  0.
        4    1    3    3  502    0  0.58204927913E+03  0.73676910798E+03  0.11411176984E+03  0.94585051183E+03  0.12699999809E+01 0.  1.
       -4    1    3    3    0  502 -0.58204927913E+03 -0.73676910798E+03 -0.60420046529E+02  0.94088377430E+03  0.12699999809E+01 0. -1.
</event>
<event>
 5   0  0.8587082E-05  0.1921717E+04  0.7818609E-02  0.8644121E-01
        1   -1    0    0  501    0  0.00000000000E+00  0.00000000000E+00  0.11307981281E+04  0.11307981281E+04  0.50400001928E-02 0.  1.
       -1   -1    0    0    0  501  0.00000000000E+00  0.00000000000E+00 -0.81645816328E+03  0.81645816330E+03  0.50400001928E-02 0. -1.
    10030    2    1    2    0    0  0.00000000000E+00  0.00000000000E+00  0.31433996477E+03  0.19472562914E+04  0.19217173181E+04 0.  0.
        5    1    3    3  502    0  0.92180256686E+03 -0.59131825435E+02  0.42528176948E+03  0.10169086579E+04  0.46999998093E+01 0.  1.
       -5    1    3    3    0  502 -0.92180256686E+03  0.59131825435E+02 -0.11094180471E+03  0.93034763346E+03  0.46999998093E+01 0. -1.
</event>
<event>
 5   0  0.8567844E-05  0.1900421E+04  0.7818609E-02  0.8654647E-01
       -1   -1    0    0    0  501  0.00000000000E+00  0.00000000000E+00  0.49072430061E+03  0.49072430064E+03  0.50400001928E-02 0.  1.
        1   -1    0    0  501    0  0.00000000000E+00  0.00000000000E+00 -0.18399334103E+04  0.18399334103E+04  0.50400001928E-02 0. -1.
    10030    2    1    2    0    0  0.00000000000E+00  0.00000000000E+00 -0.13492091097E+04  0.23306577110E+04  0.19004210439E+04 0.  0.
        4    1    3    3  502    0 -0.13680453409E+03 -0.29283834584E+03  0.42123436373E+03  0.53095176751E+03  0.12699999809E+01 0.  1.
       -4    1    3    3    0  502  0.13680453409E+03  0.29283834584E+03 -0.17704434734E+04  0.17997059434E+04  0.12699999809E+01 0. -1.
</event>
<event>
 5   0  0.1765328E-04  0.1875133E+04  0.7818609E-02  0.8667334E-01
        2   -1    0    0  501    0  0.00000000000E+00  0.00000000000E+00  0.91340916325E+03  0.91340916326E+03  0.25500000920E-02 0. -1.
       -2   -1    0    0    0  501  0.00000000000E+00  0.00000000000E+00 -0.96236237823E+03  0.96236237823E+03  0.25500000920E-02 0.  1.
    10030    2    1    2    0    0  0.00000000000E+00  0.00000000000E+00 -0.48953214975E+02  0.18757715415E+04  0.18751326509E+04 0.  0.
        3    1    3    3  502    0 -0.27339544630E+03 -0.79415966904E+03  0.39231383025E+03  0.92700852293E+03  0.10100000352E+00 0. -1.
       -3    1    3    3    0  502  0.27339544630E+03  0.79415966904E+03 -0.44126704522E+03  0.94876301856E+03  0.10100000352E+00 0.  1.
</event>
<event>
 5   0  0.8905646E-05  0.1906213E+04  0.7818609E-02  0.8651770E-01
        1   -1    0    0  501    0  0.00000000000E+00  0.00000000000E+00  0.14968060681E+04  0.14968060682E+04  0.50400001928E-02 0.  1.
       -1   -1    0    0    0  501  0.00000000000E+00  0.00000000000E+00 -0.60690017419E+03  0.60690017421E+03  0.50400001928E-02 0. -1.
    10030    2    1    2    0    0  0.00000000000E+00  0.00000000000E+00  0.88990589396E+03  0.21037062424E+04  0.19062128564E+04 0.  0.
        1    1    3    3  502    0  0.19014227135E+03  0.33144076774E+03 -0.51866862031E+03  0.64422372169E+03  0.50400001928E-02 0. -1.
       -1    1    3    3    0  502 -0.19014227135E+03 -0.33144076774E+03  0.14085745143E+04  0.14594825207E+04  0.50400001928E-02 0.  1.
</event>
<event>
 5   0  0.1765328E-04  0.1902246E+04  0.7818609E-02  0.8653739E-01
       -2   -1    0    0    0  501  0.00000000000E+00  0.00000000000E+00  0.75148238988E+03  0.75148238988E+03  0.25500000920E-02 0.  1.
        2   -1    0    0  501    0  0.00000000000E+00  0.00000000000E+00 -0.12038001328E+04  0.12038001328E+04  0.25500000920E-02 0. -1.
    10030    2    1    2    0    0  0.00000000000E+00  0.00000000000E+00 -0.45231774296E+03  0.19552825227E+04  0.19022456211E+04 0.  0.
        3    1    3    3  502    0 -0.59063257927E+03 -0.15106835220E+03  0.52424094344E+03  0.80405041367E+03  0.10100000352E+00 0.  1.
       -3    1    3    3    0  502  0.59063257927E+03  0.15106835220E+03 -0.97655868640E+03  0.11512321091E+04  0.10100000352E+00 0. -1.
</event>
<event>
 5   0  0.1810569E-04  0.1903299E+04  0.7818609E-02  0.8653216E-01
        2   -1    0    0  501    0  0.00000000000E+00  0.00000000000E+00  0.12743678850E+04  0.12743678850E+04  0.25500000920E-02 0. -1.
       -2   -1    0    0    0  501  0.00000000000E+00  0.00000000000E+00 -0.71065573887E+03  0.71065573888E+03  0.25500000920E-02 0.  1.
    10030    2    1    2    0    0  0.00000000000E+00  0.00000000000E+00  0.56371214611E+03  0.19850236239E+04  0.19032990841E+04 0.  0.
        4    1    3    3  502    0  0.26742403203E+03  0.89098357288E+03  0.49114108190E+03  0.10519451104E+04  0.12699999809E+01 0. -1.
       -4    1    3    3    0  502 -0.26742403203E+03 -0.89098357288E+03  0.72571064215E+02  0.93307851347E+03  0.12699999809E+01 0.  1.
</event>
<event>
 5   0  0.8567844E-05  0.1888468E+04  0.7818609E-02  0.8660618E-01
        1   -1    0    0  501    0  0.00000000000E+00  0.00000000000E+00  0.16204492648E+04  0.16204492648E+04  0.50400001928E-02 0.  1.
       -1   -1    0    0    0  501  0.00000000000E+00  0.00000000000E+00 -0.55020402612E+03  0.55020402614E+03  0.50400001928E-02 0. -1.
    10030    2    1    2    0    0  0.00000000000E+00  0.00000000000E+00  0.10702452386E+04  0.21706532909E+04  0.18884678548E+04 0.  0.
        4    1    3    3  502    0  0.88904812020E+03 -0.27826092568E+03  0.35802006506E+03  0.99800585303E+03  0.12699999809E+01 0.  1.
       -4    1    3    3    0  502 -0.88904812020E+03  0.27826092568E+03  0.71222517358E+03  0.11726474379E+04  0.12699999809E+01 0. -1.
</event>
<event>
 5   0  0.8905646E-05  0.1811695E+04  0.7818609E-02  0.8700105E-01
        1   -1    0    0  501    0  0.00000000000E+00  0.00000000000E+00  0.10605109556E+04  0.10605109556E+04  0.50400001928E-02 0. -1.
       -1   -1    0    0    0  501  0.00000000000E+00  0.00000000000E+00 -0.77373993377E+03  0.77373993378E+03  0.50400001928E-02 0.  1.
    10030    2    1    2    0    0  0.00000000000E+00  0.00000000000E+00  0.28677102184E+03  0.18342508894E+04  0.18116949816E+04 0.  0.
        1    1    3    3  502    0  0.52305099714E+03  0.45391276604E+03 -0.44778528841E+03  0.82470043611E+03  0.50400001928E-02 0.  1.
       -1    1    3    3    0  502 -0.52305099714E+03 -0.45391276604E+03  0.73455631026E+03  0.10095504533E+04  0.50400001928E-02 0. -1.
</event>
<event>
 5   0  0.1658711E-04  0.2100055E+04  0.7818609E-02  0.8561219E-01
        2   -1    0    0  501    0  0.00000000000E+00  0.00000000000E+00  0.11038413620E+04  0.11038413620E+04  0.25500000920E-02 0.  1.
       -2   -1    0    0    0  501  0.00000000000E+00  0.00000000000E+00 -0.99883685588E+03  0.99883685588E+03  0.25500000920E-02 0. -1.
    10030    2    1    2    0    0  0.00000000000E+00  0.00000000000E+00  0.10500450610E+03  0.21026782179E+04  0.21000546997E+04 0.  0.
        2    1    3    3  502    0  0.59640876932E+03  0.37513426993E+03 -0.72701276710E+03  0.10124113315E+04  0.25500000920E-02 0. -1.
       -2    1    3    3    0  502 -0.59640876932E+03 -0.37513426993E+03  0.83201727320E+03  0.10902668864E+04  0.25500000920E-02 0.  1.
</event>
<event>
 5   0  0.1765328E-04  0.1907758E+04  0.7818609E-02  0.8651004E-01
       -2   -1    0    0    0  501  0.00000000000E+00  0.00000000000E+00  0.67509695778E+03  0.67509695778E+03  0.25500000920E-02 0. -1.
        2   -1    0    0  501    0  0.00000000000E+00  0.00000000000E+00 -0.13477846128E+04  0.13477846128E+04  0.25500000920E-02 0.  1.
    10030    2    1    2    0    0  0.00000000000E+00  0.00000000000E+00 -0.67268765504E+03  0.20228815706E+04  0.19077581522E+04 0.  0.
        3    1    3    3  502    0 -0.70048454984E+03 -0.29157670504E+02  0.34949237185E+03  0.78337328427E+03  0.10100000352E+00 0. -1.
       -3    1    3    3    0  502  0.70048454984E+03  0.29157670504E+02 -0.10221800269E+04  0.12395082863E+04  0.10100000352E+00 0.  1.
</event>
<event>
 5   0  0.8567844E-05  0.1892933E+04  0.7818609E-02  0.8658382E-01
       -1   -1    0    0    0  501  0.00000000000E+00  0.00000000000E+00  0.77982409362E+03  0.77982409363E+03  0.50400001928E-02 0.  1.
        1   -1    0    0  501    0  0.00000000000E+00  0.00000000000E+00 -0.11487187275E+04  0.11487187275E+04  0.50400001928E-02 0. -1.
    10030    2    1    2    0    0  0.00000000000E+00  0.00000000000E+00 -0.36889463384E+03  0.19285428211E+04  0.18929326882E+04 0.  0.
        4    1    3    3  502    0  0.52505365524E+03  0.39752176760E+03 -0.87700883246E+03  0.10967456413E+04  0.12699999809E+01 0. -1.
       -4    1    3    3    0  502 -0.52505365524E+03 -0.39752176760E+03  0.50811419862E+03  0.83179717980E+03  0.12699999809E+01 0.  1.
</event>
<event>
 5   0  0.8602017E-05  0.1872172E+04  0.7818609E-02  0.8668834E-01
        1   -1    0    0  501    0  0.00000000000E+00  0.00000000000E+00  0.13827485489E+04  0.13827485489E+04  0.50400001928E-02 0. -1.
       -1   -1    0    0    0  501  0.00000000000E+00  0.00000000000E+00 -0.63370643592E+03  0.63370643595E+03  0.50400001928E-02 0.  1.
    10030    2    1    2    0    0  0.00000000000E+00  0.00000000000E+00  0.74904211301E+03  0.20164549849E+04  0.18721716318E+04 0.  0.
        2    1    3    3  502    0 -0.49252594387E+03  0.59887037050E+03 -0.19032775268E+03  0.79840602421E+03  0.25500000920E-02 0.  1.
       -2    1    3    3    0  502  0.49252594387E+03 -0.59887037050E+03  0.93936986568E+03  0.12180489607E+04  0.25500000920E-02 0. -1.
</event>
<event>
 5   0  0.8905646E-05  0.1890705E+04  0.7818609E-02  0.8659497E-01
        1   -1    0    0  501    0  0.00000000000E+00  0.00000000000E+00  0.81789674633E+03  0.81789674634E+03  0.50400001928E-02 0.  1.
       -1   -1    0    0    0  501  0.00000000000E+00  0.00000000000E+00 -0.10926697520E+04  0.10926697520E+04  0.50400001928E-02 0. -1.
    10030    2    1    2    0    0  0.00000000000E+00  0.00000000000E+00 -0.27477300567E+03  0.19105664984E+04  0.18907046676E+04 0.  0.
        1    1    3    3  502    0  0.74610561888E+03 -0.44260860311E+03  0.24221257761E+03  0.90069023691E+03  0.50400001928E-02 0.  1.
       -1    1    3    3    0  502 -0.74610561888E+03  0.44260860311E+03 -0.51698558329E+03  0.10098762614E+04  0.50400001928E-02 0. -1.
</event>
<event>
 5   0  0.1658711E-04  0.1897022E+04  0.7818609E-02  0.8656340E-01
        2   -1    0    0  501    0  0.00000000000E+00  0.00000000000E+00  0.13009550601E+04  0.13009550601E+04  0.25500000920E-02 0.  1.
       -2   -1    0    0    0  501  0.00000000000E+00  0.00000000000E+00 -0.69154794902E+03  0.69154794902E+03  0.25500000920E-02 0. -1.
    10030    2    1    2    0    0  0.00000000000E+00  0.00000000000E+00  0.60940711112E+03  0.19925030092E+04  0.18970216695E+04 0.  0.
        2    1    3    3  502    0  0.59201606309E+03  0.64640560557E+03 -0.75959767587E+02  0.87982561463E+03  0.25500000920E-02 0. -1.
       -2    1    3    3    0  502 -0.59201606309E+03 -0.64640560557E+03  0.68536687871E+03  0.11126773945E+04  0.25500000920E-02 0.  1.
</event>
<event>
 5   0  0.8587082E-05  0.1882230E+04  0.7818609E-02  0.8663752E-01
        1   -1    0    0  501    0  0.00000000000E+00  0.00000000000E+00  0.12257744815E+04  0.12257744815E+04  0.50400001928E-02 0. -1.
       -1   -1    0    0    0  501  0.00000000000E+00  0.00000000000E+00 -0.72256185402E+03  0.72256185404E+03  0.50400001928E-02 0.  1.
    10030    2    1    2    0    0  0.00000000000E+00  0.00000000000E+00  0.50321262750E+03  0.19483363356E+04  0.18822304662E+04 0.  0.
        5    1    3    3  502    0 -0.83325067929E+03 -0.46342957769E+02  0.70187971075E+03  0.10904639300E+04  0.46999998093E+01 0. -1.
       -5    1    3    3    0  502  0.83325067929E+03  0.46342957769E+02 -0.19866708325E+03  0.85787240557E+03  0.46999998093E+01 0.  1.
</event>
<event>
 5   0  0.8681396E-05  0.1900940E+04  0.7818609E-02  0.8654389E-01
       -1   -1    0    0    0  501  0.00000000000E+00  0.00000000000E+00  0.17123989583E+04  0.17123989583E+04  0.50400001928E-02 0. -1.
        1   -1    0    0  501    0  0.00000000000E+00  0.00000000000E+00 -0.52755977020E+03  0.52755977022E+03  0.50400001928E-02 0.  1.
    10030    2    1    2    0    0  0.00000000000E+00  0.00000000000E+00  0.11848391881E+04  0.22399587285E+04  0.19009395582E+04 0.  0.
        3    1    3    3  502    0 -0.23751824519E+03  0.82531900318E+03  0.10722619344E+04  0.13737947590E+04  0.10100000352E+00 0. -1.
       -3    1    3    3    0  502  0.23751824519E+03 -0.82531900318E+03  0.11257725373E+03  0.86616396951E+03  0.10100000352E+00 0.  1.
</event>
<event>
 5   0  0.1765328E-04  0.1902760E+04  0.7818609E-02  0.8653484E-01
       -2   -1    0    0    0  501  0.00000000000E+00  0.00000000000E+00  0.10828568033E+04  0.10828568033E+04  0.25500000920E-02 0.  1.
        2   -1    0    0  501    0  0.00000000000E+00  0.00000000000E+00 -0.83586685465E+03  0.83586685465E+03  0.25500000920E-02 0. -1.
    10030    2    1    2    0    0  0.00000000000E+00  0.00000000000E+00  0.24698994860E+03  0.19187236579E+04  0.19027602163E+04 0.  0.
        3    1    3    3  502    0 -0.88413274203E+03 -0.33405361351E+03  0.13763010019E+02  0.94523645342E+03  0.10100000352E+00 0. -1.
       -3    1    3    3    0  502  0.88413274203E+03  0.33405361351E+03  0.23322693859E+03  0.97348720449E+03  0.10100000352E+00 0.  1.
</event>
<event>
 5   0  0.1765328E-04  0.1892954E+04  0.7818609E-02  0.8658372E-01
       -2   -1    0    0    0  501  0.00000000000E+00  0.00000000000E+00  0.64003564340E+03  0.64003564341E+03  0.25500000920E-02 0. -1.
        2   -1    0    0  501    0  0.00000000000E+00  0.00000000000E+00 -0.13996388968E+04  0.13996388969E+04  0.25500000920E-02 0.  1.
    10030    2    1    2    0    0  0.00000000000E+00  0.00000000000E+00 -0.75960325345E+03  0.20396745403E+04  0.18929540743E+04 0.  0.
        3    1    3    3  502    0  0.88497025079E+03 -0.22148190277E+03 -0.10808094178E+03  0.91864469639E+03  0.10100000352E+00 0.  1.
       -3    1    3    3    0  502 -0.88497025079E+03  0.22148190277E+03 -0.65152231167E+03  0.11210298439E+04  0.10100000352E+00 0. -1.
</event>
<event>
 5   0  0.8905646E-05  0.1883030E+04  0.7818609E-02  0.8663350E-01
        1   -1    0    0  501    0  0.00000000000E+00  0.00000000000E+00  0.11401124888E+04  0.11401124888E+04  0.50400001928E-02 0.  1.
       -1   -1    0    0    0  501  0.00000000000E+00  0.00000000000E+00 -0.77751108425E+03  0.77751108426E+03  0.50400001928E-02 0. -1.
    10030    2    1    2    0    0  0.00000000000E+00  0.00000000000E+00  0.36260140456E+03  0.19176235731E+04  0.18830295774E+04 0.  0.
        1    1    3    3  502    0 -0.93566688250E+03 -0.10323232133E+03  0.19953695065E+03  0.96226005937E+03  0.50400001928E-02 0. -1.
       -1    1    3    3    0  502  0.93566688250E+03  0.10323232133E+03  0.16306445391E+03  0.95536351371E+03  0.50400001928E-02 0.  1.
</event>
<event>
 5   0  0.1799738E-04  0.1883979E+04  0.7818609E-02  0.8662872E-01
       -2   -1    0    0    0  501  0.00000000000E+00  0.00000000000E+00  0.49078835510E+03  0.49078835511E+03  0.25500000920E-02 0.  1.
        2   -1    0    0  501    0  0.00000000000E+00  0.00000000000E+00 -0.18079973315E+04  0.18079973315E+04  0.25500000920E-02 0. -1.
    10030    2    1    2    0    0  0.00000000000E+00  0.00000000000E+00 -0.13172089764E+04  0.22987856866E+04  0.18839788071E+04 0.  0.
        1    1    3    3  502    0  0.47547699709E+03 -0.46449095350E+03 -0.14730331692E+04  0.16160621703E+04  0.50400001928E-02 0. -1.
       -1    1    3    3    0  502 -0.47547699709E+03  0.46449095350E+03  0.15582419280E+03  0.68272351632E+03  0.50400001928E-02 0.  1.
</event>
<event>
 5   0  0.8602017E-05  0.1884274E+04  0.7818609E-02  0.8662724E-01
        1   -1    0    0  501    0  0.00000000000E+00  0.00000000000E+00  0.12950257441E+04  0.12950257442E+04  0.50400001928E-02 0. -1.
       -1   -1    0    0    0  501  0.00000000000E+00  0.00000000000E+00 -0.68540870384E+03  0.68540870386E+03  0.50400001928E-02 0.  1.
    10030    2    1    2    0    0  0.00000000000E+00  0.00000000000E+00  0.60961704030E+03  0.19804344480E+04  0.18842737771E+04 0.  0.
        2    1    3    3  502    0 -0.29256871432E+03  0.78836200255E+03  0.75135645348E+03  0.11276735431E+04  0.25500000920E-02 0. -1.
       -2    1    3    3    0  502  0.29256871432E+03 -0.78836200255E+03 -0.14173941318E+03  0.85276090489E+03  0.25500000920E-02 0.  1.
</event>
<event>
 5   0  0.8905646E-05  0.1907623E+04  0.7818609E-02  0.8651071E-01
        1   -1    0    0  501    0  0.00000000000E+00  0.00000000000E+00  0.10764779143E+04  0.10764779144E+04  0.50400001928E-02 0. -1.
       -1   -1    0    0    0  501  0.00000000000E+00  0.00000000000E+00 -0.84512329488E+03  0.84512329490E+03  0.50400001928E-02 0.  1.
    10030    2    1    2    0    0  0.00000000000E+00  0.00000000000E+00  0.23135461946E+03  0.19216012093E+04  0.19076231933E+04 0.  0.
        1    1    3    3  502    0 -0.67528975571E+03  0.15655944106E+03 -0.54427936372E+03  0.88134393885E+03  0.50400001928E-02 0.  1.
       -1    1    3    3    0  502  0.67528975571E+03 -0.15655944106E+03  0.77563398319E+03  0.10402572704E+04  0.50400001928E-02 0. -1.
</event>
<event>
 5   0  0.6375750E-05  0.1899907E+04  0.7818609E-02  0.8654903E-01
        4   -1    0    0  501    0  0.00000000000E+00  0.00000000000E+00  0.14310087155E+04  0.14310092791E+04  0.12699999809E+01 0.  1.
       -4   -1    0    0    0  501  0.00000000000E+00  0.00000000000E+00 -0.63061114062E+03  0.63061241945E+03  0.12699999809E+01 0. -1.
    10030    2    1    2    0    0  0.00000000000E+00  0.00000000000E+00  0.80039757490E+03  0.20616216985E+04  0.18999073003E+04 0.  0.
        4    1    3    3  502    0  0.57681588355E+03 -0.69492209775E+03  0.80545644559E+02  0.90670971055E+03  0.12699999809E+01 0.  1.
       -4    1    3    3    0  502 -0.57681588355E+03  0.69492209775E+03  0.71985193034E+03  0.11549119880E+04  0.12699999809E+01 0. -1.
</event>
<event>
 5   0  0.1799738E-04  0.1923280E+04  0.7818609E-02  0.8643355E-01
       -2   -1    0    0    0  501  0.00000000000E+00  0.00000000000E+00  0.12082770510E+04  0.12082770510E+04  0.25500000920E-02 0.  1.
        2   -1    0    0  501    0  0.00000000000E+00  0.00000000000E+00 -0.76534689483E+03  0.76534689484E+03  0.25500000920E-02 0. -1.
    10030    2    1    2    0    0  0.00000000000E+00  0.00000000000E+00  0.44293015618E+03  0.19736239459E+04  0.19232795835E+04 0.  0.
        1    1    3    3  502    0 -0.93908612540E+03 -0.19698868917E+03  0.15604849544E+03  0.97213086955E+03  0.50400001928E-02 0.  1.
       -1    1    3    3    0  502  0.93908612540E+03  0.19698868917E+03  0.28688166075E+03  0.10014930763E+04  0.50400001928E-02 0. -1.
</event>
<event>
 5   0  0.8602017E-05  0.1902964E+04  0.7818609E-02  0.8653382E-01
       -1   -1    0    0    0  501  0.00000000000E+00  0.00000000000E+00  0.47145875058E+03  0.47145875060E+03  0.50400001928E-02 0.  1.
        1   -1    0    0  501    0  0.00000000000E+00  0.00000000000E+00 -0.19202488429E+04  0.19202488429E+04  0.50400001928E-02 0. -1.
    10030    2    1    2    0    0  0.00000000000E+00  0.00000000000E+00 -0.14487900923E+04  0.23917075935E+04  0.19029641303E+04 0.  0.
        2    1    3    3  502    0 -0.11417628658E+02  0.58051468683E+03 -0.16717755598E+04  0.17697347785E+04  0.25500000920E-02 0. -1.
       -2    1    3    3    0  502  0.11417628658E+02 -0.58051468683E+03  0.22298546749E+03  0.62197281500E+03  0.25500000920E-02 0.  1.
</event>
<event>
 5   0  0.8602017E-05  0.1887656E+04  0.7818609E-02  0.8661026E-01
       -1   -1    0    0    0  501  0.00000000000E+00  0.00000000000E+00  0.42420306614E+03  0.42420306617E+03  0.50400001928E-02 0.  1.
        1   -1    0    0  501    0  0.00000000000E+00  0.00000000000E+00 -0.20999632772E+04  0.20999632772E+04  0.50400001928E-02 0. -1.
    10030    2    1    2    0    0  0.00000000000E+00  0.00000000000E+00 -0.16757602110E+04  0.25241663434E+04  0.18876555417E+04 0.  0.
        2    1    3    3  502    0 -0.23019432606E+03  0.33820732004E+03 -0.19752340950E+04  0.20171572446E+04  0.25500000920E-02 0. -1.
       -2    1    3    3    0  502  0.23019432606E+03 -0.33820732004E+03  0.29947388399E+03  0.50700909881E+03  0.25500000920E-02 0.  1.
</event>
<event>
 5   0  0.1658711E-04  0.1904535E+04  0.7818609E-02  0.8652603E-01
       -2   -1    0    0    0  501  0.00000000000E+00  0.00000000000E+00  0.60089442227E+03  0.60089442227E+03  0.25500000920E-02 0.  1.
        2   -1    0    0  501    0  0.00000000000E+00  0.00000000000E+00 -0.15091052756E+04  0.15091052756E+04  0.25500000920E-02 0. -1.
    10030    2    1    2    0    0  0.00000000000E+00  0.00000000000E+00 -0.90821085329E+03  0.21099996978E+04  0.19045345287E+04 0.  0.
        2    1    3    3  502    0 -0.33568390134E+03 -0.52352625585E+03  0.34483775097E+03  0.71110934229E+03  0.25500000920E-02 0.  1.
       -2    1    3    3    0  502  0.33568390134E+03  0.52352625585E+03 -0.12530486043E+04  0.13988903555E+04  0.25500000920E-02 0. -1.
</event>
<event>
 5   0  0.8681396E-05  0.1883679E+04  0.7818609E-02  0.8663023E-01
       -1   -1    0    0    0  501  0.00000000000E+00  0.00000000000E+00  0.13089896791E+04  0.13089896791E+04  0.50400001928E-02 0. -1.
        1   -1    0    0  501    0  0.00000000000E+00  0.00000000000E+00 -0.67766872220E+03  0.67766872222E+03  0.50400001928E-02 0.  1.
    10030    2    1    2    0    0  0.00000000000E+00  0.00000000000E+00  0.63132095686E+03  0.19866584013E+04  0.18836787021E+04 0.  0.
        3    1    3    3  502    0 -0.45443825770E+01 -0.91071294062E+03  0.56887482457E+03  0.10737957384E+04  0.10100000352E+00 0. -1.
       -3    1    3    3    0  502  0.45443825770E+01  0.91071294062E+03  0.62446132284E+02  0.91286266287E+03  0.10100000352E+00 0.  1.
</event>
<event>
 5   0  0.1790832E-04  0.1909555E+04  0.7818609E-02  0.8650115E-01
        2   -1    0    0  501    0  0.00000000000E+00  0.00000000000E+00  0.10416080139E+04  0.10416080139E+04  0.25500000920E-02 0. -1.
       -2   -1    0    0    0  501  0.00000000000E+00  0.00000000000E+00 -0.87518532022E+03  0.87518532022E+03  0.25500000920E-02 0.  1.
    10030    2    1    2    0    0  0.00000000000E+00  0.00000000000E+00  0.16642269364E+03  0.19167933341E+04  0.19095549672E+04 0.  0.
        5    1    3    3  502    0 -0.81200892963E+03  0.42223797468E+03 -0.18972842604E+03  0.93469908244E+03  0.46999998093E+01 0. -1.
       -5    1    3    3    0  502  0.81200892963E+03 -0.42223797468E+03  0.35615111967E+03  0.98209425164E+03  0.46999998093E+01 0.  1.
</event>
<event>
 5   0  0.8681396E-05  0.1866132E+04  0.7818609E-02  0.8671901E-01
       -1   -1    0    0    0  501  0.00000000000E+00  0.00000000000E+00  0.59945303315E+03  0.59945303317E+03  0.50400001928E-02 0.  1.
        1   -1    0    0  501    0  0.00000000000E+00  0.00000000000E+00 -0.14523445810E+04  0.14523445810E+04  0.50400001928E-02 0. -1.
    10030    2    1    2    0    0  0.00000000000E+00  0.00000000000E+00 -0.85289154785E+03  0.20517976142E+04  0.18661322186E+04 0.  0.
        3    1    3    3  502    0 -0.18968902036E+03  0.47485891172E+03 -0.12845706081E+04  0.13826042701E+04  0.10100000352E+00 0. -1.
       -3    1    3    3    0  502  0.18968902036E+03 -0.47485891172E+03  0.43167906022E+03  0.66919334405E+03  0.10100000352E+00 0.  1.
</event>
<event>
 5   0  0.1658711E-04  0.1900282E+04  0.7818609E-02  0.8654716E-01
        2   -1    0    0  501    0  0.00000000000E+00  0.00000000000E+00  0.18713375558E+04  0.18713375558E+04  0.25500000920E-02 0. -1.
       -2   -1    0    0    0  501  0.00000000000E+00  0.00000000000E+00 -0.48241834741E+03  0.48241834742E+03  0.25500000920E-02 0.  1.
    10030    2    1    2    0    0  0.00000000000E+00  0.00000000000E+00  0.13889192084E+04  0.23537559032E+04  0.19002816330E+04 0.  0.
        2    1    3    3  502    0 -0.34445078822E+03 -0.51514967357E+03  0.15865711787E+04  0.17033008063E+04  0.25500000920E-02 0. -1.
       -2    1    3    3    0  502  0.34445078822E+03  0.51514967357E+03 -0.19765197033E+03  0.65045509689E+03  0.25500000920E-02 0.  1.
</event>
<event>
 5   0  0.1658711E-04  0.1898622E+04  0.7818609E-02  0.8655543E-01
       -2   -1    0    0    0  501  0.00000000000E+00  0.00000000000E+00  0.12005340576E+04  0.12005340576E+04  0.25500000920E-02 0. -1.
        2   -1    0    0  501    0  0.00000000000E+00  0.00000000000E+00 -0.75065879733E+03  0.75065879734E+03  0.25500000920E-02 0.  1.
    10030    2    1    2    0    0  0.00000000000E+00  0.00000000000E+00  0.44987526029E+03  0.19511928550E+04  0.18986220813E+04 0.  0.
        2    1    3    3  502    0  0.60267391689E+03 -0.38603324335E+03 -0.41599259889E+03  0.82782084862E+03  0.25500000920E-02 0.  1.
       -2    1    3    3    0  502 -0.60267391689E+03  0.38603324335E+03  0.86586785919E+03  0.11233720063E+04  0.25500000920E-02 0. -1.
</event>
<event>
 5   0  0.8905646E-05  0.2000537E+04  0.7818609E-02  0.8606370E-01
        1   -1    0    0  501    0  0.00000000000E+00  0.00000000000E+00  0.14147138072E+04  0.14147138072E+04  0.50400001928E-02 0. -1.
       -1   -1    0    0    0  501  0.00000000000E+00  0.00000000000E+00 -0.70723653570E+03  0.70723653572E+03  0.50400001928E-02 0.  1.
    10030    2    1    2    0    0  0.00000000000E+00  0.00000000000E+00  0.70747727154E+03  0.21219503430E+04  0.20005372199E+04 0.  0.
        1    1    3    3  502    0  0.52838899534E+03  0.35130656548E+03 -0.46644730635E+03  0.78751782391E+03  0.50400001928E-02 0.  1.
       -1    1    3    3    0  502 -0.52838899534E+03 -0.35130656548E+03  0.11739245779E+04  0.13344325191E+04  0.50400001928E-02 0. -1.
</event>
<event>
 5   0  0.1765328E-04  0.1886528E+04  0.7818609E-02  0.8661591E-01
       -2   -1    0    0    0  501  0.00000000000E+00  0.00000000000E+00  0.70526966594E+03  0.70526966594E+03  0.25500000920E-02 0. -1.
        2   -1    0    0  501    0  0.00000000000E+00  0.00000000000E+00 -0.12615700350E+04  0.12615700350E+04  0.25500000920E-02 0.  1.
    10030    2    1    2    0    0  0.00000000000E+00  0.00000000000E+00 -0.55630036905E+03  0.19668397009E+04  0.18865281097E+04 0.  0.
        3    1    3    3  502    0 -0.61718032126E+03  0.14198624877E+03 -0.10069628884E+04  0.11895570237E+04  0.10100000352E+00 0.  1.
       -3    1    3    3    0  502  0.61718032126E+03 -0.14198624877E+03  0.45066251935E+03  0.77728267724E+03  0.10100000352E+00 0. -1.
</event>
<event>
 5   0  0.1658711E-04  0.1815154E+04  0.7818609E-02  0.8698282E-01
        2   -1    0    0  501    0  0.00000000000E+00  0.00000000000E+00  0.11340270314E+04  0.11340270314E+04  0.25500000920E-02 0.  1.
       -2   -1    0    0    0  501  0.00000000000E+00  0.00000000000E+00 -0.72634603608E+03  0.72634603608E+03  0.25500000920E-02 0. -1.
    10030    2    1    2    0    0  0.00000000000E+00  0.00000000000E+00  0.40768099535E+03  0.18603730675E+04  0.18151540310E+04 0.  0.
        2    1    3    3  502    0  0.79505142200E+03 -0.20120635822E+03 -0.19456596502E+03  0.84287998966E+03  0.25500000920E-02 0. -1.
       -2    1    3    3    0  502 -0.79505142200E+03  0.20120635822E+03  0.60224696037E+03  0.10174930779E+04  0.25500000920E-02 0.  1.
</event>
<event>
 5   0  0.8681396E-05  0.1893467E+04  0.7818609E-02  0.8658115E-01
       -1   -1    0    0    0  501  0.00000000000E+00  0.00000000000E+00  0.47627523862E+03  0.47627523865E+03  0.50400001928E-02 0. -1.
        1   -1    0    0  501    0  0.00000000000E+00  0.00000000000E+00 -0.18819037681E+04  0.18819037681E+04  0.50400001928E-02 0.  1.
    10030    2    1    2    0    0  0.00000000000E+00  0.00000000000E+00 -0.14056285295E+04  0.23581790068E+04  0.18934668376E+04 0.  0.
        3    1    3    3  502    0  0.49123459428E+02 -0.94179482146E+03 -0.80636896359E+03  0.12408148595E+04  0.10100000352E+00 0.  1.
       -3    1    3    3    0  502 -0.49123459428E+02  0.94179482146E+03 -0.59925956590E+03  0.11173641472E+04  0.10100000352E+00 0. -1.
</event>
<event>
 5   0  0.8681396E-05  0.1872732E+04  0.7818609E-02  0.8668550E-01
       -1   -1    0    0    0  501  0.00000000000E+00  0.00000000000E+00  0.55835604039E+03  0.55835604041E+03  0.50400001928E-02 0. -1.
        1   -1    0    0  501    0  0.00000000000E+00  0.00000000000E+00 -0.15702901478E+04  0.15702901478E+04  0.50400001928E-02 0.  1.
    10030    2    1    2    0    0  0.00000000000E+00  0.00000000000E+00 -0.10119341074E+04  0.21286461882E+04  0.18727316831E+04 0.  0.
        3    1    3    3  502    0 -0.31414708076E+03  0.50107192512E+03  0.31919884649E+03  0.67204864132E+03  0.10100000352E+00 0. -1.
       -3    1    3    3    0  502  0.31414708076E+03 -0.50107192512E+03 -0.13311329539E+04  0.14565975469E+04  0.10100000352E+00 0.  1.
</event>
<event>
 5   0  0.8567844E-05  0.1882303E+04  0.7818609E-02  0.8663716E-01
       -1   -1    0    0    0  501  0.00000000000E+00  0.00000000000E+00  0.78858975976E+03  0.78858975978E+03  0.50400001928E-02 0. -1.
        1   -1    0    0  501    0  0.00000000000E+00  0.00000000000E+00 -0.11232277675E+04  0.11232277675E+04  0.50400001928E-02 0.  1.
    10030    2    1    2    0    0  0.00000000000E+00  0.00000000000E+00 -0.33463800772E+03  0.19118175273E+04  0.18823027550E+04 0.  0.
        4    1    3    3  502    0 -0.24549220256E+03 -0.50149062562E+03  0.60219195880E+03  0.82121619398E+03  0.12699999809E+01 0. -1.
       -4    1    3    3    0  502  0.24549220256E+03  0.50149062562E+03 -0.93682996652E+03  0.10906013333E+04  0.12699999809E+01 0.  1.
</event>
<event>
 5   0  0.1765328E-04  0.1829317E+04  0.7818609E-02  0.8690863E-01
        2   -1    0    0  501    0  0.00000000000E+00  0.00000000000E+00  0.95511534284E+03  0.95511534284E+03  0.25500000920E-02 0. -1.
       -2   -1    0    0    0  501  0.00000000000E+00  0.00000000000E+00 -0.87591541473E+03  0.87591541473E+03  0.25500000920E-02 0.  1.
    10030    2    1    2    0    0  0.00000000000E+00  0.00000000000E+00  0.79199928110E+02  0.18310307576E+04  0.18293170875E+04 0.  0.
        3    1    3    3  502    0 -0.30820844104E+03 -0.38359931289E+01  0.90156467062E+03  0.95279904675E+03  0.10100000352E+00 0. -1.
       -3    1    3    3    0  502  0.30820844104E+03  0.38359931289E+01 -0.82236474251E+03  0.87823171082E+03  0.10100000352E+00 0.  1.
</event>
<event>
 5   0  0.1658711E-04  0.1880380E+04  0.7818609E-02  0.8664684E-01
       -2   -1    0    0    0  501  0.00000000000E+00  0.00000000000E+00  0.72606510793E+03  0.72606510794E+03  0.25500000920E-02 0. -1.
        2   -1    0    0  501    0  0.00000000000E+00  0.00000000000E+00 -0.12174633991E+04  0.12174633992E+04  0.25500000920E-02 0.  1.
    10030    2    1    2    0    0  0.00000000000E+00  0.00000000000E+00 -0.49139829121E+03  0.19435285071E+04  0.18803804874E+04 0.  0.
        2    1    3    3  502    0  0.80775570355E+03  0.28749396070E+03  0.15304897510E+03  0.87094548787E+03  0.25500000920E-02 0. -1.
       -2    1    3    3    0  502 -0.80775570355E+03 -0.28749396070E+03 -0.64444726631E+03  0.10725830192E+04  0.25500000920E-02 0.  1.
</event>
<event>
 5   0  0.1810569E-04  0.1842815E+04  0.7818609E-02  0.8683857E-01
        2   -1    0    0  501    0  0.00000000000E+00  0.00000000000E+00  0.19619624614E+04  0.19619624614E+04  0.25500000920E-02 0. -1.
       -2   -1    0    0    0  501  0.00000000000E+00  0.00000000000E+00 -0.43272570449E+03  0.43272570450E+03  0.25500000920E-02 0.  1.
    10030    2    1    2    0    0  0.00000000000E+00  0.00000000000E+00  0.15292367569E+04  0.23946881659E+04  0.18428147908E+04 0.  0.
        4    1    3    3  502    0 -0.19150508010E+03  0.69948674527E+03  0.15031880080E+04  0.16689912231E+04  0.12699999809E+01 0. -1.
       -4    1    3    3    0  502  0.19150508010E+03 -0.69948674527E+03  0.26048748867E+02  0.72569694276E+03  0.12699999809E+01 0.  1.
</event>
<event>
 5   0  0.8602017E-05  0.1961598E+04  0.7818609E-02  0.8624788E-01
       -1   -1    0    0    0  501  0.00000000000E+00  0.00000000000E+00  0.96966872837E+03  0.96966872838E+03  0.50400001928E-02 0.  1.
        1   -1    0    0  501    0  0.00000000000E+00  0.00000000000E+00 -0.99205719635E+03  0.99205719636E+03  0.50400001928E-02 0. -1.
    10030    2    1    2    0    0  0.00000000000E+00  0.00000000000E+00 -0.22388467983E+02  0.19617259247E+04  0.19615981648E+04 0.  0.
        2    1    3    3  502    0 -0.36421773218E+03  0.28425852227E+02 -0.92147560801E+03  0.99125167424E+03  0.25500000920E-02 0. -1.
       -2    1    3    3    0  502  0.36421773218E+03 -0.28425852227E+02  0.89908714003E+03  0.97047425050E+03  0.25500000920E-02 0.  1.
</event>
<event>
 5   0  0.6375750E-05  0.1927063E+04  0.7818609E-02  0.8641501E-01
        3   -1    0    0  501    0  0.00000000000E+00  0.00000000000E+00  0.15502634104E+04  0.15502634136E+04  0.10100000352E+00 0.  1.
       -3   -1    0    0    0  501  0.00000000000E+00  0.00000000000E+00 -0.59886144325E+03  0.59886145177E+03  0.10100000352E+00 0. -1.
    10030    2    1    2    0    0  0.00000000000E+00  0.00000000000E+00  0.95140196711E+03  0.21491248654E+04  0.19270630462E+04 0.  0.
        3    1    3    3  502    0  0.98407331965E+01 -0.92240711668E+03  0.78609117974E+03  0.12119699179E+04  0.10100000352E+00 0.  1.
       -3    1    3    3    0  502 -0.98407331965E+01  0.92240711668E+03  0.16531078737E+03  0.93715494747E+03  0.10100000352E+00 0. -1.
</event>
<event>
 5   0  0.1799738E-04  0.1903238E+04  0.7818609E-02  0.8653246E-01
        2   -1    0    0  501    0  0.00000000000E+00  0.00000000000E+00  0.74463723077E+03  0.74463723078E+03  0.25500000920E-02 0. -1.
       -2   -1    0    0    0  501  0.00000000000E+00  0.00000000000E+00 -0.12161338143E+04  0.12161338143E+04  0.25500000920E-02 0.  1.
    10030    2    1    2    0    0  0.00000000000E+00  0.00000000000E+00 -0.47149658353E+03  0.19607710451E+04  0.19032377841E+04 0.  0.
        1    1    3    3  502    0  0.41091845426E+03  0.72873268962E+03  0.23147307307E+03  0.86803519085E+03  0.50400001928E-02 0. -1.
       -1    1    3    3    0  502 -0.41091845426E+03 -0.72873268962E+03 -0.70296965660E+03  0.10927358542E+04  0.50400001928E-02 0.  1.
</event>
<event>
 5   0  0.1658711E-04  0.1909319E+04  0.7818609E-02  0.8650231E-01
        2   -1    0    0  501    0  0.00000000000E+00  0.00000000000E+00  0.16675359571E+04  0.16675359571E+04  0.25500000920E-02 0.  1.
       -2   -1    0    0    0  501  0.00000000000E+00  0.00000000000E+00 -0.54654007558E+03  0.54654007559E+03  0.25500000920E-02 0. -1.
    10030    2    1    2    0    0  0.00000000000E+00  0.00000000000E+00  0.11209958815E+04  0.22140760326E+04  0.19093194893E+04 0.  0.
        2    1    3    3  502    0  0.62323075758E+03  0.30853624783E+03  0.13189289106E+04  0.14910347631E+04  0.25500000920E-02 0.  1.
       -2    1    3    3    0  502 -0.62323075758E+03 -0.30853624783E+03 -0.19793302918E+03  0.72304126955E+03  0.25500000920E-02 0. -1.
</event>
<event>
 5   0  0.8905646E-05  0.1902774E+04  0.7818609E-02  0.8653477E-01
       -1   -1    0    0    0  501  0.00000000000E+00  0.00000000000E+00  0.60226888619E+03  0.60226888621E+03  0.50400001928E-02 0. -1.
        1   -1    0    0  501    0  0.00000000000E+00  0.00000000000E+00 -0.15028788344E+04  0.15028788344E+04  0.50400001928E-02 0.  1.
    10030    2    1    2    0    0  0.00000000000E+00  0.00000000000E+00 -0.90060994817E+03  0.21051477206E+04  0.19027739347E+04 0.  0.
        1    1    3    3  502    0 -0.37261013595E+03 -0.11312561508E+03 -0.14106724129E+04  0.14634317116E+04  0.50400001928E-02 0.  1.
       -1    1    3    3    0  502  0.37261013595E+03  0.11312561508E+03  0.51006246470E+03  0.64171600893E+03  0.50400001928E-02 0. -1.
</event>
<event>
 5   0  0.8681396E-05  0.1886352E+04  0.7818609E-02  0.8661680E-01
        1   -1    0    0  501    0  0.00000000000E+00  0.00000000000E+00  0.11459451872E+04  0.11459451872E+04  0.50400001928E-02 0. -1.
       -1   -1    0    0    0  501  0.00000000000E+00  0.00000000000E+00 -0.77628562127E+03  0.77628562128E+03  0.50400001928E-02 0.  1.
    10030    2    1    2    0    0  0.00000000000E+00  0.00000000000E+00  0.36965956596E+03  0.19222308085E+04  0.18863517929E+04 0.  0.
        3    1    3    3  502    0 -0.32730214062E+03  0.42507869740E+03 -0.60565822512E+03  0.80909856389E+03  0.10100000352E+00 0.  1.
       -3    1    3    3    0  502  0.32730214062E+03 -0.42507869740E+03  0.97531779108E+03  0.11131322446E+04  0.10100000352E+00 0. -1.
</event>
<event>
 5   0  0.8567844E-05  0.1862684E+04  0.7818609E-02  0.8673657E-01
       -1   -1    0    0    0  501  0.00000000000E+00  0.00000000000E+00  0.11538376533E+04  0.11538376533E+04  0.50400001928E-02 0.  1.
        1   -1    0    0  501    0  0.00000000000E+00  0.00000000000E+00 -0.75175014711E+03  0.75175014713E+03  0.50400001928E-02 0. -1.
    10030    2    1    2    0    0  0.00000000000E+00  0.00000000000E+00  0.40208750621E+03  0.19055878005E+04  0.18626836829E+04 0.  0.
        4    1    3    3  502    0  0.75684665614E+03  0.45693394122E+03 -0.98602959106E+02  0.88956711046E+03  0.12699999809E+01 0. -1.
       -4    1    3    3    0  502 -0.75684665614E+03 -0.45693394122E+03  0.50069046531E+03  0.10160206900E+04  0.12699999809E+01 0.  1.
</event>
<event>
 5   0  0.8905646E-05  0.1869032E+04  0.7818609E-02  0.8670427E-01
       -1   -1    0    0    0  501  0.00000000000E+00  0.00000000000E+00  0.69668074346E+03  0.69668074348E+03  0.50400001928E-02 0. -1.
        1   -1    0    0  501    0  0.00000000000E+00  0.00000000000E+00 -0.12535441514E+04  0.12535441514E+04  0.50400001928E-02 0.  1.
    10030    2    1    2    0    0  0.00000000000E+00  0.00000000000E+00 -0.55686340794E+03  0.19502248949E+04  0.18690319113E+04 0.  0.
        1    1    3    3  502    0 -0.60481650865E+03  0.17747461929E+03 -0.99834550324E+03  0.11806752278E+04  0.50400001928E-02 0.  1.
       -1    1    3    3    0  502  0.60481650865E+03 -0.17747461929E+03  0.44148209531E+03  0.76954966710E+03  0.50400001928E-02 0. -1.
</event>
<event>
 5   0  0.1765328E-04  0.1931187E+04  0.7818609E-02  0.8639486E-01
        2   -1    0    0  501    0  0.00000000000E+00  0.00000000000E+00  0.16752176830E+04  0.16752176830E+04  0.25500000920E-02 0.  1.
       -2   -1    0    0    0  501  0.00000000000E+00  0.00000000000E+00 -0.55656711579E+03  0.55656711580E+03  0.25500000920E-02 0. -1.
    10030    2    1    2    0    0  0.00000000000E+00  0.00000000000E+00  0.11186505672E+04  0.22317847988E+04  0.19311872764E+04 0.  0.
        3    1    3    3  502    0  0.18670000541E+03 -0.83635532930E+03  0.45060521620E+02  0.85812446048E+03  0.10100000352E+00 0. -1.
       -3    1    3    3    0  502 -0.18670000541E+03  0.83635532930E+03  0.10735900456E+04  0.13736603383E+04  0.10100000352E+00 0.  1.
</event>
<event>
 5   0  0.8602017E-05  0.1887729E+04  0.7818609E-02  0.8660988E-01
       -1   -1    0    0    0  501  0.00000000000E+00  0.00000000000E+00  0.12656435028E+04  0.12656435028E+04  0.50400001928E-02 0.  1.
        1   -1    0    0  501    0  0.00000000000E+00  0.00000000000E+00 -0.70389538567E+03  0.70389538569E+03  0.50400001928E-02 0. -1.
    10030    2    1    2    0    0  0.00000000000E+00  0.00000000000E+00  0.56174811715E+03  0.19695388885E+04  0.18877294526E+04 0.  0.
        2    1    3    3  502    0 -0.58868826813E+03 -0.49755616494E+03 -0.28749556752E+03  0.82266014590E+03  0.25500000920E-02 0. -1.
       -2    1    3    3    0  502  0.58868826813E+03  0.49755616494E+03  0.84924368467E+03  0.11468787426E+04  0.25500000920E-02 0.  1.
</event>
<event>
 5   0  0.1799738E-04  0.1905771E+04  0.7818609E-02  0.8651989E-01
        2   -1    0    0  501    0  0.00000000000E+00  0.00000000000E+00  0.11164071813E+04  0.11164071813E+04  0.25500000920E-02 0.  1.
       -2   -1    0    0    0  501  0.00000000000E+00  0.00000000000E+00 -0.81331547820E+03  0.81331547821E+03  0.25500000920E-02 0. -1.
    10030    2    1    2    0    0  0.00000000000E+00  0.00000000000E+00  0.30309170308E+03  0.19297226595E+04  0.19057714874E+04 0.  0.
        1    1    3    3  502    0 -0.25885706207E+03 -0.21193995015E+03  0.10549842239E+04  0.11067597904E+04  0.50400001928E-02 0.  1.
       -1    1    3    3    0  502  0.25885706207E+03  0.21193995015E+03 -0.75189252078E+03  0.82296286908E+03  0.50400001928E-02 0. -1.
</event>
<event>
 5   0  0.8602017E-05  0.1894978E+04  0.7818609E-02  0.8657360E-01
        1   -1    0    0  501    0  0.00000000000E+00  0.00000000000E+00  0.11045141181E+04  0.11045141181E+04  0.50400001928E-02 0. -1.
       -1   -1    0    0    0  501  0.00000000000E+00  0.00000000000E+00 -0.81278733157E+03  0.81278733158E+03  0.50400001928E-02 0.  1.
    10030    2    1    2    0    0  0.00000000000E+00  0.00000000000E+00  0.29172678657E+03  0.19173014497E+04  0.18949776598E+04 0.  0.
        2    1    3    3  502    0  0.73252789035E+03  0.59273779600E+03  0.45702857971E+02  0.94341080987E+03  0.25500000920E-02 0. -1.
       -2    1    3    3    0  502 -0.73252789035E+03 -0.59273779600E+03  0.24602392860E+03  0.97389063986E+03  0.25500000920E-02 0.  1.
</event>
<event>
 5   0  0.8681396E-05  0.1792688E+04  0.7818609E-02  0.8710198E-01
       -1   -1    0    0    0  501  0.00000000000E+00  0.00000000000E+00  0.36609224992E+03  0.36609224996E+03  0.50400001928E-02 0. -1.
        1   -1    0    0  501    0  0.00000000000E+00  0.00000000000E+00 -0.21946172964E+04  0.21946172964E+04  0.50400001928E-02 0.  1.
    10030    2    1    2    0    0  0.00000000000E+00  0.00000000000E+00 -0.18285250465E+04  0.25607095464E+04  0.17926877964E+04 0.  0.
        3    1    3    3  502    0 -0.55980578218E+03  0.44287223780E+03 -0.13986166555E+03  0.72737860050E+03  0.10100000352E+00 0. -1.
       -3    1    3    3    0  502  0.55980578218E+03 -0.44287223780E+03 -0.16886633809E+04  0.18333309459E+04  0.10100000352E+00 0.  1.
</event>
<event>
 5   0  0.1810569E-04  0.1913480E+04  0.7818609E-02  0.8648175E-01
        2   -1    0    0  501    0  0.00000000000E+00  0.00000000000E+00  0.98340903327E+03  0.98340903328E+03  0.25500000920E-02 0.  1.
       -2   -1    0    0    0  501  0.00000000000E+00  0.00000000000E+00 -0.93079455270E+03  0.93079455270E+03  0.25500000920E-02 0. -1.
    10030    2    1    2    0    0  0.00000000000E+00  0.00000000000E+00  0.52614480576E+02  0.19142035860E+04  0.19134803592E+04 0.  0.
        4    1    3    3  502    0  0.29298140321E+03  0.90993331897E+03 -0.12866349318E+02  0.95602505377E+03  0.12699999809E+01 0. -1.
       -4    1    3    3    0  502 -0.29298140321E+03 -0.90993331897E+03  0.65480829894E+02  0.95817853221E+03  0.12699999809E+01 0.  1.
</event>
<event>
 5   0  0.8567844E-05  0.1669244E+04  0.7818609E-02  0.8779102E-01
        1   -1    0    0  501    0  0.00000000000E+00  0.00000000000E+00  0.87105383725E+03  0.87105383727E+03  0.50400001928E-02 0.  1.
       -1   -1    0    0    0  501  0.00000000000E+00  0.00000000000E+00 -0.79971427221E+03  0.79971427223E+03  0.50400001928E-02 0. -1.
    10030    2    1    2    0    0  0.00000000000E+00  0.00000000000E+00  0.71339565043E+02  0.16707681095E+04  0.16692443626E+04 0.  0.
        4    1    3    3  502    0  0.21070239057E+02  0.56510764678E+02 -0.79752937603E+03  0.79980756437E+03  0.12699999809E+01 0. -1.
       -4    1    3    3    0  502 -0.21070239057E+02 -0.56510764678E+02  0.86886894107E+03  0.87096054512E+03  0.12699999809E+01 0.  1.
</event>
<event>
 5   0  0.1658711E-04  0.1959222E+04  0.7818609E-02  0.8625926E-01
       -2   -1    0    0    0  501  0.00000000000E+00  0.00000000000E+00  0.12452064642E+04  0.12452064642E+04  0.25500000920E-02 0.  1.
        2   -1    0    0  501    0  0.00000000000E+00  0.00000000000E+00 -0.77066581471E+03  0.77066581472E+03  0.25500000920E-02 0. -1.
    10030    2    1    2    0    0  0.00000000000E+00  0.00000000000E+00  0.47454064946E+03  0.20158722789E+04  0.19592223500E+04 0.  0.
        2    1    3    3  502    0 -0.48295417266E+03  0.85223563313E+03  0.24690850979E+03  0.10102049888E+04  0.25500000920E-02 0.  1.
       -2    1    3    3    0  502  0.48295417266E+03 -0.85223563313E+03  0.22763213967E+03  0.10056672901E+04  0.25500000920E-02 0. -1.
</event>
<event>
 5   0  0.8587082E-05  0.1797565E+04  0.7818609E-02  0.8707596E-01
       -1   -1    0    0    0  501  0.00000000000E+00  0.00000000000E+00  0.88747215614E+03  0.88747215615E+03  0.50400001928E-02 0.  1.
        1   -1    0    0  501    0  0.00000000000E+00  0.00000000000E+00 -0.91023678512E+03  0.91023678514E+03  0.50400001928E-02 0. -1.
    10030    2    1    2    0    0  0.00000000000E+00  0.00000000000E+00 -0.22764628984E+02  0.17977089413E+04  0.17975647997E+04 0.  0.
        5    1    3    3  502    0  0.42933503797E+03 -0.55560727530E+02  0.77631790688E+03  0.88887971729E+03  0.46999998093E+01 0.  1.
       -5    1    3    3    0  502 -0.42933503797E+03  0.55560727530E+02 -0.79908253586E+03  0.90882922400E+03  0.46999998093E+01 0. -1.
</event>
<event>
 5   0  0.1765328E-04  0.1905409E+04  0.7818609E-02  0.8652169E-01
       -2   -1    0    0    0  501  0.00000000000E+00  0.00000000000E+00  0.49766525879E+03  0.49766525879E+03  0.25500000920E-02 0.  1.
        2   -1    0    0  501    0  0.00000000000E+00  0.00000000000E+00 -0.18238078371E+04  0.18238078371E+04  0.25500000920E-02 0. -1.
    10030    2    1    2    0    0  0.00000000000E+00  0.00000000000E+00 -0.13261425783E+04  0.23214730959E+04  0.19054089317E+04 0.  0.
        3    1    3    3  502    0  0.87838329223E+03  0.27906681583E+03 -0.95702256660E+03  0.13286563510E+04  0.10100000352E+00 0. -1.
       -3    1    3    3    0  502 -0.87838329223E+03 -0.27906681583E+03 -0.36912001170E+03  0.99281674493E+03  0.10100000352E+00 0.  1.
</event>
<event>
 5   0  0.8602017E-05  0.1845028E+04  0.7818609E-02  0.8682714E-01
       -1   -1    0    0    0  501  0.00000000000E+00  0.00000000000E+00  0.40811692499E+03  0.40811692502E+03  0.50400001928E-02 0. -1.
        1   -1    0    0  501    0  0.00000000000E+00  0.00000000000E+00 -0.20852650840E+04  0.20852650840E+04  0.50400001928E-02 0.  1.
    10030    2    1    2    0    0  0.00000000000E+00  0.00000000000E+00 -0.16771481590E+04  0.24933820090E+04  0.18450278848E+04 0.  0.
        2    1    3    3  502    0 -0.63351354529E+03 -0.42071420249E+02 -0.17430298925E+04  0.18550640481E+04  0.25500000920E-02 0.  1.
       -2    1    3    3    0  502  0.63351354529E+03  0.42071420249E+02  0.65881733448E+02  0.63831796095E+03  0.25500000920E-02 0. -1.
</event>
<event>
 5   0  0.1658711E-04  0.1986117E+04  0.7818609E-02  0.8613139E-01
       -2   -1    0    0    0  501  0.00000000000E+00  0.00000000000E+00  0.57212017552E+03  0.57212017552E+03  0.25500000920E-02 0. -1.
        2   -1    0    0  501    0  0.00000000000E+00  0.00000000000E+00 -0.17237023783E+04  0.17237023783E+04  0.25500000920E-02 0.  1.
    10030    2    1    2    0    0  0.00000000000E+00  0.00000000000E+00 -0.11515822028E+04  0.22958225538E+04  0.19861167209E+04 0.  0.
        2    1    3    3  502    0 -0.57663641756E+03  0.52272681078E+03 -0.12887437254E+04  0.15055275709E+04  0.25500000920E-02 0.  1.
       -2    1    3    3    0  502  0.57663641756E+03 -0.52272681078E+03  0.13716152268E+03  0.79029498295E+03  0.25500000920E-02 0. -1.
</event>
<event>
 5   0  0.1799738E-04  0.1899127E+04  0.7818609E-02  0.8655291E-01
       -2   -1    0    0    0  501  0.00000000000E+00  0.00000000000E+00  0.14271551876E+04  0.14271551876E+04  0.25500000920E-02 0. -1.
        2   -1    0    0  501    0  0.00000000000E+00  0.00000000000E+00 -0.63179565695E+03  0.63179565695E+03  0.25500000920E-02 0.  1.
    10030    2    1    2    0    0  0.00000000000E+00  0.00000000000E+00  0.79535953070E+03  0.20589508446E+04  0.18991265880E+04 0.  0.
        1    1    3    3  502    0 -0.13836552669E+03  0.82141917584E+03  0.89188873400E+03  0.12203851832E+04  0.50400001928E-02 0. -1.
       -1    1    3    3    0  502  0.13836552669E+03 -0.82141917584E+03 -0.96529203304E+02  0.83856566143E+03  0.50400001928E-02 0.  1.
</event>
<event>
 5   0  0.8681396E-05  0.1907325E+04  0.7818609E-02  0.8651219E-01
       -1   -1    0    0    0  501  0.00000000000E+00  0.00000000000E+00  0.11205424649E+04  0.11205424649E+04  0.50400001928E-02 0.  1.
        1   -1    0    0  501    0  0.00000000000E+00  0.00000000000E+00 -0.81163536126E+03  0.81163536127E+03  0.50400001928E-02 0. -1.
    10030    2    1    2    0    0  0.00000000000E+00  0.00000000000E+00  0.30890710364E+03  0.19321778262E+04  0.19073247110E+04 0.  0.
        3    1    3    3  502    0 -0.83182656627E+03 -0.13190859337E+03 -0.29874204209E+03  0.89363422678E+03  0.10100000352E+00 0. -1.
       -3    1    3    3    0  502  0.83182656627E+03  0.13190859337E+03  0.60764914573E+03  0.10385435994E+04  0.10100000352E+00 0.  1.
</event>
<event>
 5   0  0.8567844E-05  0.1930015E+04  0.7818609E-02  0.8640059E-01
        1   -1    0    0  501    0  0.00000000000E+00  0.00000000000E+00  0.22776406876E+04  0.22776406876E+04  0.50400001928E-02 0. -1.
       -1   -1    0    0    0  501  0.00000000000E+00  0.00000000000E+00 -0.40886131919E+03  0.40886131922E+03  0.50400001928E-02 0.  1.
    10030    2    1    2    0    0  0.00000000000E+00  0.00000000000E+00  0.18687793684E+04  0.26865020068E+04  0.19300146903E+04 0.  0.
        4    1    3    3  502    0  0.74396175521E+02 -0.81794818038E+03  0.16395837519E+04  0.18337967469E+04  0.12699999809E+01 0. -1.
       -4    1    3    3    0  502 -0.74396175521E+02  0.81794818038E+03  0.22919561653E+03  0.85270525990E+03  0.12699999809E+01 0.  1.
</event>
<event>
 5   0  0.1658711E-04  0.1900990E+04  0.7818609E-02  0.8654364E-01
       -2   -1    0    0    0  501  0.00000000000E+00  0.00000000000E+00  0.52020274522E+03  0.52020274523E+03  0.25500000920E-02 0. -1.
        2   -1    0    0  501    0  0.00000000000E+00  0.00000000000E+00 -0.17367097661E+04  0.17367097661E+04  0.25500000920E-02 0.  1.
    10030    2    1    2    0    0  0.00000000000E+00  0.00000000000E+00 -0.12165070208E+04  0.22569125113E+04  0.19009904660E+04 0.  0.
        2    1    3    3  502    0  0.39492316157E+01 -0.10594179266E+03  0.51316149765E+03  0.52399807494E+03  0.25500000920E-02 0. -1.
       -2    1    3    3    0  502 -0.39492316157E+01  0.10594179266E+03 -0.17296685185E+04  0.17329144364E+04  0.25500000920E-02 0.  1.
</event>
<event>
 5   0  0.1810569E-04  0.1863618E+04  0.7818609E-02  0.8673181E-01
       -2   -1    0    0    0  501  0.00000000000E+00  0.00000000000E+00  0.43198468300E+03  0.43198468301E+03  0.25500000920E-02 0. -1.
        2   -1    0    0  501    0  0.00000000000E+00  0.00000000000E+00 -0.20099513927E+04  0.20099513927E+04  0.25500000920E-02 0.  1.
    10030    2    1    2    0    0  0.00000000000E+00  0.00000000000E+00 -0.15779667097E+04  0.24419360757E+04  0.18636182176E+04 0.  0.
        4    1    3    3  502    0  0.68321492213E+03 -0.46991749414E+03 -0.13459256179E+04  0.15808613041E+04  0.12699999809E+01 0. -1.
       -4    1    3    3    0  502 -0.68321492213E+03  0.46991749414E+03 -0.23204109185E+03  0.86107477162E+03  0.12699999809E+01 0.  1.
</event>
<event>
 5   0  0.1765328E-04  0.2034740E+04  0.7818609E-02  0.8590548E-01
        2   -1    0    0  501    0  0.00000000000E+00  0.00000000000E+00  0.17579244601E+04  0.17579244601E+04  0.25500000920E-02 0. -1.
       -2   -1    0    0    0  501  0.00000000000E+00  0.00000000000E+00 -0.58878651108E+03  0.58878651108E+03  0.25500000920E-02 0.  1.
    10030    2    1    2    0    0  0.00000000000E+00  0.00000000000E+00  0.11691379491E+04  0.23467109712E+04  0.20347404843E+04 0.  0.
        3    1    3    3  502    0  0.97599004741E+03  0.27486328208E+03  0.48851862480E+03  0.11255029336E+04  0.10100000352E+00 0. -1.
       -3    1    3    3    0  502 -0.97599004741E+03 -0.27486328208E+03  0.68061932425E+03  0.12212080376E+04  0.10100000352E+00 0.  1.
</event>
<event>
 5   0  0.1790832E-04  0.1870603E+04  0.7818609E-02  0.8669629E-01
       -2   -1    0    0    0  501  0.00000000000E+00  0.00000000000E+00  0.35987480472E+03  0.35987480473E+03  0.25500000920E-02 0. -1.
        2   -1    0    0  501    0  0.00000000000E+00  0.00000000000E+00 -0.24308141569E+04  0.24308141569E+04  0.25500000920E-02 0.  1.
    10030    2    1    2    0    0  0.00000000000E+00  0.00000000000E+00 -0.20709393522E+04  0.27906889616E+04  0.18706028654E+04 0.  0.
        5    1    3    3  502    0  0.62243860780E+03  0.59488960976E+03 -0.49049279089E+03  0.99092317371E+03  0.46999998093E+01 0. -1.
       -5    1    3    3    0  502 -0.62243860780E+03 -0.59488960976E+03 -0.15804465613E+04  0.17997657879E+04  0.46999998093E+01 0.  1.
</event>
<event>
 5   0  0.8567844E-05  0.1916573E+04  0.7818609E-02  0.8646651E-01
        1   -1    0    0  501    0  0.00000000000E+00  0.00000000000E+00  0.22303745014E+04  0.22303745014E+04  0.50400001928E-02 0. -1.
       -1   -1    0    0    0  501  0.00000000000E+00  0.00000000000E+00 -0.41173029361E+03  0.41173029364E+03  0.50400001928E-02 0.  1.
    10030    2    1    2    0    0  0.00000000000E+00  0.00000000000E+00  0.18186442078E+04  0.26421047951E+04  0.19165727206E+04 0.  0.
        4    1    3    3  502    0 -0.32759597221E+03 -0.87397257855E+03  0.12087069442E+04  0.15271284422E+04  0.12699999809E+01 0. -1.
       -4    1    3    3    0  502  0.32759597221E+03  0.87397257855E+03  0.60993726363E+03  0.11149763529E+04  0.12699999809E+01 0.  1.
</event>
<event>
 5   0  0.8587082E-05  0.1898159E+04  0.7818609E-02  0.8655773E-01
       -1   -1    0    0    0  501  0.00000000000E+00  0.00000000000E+00  0.84859186355E+03  0.84859186356E+03  0.50400001928E-02 0.  1.
        1   -1    0    0  501    0  0.00000000000E+00  0.00000000000E+00 -0.10614664651E+04  0.10614664651E+04  0.50400001928E-02 0. -1.
    10030    2    1    2    0    0  0.00000000000E+00  0.00000000000E+00 -0.21287460151E+03  0.19100583286E+04  0.18981589035E+04 0.  0.
        5    1    3    3  502    0  0.60619589015E+03  0.30501759191E+03  0.56121324467E+03  0.88062000012E+03  0.46999998093E+01 0.  1.
       -5    1    3    3    0  502 -0.60619589015E+03 -0.30501759191E+03 -0.77408784619E+03  0.10294383285E+04  0.46999998093E+01 0. -1.
</event>
<event>
 5   0  0.8905646E-05  0.1898625E+04  0.7818609E-02  0.8655541E-01
        1   -1    0    0  501    0  0.00000000000E+00  0.00000000000E+00  0.21186827485E+04  0.21186827485E+04  0.50400001928E-02 0.  1.
       -1   -1    0    0    0  501  0.00000000000E+00  0.00000000000E+00 -0.42535571361E+03  0.42535571364E+03  0.50400001928E-02 0. -1.
    10030    2    1    2    0    0  0.00000000000E+00  0.00000000000E+00  0.16933270348E+04  0.25440384621E+04  0.18986245679E+04 0.  0.
        1    1    3    3  502    0  0.38581028889E+03 -0.79545598732E+03  0.38328138614E+03  0.96358934603E+03  0.50400001928E-02 0. -1.
       -1    1    3    3    0  502 -0.38581028889E+03  0.79545598732E+03  0.13100456487E+04  0.15804491161E+04  0.50400001928E-02 0.  1.
</event>
<event>
 5   0  0.1658711E-04  0.1905087E+04  0.7818609E-02  0.8652328E-01
       -2   -1    0    0    0  501  0.00000000000E+00  0.00000000000E+00  0.87473338965E+03  0.87473338966E+03  0.25500000920E-02 0.  1.
        2   -1    0    0  501    0  0.00000000000E+00  0.00000000000E+00 -0.10372752066E+04  0.10372752066E+04  0.25500000920E-02 0. -1.
    10030    2    1    2    0    0  0.00000000000E+00  0.00000000000E+00 -0.16254181691E+03  0.19120085962E+04  0.19050871449E+04 0.  0.
        2    1    3    3  502    0  0.38896953202E+03  0.26510512625E+03 -0.91238655610E+03  0.10266582940E+04  0.25500000920E-02 0. -1.
       -2    1    3    3    0  502 -0.38896953202E+03 -0.26510512625E+03  0.74984473920E+03  0.88535030226E+03  0.25500000920E-02 0.  1.
</event>
<event>
 5   0  0.1810569E-04  0.1888090E+04  0.7818609E-02  0.8660807E-01
       -2   -1    0    0    0  501  0.00000000000E+00  0.00000000000E+00  0.40747769214E+03  0.40747769215E+03  0.25500000920E-02 0. -1.
        2   -1    0    0  501    0  0.00000000000E+00  0.00000000000E+00 -0.21871659135E+04  0.21871659135E+04  0.25500000920E-02 0.  1.
    10030    2    1    2    0    0  0.00000000000E+00  0.00000000000E+00 -0.17796882214E+04  0.25946436057E+04  0.18880903779E+04 0.  0.
        4    1    3    3  502    0 -0.14158276172E+03 -0.93158229820E+03 -0.81056187340E+03  0.12429414388E+04  0.12699999809E+01 0.  1.
       -4    1    3    3    0  502  0.14158276172E+03  0.93158229820E+03 -0.96912634801E+03  0.13517021669E+04  0.12699999809E+01 0. -1.
</event>
<event>
 5   0  0.6375750E-05  0.1907881E+04  0.7818609E-02  0.8650944E-01
       -3   -1    0    0    0  501  0.00000000000E+00  0.00000000000E+00  0.11578363082E+04  0.11578363126E+04  0.10100000352E+00 0. -1.
        3   -1    0    0  501    0  0.00000000000E+00  0.00000000000E+00 -0.78595069009E+03  0.78595069657E+03  0.10100000352E+00 0.  1.
    10030    2    1    2    0    0  0.00000000000E+00  0.00000000000E+00  0.37188561816E+03  0.19437870092E+04  0.19078807678E+04 0.  0.
        2    1    3    3  502    0 -0.22946464362E+00  0.83448905699E+03  0.65684291282E+03  0.10619861821E+04  0.25500000920E-02 0. -1.
       -2    1    3    3    0  502  0.22946464362E+00 -0.83448905699E+03 -0.28495729466E+03  0.88180082710E+03  0.25500000920E-02 0.  1.
</event>
<event>
 5   0  0.1658711E-04  0.1903275E+04  0.7818609E-02  0.8653228E-01
        2   -1    0    0  501    0  0.00000000000E+00  0.00000000000E+00  0.12683937905E+04  0.12683937905E+04  0.25500000920E-02 0.  1.
       -2   -1    0    0    0  501  0.00000000000E+00  0.00000000000E+00 -0.71398479916E+03  0.71398479917E+03  0.25500000920E-02 0. -1.
    10030    2    1    2    0    0  0.00000000000E+00  0.00000000000E+00  0.55440899137E+03  0.19823785897E+04  0.19032749521E+04 0.  0.
        2    1    3    3  502    0  0.17319908898E+03 -0.67091132360E+03 -0.40220523829E+03  0.80117974405E+03  0.25500000920E-02 0. -1.
       -2    1    3    3    0  502 -0.17319908898E+03  0.67091132360E+03  0.95661422967E+03  0.11811988457E+04  0.25500000920E-02 0.  1.
</event>
<event>
 5   0  0.8602017E-05  0.1911155E+04  0.7818609E-02  0.8649324E-01
        1   -1    0    0  501    0  0.00000000000E+00  0.00000000000E+00  0.15887291940E+04  0.15887291940E+04  0.50400001928E-02 0. -1.
       -1   -1    0    0    0  501  0.00000000000E+00  0.00000000000E+00 -0.57475365367E+03  0.57475365370E+03  0.50400001928E-02 0.  1.
    10030    2    1    2    0    0  0.00000000000E+00  0.00000000000E+00  0.10139755403E+04  0.21634828477E+04  0.19111545296E+04 0.  0.
        2    1    3    3  502    0 -0.60413212171E+03 -0.47714639559E+03  0.11478439276E+04  0.13820962287E+04  0.25500000920E-02 0. -1.
       -2    1    3    3    0  502  0.60413212171E+03  0.47714639559E+03 -0.13386838721E+03  0.78138661904E+03  0.25500000920E-02 0.  1.
</event>
<event>
 5   0  0.8681396E-05  0.1899171E+04  0.7818609E-02  0.8655269E-01
        1   -1    0    0  501    0  0.00000000000E+00  0.00000000000E+00  0.14687378469E+04  0.14687378469E+04  0.50400001928E-02 0.  1.
       -1   -1    0    0    0  501  0.00000000000E+00  0.00000000000E+00 -0.61393707019E+03  0.61393707021E+03  0.50400001928E-02 0. -1.
    10030    2    1    2    0    0  0.00000000000E+00  0.00000000000E+00  0.85480077668E+03  0.20826749171E+04  0.18991709882E+04 0.  0.
        3    1    3    3  502    0  0.66889892494E+03  0.56645364087E+03  0.26844454593E+02  0.87693564985E+03  0.10100000352E+00 0. -1.
       -3    1    3    3    0  502 -0.66889892494E+03 -0.56645364087E+03  0.82795632209E+03  0.12057392672E+04  0.10100000352E+00 0.  1.
</event>
<event>
 5   0  0.1790832E-04  0.1698385E+04  0.7818609E-02  0.8762286E-01
       -2   -1    0    0    0  501  0.00000000000E+00  0.00000000000E+00  0.41430149686E+03  0.41430149687E+03  0.25500000920E-02 0. -1.
        2   -1    0    0  501    0  0.00000000000E+00  0.00000000000E+00 -0.17405882089E+04  0.17405882089E+04  0.25500000920E-02 0.  1.
    10030    2    1    2    0    0  0.00000000000E+00  0.00000000000E+00 -0.13262867120E+04  0.21548897058E+04  0.16983854691E+04 0.  0.
        5    1    3    3  502    0  0.70483000780E+03  0.30974487128E+03 -0.20853674172E+03  0.79764458741E+03  0.46999998093E+01 0. -1.
       -5    1    3    3    0  502 -0.70483000780E+03 -0.30974487128E+03 -0.11177499703E+04  0.13572451184E+04  0.46999998093E+01 0.  1.
</event>
<event>
 5   0  0.1799738E-04  0.1891382E+04  0.7818609E-02  0.8659158E-01
        2   -1    0    0  501    0  0.00000000000E+00  0.00000000000E+00  0.12278556101E+04  0.12278556101E+04  0.25500000920E-02 0.  1.
       -2   -1    0    0    0  501  0.00000000000E+00  0.00000000000E+00 -0.72836835341E+03  0.72836835342E+03  0.25500000920E-02 0. -1.
    10030    2    1    2    0    0  0.00000000000E+00  0.00000000000E+00  0.49948725665E+03  0.19562239635E+04  0.18913816843E+04 0.  0.
        1    1    3    3  502    0 -0.14439136663E+03  0.62327643198E+03  0.97004493229E+03  0.11620282045E+04  0.50400001928E-02 0.  1.
       -1    1    3    3    0  502  0.14439136663E+03 -0.62327643198E+03 -0.47055767564E+03  0.79419575896E+03  0.50400001928E-02 0. -1.
</event>
<event>
 5   0  0.8567844E-05  0.1899037E+04  0.7818609E-02  0.8655336E-01
        1   -1    0    0  501    0  0.00000000000E+00  0.00000000000E+00  0.13083464374E+04  0.13083464374E+04  0.50400001928E-02 0.  1.
       -1   -1    0    0    0  501  0.00000000000E+00  0.00000000000E+00 -0.68910293545E+03  0.68910293547E+03  0.50400001928E-02 0. -1.
    10030    2    1    2    0    0  0.00000000000E+00  0.00000000000E+00  0.61924350194E+03  0.19974493729E+04  0.18990369882E+04 0.  0.
        4    1    3    3  502    0 -0.41753703522E+03 -0.71897832045E+03  0.79199064560E+03  0.11482673019E+04  0.12699999809E+01 0.  1.
       -4    1    3    3    0  502  0.41753703522E+03  0.71897832045E+03 -0.17274714365E+03  0.84918207094E+03  0.12699999809E+01 0. -1.
</event>
<event>
 5   0  0.8567844E-05  0.1934833E+04  0.7818609E-02  0.8637709E-01
        1   -1    0    0  501    0  0.00000000000E+00  0.00000000000E+00  0.18028855779E+04  0.18028855779E+04  0.50400001928E-02 0.  1.
       -1   -1    0    0    0  501  0.00000000000E+00  0.00000000000E+00 -0.51910954562E+03  0.51910954564E+03  0.50400001928E-02 0. -1.
    10030    2    1    2    0    0  0.00000000000E+00  0.00000000000E+00  0.12837760322E+04  0.23219951235E+04  0.19348334431E+04 0.  0.
        4    1    3    3  502    0  0.34499492236E+03 -0.90376331509E+03  0.63089715640E+03  0.11549209761E+04  0.12699999809E+01 0. -1.
       -4    1    3    3    0  502 -0.34499492236E+03  0.90376331509E+03  0.65287887585E+03  0.11670741474E+04  0.12699999809E+01 0.  1.
</event>
<event>
 5   0  0.8587082E-05  0.1892092E+04  0.7818609E-02  0.8658803E-01
        1   -1    0    0  501    0  0.00000000000E+00  0.00000000000E+00  0.10510314087E+04  0.10510314087E+04  0.50400001928E-02 0. -1.
       -1   -1    0    0    0  501  0.00000000000E+00  0.00000000000E+00 -0.85154756177E+03  0.85154756178E+03  0.50400001928E-02 0.  1.
    10030    2    1    2    0    0  0.00000000000E+00  0.00000000000E+00  0.19948384692E+03  0.19025789705E+04  0.18920922107E+04 0.  0.
        5    1    3    3  502    0  0.60032281908E+03  0.17859423348E+03  0.81268337762E+03  0.10260408128E+04  0.46999998093E+01 0. -1.
       -5    1    3    3    0  502 -0.60032281908E+03 -0.17859423348E+03 -0.61319953071E+03  0.87653815764E+03  0.46999998093E+01 0.  1.
</event>
<event>
 5   0  0.1810569E-04  0.1912599E+04  0.7818609E-02  0.8648610E-01
        2   -1    0    0  501    0  0.00000000000E+00  0.00000000000E+00  0.10298041320E+04  0.10298041320E+04  0.25500000920E-02 0. -1.
       -2   -1    0    0    0  501  0.00000000000E+00  0.00000000000E+00 -0.88804147186E+03  0.88804147186E+03  0.25500000920E-02 0.  1.
    10030    2    1    2    0    0  0.00000000000E+00  0.00000000000E+00  0.14176266018E+03  0.19178456039E+04  0.19125990454E+04 0.  0.
        4    1    3    3  502    0 -0.33854583337E+02  0.49936318809E+03 -0.74621433877E+03  0.89852500173E+03  0.12699999809E+01 0.  1.
       -4    1    3    3    0  502  0.33854583337E+02 -0.49936318809E+03  0.88797699896E+03  0.10193206022E+04  0.12699999809E+01 0. -1.
</event>
<event>
 5   0  0.8587082E-05  0.1871328E+04  0.7818609E-02  0.8669261E-01
       -1   -1    0    0    0  501  0.00000000000E+00  0.00000000000E+00  0.91002824383E+03  0.91002824384E+03  0.50400001928E-02 0.  1.
        1   -1    0    0  501    0  0.00000000000E+00  0.00000000000E+00 -0.96202241966E+03  0.96202241967E+03  0.50400001928E-02 0. -1.
    10030    2    1    2    0    0  0.00000000000E+00  0.00000000000E+00 -0.51994175829E+02  0.18720506635E+04  0.18713284833E+04 0.  0.
        5    1    3    3  502    0 -0.24826617565E+02 -0.11272850836E+03 -0.95486034540E+03  0.96182350083E+03  0.46999998093E+01 0. -1.
       -5    1    3    3    0  502  0.24826617565E+02  0.11272850836E+03  0.90286616957E+03  0.91022716268E+03  0.46999998093E+01 0.  1.
</event>
<event>
 5   0  0.1765328E-04  0.1895744E+04  0.7818609E-02  0.8656978E-01
       -2   -1    0    0    0  501  0.00000000000E+00  0.00000000000E+00  0.59412777661E+03  0.59412777661E+03  0.25500000920E-02 0.  1.
        2   -1    0    0  501    0  0.00000000000E+00  0.00000000000E+00 -0.15122365005E+04  0.15122365005E+04  0.25500000920E-02 0. -1.
    10030    2    1    2    0    0  0.00000000000E+00  0.00000000000E+00 -0.91810872394E+03  0.21063642772E+04  0.18957444024E+04 0.  0.
        3    1    3    3  502    0  0.35556298413E+03 -0.36649214304E+03 -0.13463508776E+04  0.14399313256E+04  0.10100000352E+00 0. -1.
       -3    1    3    3    0  502 -0.35556298413E+03  0.36649214304E+03  0.42824215364E+03  0.66643295158E+03  0.10100000352E+00 0.  1.
</event>
<event>
 5   0  0.1765328E-04  0.1891807E+04  0.7818609E-02  0.8658945E-01
       -2   -1    0    0    0  501  0.00000000000E+00  0.00000000000E+00  0.67862550496E+03  0.67862550496E+03  0.25500000920E-02 0. -1.
        2   -1    0    0  501    0  0.00000000000E+00  0.00000000000E+00 -0.13184494548E+04  0.13184494548E+04  0.25500000920E-02 0.  1.
    10030    2    1    2    0    0  0.00000000000E+00  0.00000000000E+00 -0.63982394980E+03  0.19970749597E+04  0.18918069954E+04 0.  0.
        3    1    3    3  502    0 -0.29765083196E+03 -0.79486892889E+03  0.12083782687E+03  0.85732982130E+03  0.10100000352E+00 0. -1.
       -3    1    3    3    0  502  0.29765083196E+03  0.79486892889E+03 -0.76066177667E+03  0.11397451384E+04  0.10100000352E+00 0.  1.
</event>
<event>
 5   0  0.6375750E-05  0.1909143E+04  0.7818609E-02  0.8650318E-01
        3   -1    0    0  501    0  0.00000000000E+00  0.00000000000E+00  0.56338966825E+03  0.56338967731E+03  0.10100000352E+00 0. -1.
       -3   -1    0    0    0  501  0.00000000000E+00  0.00000000000E+00 -0.16173657363E+04  0.16173657395E+04  0.10100000352E+00 0.  1.
    10030    2    1    2    0    0  0.00000000000E+00  0.00000000000E+00 -0.10539760681E+04  0.21807554168E+04  0.19091434299E+04 0.  0.
        4    1    3    3  502    0  0.25891308703E+03  0.72320881770E+03  0.12032542069E+03  0.77752607699E+03  0.12699999809E+01 0. -1.
       -4    1    3    3    0  502 -0.25891308703E+03 -0.72320881770E+03 -0.11743014888E+04  0.14032293398E+04  0.12699999809E+01 0.  1.
</event>
<event>
 5   0  0.8587082E-05  0.1893965E+04  0.7818609E-02  0.8657866E-01
       -1   -1    0    0    0  501  0.00000000000E+00  0.00000000000E+00  0.11759614442E+04  0.11759614442E+04  0.50400001928E-02 0. -1.
        1   -1    0    0  501    0  0.00000000000E+00  0.00000000000E+00 -0.76258938692E+03  0.76258938694E+03  0.50400001928E-02 0.  1.
    10030    2    1    2    0    0  0.00000000000E+00  0.00000000000E+00  0.41337205725E+03  0.19385508311E+04  0.18939648537E+04 0.  0.
        5    1    3    3  502    0  0.72312470506E+03 -0.20800649496E+02 -0.41877346986E+03  0.83590389109E+03  0.46999998093E+01 0.  1.
       -5    1    3    3    0  502 -0.72312470506E+03  0.20800649496E+02  0.83214552710E+03  0.11026469400E+04  0.46999998093E+01 0. -1.
</event>
<event>
 5   0  0.1765328E-04  0.1907759E+04  0.7818609E-02  0.8651004E-01
       -2   -1    0    0    0  501  0.00000000000E+00  0.00000000000E+00  0.66126434415E+03  0.66126434415E+03  0.25500000920E-02 0.  1.
        2   -1    0    0  501    0  0.00000000000E+00  0.00000000000E+00 -0.13759789610E+04  0.13759789610E+04  0.25500000920E-02 0. -1.
    10030    2    1    2    0    0  0.00000000000E+00  0.00000000000E+00 -0.71471461683E+03  0.20372433051E+04  0.19077587114E+04 0.  0.
        3    1    3    3  502    0 -0.56475609772E+03  0.76854783740E+03 -0.33979131636E+03  0.10124590743E+04  0.10100000352E+00 0. -1.
       -3    1    3    3    0  502  0.56475609772E+03 -0.76854783740E+03 -0.37492330047E+03  0.10247842308E+04  0.10100000352E+00 0.  1.
</event>
<event>
 5   0  0.6375750E-05  0.1888569E+04  0.7818609E-02  0.8660567E-01
        3   -1    0    0  501    0  0.00000000000E+00  0.00000000000E+00  0.61366585301E+03  0.61366586132E+03  0.10100000352E+00 0. -1.
       -3   -1    0    0    0  501  0.00000000000E+00  0.00000000000E+00 -0.14530271404E+04  0.14530271439E+04  0.10100000352E+00 0.  1.
    10030    2    1    2    0    0  0.00000000000E+00  0.00000000000E+00 -0.83936128742E+03  0.20666930053E+04  0.18885689310E+04 0.  0.
        3    1    3    3  502    0  0.67955659765E+03  0.65388664752E+03 -0.47225598977E+03  0.10546993161E+04  0.10100000352E+00 0.  1.
       -3    1    3    3    0  502 -0.67955659765E+03 -0.65388664752E+03 -0.36710529765E+03  0.10119936892E+04  0.10100000352E+00 0. -1.
</event>
<event>
 5   0  0.1658711E-04  0.1900347E+04  0.7818609E-02  0.8654684E-01
        2   -1    0    0  501    0  0.00000000000E+00  0.00000000000E+00  0.19882401660E+04  0.19882401660E+04  0.25500000920E-02 0. -1.
       -2   -1    0    0    0  501  0.00000000000E+00  0.00000000000E+00 -0.45408488941E+03  0.45408488942E+03  0.25500000920E-02 0.  1.
    10030    2    1    2    0    0  0.00000000000E+00  0.00000000000E+00  0.15341552766E+04  0.24423250554E+04  0.19003471429E+04 0.  0.
        2    1    3    3  502    0 -0.23699105264E+03  0.40454136023E+03  0.18292242823E+04  0.18883537662E+04  0.25500000920E-02 0. -1.
       -2    1    3    3    0  502  0.23699105264E+03 -0.40454136023E+03 -0.29506900573E+03  0.55397128925E+03  0.25500000920E-02 0.  1.
</event>
<event>
 5   0  0.1799738E-04  0.2142536E+04  0.7818609E-02  0.8542734E-01
       -2   -1    0    0    0  501  0.00000000000E+00  0.00000000000E+00  0.92278835669E+03  0.92278835669E+03  0.25500000920E-02 0. -1.
        2   -1    0    0  501    0  0.00000000000E+00  0.00000000000E+00 -0.12436390657E+04  0.12436390657E+04  0.25500000920E-02 0.  1.
    10030    2    1    2    0    0  0.00000000000E+00  0.00000000000E+00 -0.32085070901E+03  0.21664274224E+04  0.21425364872E+04 0.  0.
        1    1    3    3  502    0  0.25318685252E+03  0.61640205830E+02  0.89025350220E+03  0.92760681081E+03  0.50400001928E-02 0. -1.
       -1    1    3    3    0  502 -0.25318685252E+03 -0.61640205830E+02 -0.12111042112E+04  0.12388206116E+04  0.50400001928E-02 0.  1.
</event>
<event>
 5   0  0.8905646E-05  0.1879222E+04  0.7818609E-02  0.8665268E-01
        1   -1    0    0  501    0  0.00000000000E+00  0.00000000000E+00  0.18570343074E+04  0.18570343074E+04  0.50400001928E-02 0. -1.
       -1   -1    0    0    0  501  0.00000000000E+00  0.00000000000E+00 -0.47541880463E+03  0.47541880465E+03  0.50400001928E-02 0.  1.
    10030    2    1    2    0    0  0.00000000000E+00  0.00000000000E+00  0.13816155028E+04  0.23324531121E+04  0.18792222121E+04 0.  0.
        1    1    3    3  502    0  0.66947038989E+03 -0.42717668932E+03  0.13141205406E+04  0.15354423864E+04  0.50400001928E-02 0. -1.
       -1    1    3    3    0  502 -0.66947038989E+03  0.42717668932E+03  0.67494962215E+02  0.79701072565E+03  0.50400001928E-02 0.  1.
</event>
<event>
 5   0  0.1810569E-04  0.1900459E+04  0.7818609E-02  0.8654628E-01
        2   -1    0    0  501    0  0.00000000000E+00  0.00000000000E+00  0.18153722037E+04  0.18153722037E+04  0.25500000920E-02 0. -1.
       -2   -1    0    0    0  501  0.00000000000E+00  0.00000000000E+00 -0.49738360485E+03  0.49738360485E+03  0.25500000920E-02 0.  1.
    10030    2    1    2    0    0  0.00000000000E+00  0.00000000000E+00  0.13179885989E+04  0.23127558086E+04  0.19004592822E+04 0.  0.
        4    1    3    3  502    0  0.14695323056E+03 -0.93509013290E+03  0.55757116773E+03  0.10985790953E+04  0.12699999809E+01 0.  1.
       -4    1    3    3    0  502 -0.14695323056E+03  0.93509013290E+03  0.76041743117E+03  0.12141767133E+04  0.12699999809E+01 0. -1.
</event>
<event>
 5   0  0.1810569E-04  0.1856762E+04  0.7818609E-02  0.8676683E-01
       -2   -1    0    0    0  501  0.00000000000E+00  0.00000000000E+00  0.76607091137E+03  0.76607091138E+03  0.25500000920E-02 0. -1.
        2   -1    0    0  501    0  0.00000000000E+00  0.00000000000E+00 -0.11250806761E+04  0.11250806761E+04  0.25500000920E-02 0.  1.
    10030    2    1    2    0    0  0.00000000000E+00  0.00000000000E+00 -0.35900976471E+03  0.18911515875E+04  0.18567623207E+04 0.  0.
        4    1    3    3  502    0 -0.18048778509E+02 -0.64454208738E+02  0.76360927586E+03  0.76653821986E+03  0.12699999809E+01 0. -1.
       -4    1    3    3    0  502  0.18048778509E+02  0.64454208738E+02 -0.11226190406E+04  0.11246133676E+04  0.12699999809E+01 0.  1.
</event>
<event>
 5   0  0.1790832E-04  0.1906103E+04  0.7818609E-02  0.8651825E-01
        2   -1    0    0  501    0  0.00000000000E+00  0.00000000000E+00  0.80368839248E+03  0.80368839249E+03  0.25500000920E-02 0. -1.
       -2   -1    0    0    0  501  0.00000000000E+00  0.00000000000E+00 -0.11301728578E+04  0.11301728578E+04  0.25500000920E-02 0.  1.
    10030    2    1    2    0    0  0.00000000000E+00  0.00000000000E+00 -0.32648446533E+03  0.19338612503E+04  0.19061026282E+04 0.  0.
        5    1    3    3  502    0  0.66071246160E+03  0.66138121049E+03 -0.35119302438E+03  0.99866145058E+03  0.46999998093E+01 0.  1.
       -5    1    3    3    0  502 -0.66071246160E+03 -0.66138121049E+03  0.24708559055E+02  0.93519979972E+03  0.46999998093E+01 0. -1.
</event>
<event>
 5   0  0.8567844E-05  0.1738693E+04  0.7818609E-02  0.8739599E-01
       -1   -1    0    0    0  501  0.00000000000E+00  0.00000000000E+00  0.99913157258E+03  0.99913157259E+03  0.50400001928E-02 0. -1.
        1   -1    0    0  501    0  0.00000000000E+00  0.00000000000E+00 -0.75641983194E+03  0.75641983196E+03  0.50400001928E-02 0.  1.
    10030    2    1    2    0    0  0.00000000000E+00  0.00000000000E+00  0.24271174064E+03  0.17555514046E+04  0.17386925389E+04 0.  0.
        4    1    3    3  502    0  0.15792906858E+03 -0.59714082081E+02  0.98241664948E+03  0.99682067012E+03  0.12699999809E+01 0. -1.
       -4    1    3    3    0  502 -0.15792906858E+03  0.59714082081E+02 -0.73970490884E+03  0.75873073443E+03  0.12699999809E+01 0.  1.
</event>
<event>
 5   0  0.8602017E-05  0.1891911E+04  0.7818609E-02  0.8658894E-01
       -1   -1    0    0    0  501  0.00000000000E+00  0.00000000000E+00  0.82149839750E+03  0.82149839751E+03  0.50400001928E-02 0.  1.
        1   -1    0    0  501    0  0.00000000000E+00  0.00000000000E+00 -0.10892673175E+04  0.10892673175E+04  0.50400001928E-02 0. -1.
    10030    2    1    2    0    0  0.00000000000E+00  0.00000000000E+00 -0.26776891998E+03  0.19107657150E+04  0.18919105220E+04 0.  0.
        2    1    3    3  502    0 -0.26009320457E+03  0.76849630224E+03  0.35737489634E+03  0.88653925923E+03  0.25500000920E-02 0.  1.
       -2    1    3    3    0  502  0.26009320457E+03 -0.76849630224E+03 -0.62514381632E+03  0.10242264558E+04  0.25500000920E-02 0. -1.
</event>
<event>
 5   0  0.1765328E-04  0.2033779E+04  0.7818609E-02  0.8590989E-01
       -2   -1    0    0    0  501  0.00000000000E+00  0.00000000000E+00  0.71254431434E+03  0.71254431435E+03  0.25500000920E-02 0. -1.
        2   -1    0    0  501    0  0.00000000000E+00  0.00000000000E+00 -0.14512282313E+04  0.14512282313E+04  0.25500000920E-02 0.  1.
    10030    2    1    2    0    0  0.00000000000E+00  0.00000000000E+00 -0.73868391694E+03  0.21637725456E+04  0.20337791670E+04 0.  0.
        3    1    3    3  502    0 -0.95257186245E+03  0.20871717946E+02 -0.74734804518E+03  0.12109326540E+04  0.10100000352E+00 0.  1.
       -3    1    3    3    0  502  0.95257186245E+03 -0.20871717946E+02  0.86641282396E+01  0.95283989162E+03  0.10100000352E+00 0. -1.
</event>
<event>
 5   0  0.1810569E-04  0.1895374E+04  0.7818609E-02  0.8657163E-01
       -2   -1    0    0    0  501  0.00000000000E+00  0.00000000000E+00  0.61672592056E+03  0.61672592056E+03  0.25500000920E-02 0.  1.
        2   -1    0    0  501    0  0.00000000000E+00  0.00000000000E+00 -0.14562553120E+04  0.14562553120E+04  0.25500000920E-02 0. -1.
    10030    2    1    2    0    0  0.00000000000E+00  0.00000000000E+00 -0.83952939148E+03  0.20729812326E+04  0.18953737340E+04 0.  0.
        4    1    3    3  502    0  0.48752374409E+03  0.17550366038E+03  0.44808092629E+03  0.68502486470E+03  0.12699999809E+01 0.  1.
       -4    1    3    3    0  502 -0.48752374409E+03 -0.17550366038E+03 -0.12876103178E+04  0.13879563679E+04  0.12699999809E+01 0. -1.
</event>
<event>
 5   0  0.1810569E-04  0.1889404E+04  0.7818609E-02  0.8660149E-01
       -2   -1    0    0    0  501  0.00000000000E+00  0.00000000000E+00  0.10979483775E+04  0.10979483775E+04  0.25500000920E-02 0.  1.
        2   -1    0    0  501    0  0.00000000000E+00  0.00000000000E+00 -0.81284491085E+03  0.81284491085E+03  0.25500000920E-02 0. -1.
    10030    2    1    2    0    0  0.00000000000E+00  0.00000000000E+00  0.28510346667E+03  0.19107932884E+04  0.18894038753E+04 0.  0.
        4    1    3    3  502    0 -0.34138803968E+03 -0.25798088463E+03 -0.70921822125E+03  0.82830672382E+03  0.12699999809E+01 0. -1.
       -4    1    3    3    0  502  0.34138803968E+03  0.25798088463E+03  0.99432168792E+03  0.10824865646E+04  0.12699999809E+01 0.  1.
</event>
<event>
 5   0  0.8681396E-05  0.1969593E+04  0.7818609E-02  0.8620970E-01
       -1   -1    0    0    0  501  0.00000000000E+00  0.00000000000E+00  0.75635204302E+03  0.75635204303E+03  0.50400001928E-02 0. -1.
        1   -1    0    0  501    0  0.00000000000E+00  0.00000000000E+00 -0.12822386480E+04  0.12822386480E+04  0.50400001928E-02 0.  1.
    10030    2    1    2    0    0  0.00000000000E+00  0.00000000000E+00 -0.52588660495E+03  0.20385906910E+04  0.19695926696E+04 0.  0.
        3    1    3    3  502    0  0.44250558692E+03  0.35747931219E+03 -0.10949832999E+04  0.12339331791E+04  0.10100000352E+00 0.  1.
       -3    1    3    3    0  502 -0.44250558692E+03 -0.35747931219E+03  0.56909669497E+03  0.80465751194E+03  0.10100000352E+00 0. -1.
</event>
<event>
 5   0  0.8905646E-05  0.1870022E+04  0.7818609E-02  0.8669924E-01
        1   -1    0    0  501    0  0.00000000000E+00  0.00000000000E+00  0.13689062240E+04  0.13689062240E+04  0.50400001928E-02 0.  1.
       -1   -1    0    0    0  501  0.00000000000E+00  0.00000000000E+00 -0.63864551394E+03  0.63864551396E+03  0.50400001928E-02 0. -1.
    10030    2    1    2    0    0  0.00000000000E+00  0.00000000000E+00  0.73026071010E+03  0.20075517380E+04  0.18700222662E+04 0.  0.
        1    1    3    3  502    0 -0.32703350521E+03 -0.50198929485E+03  0.11357689170E+04  0.12841009300E+04  0.50400001928E-02 0. -1.
       -1    1    3    3    0  502  0.32703350521E+03  0.50198929485E+03 -0.40550820690E+03  0.72345080797E+03  0.50400001928E-02 0.  1.
</event>
<event>
 5   0  0.8602017E-05  0.1922391E+04  0.7818609E-02  0.8643791E-01
       -1   -1    0    0    0  501  0.00000000000E+00  0.00000000000E+00  0.13278041647E+04  0.13278041648E+04  0.50400001928E-02 0.  1.
        1   -1    0    0  501    0  0.00000000000E+00  0.00000000000E+00 -0.69580802730E+03  0.69580802731E+03  0.50400001928E-02 0. -1.
    10030    2    1    2    0    0  0.00000000000E+00  0.00000000000E+00  0.63199613745E+03  0.20236121921E+04  0.19223910076E+04 0.  0.
        2    1    3    3  502    0  0.39347168706E+03  0.40220374824E+03 -0.50433536085E+03  0.75560702739E+03  0.25500000920E-02 0. -1.
       -2    1    3    3    0  502 -0.39347168706E+03 -0.40220374824E+03  0.11363314983E+04  0.12680051647E+04  0.25500000920E-02 0.  1.
</event>
<event>
 5   0  0.1799738E-04  0.1906493E+04  0.7818609E-02  0.8651631E-01
        2   -1    0    0  501    0  0.00000000000E+00  0.00000000000E+00  0.12745313237E+04  0.12745313237E+04  0.25500000920E-02 0.  1.
       -2   -1    0    0    0  501  0.00000000000E+00  0.00000000000E+00 -0.71295113915E+03  0.71295113915E+03  0.25500000920E-02 0. -1.
    10030    2    1    2    0    0  0.00000000000E+00  0.00000000000E+00  0.56158018453E+03  0.19874824628E+04  0.19064926531E+04 0.  0.
        1    1    3    3  502    0  0.33088804198E+03  0.76866718679E+02  0.12092909079E+04  0.12560970857E+04  0.50400001928E-02 0.  1.
       -1    1    3    3    0  502 -0.33088804198E+03 -0.76866718679E+02 -0.64771072334E+03  0.73138537716E+03  0.50400001928E-02 0. -1.
</event>
<event>
 5   0  0.1810569E-04  0.1891923E+04  0.7818609E-02  0.8658887E-01
        2   -1    0    0  501    0  0.00000000000E+00  0.00000000000E+00  0.80623996439E+03  0.80623996439E+03  0.25500000920E-02 0. -1.
       -2   -1    0    0    0  501  0.00000000000E+00  0.00000000000E+00 -0.11098973079E+04  0.11098973079E+04  0.25500000920E-02 0.  1.
    10030    2    1    2    0    0  0.00000000000E+00  0.00000000000E+00 -0.30365734352E+03  0.19161372723E+04  0.18919234297E+04 0.  0.
        4    1    3    3  502    0 -0.91030874099E+03  0.96321131044E+00  0.10871662247E+03  0.91677906204E+03  0.12699999809E+01 0. -1.
       -4    1    3    3    0  502  0.91030874099E+03 -0.96321131044E+00 -0.41237396599E+03  0.99935821026E+03  0.12699999809E+01 0.  1.
</event>
<event>
 5   0  0.8587082E-05  0.1878726E+04  0.7818609E-02  0.8665519E-01
       -1   -1    0    0    0  501  0.00000000000E+00  0.00000000000E+00  0.97581479066E+03  0.97581479067E+03  0.50400001928E-02 0.  1.
        1   -1    0    0  501    0  0.00000000000E+00  0.00000000000E+00 -0.90427266528E+03  0.90427266530E+03  0.50400001928E-02 0. -1.
    10030    2    1    2    0    0  0.00000000000E+00  0.00000000000E+00  0.71542125374E+02  0.18800874560E+04  0.18787257826E+04 0.  0.
        5    1    3    3  502    0 -0.24132260973E+03 -0.50123621638E+02  0.94286698771E+03  0.97456104269E+03  0.46999998093E+01 0.  1.
       -5    1    3    3    0  502  0.24132260973E+03  0.50123621638E+02 -0.87132486234E+03  0.90552641328E+03  0.46999998093E+01 0. -1.
</event>
<event>
 5   0  0.1799738E-04  0.1901803E+04  0.7818609E-02  0.8653959E-01
        2   -1    0    0  501    0  0.00000000000E+00  0.00000000000E+00  0.12391066290E+04  0.12391066290E+04  0.25500000920E-02 0. -1.
       -2   -1    0    0    0  501  0.00000000000E+00  0.00000000000E+00 -0.72973057547E+03  0.72973057547E+03  0.25500000920E-02 0.  1.
    10030    2    1    2    0    0  0.00000000000E+00  0.00000000000E+00  0.50937605355E+03  0.19688372045E+04  0.19018033478E+04 0.  0.
        1    1    3    3  502    0 -0.38143405398E+03  0.80404043601E+03  0.60152071956E+03  0.10741508909E+04  0.50400001928E-02 0. -1.
       -1    1    3    3    0  502  0.38143405398E+03 -0.80404043601E+03 -0.92144666007E+02  0.89468631362E+03  0.50400001928E-02 0.  1.
</event>
<event>
 5   0  0.8681396E-05  0.1904647E+04  0.7818609E-02  0.8652547E-01
        1   -1    0    0  501    0  0.00000000000E+00  0.00000000000E+00  0.11545140718E+04  0.11545140718E+04  0.50400001928E-02 0. -1.
       -1   -1    0    0    0  501  0.00000000000E+00  0.00000000000E+00 -0.78554302378E+03  0.78554302380E+03  0.50400001928E-02 0.  1.
    10030    2    1    2    0    0  0.00000000000E+00  0.00000000000E+00  0.36897104801E+03  0.19400570956E+04  0.19046474477E+04 0.  0.
        3    1    3    3  502    0 -0.37617342287E+02  0.38200989398E+03 -0.70325268393E+03  0.80119346677E+03  0.10100000352E+00 0.  1.
       -3    1    3    3    0  502  0.37617342287E+02 -0.38200989398E+03  0.10722237319E+04  0.11388636288E+04  0.10100000352E+00 0. -1.
</event>
<event>
 5   0  0.8587082E-05  0.1912395E+04  0.7818609E-02  0.8648711E-01
        1   -1    0    0  501    0  0.00000000000E+00  0.00000000000E+00  0.10784566004E+04  0.10784566005E+04  0.50400001928E-02 0. -1.
       -1   -1    0    0    0  501  0.00000000000E+00  0.00000000000E+00 -0.84779803668E+03  0.84779803670E+03  0.50400001928E-02 0.  1.
    10030    2    1    2    0    0  0.00000000000E+00  0.00000000000E+00  0.23065856377E+03  0.19262546372E+04  0.19123947171E+04 0.  0.
        5    1    3    3  502    0  0.24021236442E+03 -0.49994468559E+02  0.10461969534E+04  0.10745936824E+04  0.46999998093E+01 0. -1.
       -5    1    3    3    0  502 -0.24021236442E+03  0.49994468559E+02 -0.81553838964E+03  0.85166095477E+03  0.46999998093E+01 0.  1.
</event>
<event>
 5   0  0.8587082E-05  0.1896969E+04  0.7818609E-02  0.8656366E-01
       -1   -1    0    0    0  501  0.00000000000E+00  0.00000000000E+00  0.68771439989E+03  0.68771439991E+03  0.50400001928E-02 0. -1.
        1   -1    0    0  501    0  0.00000000000E+00  0.00000000000E+00 -0.13081348689E+04  0.13081348689E+04  0.50400001928E-02 0.  1.
    10030    2    1    2    0    0  0.00000000000E+00  0.00000000000E+00 -0.62042046897E+03  0.19958492688E+04  0.18969693581E+04 0.  0.
        5    1    3    3  502    0 -0.26456549610E+03 -0.49527659339E+03 -0.11144546911E+04  0.12479283450E+04  0.46999998093E+01 0.  1.
       -5    1    3    3    0  502  0.26456549610E+03  0.49527659339E+03  0.49403422211E+03  0.74792092383E+03  0.46999998093E+01 0. -1.
</event>
<event>
 5   0  0.1790832E-04  0.1897938E+04  0.7818609E-02  0.8655883E-01
        2   -1    0    0  501    0  0.00000000000E+00  0.00000000000E+00  0.16576759775E+04  0.16576759775E+04  0.25500000920E-02 0.  1.
       -2   -1    0    0    0  501  0.00000000000E+00  0.00000000000E+00 -0.54325603189E+03  0.54325603189E+03  0.25500000920E-02 0. -1.
    10030    2    1    2    0    0  0.00000000000E+00  0.00000000000E+00  0.11144199456E+04  0.22009320094E+04  0.18979383274E+04 0.  0.
        5    1    3    3  502    0  0.73330978327E+03 -0.41957630753E+03  0.10583221009E+04  0.13541991269E+04  0.46999998093E+01 0.  1.
       -5    1    3    3    0  502 -0.73330978327E+03  0.41957630753E+03  0.56097844692E+02  0.84673288247E+03  0.46999998093E+01 0. -1.
</event>
<event>
 5   0  0.1790832E-04  0.1869131E+04  0.7818609E-02  0.8670376E-01
       -2   -1    0    0    0  501  0.00000000000E+00  0.00000000000E+00  0.49761484877E+03  0.49761484877E+03  0.25500000920E-02 0. -1.
        2   -1    0    0  501    0  0.00000000000E+00  0.00000000000E+00 -0.17551985224E+04  0.17551985224E+04  0.25500000920E-02 0.  1.
    10030    2    1    2    0    0  0.00000000000E+00  0.00000000000E+00 -0.12575836736E+04  0.22528133712E+04  0.18691311856E+04 0.  0.
        5    1    3    3  502    0  0.45267884669E+03  0.38924423018E+03  0.23779991733E+03  0.64265083805E+03  0.46999998093E+01 0. -1.
       -5    1    3    3    0  502 -0.45267884669E+03 -0.38924423018E+03 -0.14953835910E+04  0.16101625331E+04  0.46999998093E+01 0.  1.
</event>
<event>
 5   0  0.1658711E-04  0.1881275E+04  0.7818609E-02  0.8664234E-01
       -2   -1    0    0    0  501  0.00000000000E+00  0.00000000000E+00  0.10509154677E+04  0.10509154677E+04  0.25500000920E-02 0.  1.
        2   -1    0    0  501    0  0.00000000000E+00  0.00000000000E+00 -0.84193137170E+03  0.84193137171E+03  0.25500000920E-02 0. -1.
    10030    2    1    2    0    0  0.00000000000E+00  0.00000000000E+00  0.20898409596E+03  0.18928468394E+04  0.18812747819E+04 0.  0.
        2    1    3    3  502    0 -0.29320800697E+03 -0.78633114791E+03  0.53197144361E+03  0.99362026265E+03  0.25500000920E-02 0.  1.
       -2    1    3    3    0  502  0.29320800697E+03  0.78633114791E+03 -0.32298734765E+03  0.89922657672E+03  0.25500000920E-02 0. -1.
</event>
<event>
 5   0  0.8905646E-05  0.1971788E+04  0.7818609E-02  0.8619925E-01
        1   -1    0    0  501    0  0.00000000000E+00  0.00000000000E+00  0.11122028580E+04  0.11122028580E+04  0.50400001928E-02 0.  1.
       -1   -1    0    0    0  501  0.00000000000E+00  0.00000000000E+00 -0.87392947909E+03  0.87392947911E+03  0.50400001928E-02 0. -1.
    10030    2    1    2    0    0  0.00000000000E+00  0.00000000000E+00  0.23827337892E+03  0.19861323371E+04  0.19717878835E+04 0.  0.
        1    1    3    3  502    0 -0.84002068054E+03 -0.37269661946E+03 -0.24046092505E+03  0.94992577099E+03  0.50400001928E-02 0. -1.
       -1    1    3    3    0  502  0.84002068054E+03  0.37269661946E+03  0.47873430396E+03  0.10362065661E+04  0.50400001928E-02 0.  1.
</event>
<event>
 5   0  0.1790832E-04  0.1917493E+04  0.7818609E-02  0.8646198E-01
       -2   -1    0    0    0  501  0.00000000000E+00  0.00000000000E+00  0.93032502015E+03  0.93032502015E+03  0.25500000920E-02 0. -1.
        2   -1    0    0  501    0  0.00000000000E+00  0.00000000000E+00 -0.98803622912E+03  0.98803622912E+03  0.25500000920E-02 0.  1.
    10030    2    1    2    0    0  0.00000000000E+00  0.00000000000E+00 -0.57711208970E+02  0.19183612493E+04  0.19174929724E+04 0.  0.
        5    1    3    3  502    0  0.54885632261E+02 -0.11787103467E+03 -0.97916294058E+03  0.98776928867E+03  0.46999998093E+01 0.  1.
       -5    1    3    3    0  502 -0.54885632261E+02  0.11787103467E+03  0.92145173161E+03  0.93059196060E+03  0.46999998093E+01 0. -1.
</event>
<event>
 5   0  0.8587082E-05  0.1878340E+04  0.7818609E-02  0.8665714E-01
       -1   -1    0    0    0  501  0.00000000000E+00  0.00000000000E+00  0.95184395917E+03  0.95184395918E+03  0.50400001928E-02 0. -1.
        1   -1    0    0  501    0  0.00000000000E+00  0.00000000000E+00 -0.92666512570E+03  0.92666512571E+03  0.50400001928E-02 0.  1.
    10030    2    1    2    0    0  0.00000000000E+00  0.00000000000E+00  0.25178833471E+02  0.18785090849E+04  0.18783403335E+04 0.  0.
        5    1    3    3  502    0  0.74834438963E+03  0.15819911115E+03 -0.53241112512E+03  0.93194955894E+03  0.46999998093E+01 0.  1.
       -5    1    3    3    0  502 -0.74834438963E+03 -0.15819911115E+03  0.55758995859E+03  0.94655952596E+03  0.46999998093E+01 0. -1.
</event>
<event>
 5   0  0.1765328E-04  0.1899751E+04  0.7818609E-02  0.8654980E-01
       -2   -1    0    0    0  501  0.00000000000E+00  0.00000000000E+00  0.69112417580E+03  0.69112417581E+03  0.25500000920E-02 0.  1.
        2   -1    0    0  501    0  0.00000000000E+00  0.00000000000E+00 -0.13055015225E+04  0.13055015225E+04  0.25500000920E-02 0. -1.
    10030    2    1    2    0    0  0.00000000000E+00  0.00000000000E+00 -0.61437734670E+03  0.19966256983E+04  0.18997512087E+04 0.  0.
        3    1    3    3  502    0  0.70329884522E+03  0.56773706169E+02  0.36117290977E+03  0.79265276153E+03  0.10100000352E+00 0.  1.
       -3    1    3    3    0  502 -0.70329884522E+03 -0.56773706169E+02 -0.97555025647E+03  0.12039729368E+04  0.10100000352E+00 0. -1.
</event>
<event>
 5   0  0.1790832E-04  0.1905532E+04  0.7818609E-02  0.8652107E-01
       -2   -1    0    0    0  501  0.00000000000E+00  0.00000000000E+00  0.70760755159E+03  0.70760755160E+03  0.25500000920E-02 0. -1.
        2   -1    0    0  501    0  0.00000000000E+00  0.00000000000E+00 -0.12828629706E+04  0.12828629706E+04  0.25500000920E-02 0.  1.
    10030    2    1    2    0    0  0.00000000000E+00  0.00000000000E+00 -0.57525541898E+03  0.19904705222E+04  0.19055324984E+04 0.  0.
        5    1    3    3  502    0  0.39190920735E+02 -0.78556543392E+03 -0.84926737235E+03  0.11575517867E+04  0.46999998093E+01 0.  1.
       -5    1    3    3    0  502 -0.39190920735E+02  0.78556543392E+03  0.27401195337E+03  0.83291873543E+03  0.46999998093E+01 0. -1.
</event>
<event>
 5   0  0.8567844E-05  0.1901889E+04  0.7818609E-02  0.8653917E-01
       -1   -1    0    0    0  501  0.00000000000E+00  0.00000000000E+00  0.11926765658E+04  0.11926765658E+04  0.50400001928E-02 0.  1.
        1   -1    0    0  501    0  0.00000000000E+00  0.00000000000E+00 -0.75820651344E+03  0.75820651346E+03  0.50400001928E-02 0. -1.
    10030    2    1    2    0    0  0.00000000000E+00  0.00000000000E+00  0.43447005234E+03  0.19508830792E+04  0.19018886830E+04 0.  0.
        4    1    3    3  502    0 -0.50498298192E+03 -0.66964957390E+03  0.67694894015E+03  0.10778218055E+04  0.12699999809E+01 0.  1.
       -4    1    3    3    0  502  0.50498298192E+03  0.66964957390E+03 -0.24247888781E+03  0.87306127379E+03  0.12699999809E+01 0. -1.
</event>
<event>
 5   0  0.1765328E-04  0.1886260E+04  0.7818609E-02  0.8661726E-01
        2   -1    0    0  501    0  0.00000000000E+00  0.00000000000E+00  0.19898285243E+04  0.19898285243E+04  0.25500000920E-02 0.  1.
       -2   -1    0    0    0  501  0.00000000000E+00  0.00000000000E+00 -0.44702070981E+03  0.44702070982E+03  0.25500000920E-02 0. -1.
    10030    2    1    2    0    0  0.00000000000E+00  0.00000000000E+00  0.15428078145E+04  0.24368492341E+04  0.18862603843E+04 0.  0.
        3    1    3    3  502    0 -0.42933793339E+03 -0.22986341562E+03 -0.27201682221E+03  0.55781844058E+03  0.10100000352E+00 0. -1.
       -3    1    3    3    0  502  0.42933793339E+03  0.22986341562E+03  0.18148246367E+04  0.18790307935E+04  0.10100000352E+00 0.  1.
</event>
<event>
 5   0  0.1658711E-04  0.1906137E+04  0.7818609E-02  0.8651808E-01
       -2   -1    0    0    0  501  0.00000000000E+00  0.00000000000E+00  0.10458902274E+04  0.10458902274E+04  0.25500000920E-02 0.  1.
        2   -1    0    0  501    0  0.00000000000E+00  0.00000000000E+00 -0.86848439236E+03  0.86848439236E+03  0.25500000920E-02 0. -1.
    10030    2    1    2    0    0  0.00000000000E+00  0.00000000000E+00  0.17740583499E+03  0.19143746197E+04  0.19061367617E+04 0.  0.
        2    1    3    3  502    0 -0.27660895518E+03 -0.62753018253E+02 -0.82511337349E+03  0.87250360143E+03  0.25500000920E-02 0. -1.
       -2    1    3    3    0  502  0.27660895518E+03  0.62753018253E+02  0.10025192085E+04  0.10418710183E+04  0.25500000920E-02 0.  1.
</event>
<event>
 5   0  0.1810569E-04  0.1943041E+04  0.7818609E-02  0.8633724E-01
        2   -1    0    0  501    0  0.00000000000E+00  0.00000000000E+00  0.16937845641E+04  0.16937845641E+04  0.25500000920E-02 0.  1.
       -2   -1    0    0    0  501  0.00000000000E+00  0.00000000000E+00 -0.55724458439E+03  0.55724458440E+03  0.25500000920E-02 0. -1.
    10030    2    1    2    0    0  0.00000000000E+00  0.00000000000E+00  0.11365399797E+04  0.22510291485E+04  0.19430411992E+04 0.  0.
        4    1    3    3  502    0 -0.10435856274E+02  0.37921175448E+03 -0.46789251063E+03  0.60235826236E+03  0.12699999809E+01 0. -1.
       -4    1    3    3    0  502  0.10435856274E+02 -0.37921175448E+03  0.16044324903E+04  0.16486708861E+04  0.12699999809E+01 0.  1.
</event>
<event>
 5   0  0.1765328E-04  0.1897215E+04  0.7818609E-02  0.8656244E-01
       -2   -1    0    0    0  501  0.00000000000E+00  0.00000000000E+00  0.48749076663E+03  0.48749076664E+03  0.25500000920E-02 0. -1.
        2   -1    0    0  501    0  0.00000000000E+00  0.00000000000E+00 -0.18458932878E+04  0.18458932878E+04  0.25500000920E-02 0.  1.
    10030    2    1    2    0    0  0.00000000000E+00  0.00000000000E+00 -0.13584025211E+04  0.23333840544E+04  0.18972147311E+04 0.  0.
        3    1    3    3  502    0 -0.86231425881E+03  0.39370525141E+03 -0.63543656103E+03  0.11412139761E+04  0.10100000352E+00 0. -1.
       -3    1    3    3    0  502  0.86231425881E+03 -0.39370525141E+03 -0.72296596010E+03  0.11921700783E+04  0.10100000352E+00 0.  1.
</event>
<event>
 5   0  0.1799738E-04  0.1904252E+04  0.7818609E-02  0.8652743E-01
        2   -1    0    0  501    0  0.00000000000E+00  0.00000000000E+00  0.61450045194E+03  0.61450045195E+03  0.25500000920E-02 0. -1.
       -2   -1    0    0    0  501  0.00000000000E+00  0.00000000000E+00 -0.14752541198E+04  0.14752541198E+04  0.25500000920E-02 0.  1.
    10030    2    1    2    0    0  0.00000000000E+00  0.00000000000E+00 -0.86075366783E+03  0.20897545717E+04  0.19042524237E+04 0.  0.
        1    1    3    3  502    0 -0.12636452730E+03  0.31703136177E+02  0.60467269959E+03  0.61854842677E+03  0.50400001928E-02 0. -1.
       -1    1    3    3    0  502  0.12636452730E+03 -0.31703136177E+02 -0.14654263674E+04  0.14712061450E+04  0.50400001928E-02 0.  1.
</event>
<event>
 5   0  0.1799738E-04  0.1841366E+04  0.7818609E-02  0.8684606E-01
        2   -1    0    0  501    0  0.00000000000E+00  0.00000000000E+00  0.80623375536E+03  0.80623375537E+03  0.25500000920E-02 0. -1.
       -2   -1    0    0    0  501  0.00000000000E+00  0.00000000000E+00 -0.10513784754E+04  0.10513784754E+04  0.25500000920E-02 0.  1.
    10030    2    1    2    0    0  0.00000000000E+00  0.00000000000E+00 -0.24514472001E+03  0.18576122307E+04  0.18413655982E+04 0.  0.
        1    1    3    3  502    0  0.77617642844E+03  0.82106685294E+02  0.37006549334E+03  0.86379385575E+03  0.50400001928E-02 0. -1.
       -1    1    3    3    0  502 -0.77617642844E+03 -0.82106685294E+02 -0.61521021336E+03  0.99381837500E+03  0.50400001928E-02 0.  1.
</event>
<event>
 5   0  0.8905646E-05  0.1743798E+04  0.7818609E-02  0.8736772E-01
       -1   -1    0    0    0  501  0.00000000000E+00  0.00000000000E+00  0.54203124872E+03  0.54203124875E+03  0.50400001928E-02 0.  1.
        1   -1    0    0  501    0  0.00000000000E+00  0.00000000000E+00 -0.14025161671E+04  0.14025161671E+04  0.50400001928E-02 0. -1.
    10030    2    1    2    0    0  0.00000000000E+00  0.00000000000E+00 -0.86048491834E+03  0.19445474158E+04  0.17437976826E+04 0.  0.
        1    1    3    3  502    0  0.76271890009E+03 -0.40479977672E+03 -0.56500444981E+03  0.10319074610E+04  0.50400001928E-02 0.  1.
       -1    1    3    3    0  502 -0.76271890009E+03  0.40479977672E+03 -0.29548046853E+03  0.91263995480E+03  0.50400001928E-02 0. -1.
</event>
<event>
 5   0  0.8602017E-05  0.1902561E+04  0.7818609E-02  0.8653582E-01
        1   -1    0    0  501    0  0.00000000000E+00  0.00000000000E+00  0.11747146362E+04  0.11747146362E+04  0.50400001928E-02 0. -1.
       -1   -1    0    0    0  501  0.00000000000E+00  0.00000000000E+00 -0.77034448172E+03  0.77034448174E+03  0.50400001928E-02 0.  1.
    10030    2    1    2    0    0  0.00000000000E+00  0.00000000000E+00  0.40437015451E+03  0.19450591180E+04  0.19025613658E+04 0.  0.
        2    1    3    3  502    0 -0.90103903315E+02 -0.56463458731E+03 -0.57506282190E+03  0.81094277216E+03  0.25500000920E-02 0.  1.
       -2    1    3    3    0  502  0.90103903315E+02  0.56463458731E+03  0.97943297641E+03  0.11341163458E+04  0.25500000920E-02 0. -1.
</event>
<event>
 5   0  0.1799738E-04  0.1917655E+04  0.7818609E-02  0.8646118E-01
        2   -1    0    0  501    0  0.00000000000E+00  0.00000000000E+00  0.81191977713E+03  0.81191977713E+03  0.25500000920E-02 0. -1.
       -2   -1    0    0    0  501  0.00000000000E+00  0.00000000000E+00 -0.11323169892E+04  0.11323169892E+04  0.25500000920E-02 0.  1.
    10030    2    1    2    0    0  0.00000000000E+00  0.00000000000E+00 -0.32039721204E+03  0.19442367663E+04  0.19176553992E+04 0.  0.
        1    1    3    3  502    0  0.56767962219E+03 -0.62823646422E+03 -0.61633410011E+03  0.10472864610E+04  0.50400001928E-02 0.  1.
       -1    1    3    3    0  502 -0.56767962219E+03  0.62823646422E+03  0.29593688807E+03  0.89695030530E+03  0.50400001928E-02 0. -1.
</event>
<event>
 5   0  0.8587082E-05  0.1914566E+04  0.7818609E-02  0.8647640E-01
       -1   -1    0    0    0  501  0.00000000000E+00  0.00000000000E+00  0.11489639603E+04  0.11489639603E+04  0.50400001928E-02 0.  1.
        1   -1    0    0  501    0  0.00000000000E+00  0.00000000000E+00 -0.79758014290E+03  0.79758014292E+03  0.50400001928E-02 0. -1.
    10030    2    1    2    0    0  0.00000000000E+00  0.00000000000E+00  0.35138381741E+03  0.19465441032E+04  0.19145661020E+04 0.  0.
        5    1    3    3  502    0 -0.37913154393E+03 -0.77657768468E+03  0.59434021570E+03  0.10488450839E+04  0.46999998093E+01 0.  1.
       -5    1    3    3    0  502  0.37913154393E+03  0.77657768468E+03 -0.24295639828E+03  0.89769901939E+03  0.46999998093E+01 0. -1.
</event>
<event>
 5   0  0.1790832E-04  0.1893618E+04  0.7818609E-02  0.8658040E-01
       -2   -1    0    0    0  501  0.00000000000E+00  0.00000000000E+00  0.96349749044E+03  0.96349749044E+03  0.25500000920E-02 0. -1.
        2   -1    0    0  501    0  0.00000000000E+00  0.00000000000E+00 -0.93040970829E+03  0.93040970830E+03  0.25500000920E-02 0.  1.
    10030    2    1    2    0    0  0.00000000000E+00  0.00000000000E+00  0.33087782145E+02  0.18939071987E+04  0.18936181442E+04 0.  0.
        5    1    3    3  502    0  0.27913223377E+03  0.90170024357E+03 -0.57272495798E+02  0.94566397941E+03  0.46999998093E+01 0. -1.
       -5    1    3    3    0  502 -0.27913223377E+03 -0.90170024357E+03  0.90360277943E+02  0.94824321933E+03  0.46999998093E+01 0.  1.
</event>
<event>
 5   0  0.8681396E-05  0.1964551E+04  0.7818609E-02  0.8623376E-01
       -1   -1    0    0    0  501  0.00000000000E+00  0.00000000000E+00  0.11496372081E+04  0.11496372081E+04  0.50400001928E-02 0.  1.
        1   -1    0    0  501    0  0.00000000000E+00  0.00000000000E+00 -0.83927815596E+03  0.83927815598E+03  0.50400001928E-02 0. -1.
    10030    2    1    2    0    0  0.00000000000E+00  0.00000000000E+00  0.31035905217E+03  0.19889153641E+04  0.19645512425E+04 0.  0.
        3    1    3    3  502    0 -0.74777547297E+03  0.29754973907E+03  0.72533472834E+03  0.10834271935E+04  0.10100000352E+00 0.  1.
       -3    1    3    3    0  502  0.74777547297E+03 -0.29754973907E+03 -0.41497567617E+03  0.90548817066E+03  0.10100000352E+00 0. -1.
</event>
<event>
 5   0  0.1658711E-04  0.1879372E+04  0.7818609E-02  0.8665193E-01
        2   -1    0    0  501    0  0.00000000000E+00  0.00000000000E+00  0.82749341029E+03  0.82749341030E+03  0.25500000920E-02 0. -1.
       -2   -1    0    0    0  501  0.00000000000E+00  0.00000000000E+00 -0.10670893318E+04  0.10670893318E+04  0.25500000920E-02 0.  1.
    10030    2    1    2    0    0  0.00000000000E+00  0.00000000000E+00 -0.23959592148E+03  0.18945827421E+04  0.18793715867E+04 0.  0.
        2    1    3    3  502    0  0.67070025078E+03  0.45758114572E+03  0.35709544316E+03  0.88698167222E+03  0.25500000920E-02 0. -1.
       -2    1    3    3    0  502 -0.67070025078E+03 -0.45758114572E+03 -0.59669136464E+03  0.10076010699E+04  0.25500000920E-02 0.  1.
</event>
<event>
 5   0  0.8567844E-05  0.1861868E+04  0.7818609E-02  0.8674073E-01
        1   -1    0    0  501    0  0.00000000000E+00  0.00000000000E+00  0.28591460759E+04  0.28591460759E+04  0.50400001928E-02 0. -1.
       -1   -1    0    0    0  501  0.00000000000E+00  0.00000000000E+00 -0.30311079263E+03  0.30311079268E+03  0.50400001928E-02 0.  1.
    10030    2    1    2    0    0  0.00000000000E+00  0.00000000000E+00  0.25560352833E+04  0.31622568686E+04  0.18618679152E+04 0.  0.
        4    1    3    3  502    0 -0.45739786446E+03  0.79621380423E+03  0.15382005957E+04  0.17914329220E+04  0.12699999809E+01 0. -1.
       -4    1    3    3    0  502  0.45739786446E+03 -0.79621380423E+03  0.10178346876E+04  0.13708239466E+04  0.12699999809E+01 0.  1.
</event>
<event>
 5   0  0.8587082E-05  0.1911046E+04  0.7818609E-02  0.8649378E-01
        1   -1    0    0  501    0  0.00000000000E+00  0.00000000000E+00  0.16033563920E+04  0.16033563921E+04  0.50400001928E-02 0. -1.
       -1   -1    0    0    0  501  0.00000000000E+00  0.00000000000E+00 -0.56944556109E+03  0.56944556111E+03  0.50400001928E-02 0.  1.
    10030    2    1    2    0    0  0.00000000000E+00  0.00000000000E+00  0.10339108310E+04  0.21728019532E+04  0.19110459757E+04 0.  0.
        5    1    3    3  502    0  0.14047753174E+03 -0.22561229496E+03  0.15604729317E+04  0.15829506325E+04  0.46999998093E+01 0. -1.
       -5    1    3    3    0  502 -0.14047753174E+03  0.22561229496E+03 -0.52656210070E+03  0.58985132064E+03  0.46999998093E+01 0.  1.
</event>
<event>
 5   0  0.8905646E-05  0.1904507E+04  0.7818609E-02  0.8652616E-01
       -1   -1    0    0    0  501  0.00000000000E+00  0.00000000000E+00  0.60829018864E+03  0.60829018866E+03  0.50400001928E-02 0.  1.
        1   -1    0    0  501    0  0.00000000000E+00  0.00000000000E+00 -0.14907141073E+04  0.14907141074E+04  0.50400001928E-02 0. -1.
    10030    2    1    2    0    0  0.00000000000E+00  0.00000000000E+00 -0.88242391870E+03  0.20990042960E+04  0.19045070392E+04 0.  0.
        1    1    3    3  502    0 -0.26793450820E+02 -0.52614480314E+03  0.43304497730E+03  0.68196348529E+03  0.50400001928E-02 0.  1.
       -1    1    3    3    0  502  0.26793450820E+02  0.52614480314E+03 -0.13154688960E+04  0.14170408107E+04  0.50400001928E-02 0. -1.
</event>
<event>
 5   0  0.8602017E-05  0.1902976E+04  0.7818609E-02  0.8653377E-01
        1   -1    0    0  501    0  0.00000000000E+00  0.00000000000E+00  0.11289812657E+04  0.11289812657E+04  0.50400001928E-02 0.  1.
       -1   -1    0    0    0  501  0.00000000000E+00  0.00000000000E+00 -0.80189926603E+03  0.80189926604E+03  0.50400001928E-02 0. -1.
    10030    2    1    2    0    0  0.00000000000E+00  0.00000000000E+00  0.32708199966E+03  0.19308805317E+04  0.19029758257E+04 0.  0.
        2    1    3    3  502    0  0.16910924918E+03  0.71873370079E+03  0.77246873820E+03  0.10685897353E+04  0.25500000920E-02 0.  1.
       -2    1    3    3    0  502 -0.16910924918E+03 -0.71873370079E+03 -0.44538673854E+03  0.86229079647E+03  0.25500000920E-02 0. -1.
</event>
<event>
 5   0  0.1765328E-04  0.1825890E+04  0.7818609E-02  0.8692651E-01
        2   -1    0    0  501    0  0.00000000000E+00  0.00000000000E+00  0.19376903930E+04  0.19376903930E+04  0.25500000920E-02 0. -1.
       -2   -1    0    0    0  501  0.00000000000E+00  0.00000000000E+00 -0.43013516354E+03  0.43013516355E+03  0.25500000920E-02 0.  1.
    10030    2    1    2    0    0  0.00000000000E+00  0.00000000000E+00  0.15075552294E+04  0.23678255565E+04  0.18258902202E+04 0.  0.
        3    1    3    3  502    0  0.63138535402E+03  0.25050666352E+03 -0.37239776499E+02  0.68028513500E+03  0.10100000352E+00 0.  1.
       -3    1    3    3    0  502 -0.63138535402E+03 -0.25050666352E+03  0.15447950059E+04  0.16875404215E+04  0.10100000352E+00 0. -1.
</event>
<event>
 5   0  0.1799738E-04  0.1897395E+04  0.7818609E-02  0.8656154E-01
        2   -1    0    0  501    0  0.00000000000E+00  0.00000000000E+00  0.17744838715E+04  0.17744838715E+04  0.25500000920E-02 0. -1.
       -2   -1    0    0    0  501  0.00000000000E+00  0.00000000000E+00 -0.50720492368E+03  0.50720492369E+03  0.25500000920E-02 0.  1.
    10030    2    1    2    0    0  0.00000000000E+00  0.00000000000E+00  0.12672789478E+04  0.22816887952E+04  0.18973950106E+04 0.  0.
        1    1    3    3  502    0  0.59645153924E+03 -0.29206932221E+03  0.14483247599E+04  0.15933309567E+04  0.50400001928E-02 0. -1.
       -1    1    3    3    0  502 -0.59645153924E+03  0.29206932221E+03 -0.18104581207E+03  0.68835783843E+03  0.50400001928E-02 0.  1.
</event>
<event>
 5   0  0.8602017E-05  0.1915204E+04  0.7818609E-02  0.8647325E-01
        1   -1    0    0  501    0  0.00000000000E+00  0.00000000000E+00  0.11620062664E+04  0.11620062665E+04  0.50400001928E-02 0.  1.
       -1   -1    0    0    0  501  0.00000000000E+00  0.00000000000E+00 -0.78915368395E+03  0.78915368396E+03  0.50400001928E-02 0. -1.
    10030    2    1    2    0    0  0.00000000000E+00  0.00000000000E+00  0.37285258250E+03  0.19511599504E+04  0.19152039327E+04 0.  0.
        2    1    3    3  502    0  0.11446493724E+03 -0.70137262764E+03 -0.46747722113E+03  0.85062373406E+03  0.25500000920E-02 0. -1.
       -2    1    3    3    0  502 -0.11446493724E+03  0.70137262764E+03  0.84032980363E+03  0.11005362164E+04  0.25500000920E-02 0.  1.
</event>
<event>
 5   0  0.8567844E-05  0.1744287E+04  0.7818609E-02  0.8736501E-01
        1   -1    0    0  501    0  0.00000000000E+00  0.00000000000E+00  0.67360170148E+03  0.67360170150E+03  0.50400001928E-02 0.  1.
       -1   -1    0    0    0  501  0.00000000000E+00  0.00000000000E+00 -0.11292054364E+04  0.11292054364E+04  0.50400001928E-02 0. -1.
    10030    2    1    2    0    0  0.00000000000E+00  0.00000000000E+00 -0.45560373496E+03  0.18028071379E+04  0.17442874801E+04 0.  0.
        4    1    3    3  502    0 -0.42154753311E+03  0.15318835015E+03  0.54526545505E+03  0.70603471775E+03  0.12699999809E+01 0.  1.
       -4    1    3    3    0  502  0.42154753311E+03 -0.15318835015E+03 -0.10008691900E+04  0.10967724202E+04  0.12699999809E+01 0. -1.
</event>
<event>
 5   0  0.8681396E-05  0.2022125E+04  0.7818609E-02  0.8596346E-01
       -1   -1    0    0    0  501  0.00000000000E+00  0.00000000000E+00  0.61430215331E+03  0.61430215333E+03  0.50400001928E-02 0. -1.
        1   -1    0    0  501    0  0.00000000000E+00  0.00000000000E+00 -0.16640795232E+04  0.16640795232E+04  0.50400001928E-02 0.  1.
    10030    2    1    2    0    0  0.00000000000E+00  0.00000000000E+00 -0.10497773699E+04  0.22783816765E+04  0.20221252527E+04 0.  0.
        3    1    3    3  502    0  0.27050908530E+03 -0.15406186070E+03 -0.16087369451E+04  0.16385801143E+04  0.10100000352E+00 0.  1.
       -3    1    3    3    0  502 -0.27050908530E+03  0.15406186070E+03  0.55895957521E+03  0.63980156226E+03  0.10100000352E+00 0. -1.
</event>
<event>
 5   0  0.8567844E-05  0.1915176E+04  0.7818609E-02  0.8647339E-01
       -1   -1    0    0    0  501  0.00000000000E+00  0.00000000000E+00  0.66161977879E+03  0.66161977881E+03  0.50400001928E-02 0. -1.
        1   -1    0    0  501    0  0.00000000000E+00  0.00000000000E+00 -0.13859538357E+04  0.13859538357E+04  0.50400001928E-02 0.  1.
    10030    2    1    2    0    0  0.00000000000E+00  0.00000000000E+00 -0.72433405694E+03  0.20475736145E+04  0.19151756789E+04 0.  0.
        4    1    3    3  502    0  0.79735174667E+03  0.50720043850E+03 -0.52762610563E+03  0.10823183510E+04  0.12699999809E+01 0.  1.
       -4    1    3    3    0  502 -0.79735174667E+03 -0.50720043850E+03 -0.19670795132E+03  0.96525526352E+03  0.12699999809E+01 0. -1.
</event>
<event>
 5   0  0.1658711E-04  0.1899074E+04  0.7818609E-02  0.8655318E-01
       -2   -1    0    0    0  501  0.00000000000E+00  0.00000000000E+00  0.14962413255E+04  0.14962413255E+04  0.25500000920E-02 0.  1.
        2   -1    0    0  501    0  0.00000000000E+00  0.00000000000E+00 -0.60259014173E+03  0.60259014174E+03  0.25500000920E-02 0. -1.
    10030    2    1    2    0    0  0.00000000000E+00  0.00000000000E+00  0.89365118380E+03  0.20988314673E+04  0.18990737452E+04 0.  0.
        2    1    3    3  502    0  0.39968899324E+03 -0.10032539461E+03  0.13922636187E+04  0.14519691664E+04  0.25500000920E-02 0.  1.
       -2    1    3    3    0  502 -0.39968899324E+03  0.10032539461E+03 -0.49861243488E+03  0.64686230092E+03  0.25500000920E-02 0. -1.
</event>
<event>
 5   0  0.1799738E-04  0.1927716E+04  0.7818609E-02  0.8641182E-01
        2   -1    0    0  501    0  0.00000000000E+00  0.00000000000E+00  0.16604775698E+04  0.16604775698E+04  0.25500000920E-02 0. -1.
       -2   -1    0    0    0  501  0.00000000000E+00  0.00000000000E+00 -0.55949093996E+03  0.55949093996E+03  0.25500000920E-02 0.  1.
    10030    2    1    2    0    0  0.00000000000E+00  0.00000000000E+00  0.11009866298E+04  0.22199685098E+04  0.19277159089E+04 0.  0.
        1    1    3    3  502    0 -0.74331116782E+03  0.21541482714E+03  0.12121477470E+04  0.14381297579E+04  0.50400001928E-02 0. -1.
       -1    1    3    3    0  502  0.74331116782E+03 -0.21541482714E+03 -0.11116111714E+03  0.78183875189E+03  0.50400001928E-02 0.  1.
</event>
<event>
 5   0  0.8905646E-05  0.1854421E+04  0.7818609E-02  0.8677882E-01
       -1   -1    0    0    0  501  0.00000000000E+00  0.00000000000E+00  0.86541888731E+03  0.86541888733E+03  0.50400001928E-02 0.  1.
        1   -1    0    0  501    0  0.00000000000E+00  0.00000000000E+00 -0.99341430045E+03  0.99341430047E+03  0.50400001928E-02 0. -1.
    10030    2    1    2    0    0  0.00000000000E+00  0.00000000000E+00 -0.12799541314E+03  0.18588331878E+04  0.18544212020E+04 0.  0.
        1    1    3    3  502    0  0.20700227742E+03 -0.64320693196E+03 -0.70045275385E+03  0.97324157360E+03  0.50400001928E-02 0. -1.
       -1    1    3    3    0  502 -0.20700227742E+03  0.64320693196E+03  0.57245734071E+03  0.88559161420E+03  0.50400001928E-02 0.  1.
</event>
<event>
 5   0  0.1658711E-04  0.1858657E+04  0.7818609E-02  0.8675714E-01
        2   -1    0    0  501    0  0.00000000000E+00  0.00000000000E+00  0.20310973619E+04  0.20310973619E+04  0.25500000920E-02 0. -1.
       -2   -1    0    0    0  501  0.00000000000E+00  0.00000000000E+00 -0.42521414507E+03  0.42521414507E+03  0.25500000920E-02 0.  1.
    10030    2    1    2    0    0  0.00000000000E+00  0.00000000000E+00  0.16058832168E+04  0.24563115070E+04  0.18586568573E+04 0.  0.
        2    1    3    3  502    0 -0.90230675498E+02  0.54394609212E+03  0.17915758548E+04  0.18745033928E+04  0.25500000920E-02 0. -1.
       -2    1    3    3    0  502  0.90230675498E+02 -0.54394609212E+03 -0.18569263799E+03  0.58180811420E+03  0.25500000920E-02 0.  1.
</event>
<event>
 5   0  0.8681396E-05  0.1899325E+04  0.7818609E-02  0.8655192E-01
        1   -1    0    0  501    0  0.00000000000E+00  0.00000000000E+00  0.15428322683E+04  0.15428322684E+04  0.50400001928E-02 0. -1.
       -1   -1    0    0    0  501  0.00000000000E+00  0.00000000000E+00 -0.58454765772E+03  0.58454765774E+03  0.50400001928E-02 0.  1.
    10030    2    1    2    0    0  0.00000000000E+00  0.00000000000E+00  0.95828461063E+03  0.21273799261E+04  0.18993251315E+04 0.  0.
        3    1    3    3  502    0  0.74024375237E+03 -0.18204288400E+03  0.11135009545E+04  0.13494387020E+04  0.10100000352E+00 0. -1.
       -3    1    3    3    0  502 -0.74024375237E+03  0.18204288400E+03 -0.15521634389E+03  0.77794122410E+03  0.10100000352E+00 0.  1.
</event>
<event>
 5   0  0.1799738E-04  0.1893612E+04  0.7818609E-02  0.8658043E-01
        2   -1    0    0  501    0  0.00000000000E+00  0.00000000000E+00  0.17388792804E+04  0.17388792804E+04  0.25500000920E-02 0. -1.
       -2   -1    0    0    0  501  0.00000000000E+00  0.00000000000E+00 -0.51552810883E+03  0.51552810884E+03  0.25500000920E-02 0.  1.
    10030    2    1    2    0    0  0.00000000000E+00  0.00000000000E+00  0.12233511716E+04  0.22544073893E+04  0.18936115198E+04 0.  0.
        1    1    3    3  502    0 -0.72822541173E+03 -0.35820430406E+03  0.11922586951E+04  0.14422563468E+04  0.50400001928E-02 0. -1.
       -1    1    3    3    0  502  0.72822541173E+03  0.35820430406E+03  0.31092476519E+02  0.81215104251E+03  0.50400001928E-02 0.  1.
</event>
<event>
 5   0  0.8681396E-05  0.1906910E+04  0.7818609E-02  0.8651424E-01
        1   -1    0    0  501    0  0.00000000000E+00  0.00000000000E+00  0.12845891913E+04  0.12845891913E+04  0.50400001928E-02 0. -1.
       -1   -1    0    0    0  501  0.00000000000E+00  0.00000000000E+00 -0.70767885651E+03  0.70767885653E+03  0.50400001928E-02 0.  1.
    10030    2    1    2    0    0  0.00000000000E+00  0.00000000000E+00  0.57691033477E+03  0.19922680478E+04  0.19069101814E+04 0.  0.
        3    1    3    3  502    0 -0.13787105345E+03  0.51664352338E+03 -0.53627714507E+03  0.75731244817E+03  0.10100000352E+00 0.  1.
       -3    1    3    3    0  502  0.13787105345E+03 -0.51664352338E+03  0.11131874798E+04  0.12349555997E+04  0.10100000352E+00 0. -1.
</event>
<event>
 5   0  0.1790832E-04  0.1908952E+04  0.7818609E-02  0.8650413E-01
       -2   -1    0    0    0  501  0.00000000000E+00  0.00000000000E+00  0.74703307402E+03  0.74703307403E+03  0.25500000920E-02 0.  1.
        2   -1    0    0  501    0  0.00000000000E+00  0.00000000000E+00 -0.12195233605E+04  0.12195233605E+04  0.25500000920E-02 0. -1.
    10030    2    1    2    0    0  0.00000000000E+00  0.00000000000E+00 -0.47249028650E+03  0.19665564346E+04  0.19089518431E+04 0.  0.
        5    1    3    3  502    0 -0.88913863280E+03  0.68566210808E+02  0.11421668692E+03  0.89907528893E+03  0.46999998093E+01 0. -1.
       -5    1    3    3    0  502  0.88913863280E+03 -0.68566210808E+02 -0.58670697342E+03  0.10674811456E+04  0.46999998093E+01 0.  1.
</event>
<event>
 5   0  0.1799738E-04  0.1978261E+04  0.7818609E-02  0.8616852E-01
        2   -1    0    0  501    0  0.00000000000E+00  0.00000000000E+00  0.10956422215E+04  0.10956422215E+04  0.25500000920E-02 0. -1.
       -2   -1    0    0    0  501  0.00000000000E+00  0.00000000000E+00 -0.89297292355E+03  0.89297292355E+03  0.25500000920E-02 0.  1.
    10030    2    1    2    0    0  0.00000000000E+00  0.00000000000E+00  0.20266929795E+03  0.19886151450E+04  0.19782606883E+04 0.  0.
        1    1    3    3  502    0  0.61418930682E+02 -0.54916084506E+03 -0.72334273488E+03  0.91026074887E+03  0.50400001928E-02 0.  1.
       -1    1    3    3    0  502 -0.61418930682E+02  0.54916084506E+03  0.92601203283E+03  0.10783543962E+04  0.50400001928E-02 0. -1.
</event>
<event>
 5   0  0.8602017E-05  0.1899896E+04  0.7818609E-02  0.8654908E-01
        1   -1    0    0  501    0  0.00000000000E+00  0.00000000000E+00  0.75522656702E+03  0.75522656703E+03  0.50400001928E-02 0.  1.
       -1   -1    0    0    0  501  0.00000000000E+00  0.00000000000E+00 -0.11948745626E+04  0.11948745626E+04  0.50400001928E-02 0. -1.
    10030    2    1    2    0    0  0.00000000000E+00  0.00000000000E+00 -0.43964799561E+03  0.19501011297E+04  0.18998958013E+04 0.  0.
        2    1    3    3  502    0 -0.64601071366E+02 -0.38155506121E+03  0.67065154182E+03  0.77429390654E+03  0.25500000920E-02 0.  1.
       -2    1    3    3    0  502  0.64601071366E+02  0.38155506121E+03 -0.11102995374E+04  0.11758072231E+04  0.25500000920E-02 0. -1.
</event>
<event>
 5   0  0.1658711E-04  0.1900333E+04  0.7818609E-02  0.8654691E-01
       -2   -1    0    0    0  501  0.00000000000E+00  0.00000000000E+00  0.11164105834E+04  0.11164105834E+04  0.25500000920E-02 0. -1.
        2   -1    0    0  501    0  0.00000000000E+00  0.00000000000E+00 -0.80867788408E+03  0.80867788408E+03  0.25500000920E-02 0.  1.
    10030    2    1    2    0    0  0.00000000000E+00  0.00000000000E+00  0.30773269935E+03  0.19250884675E+04  0.19003331796E+04 0.  0.
        2    1    3    3  502    0 -0.94037018126E+03  0.89491903215E+02  0.25772837729E+03  0.97914697314E+03  0.25500000920E-02 0. -1.
       -2    1    3    3    0  502  0.94037018126E+03 -0.89491903215E+02  0.50004322061E+02  0.94594149437E+03  0.25500000920E-02 0.  1.
</event>
<event>
 5   0  0.1799738E-04  0.1905416E+04  0.7818609E-02  0.8652165E-01
        2   -1    0    0  501    0  0.00000000000E+00  0.00000000000E+00  0.12705348984E+04  0.12705348984E+04  0.25500000920E-02 0.  1.
       -2   -1    0    0    0  501  0.00000000000E+00  0.00000000000E+00 -0.71438611235E+03  0.71438611235E+03  0.25500000920E-02 0. -1.
    10030    2    1    2    0    0  0.00000000000E+00  0.00000000000E+00  0.55614878608E+03  0.19849210108E+04  0.19054159511E+04 0.  0.
        1    1    3    3  502    0  0.47416660038E+03 -0.27096469582E+03 -0.53513702055E+03  0.76460935260E+03  0.50400001928E-02 0. -1.
       -1    1    3    3    0  502 -0.47416660038E+03  0.27096469582E+03  0.10912858066E+04  0.12203116582E+04  0.50400001928E-02 0.  1.
</event>
<event>
 5   0  0.8602017E-05  0.1888207E+04  0.7818609E-02  0.8660749E-01
       -1   -1    0    0    0  501  0.00000000000E+00  0.00000000000E+00  0.99407832916E+03  0.99407832917E+03  0.50400001928E-02 0.  1.
        1   -1    0    0  501    0  0.00000000000E+00  0.00000000000E+00 -0.89664101572E+03  0.89664101573E+03  0.50400001928E-02 0. -1.
    10030    2    1    2    0    0  0.00000000000E+00  0.00000000000E+00  0.97437313437E+02  0.18907193449E+04  0.18882069831E+04 0.  0.
        2    1    3    3  502    0  0.65725985279E+03  0.45356179333E+03  0.55299829594E+03  0.97134748148E+03  0.25500000920E-02 0.  1.
       -2    1    3    3    0  502 -0.65725985279E+03 -0.45356179333E+03 -0.45556098250E+03  0.91937186342E+03  0.25500000920E-02 0. -1.
</event>
<event>
 5   0  0.8567844E-05  0.1870028E+04  0.7818609E-02  0.8669921E-01
        1   -1    0    0  501    0  0.00000000000E+00  0.00000000000E+00  0.21514329851E+04  0.21514329851E+04  0.50400001928E-02 0.  1.
       -1   -1    0    0    0  501  0.00000000000E+00  0.00000000000E+00 -0.40635761849E+03  0.40635761852E+03  0.50400001928E-02 0. -1.
    10030    2    1    2    0    0  0.00000000000E+00  0.00000000000E+00  0.17450753666E+04  0.25577906036E+04  0.18700280043E+04 0.  0.
        4    1    3    3  502    0 -0.48366926910E+03 -0.43566283345E+03 -0.45519684712E+02  0.65254250507E+03  0.12699999809E+01 0. -1.
       -4    1    3    3    0  502  0.48366926910E+03  0.43566283345E+03  0.17905950513E+04  0.19052480985E+04  0.12699999809E+01 0.  1.
</event>
<event>
 5   0  0.1790832E-04  0.1903654E+04  0.7818609E-02  0.8653040E-01
       -2   -1    0    0    0  501  0.00000000000E+00  0.00000000000E+00  0.81158885355E+03  0.81158885356E+03  0.25500000920E-02 0. -1.
        2   -1    0    0  501    0  0.00000000000E+00  0.00000000000E+00 -0.11162973552E+04  0.11162973552E+04  0.25500000920E-02 0.  1.
    10030    2    1    2    0    0  0.00000000000E+00  0.00000000000E+00 -0.30470850168E+03  0.19278862088E+04  0.19036538454E+04 0.  0.
        5    1    3    3  502    0 -0.12441805950E+03  0.58756961661E+03 -0.90015359072E+03  0.10821351509E+04  0.46999998093E+01 0.  1.
       -5    1    3    3    0  502  0.12441805950E+03 -0.58756961661E+03  0.59544508904E+03  0.84575105791E+03  0.46999998093E+01 0. -1.
</event>
<event>
 5   0  0.8681396E-05  0.1885089E+04  0.7818609E-02  0.8662314E-01
        1   -1    0    0  501    0  0.00000000000E+00  0.00000000000E+00  0.11455347316E+04  0.11455347316E+04  0.50400001928E-02 0.  1.
       -1   -1    0    0    0  501  0.00000000000E+00  0.00000000000E+00 -0.77552445578E+03  0.77552445579E+03  0.50400001928E-02 0. -1.
    10030    2    1    2    0    0  0.00000000000E+00  0.00000000000E+00  0.37001027585E+03  0.19210591874E+04  0.18850890688E+04 0.  0.
        3    1    3    3  502    0 -0.32892584161E+03  0.31568907556E+03 -0.65568351255E+03  0.79860671205E+03  0.10100000352E+00 0. -1.
       -3    1    3    3    0  502  0.32892584161E+03 -0.31568907556E+03  0.10256937884E+04  0.11224524754E+04  0.10100000352E+00 0.  1.
</event>
<event>
 5   0  0.8681396E-05  0.1899243E+04  0.7818609E-02  0.8655233E-01
        1   -1    0    0  501    0  0.00000000000E+00  0.00000000000E+00  0.55443847437E+03  0.55443847439E+03  0.50400001928E-02 0. -1.
       -1   -1    0    0    0  501  0.00000000000E+00  0.00000000000E+00 -0.16264768935E+04  0.16264768935E+04  0.50400001928E-02 0.  1.
    10030    2    1    2    0    0  0.00000000000E+00  0.00000000000E+00 -0.10720384191E+04  0.21809153679E+04  0.18992433940E+04 0.  0.
        3    1    3    3  502    0 -0.64031716821E+02 -0.14517152974E+03 -0.16111481128E+04  0.16189419648E+04  0.10100000352E+00 0.  1.
       -3    1    3    3    0  502  0.64031716821E+02  0.14517152974E+03  0.53910969366E+03  0.56197340311E+03  0.10100000352E+00 0. -1.
</event>
<event>
 5   0  0.1765328E-04  0.1622036E+04  0.7818609E-02  0.8807124E-01
        2   -1    0    0  501    0  0.00000000000E+00  0.00000000000E+00  0.17424934450E+04  0.17424934450E+04  0.25500000920E-02 0.  1.
       -2   -1    0    0    0  501  0.00000000000E+00  0.00000000000E+00 -0.37747644672E+03  0.37747644673E+03  0.25500000920E-02 0. -1.
    10030    2    1    2    0    0  0.00000000000E+00  0.00000000000E+00  0.13650169983E+04  0.21199698917E+04  0.16220360465E+04 0.  0.
        3    1    3    3  502    0 -0.72189465434E+03  0.19842242699E+03  0.27493399115E+03  0.79755379830E+03  0.10100000352E+00 0. -1.
       -3    1    3    3    0  502  0.72189465434E+03 -0.19842242699E+03  0.10900830071E+04  0.13224160934E+04  0.10100000352E+00 0.  1.
</event>
<event>
 5   0  0.1790832E-04  0.1899333E+04  0.7818609E-02  0.8655189E-01
       -2   -1    0    0    0  501  0.00000000000E+00  0.00000000000E+00  0.45369113973E+03  0.45369113974E+03  0.25500000920E-02 0.  1.
        2   -1    0    0  501    0  0.00000000000E+00  0.00000000000E+00 -0.19878415771E+04  0.19878415771E+04  0.25500000920E-02 0. -1.
    10030    2    1    2    0    0  0.00000000000E+00  0.00000000000E+00 -0.15341504374E+04  0.24415327169E+04  0.18993326309E+04 0.  0.
        5    1    3    3  502    0 -0.32855281860E+02 -0.75817384163E+02 -0.19831967708E+04  0.19849229877E+04  0.46999998093E+01 0. -1.
       -5    1    3    3    0  502  0.32855281860E+02  0.75817384163E+02  0.44904633338E+03  0.45660972921E+03  0.46999998093E+01 0.  1.
</event>
<event>
 5   0  0.8587082E-05  0.1933864E+04  0.7818609E-02  0.8638181E-01
        1   -1    0    0  501    0  0.00000000000E+00  0.00000000000E+00  0.30499117819E+03  0.30499117823E+03  0.50400001928E-02 0. -1.
       -1   -1    0    0    0  501  0.00000000000E+00  0.00000000000E+00 -0.30655239952E+04  0.30655239952E+04  0.50400001928E-02 0.  1.
    10030    2    1    2    0    0  0.00000000000E+00  0.00000000000E+00 -0.27605328171E+04  0.33705151735E+04  0.19338642922E+04 0.  0.
        5    1    3    3  502    0  0.62089554372E+03 -0.38389387462E+03 -0.24853885302E+04  0.25903791265E+04  0.46999998093E+01 0.  1.
       -5    1    3    3    0  502 -0.62089554372E+03  0.38389387462E+03 -0.27514428690E+03  0.78013604698E+03  0.46999998093E+01 0. -1.
</event>
<event>
 5   0  0.8602017E-05  0.1899723E+04  0.7818609E-02  0.8654994E-01
        1   -1    0    0  501    0  0.00000000000E+00  0.00000000000E+00  0.10843424742E+04  0.10843424742E+04  0.50400001928E-02 0. -1.
       -1   -1    0    0    0  501  0.00000000000E+00  0.00000000000E+00 -0.83205891988E+03  0.83205891989E+03  0.50400001928E-02 0.  1.
    10030    2    1    2    0    0  0.00000000000E+00  0.00000000000E+00  0.25228355430E+03  0.19164013941E+04  0.18997229565E+04 0.  0.
        2    1    3    3  502    0  0.87801174586E+03 -0.32445452394E+02 -0.23796959212E+03  0.91026746621E+03  0.25500000920E-02 0.  1.
       -2    1    3    3    0  502 -0.87801174586E+03  0.32445452394E+02  0.49025314642E+03  0.10061339279E+04  0.25500000920E-02 0. -1.
</event>
<event>
 5   0  0.1810569E-04  0.1905529E+04  0.7818609E-02  0.8652109E-01
       -2   -1    0    0    0  501  0.00000000000E+00  0.00000000000E+00  0.36644656725E+03  0.36644656726E+03  0.25500000920E-02 0.  1.
        2   -1    0    0  501    0  0.00000000000E+00  0.00000000000E+00 -0.24771960047E+04  0.24771960047E+04  0.25500000920E-02 0. -1.
    10030    2    1    2    0    0  0.00000000000E+00  0.00000000000E+00 -0.21107494374E+04  0.28436425720E+04  0.19055287690E+04 0.  0.
        4    1    3    3  502    0  0.64538460469E+03 -0.41983934782E+03 -0.21785417838E+03  0.80015524862E+03  0.12699999809E+01 0.  1.
       -4    1    3    3    0  502 -0.64538460469E+03  0.41983934782E+03 -0.18928952591E+04  0.20434873233E+04  0.12699999809E+01 0. -1.
</event>
<event>
 5   0  0.1790832E-04  0.1852962E+04  0.7818609E-02  0.8678631E-01
       -2   -1    0    0    0  501  0.00000000000E+00  0.00000000000E+00  0.13320216059E+04  0.13320216059E+04  0.25500000920E-02 0. -1.
        2   -1    0    0  501    0  0.00000000000E+00  0.00000000000E+00 -0.64440914596E+03  0.64440914597E+03  0.25500000920E-02 0.  1.
    10030    2    1    2    0    0  0.00000000000E+00  0.00000000000E+00  0.68761245994E+03  0.19764307519E+04  0.18529618512E+04 0.  0.
        5    1    3    3  502    0 -0.37149453537E+02 -0.79890280283E+03  0.84264296166E+03  0.11617637544E+04  0.46999998093E+01 0. -1.
       -5    1    3    3    0  502  0.37149453537E+02  0.79890280283E+03 -0.15503050171E+03  0.81466699745E+03  0.46999998093E+01 0.  1.
</event>
<event>
 5   0  0.8905646E-05  0.1907538E+04  0.7818609E-02  0.8651114E-01
       -1   -1    0    0    0  501  0.00000000000E+00  0.00000000000E+00  0.14461472304E+04  0.14461472304E+04  0.50400001928E-02 0.  1.
        1   -1    0    0  501    0  0.00000000000E+00  0.00000000000E+00 -0.62903340894E+03  0.62903340896E+03  0.50400001928E-02 0. -1.
    10030    2    1    2    0    0  0.00000000000E+00  0.00000000000E+00  0.81711382149E+03  0.20751806394E+04  0.19075375983E+04 0.  0.
        1    1    3    3  502    0  0.14500449144E+02  0.23747171741E+03 -0.59623378258E+03  0.64194844273E+03  0.50400001928E-02 0. -1.
       -1    1    3    3    0  502 -0.14500449144E+02 -0.23747171741E+03  0.14133476041E+04  0.14332321967E+04  0.50400001928E-02 0.  1.
</event>
<event>
 5   0  0.1658711E-04  0.1924340E+04  0.7818609E-02  0.8642835E-01
        2   -1    0    0  501    0  0.00000000000E+00  0.00000000000E+00  0.66206332704E+03  0.66206332705E+03  0.25500000920E-02 0. -1.
       -2   -1    0    0    0  501  0.00000000000E+00  0.00000000000E+00 -0.13983125873E+04  0.13983125873E+04  0.25500000920E-02 0.  1.
    10030    2    1    2    0    0  0.00000000000E+00  0.00000000000E+00 -0.73624926029E+03  0.20603759144E+04  0.19243403897E+04 0.  0.
        2    1    3    3  502    0 -0.84116214360E+03  0.45206900719E+03 -0.24211302662E+03  0.98515930527E+03  0.25500000920E-02 0. -1.
       -2    1    3    3    0  502  0.84116214360E+03 -0.45206900719E+03 -0.49413623367E+03  0.10752166091E+04  0.25500000920E-02 0.  1.
</event>
<event>
 5   0  0.8602017E-05  0.1892304E+04  0.7818609E-02  0.8658697E-01
       -1   -1    0    0    0  501  0.00000000000E+00  0.00000000000E+00  0.82391352261E+03  0.82391352263E+03  0.50400001928E-02 0. -1.
        1   -1    0    0  501    0  0.00000000000E+00  0.00000000000E+00 -0.10865264709E+04  0.10865264710E+04  0.50400001928E-02 0.  1.
    10030    2    1    2    0    0  0.00000000000E+00  0.00000000000E+00 -0.26261294834E+03  0.19104399936E+04  0.18923042590E+04 0.  0.
        2    1    3    3  502    0  0.82255599371E+03 -0.21168538196E+03  0.28957596807E+03  0.89736464440E+03  0.25500000920E-02 0. -1.
       -2    1    3    3    0  502 -0.82255599371E+03  0.21168538196E+03 -0.55218891641E+03  0.10130753492E+04  0.25500000920E-02 0.  1.
</event>
<event>
 5   0  0.1799738E-04  0.1890597E+04  0.7818609E-02  0.8659551E-01
        2   -1    0    0  501    0  0.00000000000E+00  0.00000000000E+00  0.12591581619E+04  0.12591581619E+04  0.25500000920E-02 0.  1.
       -2   -1    0    0    0  501  0.00000000000E+00  0.00000000000E+00 -0.70967176902E+03  0.70967176902E+03  0.25500000920E-02 0. -1.
    10030    2    1    2    0    0  0.00000000000E+00  0.00000000000E+00  0.54948639286E+03  0.19688299309E+04  0.18905967314E+04 0.  0.
        1    1    3    3  502    0 -0.68584961027E+03 -0.65043951105E+03  0.28651377557E+03  0.98770005015E+03  0.50400001928E-02 0.  1.
       -1    1    3    3    0  502  0.68584961027E+03  0.65043951105E+03  0.26297261728E+03  0.98112988075E+03  0.50400001928E-02 0. -1.
</event>
<event>
 5   0  0.8681396E-05  0.1937981E+04  0.7818609E-02  0.8636178E-01
       -1   -1    0    0    0  501  0.00000000000E+00  0.00000000000E+00  0.20773810269E+04  0.20773810269E+04  0.50400001928E-02 0.  1.
        1   -1    0    0  501    0  0.00000000000E+00  0.00000000000E+00 -0.45198382776E+03  0.45198382779E+03  0.50400001928E-02 0. -1.
    10030    2    1    2    0    0  0.00000000000E+00  0.00000000000E+00  0.16253971992E+04  0.25293648547E+04  0.19379810405E+04 0.  0.
        3    1    3    3  502    0  0.39360851522E+03  0.81754249372E+03  0.36887075673E+03  0.97947385757E+03  0.10100000352E+00 0. -1.
       -3    1    3    3    0  502 -0.39360851522E+03 -0.81754249372E+03  0.12565264424E+04  0.15498909971E+04  0.10100000352E+00 0.  1.
</event>
<event>
 5   0  0.8681396E-05  0.1925753E+04  0.7818609E-02  0.8642143E-01
        1   -1    0    0  501    0  0.00000000000E+00  0.00000000000E+00  0.11462179166E+04  0.11462179166E+04  0.50400001928E-02 0. -1.
       -1   -1    0    0    0  501  0.00000000000E+00  0.00000000000E+00 -0.80886091753E+03  0.80886091755E+03  0.50400001928E-02 0.  1.
    10030    2    1    2    0    0  0.00000000000E+00  0.00000000000E+00  0.33735699902E+03  0.19550788341E+04  0.19257527107E+04 0.  0.
        3    1    3    3  502    0 -0.56779630210E+03 -0.22765983899E+03 -0.58622366948E+03  0.84727790236E+03  0.10100000352E+00 0.  1.
       -3    1    3    3    0  502  0.56779630210E+03  0.22765983899E+03  0.92358066850E+03  0.11078009318E+04  0.10100000352E+00 0. -1.
</event>
<event>
 5   0  0.1810569E-04  0.1887602E+04  0.7818609E-02  0.8661052E-01
        2   -1    0    0  501    0  0.00000000000E+00  0.00000000000E+00  0.13032202698E+04  0.13032202698E+04  0.25500000920E-02 0.  1.
       -2   -1    0    0    0  501  0.00000000000E+00  0.00000000000E+00 -0.68350735024E+03  0.68350735025E+03  0.25500000920E-02 0. -1.
    10030    2    1    2    0    0  0.00000000000E+00  0.00000000000E+00  0.61971291957E+03  0.19867276201E+04  0.18876023240E+04 0.  0.
        4    1    3    3  502    0 -0.33196291810E+03  0.21059971602E+03 -0.59322705731E+03  0.71166816270E+03  0.12699999809E+01 0. -1.
       -4    1    3    3    0  502  0.33196291810E+03 -0.21059971602E+03  0.12129399769E+04  0.12750594574E+04  0.12699999809E+01 0.  1.
</event>
<event>
 5   0  0.1799738E-04  0.1845364E+04  0.7818609E-02  0.8682540E-01
        2   -1    0    0  501    0  0.00000000000E+00  0.00000000000E+00  0.13156472743E+04  0.13156472743E+04  0.25500000920E-02 0. -1.
       -2   -1    0    0    0  501  0.00000000000E+00  0.00000000000E+00 -0.64709002296E+03  0.64709002296E+03  0.25500000920E-02 0.  1.
    10030    2    1    2    0    0  0.00000000000E+00  0.00000000000E+00  0.66855725130E+03  0.19627372972E+04  0.18453641645E+04 0.  0.
        1    1    3    3  502    0  0.33528239792E+03  0.37927646928E+03 -0.48619907850E+03  0.70189348940E+03  0.50400001928E-02 0.  1.
       -1    1    3    3    0  502 -0.33528239792E+03 -0.37927646928E+03  0.11547563298E+04  0.12608438078E+04  0.50400001928E-02 0. -1.
</event>
<event>
 5   0  0.6375750E-05  0.1846008E+04  0.7818609E-02  0.8682209E-01
       -4   -1    0    0    0  501  0.00000000000E+00  0.00000000000E+00  0.70947866862E+03  0.70947980530E+03  0.12699999809E+01 0.  1.
        4   -1    0    0  501    0  0.00000000000E+00  0.00000000000E+00 -0.12007890672E+04  0.12007897388E+04  0.12699999809E+01 0. -1.
    10030    2    1    2    0    0  0.00000000000E+00  0.00000000000E+00 -0.49131039863E+03  0.19102695441E+04  0.18460075361E+04 0.  0.
        1    1    3    3  502    0 -0.16030716938E+03 -0.90643987623E+03 -0.31587245323E+03  0.97319424808E+03  0.50400001928E-02 0.  1.
       -1    1    3    3    0  502  0.16030716938E+03  0.90643987623E+03 -0.17543794540E+03  0.93707529606E+03  0.50400001928E-02 0. -1.
</event>
<event>
 5   0  0.8567844E-05  0.1753705E+04  0.7818609E-02  0.8731313E-01
        1   -1    0    0  501    0  0.00000000000E+00  0.00000000000E+00  0.42440221687E+03  0.42440221690E+03  0.50400001928E-02 0.  1.
       -1   -1    0    0    0  501  0.00000000000E+00  0.00000000000E+00 -0.18116553997E+04  0.18116553997E+04  0.50400001928E-02 0. -1.
    10030    2    1    2    0    0  0.00000000000E+00  0.00000000000E+00 -0.13872531828E+04  0.22360576166E+04  0.17537052978E+04 0.  0.
        4    1    3    3  502    0 -0.87640154629E+03  0.70507747038E+01 -0.65895159894E+03  0.10965163959E+04  0.12699999809E+01 0. -1.
       -4    1    3    3    0  502  0.87640154629E+03 -0.70507747038E+01 -0.72830158388E+03  0.11395412207E+04  0.12699999809E+01 0.  1.
</event>
<event>
 5   0  0.8587082E-05  0.1910047E+04  0.7818609E-02  0.8649872E-01
       -1   -1    0    0    0  501  0.00000000000E+00  0.00000000000E+00  0.12693345532E+04  0.12693345532E+04  0.50400001928E-02 0. -1.
        1   -1    0    0  501    0  0.00000000000E+00  0.00000000000E+00 -0.71854148090E+03  0.71854148091E+03  0.50400001928E-02 0.  1.
    10030    2    1    2    0    0  0.00000000000E+00  0.00000000000E+00  0.55079307231E+03  0.19878760341E+04  0.19100466273E+04 0.  0.
        5    1    3    3  502    0 -0.66864936599E+03 -0.17499294697E+03  0.96129007101E+03  0.11839827688E+04  0.46999998093E+01 0. -1.
       -5    1    3    3    0  502  0.66864936599E+03  0.17499294697E+03 -0.41049699871E+03  0.80389326535E+03  0.46999998093E+01 0.  1.
</event>
<event>
 5   0  0.1658711E-04  0.1864604E+04  0.7818609E-02  0.8672679E-01
       -2   -1    0    0    0  501  0.00000000000E+00  0.00000000000E+00  0.47317088485E+03  0.47317088486E+03  0.25500000920E-02 0. -1.
        2   -1    0    0  501    0  0.00000000000E+00  0.00000000000E+00 -0.18369410244E+04  0.18369410244E+04  0.25500000920E-02 0.  1.
    10030    2    1    2    0    0  0.00000000000E+00  0.00000000000E+00 -0.13637701396E+04  0.23101119093E+04  0.18646039901E+04 0.  0.
        2    1    3    3  502    0 -0.13123255693E+03  0.13136811056E+02 -0.18253248652E+04  0.18300834471E+04  0.25500000920E-02 0.  1.
       -2    1    3    3    0  502  0.13123255693E+03 -0.13136811056E+02  0.46155472561E+03  0.48002846222E+03  0.25500000920E-02 0. -1.
</event>
<event>
 5   0  0.8567844E-05  0.1886592E+04  0.7818609E-02  0.8661559E-01
        1   -1    0    0  501    0  0.00000000000E+00  0.00000000000E+00  0.94619721650E+03  0.94619721651E+03  0.50400001928E-02 0.  1.
       -1   -1    0    0    0  501  0.00000000000E+00  0.00000000000E+00 -0.94040365555E+03  0.94040365556E+03  0.50400001928E-02 0. -1.
    10030    2    1    2    0    0  0.00000000000E+00  0.00000000000E+00  0.57935609448E+01  0.18866008721E+04  0.18865919763E+04 0.  0.
        4    1    3    3  502    0 -0.69981760537E+02  0.43116938352E+03  0.83896365354E+03  0.94586791306E+03  0.12699999809E+01 0.  1.
       -4    1    3    3    0  502  0.69981760537E+02 -0.43116938352E+03 -0.83317009259E+03  0.94073295902E+03  0.12699999809E+01 0. -1.
</event>
<event>
 5   0  0.1790832E-04  0.1900340E+04  0.7818609E-02  0.8654687E-01
        2   -1    0    0  501    0  0.00000000000E+00  0.00000000000E+00  0.13043890343E+04  0.13043890343E+04  0.25500000920E-02 0.  1.
       -2   -1    0    0    0  501  0.00000000000E+00  0.00000000000E+00 -0.69214243186E+03  0.69214243187E+03  0.25500000920E-02 0. -1.
    10030    2    1    2    0    0  0.00000000000E+00  0.00000000000E+00  0.61224660244E+03  0.19965314662E+04  0.19003399678E+04 0.  0.
        5    1    3    3  502    0 -0.18142566795E+03  0.30082289989E+03 -0.62139526309E+03  0.71383741361E+03  0.46999998093E+01 0. -1.
       -5    1    3    3    0  502  0.18142566795E+03 -0.30082289989E+03  0.12336418655E+04  0.12826940526E+04  0.46999998093E+01 0.  1.
</event>
<event>
 5   0  0.8587082E-05  0.1902893E+04  0.7818609E-02  0.8653418E-01
        1   -1    0    0  501    0  0.00000000000E+00  0.00000000000E+00  0.10975939620E+04  0.10975939620E+04  0.50400001928E-02 0.  1.
       -1   -1    0    0    0  501  0.00000000000E+00  0.00000000000E+00 -0.82475913688E+03  0.82475913689E+03  0.50400001928E-02 0. -1.
    10030    2    1    2    0    0  0.00000000000E+00  0.00000000000E+00  0.27283482515E+03  0.19223530989E+04  0.19028932170E+04 0.  0.
        5    1    3    3  502    0 -0.70366633093E+03  0.40209210634E+03  0.63991593913E+03  0.10326368512E+04  0.46999998093E+01 0.  1.
       -5    1    3    3    0  502  0.70366633093E+03 -0.40209210634E+03 -0.36708111398E+03  0.88971624775E+03  0.46999998093E+01 0. -1.
</event>
<event>
 5   0  0.8905646E-05  0.1897429E+04  0.7818609E-02  0.8656137E-01
       -1   -1    0    0    0  501  0.00000000000E+00  0.00000000000E+00  0.12694461593E+04  0.12694461593E+04  0.50400001928E-02 0. -1.
        1   -1    0    0  501    0  0.00000000000E+00  0.00000000000E+00 -0.70901698991E+03  0.70901698993E+03  0.50400001928E-02 0.  1.
    10030    2    1    2    0    0  0.00000000000E+00  0.00000000000E+00  0.56042916934E+03  0.19784631492E+04  0.18974286756E+04 0.  0.
        1    1    3    3  502    0 -0.62942728735E+03 -0.34299277685E+03 -0.36780623579E+03  0.80567002063E+03  0.50400001928E-02 0.  1.
       -1    1    3    3    0  502  0.62942728735E+03  0.34299277685E+03  0.92823540513E+03  0.11727931286E+04  0.50400001928E-02 0. -1.
</event>
<event>
 5   0  0.1658711E-04  0.1940895E+04  0.7818609E-02  0.8634764E-01
       -2   -1    0    0    0  501  0.00000000000E+00  0.00000000000E+00  0.73139802923E+03  0.73139802924E+03  0.25500000920E-02 0.  1.
        2   -1    0    0  501    0  0.00000000000E+00  0.00000000000E+00 -0.12876276725E+04  0.12876276725E+04  0.25500000920E-02 0. -1.
    10030    2    1    2    0    0  0.00000000000E+00  0.00000000000E+00 -0.55622964329E+03  0.20190257018E+04  0.19408949916E+04 0.  0.
        2    1    3    3  502    0 -0.69317087826E+03  0.34003142932E+03 -0.88971142335E+03  0.11780040986E+04  0.25500000920E-02 0. -1.
       -2    1    3    3    0  502  0.69317087826E+03 -0.34003142932E+03  0.33348178006E+03  0.84102160319E+03  0.25500000920E-02 0.  1.
</event>
<event>
 5   0  0.8587082E-05  0.1889359E+04  0.7818609E-02  0.8660171E-01
       -1   -1    0    0    0  501  0.00000000000E+00  0.00000000000E+00  0.63619398671E+03  0.63619398673E+03  0.50400001928E-02 0.  1.
        1   -1    0    0  501    0  0.00000000000E+00  0.00000000000E+00 -0.14027476939E+04  0.14027476940E+04  0.50400001928E-02 0. -1.
    10030    2    1    2    0    0  0.00000000000E+00  0.00000000000E+00 -0.76655370724E+03  0.20389416807E+04  0.18893593071E+04 0.  0.
        5    1    3    3  502    0  0.41760561817E+03  0.21100251738E+03 -0.12689081079E+04  0.13524298100E+04  0.46999998093E+01 0. -1.
       -5    1    3    3    0  502 -0.41760561817E+03 -0.21100251738E+03  0.50235440069E+03  0.68651187066E+03  0.46999998093E+01 0.  1.
</event>
<event>
 5   0  0.1799738E-04  0.1901186E+04  0.7818609E-02  0.8654266E-01
       -2   -1    0    0    0  501  0.00000000000E+00  0.00000000000E+00  0.62286651049E+03  0.62286651049E+03  0.25500000920E-02 0.  1.
        2   -1    0    0  501    0  0.00000000000E+00  0.00000000000E+00 -0.14507556824E+04  0.14507556825E+04  0.25500000920E-02 0. -1.
    10030    2    1    2    0    0  0.00000000000E+00  0.00000000000E+00 -0.82788917196E+03  0.20736221929E+04  0.19011860819E+04 0.  0.
        1    1    3    3  502    0  0.75266807274E+03  0.58017771669E+03 -0.38927165745E+03  0.10269604832E+04  0.50400001928E-02 0.  1.
       -1    1    3    3    0  502 -0.75266807274E+03 -0.58017771669E+03 -0.43861751451E+03  0.10466617098E+04  0.50400001928E-02 0. -1.
</event>
<event>
 5   0  0.8905646E-05  0.1895103E+04  0.7818609E-02  0.8657298E-01
       -1   -1    0    0    0  501  0.00000000000E+00  0.00000000000E+00  0.12006276258E+04  0.12006276258E+04  0.50400001928E-02 0.  1.
        1   -1    0    0  501    0  0.00000000000E+00  0.00000000000E+00 -0.74782041617E+03  0.74782041619E+03  0.50400001928E-02 0. -1.
    10030    2    1    2    0    0  0.00000000000E+00  0.00000000000E+00  0.45280720967E+03  0.19484480420E+04  0.18951030060E+04 0.  0.
        1    1    3    3  502    0 -0.15976535469E+03 -0.83812526191E+03 -0.19735706957E+03  0.87574467520E+03  0.50400001928E-02 0. -1.
       -1    1    3    3    0  502  0.15976535469E+03  0.83812526191E+03  0.65016427924E+03  0.10727033668E+04  0.50400001928E-02 0.  1.
</event>
<event>
 5   0  0.8602017E-05  0.1884264E+04  0.7818609E-02  0.8662729E-01
        1   -1    0    0  501    0  0.00000000000E+00  0.00000000000E+00  0.11537249019E+04  0.11537249019E+04  0.50400001928E-02 0. -1.
       -1   -1    0    0    0  501  0.00000000000E+00  0.00000000000E+00 -0.76934514309E+03  0.76934514311E+03  0.50400001928E-02 0.  1.
    10030    2    1    2    0    0  0.00000000000E+00  0.00000000000E+00  0.38437975883E+03  0.19230700450E+04  0.18842639409E+04 0.  0.
        2    1    3    3  502    0  0.45001444915E+03 -0.34041068806E+03  0.96219483653E+03  0.11154422192E+04  0.25500000920E-02 0. -1.
       -2    1    3    3    0  502 -0.45001444915E+03  0.34041068806E+03 -0.57781507771E+03  0.80762782581E+03  0.25500000920E-02 0.  1.
</event>
<event>
 5   0  0.1810569E-04  0.1884552E+04  0.7818609E-02  0.8662584E-01
        2   -1    0    0  501    0  0.00000000000E+00  0.00000000000E+00  0.81351705774E+03  0.81351705774E+03  0.25500000920E-02 0. -1.
       -2   -1    0    0    0  501  0.00000000000E+00  0.00000000000E+00 -0.10914140009E+04  0.10914140009E+04  0.25500000920E-02 0.  1.
    10030    2    1    2    0    0  0.00000000000E+00  0.00000000000E+00 -0.27789694314E+03  0.19049310586E+04  0.18845518372E+04 0.  0.
        4    1    3    3  502    0  0.89887209325E+02  0.37794653699E+03 -0.10066949064E+04  0.10790549303E+04  0.12699999809E+01 0.  1.
       -4    1    3    3    0  502 -0.89887209325E+02 -0.37794653699E+03  0.72879796322E+03  0.82587612832E+03  0.12699999809E+01 0. -1.
</event>
<event>
 5   0  0.1658711E-04  0.1900659E+04  0.7818609E-02  0.8654528E-01
       -2   -1    0    0    0  501  0.00000000000E+00  0.00000000000E+00  0.50464191227E+03  0.50464191228E+03  0.25500000920E-02 0. -1.
        2   -1    0    0  501    0  0.00000000000E+00  0.00000000000E+00 -0.17896379585E+04  0.17896379585E+04  0.25500000920E-02 0.  1.
    10030    2    1    2    0    0  0.00000000000E+00  0.00000000000E+00 -0.12849960462E+04  0.22942798708E+04  0.19006591716E+04 0.  0.
        2    1    3    3  502    0  0.85333583361E+03  0.26603412258E+03 -0.10320933476E+04  0.13653471637E+04  0.25500000920E-02 0.  1.
       -2    1    3    3    0  502 -0.85333583361E+03 -0.26603412258E+03 -0.25290269865E+03  0.92893270708E+03  0.25500000920E-02 0. -1.
</event>
<event>
 5   0  0.1810569E-04  0.1942375E+04  0.7818609E-02  0.8634046E-01
       -2   -1    0    0    0  501  0.00000000000E+00  0.00000000000E+00  0.10274952066E+04  0.10274952066E+04  0.25500000920E-02 0.  1.
        2   -1    0    0  501    0  0.00000000000E+00  0.00000000000E+00 -0.91796548657E+03  0.91796548658E+03  0.25500000920E-02 0. -1.
    10030    2    1    2    0    0  0.00000000000E+00  0.00000000000E+00  0.10952972000E+03  0.19454606932E+04  0.19423749764E+04 0.  0.
        4    1    3    3  502    0  0.52731364570E+03 -0.74960883746E+03  0.37657021243E+03  0.99084803473E+03  0.12699999809E+01 0.  1.
       -4    1    3    3    0  502 -0.52731364570E+03  0.74960883746E+03 -0.26704049243E+03  0.95461265843E+03  0.12699999809E+01 0. -1.
</event>
<event>
 5   0  0.8602017E-05  0.1911490E+04  0.7818609E-02  0.8649158E-01
        1   -1    0    0  501    0  0.00000000000E+00  0.00000000000E+00  0.17615160868E+04  0.17615160868E+04  0.50400001928E-02 0.  1.
       -1   -1    0    0    0  501  0.00000000000E+00  0.00000000000E+00 -0.51855832697E+03  0.51855832699E+03  0.50400001928E-02 0. -1.
    10030    2    1    2    0    0  0.00000000000E+00  0.00000000000E+00  0.12429577598E+04  0.22800744138E+04  0.19114903452E+04 0.  0.
        2    1    3    3  502    0  0.23717586501E+03  0.46317840317E+03 -0.33476417558E+03  0.61875170898E+03  0.25500000920E-02 0. -1.
       -2    1    3    3    0  502 -0.23717586501E+03 -0.46317840317E+03  0.15777219354E+04  0.16613227048E+04  0.25500000920E-02 0.  1.
</event>
<event>
 5   0  0.1799738E-04  0.1909739E+04  0.7818609E-02  0.8650024E-01
        2   -1    0    0  501    0  0.00000000000E+00  0.00000000000E+00  0.10077995682E+04  0.10077995682E+04  0.25500000920E-02 0.  1.
       -2   -1    0    0    0  501  0.00000000000E+00  0.00000000000E+00 -0.90471928400E+03  0.90471928401E+03  0.25500000920E-02 0. -1.
    10030    2    1    2    0    0  0.00000000000E+00  0.00000000000E+00  0.10308028422E+03  0.19125188522E+04  0.19097389390E+04 0.  0.
        1    1    3    3  502    0 -0.73044784020E+03 -0.39160720729E+03 -0.42334992872E+03  0.93066396418E+03  0.50400001928E-02 0. -1.
       -1    1    3    3    0  502  0.73044784020E+03  0.39160720729E+03  0.52643021293E+03  0.98185488804E+03  0.50400001928E-02 0.  1.
</event>
<event>
 5   0  0.8567844E-05  0.1902920E+04  0.7818609E-02  0.8653404E-01
        1   -1    0    0  501    0  0.00000000000E+00  0.00000000000E+00  0.76867433115E+03  0.76867433117E+03  0.50400001928E-02 0. -1.
       -1   -1    0    0    0  501  0.00000000000E+00  0.00000000000E+00 -0.11777105899E+04  0.11777105899E+04  0.50400001928E-02 0.  1.
    10030    2    1    2    0    0  0.00000000000E+00  0.00000000000E+00 -0.40903625876E+03  0.19463849211E+04  0.19029197566E+04 0.  0.
        4    1    3    3  502    0  0.53706095893E+03 -0.72823623895E+03 -0.50536528850E+03  0.10364160270E+04  0.12699999809E+01 0.  1.
       -4    1    3    3    0  502 -0.53706095893E+03  0.72823623895E+03  0.96329029741E+02  0.90996889408E+03  0.12699999809E+01 0. -1.
</event>
<event>
 5   0  0.8602017E-05  0.1913715E+04  0.7818609E-02  0.8648059E-01
        1   -1    0    0  501    0  0.00000000000E+00  0.00000000000E+00  0.11477390474E+04  0.11477390475E+04  0.50400001928E-02 0. -1.
       -1   -1    0    0    0  501  0.00000000000E+00  0.00000000000E+00 -0.79772170724E+03  0.79772170725E+03  0.50400001928E-02 0.  1.
    10030    2    1    2    0    0  0.00000000000E+00  0.00000000000E+00  0.35001734021E+03  0.19454607547E+04  0.19137150806E+04 0.  0.
        2    1    3    3  502    0 -0.30673497053E+03 -0.90626259765E+03  0.18857600912E+03  0.97517134354E+03  0.25500000920E-02 0. -1.
       -2    1    3    3    0  502  0.30673497053E+03  0.90626259765E+03  0.16144133109E+03  0.97028941117E+03  0.25500000920E-02 0.  1.
</event>
<event>
 5   0  0.8905646E-05  0.1901606E+04  0.7818609E-02  0.8654058E-01
        1   -1    0    0  501    0  0.00000000000E+00  0.00000000000E+00  0.16613145986E+04  0.16613145986E+04  0.50400001928E-02 0. -1.
       -1   -1    0    0    0  501  0.00000000000E+00  0.00000000000E+00 -0.54416304578E+03  0.54416304580E+03  0.50400001928E-02 0.  1.
    10030    2    1    2    0    0  0.00000000000E+00  0.00000000000E+00  0.11171515528E+04  0.22054776444E+04  0.19016056500E+04 0.  0.
        1    1    3    3  502    0  0.20626695291E+03 -0.57263501740E+02  0.16330021751E+04  0.16469733660E+04  0.50400001928E-02 0. -1.
       -1    1    3    3    0  502 -0.20626695291E+03  0.57263501740E+02 -0.51585062225E+03  0.55850427841E+03  0.50400001928E-02 0.  1.
</event>
<event>
 5   0  0.1799738E-04  0.1662485E+04  0.7818609E-02  0.8783054E-01
        2   -1    0    0  501    0  0.00000000000E+00  0.00000000000E+00  0.13011981523E+04  0.13011981523E+04  0.25500000920E-02 0.  1.
       -2   -1    0    0    0  501  0.00000000000E+00  0.00000000000E+00 -0.53102163522E+03  0.53102163523E+03  0.25500000920E-02 0. -1.
    10030    2    1    2    0    0  0.00000000000E+00  0.00000000000E+00  0.77017651705E+03  0.18322197875E+04  0.16624853330E+04 0.  0.
        1    1    3    3  502    0 -0.18771725515E+03  0.50369625182E+03 -0.31369386725E+03  0.62237570996E+03  0.50400001928E-02 0. -1.
       -1    1    3    3    0  502  0.18771725515E+03 -0.50369625182E+03  0.10838703843E+04  0.12098440775E+04  0.50400001928E-02 0.  1.
</event>
<event>
 5   0  0.8681396E-05  0.1841922E+04  0.7818609E-02  0.8684318E-01
       -1   -1    0    0    0  501  0.00000000000E+00  0.00000000000E+00  0.73594854442E+03  0.73594854444E+03  0.50400001928E-02 0.  1.
        1   -1    0    0  501    0  0.00000000000E+00  0.00000000000E+00 -0.11524848822E+04  0.11524848822E+04  0.50400001928E-02 0. -1.
    10030    2    1    2    0    0  0.00000000000E+00  0.00000000000E+00 -0.41653633781E+03  0.18884334267E+04  0.18419224431E+04 0.  0.
        3    1    3    3  502    0  0.56728648070E+03 -0.66616092977E+03  0.86364920682E+02  0.87922877868E+03  0.10100000352E+00 0.  1.
       -3    1    3    3    0  502 -0.56728648070E+03  0.66616092977E+03 -0.50290125849E+03  0.10092046480E+04  0.10100000352E+00 0. -1.
</event>
<event>
 5   0  0.8587082E-05  0.1875546E+04  0.7818609E-02  0.8667125E-01
       -1   -1    0    0    0  501  0.00000000000E+00  0.00000000000E+00  0.11741040988E+04  0.11741040988E+04  0.50400001928E-02 0.  1.
        1   -1    0    0  501    0  0.00000000000E+00  0.00000000000E+00 -0.74901190017E+03  0.74901190018E+03  0.50400001928E-02 0. -1.
    10030    2    1    2    0    0  0.00000000000E+00  0.00000000000E+00  0.42509219861E+03  0.19231159990E+04  0.18755457254E+04 0.  0.
        5    1    3    3  502    0 -0.36613201514E+03  0.65329128795E+03  0.79126697175E+03  0.10894804588E+04  0.46999998093E+01 0.  1.
       -5    1    3    3    0  502  0.36613201514E+03 -0.65329128795E+03 -0.36617477314E+03  0.83363554022E+03  0.46999998093E+01 0. -1.
</event>
<event>
 5   0  0.8681396E-05  0.1893671E+04  0.7818609E-02  0.8658013E-01
        1   -1    0    0  501    0  0.00000000000E+00  0.00000000000E+00  0.11786100897E+04  0.11786100897E+04  0.50400001928E-02 0. -1.
       -1   -1    0    0    0  501  0.00000000000E+00  0.00000000000E+00 -0.76063968763E+03  0.76063968765E+03  0.50400001928E-02 0.  1.
    10030    2    1    2    0    0  0.00000000000E+00  0.00000000000E+00  0.41797040205E+03  0.19392497773E+04  0.18936711546E+04 0.  0.
        3    1    3    3  502    0  0.73432571668E+03 -0.27904130338E+01  0.82107998980E+03  0.11015509087E+04  0.10100000352E+00 0. -1.
       -3    1    3    3    0  502 -0.73432571668E+03  0.27904130338E+01 -0.40310958775E+03  0.83769886864E+03  0.10100000352E+00 0.  1.
</event>
<event>
 5   0  0.1658711E-04  0.1898823E+04  0.7818609E-02  0.8655443E-01
       -2   -1    0    0    0  501  0.00000000000E+00  0.00000000000E+00  0.71037452313E+03  0.71037452313E+03  0.25500000920E-02 0. -1.
        2   -1    0    0  501    0  0.00000000000E+00  0.00000000000E+00 -0.12688825128E+04  0.12688825128E+04  0.25500000920E-02 0.  1.
    10030    2    1    2    0    0  0.00000000000E+00  0.00000000000E+00 -0.55850798968E+03  0.19792570359E+04  0.18988225930E+04 0.  0.
        2    1    3    3  502    0  0.53568407283E+03  0.78075128475E+03 -0.35185956534E+03  0.10101164033E+04  0.25500000920E-02 0. -1.
       -2    1    3    3    0  502 -0.53568407283E+03 -0.78075128475E+03 -0.20664842434E+03  0.96914063263E+03  0.25500000920E-02 0.  1.
</event>
<event>
 5   0  0.1658711E-04  0.1894907E+04  0.7818609E-02  0.8657395E-01
       -2   -1    0    0    0  501  0.00000000000E+00  0.00000000000E+00  0.72020515404E+03  0.72020515404E+03  0.25500000920E-02 0.  1.
        2   -1    0    0  501    0  0.00000000000E+00  0.00000000000E+00 -0.12464065799E+04  0.12464065799E+04  0.25500000920E-02 0. -1.
    10030    2    1    2    0    0  0.00000000000E+00  0.00000000000E+00 -0.52620142589E+03  0.19666117340E+04  0.18949073253E+04 0.  0.
        2    1    3    3  502    0  0.35751569861E+03  0.32321642629E+02  0.64689450981E+03  0.73982070136E+03  0.25500000920E-02 0.  1.
       -2    1    3    3    0  502 -0.35751569861E+03 -0.32321642629E+02 -0.11730959357E+04  0.12267910326E+04  0.25500000920E-02 0. -1.
</event>
<event>
 5   0  0.1810569E-04  0.1906733E+04  0.7818609E-02  0.8651512E-01
        2   -1    0    0  501    0  0.00000000000E+00  0.00000000000E+00  0.11194417099E+04  0.11194417099E+04  0.25500000920E-02 0.  1.
       -2   -1    0    0    0  501  0.00000000000E+00  0.00000000000E+00 -0.81192911389E+03  0.81192911389E+03  0.25500000920E-02 0. -1.
    10030    2    1    2    0    0  0.00000000000E+00  0.00000000000E+00  0.30751259602E+03  0.19313708238E+04  0.19067326143E+04 0.  0.
        4    1    3    3  502    0 -0.71506292511E+03  0.43732415925E+03  0.61387066123E+03  0.10389447573E+04  0.12699999809E+01 0.  1.
       -4    1    3    3    0  502  0.71506292511E+03 -0.43732415925E+03 -0.30635806521E+03  0.89242606649E+03  0.12699999809E+01 0. -1.
</event>
<event>
 5   0  0.6375750E-05  0.1770012E+04  0.7818609E-02  0.8722411E-01
       -3   -1    0    0    0  501  0.00000000000E+00  0.00000000000E+00  0.12747833570E+04  0.12747833610E+04  0.10100000352E+00 0. -1.
        3   -1    0    0  501    0  0.00000000000E+00  0.00000000000E+00 -0.61440677929E+03  0.61440678759E+03  0.10100000352E+00 0.  1.
    10030    2    1    2    0    0  0.00000000000E+00  0.00000000000E+00  0.66037657772E+03  0.18891901486E+04  0.17700119189E+04 0.  0.
        4    1    3    3  502    0 -0.15435880726E+03  0.24654485123E+03  0.12223034075E+04  0.12564387124E+04  0.12699999809E+01 0. -1.
       -4    1    3    3    0  502  0.15435880726E+03 -0.24654485123E+03 -0.56192682982E+03  0.63275143620E+03  0.12699999809E+01 0.  1.
</event>
<event>
 5   0  0.8681396E-05  0.1886384E+04  0.7818609E-02  0.8661664E-01
        1   -1    0    0  501    0  0.00000000000E+00  0.00000000000E+00  0.26453789857E+04  0.26453789857E+04  0.50400001928E-02 0. -1.
       -1   -1    0    0    0  501  0.00000000000E+00  0.00000000000E+00 -0.33628869612E+03  0.33628869616E+03  0.50400001928E-02 0.  1.
    10030    2    1    2    0    0  0.00000000000E+00  0.00000000000E+00  0.23090902896E+04  0.29816676818E+04  0.18863838951E+04 0.  0.
        3    1    3    3  502    0  0.92840556376E+03 -0.15477015804E+03  0.12509548792E+04  0.15654963470E+04  0.10100000352E+00 0.  1.
       -3    1    3    3    0  502 -0.92840556376E+03  0.15477015804E+03  0.10581354104E+04  0.14161713348E+04  0.10100000352E+00 0. -1.
</event>
<event>
 5   0  0.8567844E-05  0.1900408E+04  0.7818609E-02  0.8654653E-01
        1   -1    0    0  501    0  0.00000000000E+00  0.00000000000E+00  0.27403066927E+04  0.27403066927E+04  0.50400001928E-02 0.  1.
       -1   -1    0    0    0  501  0.00000000000E+00  0.00000000000E+00 -0.32948408847E+03  0.32948408850E+03  0.50400001928E-02 0. -1.
    10030    2    1    2    0    0  0.00000000000E+00  0.00000000000E+00  0.24108226042E+04  0.30697907812E+04  0.19004078013E+04 0.  0.
        4    1    3    3  502    0  0.81983995183E+03 -0.39512270925E+03  0.76413760816E+03  0.11883464979E+04  0.12699999809E+01 0. -1.
       -4    1    3    3    0  502 -0.81983995183E+03  0.39512270925E+03  0.16466849960E+04  0.18814442833E+04  0.12699999809E+01 0.  1.
</event>
<event>
 5   0  0.1790832E-04  0.1908576E+04  0.7818609E-02  0.8650599E-01
        2   -1    0    0  501    0  0.00000000000E+00  0.00000000000E+00  0.15385571873E+04  0.15385571873E+04  0.25500000920E-02 0.  1.
       -2   -1    0    0    0  501  0.00000000000E+00  0.00000000000E+00 -0.59189594813E+03  0.59189594813E+03  0.25500000920E-02 0. -1.
    10030    2    1    2    0    0  0.00000000000E+00  0.00000000000E+00  0.94666123914E+03  0.21304531354E+04  0.19085761867E+04 0.  0.
        5    1    3    3  502    0  0.32976579347E+02 -0.32021267611E+03  0.14761082795E+04  0.15108081796E+04  0.46999998093E+01 0.  1.
       -5    1    3    3    0  502 -0.32976579347E+02  0.32021267611E+03 -0.52944704036E+03  0.61964495581E+03  0.46999998093E+01 0. -1.
</event>
<event>
 5   0  0.8587082E-05  0.1874176E+04  0.7818609E-02  0.8667819E-01
       -1   -1    0    0    0  501  0.00000000000E+00  0.00000000000E+00  0.94426339960E+03  0.94426339962E+03  0.50400001928E-02 0. -1.
        1   -1    0    0  501    0  0.00000000000E+00  0.00000000000E+00 -0.92996697760E+03  0.92996697761E+03  0.50400001928E-02 0.  1.
    10030    2    1    2    0    0  0.00000000000E+00  0.00000000000E+00  0.14296422002E+02  0.18742303772E+04  0.18741758507E+04 0.  0.
        5    1    3    3  502    0 -0.22750159797E+03  0.45739583318E+03 -0.77845962688E+03  0.93112265893E+03  0.46999998093E+01 0.  1.
       -5    1    3    3    0  502  0.22750159797E+03 -0.45739583318E+03  0.79275604888E+03  0.94310771830E+03  0.46999998093E+01 0. -1.
</event>
<event>
 5   0  0.8602017E-05  0.1891471E+04  0.7818609E-02  0.8659114E-01
       -1   -1    0    0    0  501  0.00000000000E+00  0.00000000000E+00  0.15811552925E+04  0.15811552925E+04  0.50400001928E-02 0. -1.
        1   -1    0    0  501    0  0.00000000000E+00  0.00000000000E+00 -0.56567214721E+03  0.56567214723E+03  0.50400001928E-02 0.  1.
    10030    2    1    2    0    0  0.00000000000E+00  0.00000000000E+00  0.10154831453E+04  0.21468274397E+04  0.18914708662E+04 0.  0.
        2    1    3    3  502    0 -0.44739180814E+03 -0.31359608779E+03  0.13839130678E+04  0.14878566179E+04  0.25500000920E-02 0. -1.
       -2    1    3    3    0  502  0.44739180814E+03  0.31359608779E+03 -0.36842992248E+03  0.65897082185E+03  0.25500000920E-02 0.  1.
</event>
<event>
 5   0  0.1765328E-04  0.1862708E+04  0.7818609E-02  0.8673645E-01
        2   -1    0    0  501    0  0.00000000000E+00  0.00000000000E+00  0.17999364214E+04  0.17999364214E+04  0.25500000920E-02 0. -1.
       -2   -1    0    0    0  501  0.00000000000E+00  0.00000000000E+00 -0.48191707144E+03  0.48191707145E+03  0.25500000920E-02 0.  1.
    10030    2    1    2    0    0  0.00000000000E+00  0.00000000000E+00  0.13180193499E+04  0.22818534928E+04  0.18627078021E+04 0.  0.
        3    1    3    3  502    0  0.85754007979E+03  0.23822286913E+03  0.32286521176E+03  0.94676664443E+03  0.10100000352E+00 0.  1.
       -3    1    3    3    0  502 -0.85754007979E+03 -0.23822286913E+03  0.99515413814E+03  0.13350868484E+04  0.10100000352E+00 0. -1.
</event>
<event>
 5   0  0.8681396E-05  0.1866815E+04  0.7818609E-02  0.8671553E-01
       -1   -1    0    0    0  501  0.00000000000E+00  0.00000000000E+00  0.61684660851E+03  0.61684660853E+03  0.50400001928E-02 0. -1.
        1   -1    0    0  501    0  0.00000000000E+00  0.00000000000E+00 -0.14124251004E+04  0.14124251004E+04  0.50400001928E-02 0.  1.
    10030    2    1    2    0    0  0.00000000000E+00  0.00000000000E+00 -0.79557849187E+03  0.20292717089E+04  0.18668150770E+04 0.  0.
        3    1    3    3  502    0 -0.37738733938E+03  0.61815093123E+03  0.24228005546E+03  0.76369589050E+03  0.10100000352E+00 0. -1.
       -3    1    3    3    0  502  0.37738733938E+03 -0.61815093123E+03 -0.10378585473E+04  0.12655758184E+04  0.10100000352E+00 0.  1.
</event>
<event>
 5   0  0.8681396E-05  0.1904313E+04  0.7818609E-02  0.8652712E-01
        1   -1    0    0  501    0  0.00000000000E+00  0.00000000000E+00  0.68644427888E+03  0.68644427890E+03  0.50400001928E-02 0. -1.
       -1   -1    0    0    0  501  0.00000000000E+00  0.00000000000E+00 -0.13207219672E+04  0.13207219672E+04  0.50400001928E-02 0.  1.
    10030    2    1    2    0    0  0.00000000000E+00  0.00000000000E+00 -0.63427768829E+03  0.20071662461E+04  0.19043130398E+04 0.  0.
        3    1    3    3  502    0 -0.27956914297E+03  0.22496402591E+03  0.61244496632E+03  0.70982854664E+03  0.10100000352E+00 0. -1.
       -3    1    3    3    0  502  0.27956914297E+03 -0.22496402591E+03 -0.12467226546E+04  0.12973376994E+04  0.10100000352E+00 0.  1.
</event>
<event>
 5   0  0.8681396E-05  0.1895560E+04  0.7818609E-02  0.8657070E-01
        1   -1    0    0  501    0  0.00000000000E+00  0.00000000000E+00  0.11166012936E+04  0.11166012936E+04  0.50400001928E-02 0. -1.
       -1   -1    0    0    0  501  0.00000000000E+00  0.00000000000E+00 -0.80448312179E+03  0.80448312181E+03  0.50400001928E-02 0.  1.
    10030    2    1    2    0    0  0.00000000000E+00  0.00000000000E+00  0.31211817177E+03  0.19210844154E+04  0.18955599642E+04 0.  0.
        3    1    3    3  502    0 -0.21609143034E+03  0.88064216413E+03  0.43556386778E+03  0.10059532895E+04  0.10100000352E+00 0.  1.
       -3    1    3    3    0  502  0.21609143034E+03 -0.88064216413E+03 -0.12344569601E+03  0.91513112590E+03  0.10100000352E+00 0. -1.
</event>
<event>
 5   0  0.6375750E-05  0.1898493E+04  0.7818609E-02  0.8655607E-01
        4   -1    0    0  501    0  0.00000000000E+00  0.00000000000E+00  0.71105069647E+03  0.71105183063E+03  0.12699999809E+01 0.  1.
       -4   -1    0    0    0  501  0.00000000000E+00  0.00000000000E+00 -0.12672330601E+04  0.12672336964E+04  0.12699999809E+01 0. -1.
    10030    2    1    2    0    0  0.00000000000E+00  0.00000000000E+00 -0.55618236359E+03  0.19782855271E+04  0.18984927719E+04 0.  0.
        1    1    3    3  502    0 -0.77351832886E+03 -0.42545903809E+03  0.85460216840E+02  0.88693260560E+03  0.50400001928E-02 0.  1.
       -1    1    3    3    0  502  0.77351832886E+03  0.42545903809E+03 -0.64164258043E+03  0.10913529215E+04  0.50400001928E-02 0. -1.
</event>
<event>
 5   0  0.8567844E-05  0.1865050E+04  0.7818609E-02  0.8672451E-01
       -1   -1    0    0    0  501  0.00000000000E+00  0.00000000000E+00  0.10204497875E+04  0.10204497875E+04  0.50400001928E-02 0.  1.
        1   -1    0    0  501    0  0.00000000000E+00  0.00000000000E+00 -0.85217609733E+03  0.85217609735E+03  0.50400001928E-02 0. -1.
    10030    2    1    2    0    0  0.00000000000E+00  0.00000000000E+00  0.16827369013E+03  0.18726258848E+04  0.18650500448E+04 0.  0.
        4    1    3    3  502    0  0.21561134518E+01 -0.29034996202E+03 -0.80563067682E+03  0.85635865710E+03  0.12699999809E+01 0. -1.
       -4    1    3    3    0  502 -0.21561134518E+01  0.29034996202E+03  0.97390436695E+03  0.10162672277E+04  0.12699999809E+01 0.  1.
</event>
<event>
 5   0  0.8567844E-05  0.1910585E+04  0.7818609E-02  0.8649605E-01
        1   -1    0    0  501    0  0.00000000000E+00  0.00000000000E+00  0.95774527921E+03  0.95774527922E+03  0.50400001928E-02 0. -1.
       -1   -1    0    0    0  501  0.00000000000E+00  0.00000000000E+00 -0.95284646307E+03  0.95284646308E+03  0.50400001928E-02 0.  1.
    10030    2    1    2    0    0  0.00000000000E+00  0.00000000000E+00  0.48988161435E+01  0.19105917423E+04  0.19105854619E+04 0.  0.
        4    1    3    3  502    0 -0.33479677921E+03  0.74463941771E+03 -0.49354198347E+03  0.95402413393E+03  0.12699999809E+01 0.  1.
       -4    1    3    3    0  502  0.33479677921E+03 -0.74463941771E+03  0.49844079961E+03  0.95656760838E+03  0.12699999809E+01 0. -1.
</event>
<event>
 5   0  0.1765328E-04  0.1901959E+04  0.7818609E-02  0.8653882E-01
        2   -1    0    0  501    0  0.00000000000E+00  0.00000000000E+00  0.53829346756E+03  0.53829346756E+03  0.25500000920E-02 0.  1.
       -2   -1    0    0    0  501  0.00000000000E+00  0.00000000000E+00 -0.16800532568E+04  0.16800532568E+04  0.25500000920E-02 0. -1.
    10030    2    1    2    0    0  0.00000000000E+00  0.00000000000E+00 -0.11417597892E+04  0.22183467243E+04  0.19019586676E+04 0.  0.
        3    1    3    3  502    0  0.80333722391E+03 -0.28379539028E+03 -0.10636137237E+04  0.13627782954E+04  0.10100000352E+00 0. -1.
       -3    1    3    3    0  502 -0.80333722391E+03  0.28379539028E+03 -0.78146065470E+02  0.85556842894E+03  0.10100000352E+00 0.  1.
</event>
<event>
 5   0  0.1810569E-04  0.1934591E+04  0.7818609E-02  0.8637827E-01
        2   -1    0    0  501    0  0.00000000000E+00  0.00000000000E+00  0.13518209760E+04  0.13518209760E+04  0.25500000920E-02 0. -1.
       -2   -1    0    0    0  501  0.00000000000E+00  0.00000000000E+00 -0.69214795808E+03  0.69214795808E+03  0.25500000920E-02 0.  1.
    10030    2    1    2    0    0  0.00000000000E+00  0.00000000000E+00  0.65967301792E+03  0.20439689341E+04  0.19345905285E+04 0.  0.
        4    1    3    3  502    0 -0.25433793967E+03 -0.14961514404E+03  0.13031061441E+04  0.13360986920E+04  0.12699999809E+01 0. -1.
       -4    1    3    3    0  502  0.25433793967E+03  0.14961514404E+03 -0.64343312621E+03  0.70787024213E+03  0.12699999809E+01 0.  1.
</event>
<event>
 5   0  0.1810569E-04  0.1797040E+04  0.7818609E-02  0.8707875E-01
        2   -1    0    0  501    0  0.00000000000E+00  0.00000000000E+00  0.17336105367E+04  0.17336105367E+04  0.25500000920E-02 0.  1.
       -2   -1    0    0    0  501  0.00000000000E+00  0.00000000000E+00 -0.46569761397E+03  0.46569761397E+03  0.25500000920E-02 0. -1.
    10030    2    1    2    0    0  0.00000000000E+00  0.00000000000E+00  0.12679129227E+04  0.21993081507E+04  0.17970401114E+04 0.  0.
        4    1    3    3  502    0 -0.42380064324E+03 -0.76872934621E+03  0.86868344186E+03  0.12349754362E+04  0.12699999809E+01 0.  1.
       -4    1    3    3    0  502  0.42380064324E+03  0.76872934621E+03  0.39922948087E+03  0.96433271448E+03  0.12699999809E+01 0. -1.
</event>
<event>
 5   0  0.8587082E-05  0.1910371E+04  0.7818609E-02  0.8649711E-01
        1   -1    0    0  501    0  0.00000000000E+00  0.00000000000E+00  0.11557790884E+04  0.11557790885E+04  0.50400001928E-02 0. -1.
       -1   -1    0    0    0  501  0.00000000000E+00  0.00000000000E+00 -0.78940648855E+03  0.78940648856E+03  0.50400001928E-02 0.  1.
    10030    2    1    2    0    0  0.00000000000E+00  0.00000000000E+00  0.36637259990E+03  0.19451855770E+04  0.19103711804E+04 0.  0.
        5    1    3    3  502    0 -0.45217155066E+03  0.27615441090E+03 -0.62605321641E+03  0.82017381674E+03  0.46999998093E+01 0.  1.
       -5    1    3    3    0  502  0.45217155066E+03 -0.27615441090E+03  0.99242581632E+03  0.11250117603E+04  0.46999998093E+01 0. -1.
</event>
<event>
 5   0  0.8681396E-05  0.1904568E+04  0.7818609E-02  0.8652586E-01
       -1   -1    0    0    0  501  0.00000000000E+00  0.00000000000E+00  0.55882946298E+03  0.55882946300E+03  0.50400001928E-02 0.  1.
        1   -1    0    0  501    0  0.00000000000E+00  0.00000000000E+00 -0.16227573696E+04  0.16227573696E+04  0.50400001928E-02 0. -1.
    10030    2    1    2    0    0  0.00000000000E+00  0.00000000000E+00 -0.10639279066E+04  0.21815868326E+04  0.19045678034E+04 0.  0.
        3    1    3    3  502    0 -0.75525938770E+03 -0.57029983768E+03 -0.41081688122E+03  0.10317117658E+04  0.10100000352E+00 0.  1.
       -3    1    3    3    0  502  0.75525938770E+03  0.57029983768E+03 -0.65311102538E+03  0.11498750668E+04  0.10100000352E+00 0. -1.
</event>
<event>
 5   0  0.1810569E-04  0.1904374E+04  0.7818609E-02  0.8652682E-01
        2   -1    0    0  501    0  0.00000000000E+00  0.00000000000E+00  0.20335602047E+04  0.20335602047E+04  0.25500000920E-02 0.  1.
       -2   -1    0    0    0  501  0.00000000000E+00  0.00000000000E+00 -0.44584885112E+03  0.44584885112E+03  0.25500000920E-02 0. -1.
    10030    2    1    2    0    0  0.00000000000E+00  0.00000000000E+00  0.15877113536E+04  0.24794090558E+04  0.19043744180E+04 0.  0.
        4    1    3    3  502    0 -0.50569211394E+03  0.31099002535E+03  0.17631078158E+04  0.18603736434E+04  0.12699999809E+01 0.  1.
       -4    1    3    3    0  502  0.50569211394E+03 -0.31099002535E+03 -0.17539646224E+03  0.61903541242E+03  0.12699999809E+01 0. -1.
</event>
<event>
 5   0  0.1790832E-04  0.1916897E+04  0.7818609E-02  0.8646491E-01
        2   -1    0    0  501    0  0.00000000000E+00  0.00000000000E+00  0.10543156442E+04  0.10543156442E+04  0.25500000920E-02 0. -1.
       -2   -1    0    0    0  501  0.00000000000E+00  0.00000000000E+00 -0.87129811048E+03  0.87129811048E+03  0.25500000920E-02 0.  1.
    10030    2    1    2    0    0  0.00000000000E+00  0.00000000000E+00  0.18301753368E+03  0.19256137546E+04  0.19168966885E+04 0.  0.
        5    1    3    3  502    0  0.18311197467E+03  0.85383036274E+02 -0.84965138427E+03  0.87335549631E+03  0.46999998093E+01 0.  1.
       -5    1    3    3    0  502 -0.18311197467E+03 -0.85383036274E+02  0.10326689179E+04  0.10522582583E+04  0.46999998093E+01 0. -1.
</event>
<event>
 5   0  0.8587082E-05  0.1902008E+04  0.7818609E-02  0.8653857E-01
       -1   -1    0    0    0  501  0.00000000000E+00  0.00000000000E+00  0.83048009045E+03  0.83048009047E+03  0.50400001928E-02 0.  1.
        1   -1    0    0  501    0  0.00000000000E+00  0.00000000000E+00 -0.10890192769E+04  0.10890192769E+04  0.50400001928E-02 0. -1.
    10030    2    1    2    0    0  0.00000000000E+00  0.00000000000E+00 -0.25853918640E+03  0.19194993673E+04  0.19020082309E+04 0.  0.
        5    1    3    3  502    0  0.20568748986E+03  0.12605850554E+03  0.79907492763E+03  0.83471008157E+03  0.46999998093E+01 0.  1.
       -5    1    3    3    0  502 -0.20568748986E+03 -0.12605850554E+03 -0.10576141140E+04  0.10847892858E+04  0.46999998093E+01 0. -1.
</event>
<event>
 5   0  0.8681396E-05  0.1900124E+04  0.7818609E-02  0.8654795E-01
        1   -1    0    0  501    0  0.00000000000E+00  0.00000000000E+00  0.66915683365E+03  0.66915683366E+03  0.50400001928E-02 0. -1.
       -1   -1    0    0    0  501  0.00000000000E+00  0.00000000000E+00 -0.13488886908E+04  0.13488886908E+04  0.50400001928E-02 0.  1.
    10030    2    1    2    0    0  0.00000000000E+00  0.00000000000E+00 -0.67973185713E+03  0.20180455245E+04  0.19001242962E+04 0.  0.
        3    1    3    3  502    0  0.11792622829E+03  0.92132503916E+03 -0.55193682050E+03  0.10804539264E+04  0.10100000352E+00 0.  1.
       -3    1    3    3    0  502 -0.11792622829E+03 -0.92132503916E+03 -0.12779503663E+03  0.93759159803E+03  0.10100000352E+00 0. -1.
</event>
<event>
 5   0  0.1658711E-04  0.1889883E+04  0.7818609E-02  0.8659909E-01
       -2   -1    0    0    0  501  0.00000000000E+00  0.00000000000E+00  0.53762199264E+03  0.53762199264E+03  0.25500000920E-02 0.  1.
        2   -1    0    0  501    0  0.00000000000E+00  0.00000000000E+00 -0.16608598521E+04  0.16608598521E+04  0.25500000920E-02 0. -1.
    10030    2    1    2    0    0  0.00000000000E+00  0.00000000000E+00 -0.11232378595E+04  0.21984818447E+04  0.18898833649E+04 0.  0.
        2    1    3    3  502    0 -0.12628723988E+03 -0.93509908954E+03 -0.50280650726E+03  0.10691927600E+04  0.25500000920E-02 0. -1.
       -2    1    3    3    0  502  0.12628723988E+03  0.93509908954E+03 -0.62043135221E+03  0.11292890848E+04  0.25500000920E-02 0.  1.
</event>
<event>
 5   0  0.1790832E-04  0.1921475E+04  0.7818609E-02  0.8644240E-01
        2   -1    0    0  501    0  0.00000000000E+00  0.00000000000E+00  0.98144067973E+03  0.98144067973E+03  0.25500000920E-02 0. -1.
       -2   -1    0    0    0  501  0.00000000000E+00  0.00000000000E+00 -0.94047060210E+03  0.94047060210E+03  0.25500000920E-02 0.  1.
    10030    2    1    2    0    0  0.00000000000E+00  0.00000000000E+00  0.40970077631E+02  0.19219112818E+04  0.19214745452E+04 0.  0.
        5    1    3    3  502    0  0.10549066404E+02  0.12385524231E+03 -0.93238180138E+03  0.94064303399E+03  0.46999998093E+01 0.  1.
       -5    1    3    3    0  502 -0.10549066404E+02 -0.12385524231E+03  0.97335187901E+03  0.98126824784E+03  0.46999998093E+01 0. -1.
</event>
<event>
 5   0  0.1799738E-04  0.1889197E+04  0.7818609E-02  0.8660252E-01
       -2   -1    0    0    0  501  0.00000000000E+00  0.00000000000E+00  0.10579120695E+04  0.10579120695E+04  0.25500000920E-02 0.  1.
        2   -1    0    0  501    0  0.00000000000E+00  0.00000000000E+00 -0.84342212284E+03  0.84342212285E+03  0.25500000920E-02 0. -1.
    10030    2    1    2    0    0  0.00000000000E+00  0.00000000000E+00  0.21448994662E+03  0.19013341923E+04  0.18891971241E+04 0.  0.
        1    1    3    3  502    0  0.47241132443E+03 -0.43265863565E+03 -0.59140535265E+03  0.87185219253E+03  0.50400001928E-02 0. -1.
       -1    1    3    3    0  502 -0.47241132443E+03  0.43265863565E+03  0.80589529928E+03  0.10294819998E+04  0.50400001928E-02 0.  1.
</event>
<event>
 5   0  0.1810569E-04  0.1864213E+04  0.7818609E-02  0.8672878E-01
       -2   -1    0    0    0  501  0.00000000000E+00  0.00000000000E+00  0.15962724777E+04  0.15962724777E+04  0.25500000920E-02 0.  1.
        2   -1    0    0  501    0  0.00000000000E+00  0.00000000000E+00 -0.54428238316E+03  0.54428238317E+03  0.25500000920E-02 0. -1.
    10030    2    1    2    0    0  0.00000000000E+00  0.00000000000E+00  0.10519900946E+04  0.21405548609E+04  0.18642134946E+04 0.  0.
        4    1    3    3  502    0  0.91135800642E+03  0.65570274819E+02  0.31443142124E+03  0.96630306239E+03  0.12699999809E+01 0. -1.
       -4    1    3    3    0  502 -0.91135800642E+03 -0.65570274819E+02  0.73755867333E+03  0.11742517985E+04  0.12699999809E+01 0.  1.
</event>
<event>
 5   0  0.1790832E-04  0.1871780E+04  0.7818609E-02  0.8669032E-01
       -2   -1    0    0    0  501  0.00000000000E+00  0.00000000000E+00  0.58662030542E+03  0.58662030542E+03  0.25500000920E-02 0.  1.
        2   -1    0    0  501    0  0.00000000000E+00  0.00000000000E+00 -0.14931118959E+04  0.14931118959E+04  0.25500000920E-02 0. -1.
    10030    2    1    2    0    0  0.00000000000E+00  0.00000000000E+00 -0.90649159052E+03  0.20797322014E+04  0.18717796413E+04 0.  0.
        5    1    3    3  502    0  0.27276214972E+03  0.43663749421E+03  0.41513050342E+03  0.66136745954E+03  0.46999998093E+01 0.  1.
       -5    1    3    3    0  502 -0.27276214972E+03 -0.43663749421E+03 -0.13216220939E+04  0.14183647418E+04  0.46999998093E+01 0. -1.
</event>
<event>
 5   0  0.1765328E-04  0.1845104E+04  0.7818609E-02  0.8682675E-01
       -2   -1    0    0    0  501  0.00000000000E+00  0.00000000000E+00  0.38077042018E+03  0.38077042019E+03  0.25500000920E-02 0.  1.
        2   -1    0    0  501    0  0.00000000000E+00  0.00000000000E+00 -0.22352107037E+04  0.22352107037E+04  0.25500000920E-02 0. -1.
    10030    2    1    2    0    0  0.00000000000E+00  0.00000000000E+00 -0.18544402835E+04  0.26159811239E+04  0.18451039200E+04 0.  0.
        3    1    3    3  502    0 -0.86661240153E+03  0.85653484629E+02 -0.49543538836E+03  0.10019030932E+04  0.10100000352E+00 0.  1.
       -3    1    3    3    0  502  0.86661240153E+03 -0.85653484629E+02 -0.13590048952E+04  0.16140780307E+04  0.10100000352E+00 0. -1.
</event>
<event>
 5   0  0.8567844E-05  0.1930356E+04  0.7818609E-02  0.8639892E-01
       -1   -1    0    0    0  501  0.00000000000E+00  0.00000000000E+00  0.57860319795E+03  0.57860319797E+03  0.50400001928E-02 0. -1.
        1   -1    0    0  501    0  0.00000000000E+00  0.00000000000E+00 -0.16100303304E+04  0.16100303305E+04  0.50400001928E-02 0.  1.
    10030    2    1    2    0    0  0.00000000000E+00  0.00000000000E+00 -0.10314271325E+04  0.21886335284E+04  0.19303561309E+04 0.  0.
        4    1    3    3  502    0 -0.95115130053E+03  0.12096127149E+03 -0.39024225727E+03  0.10351864846E+04  0.12699999809E+01 0. -1.
       -4    1    3    3    0  502  0.95115130053E+03 -0.12096127149E+03 -0.64118487523E+03  0.11534470438E+04  0.12699999809E+01 0.  1.
</event>
<event>
 5   0  0.1790832E-04  0.1876762E+04  0.7818609E-02  0.8666511E-01
       -2   -1    0    0    0  501  0.00000000000E+00  0.00000000000E+00  0.11615595745E+04  0.11615595745E+04  0.25500000920E-02 0. -1.
        2   -1    0    0  501    0  0.00000000000E+00  0.00000000000E+00 -0.75808330892E+03  0.75808330893E+03  0.25500000920E-02 0.  1.
    10030    2    1    2    0    0  0.00000000000E+00  0.00000000000E+00  0.40347626562E+03  0.19196428835E+04  0.18767620262E+04 0.  0.
        5    1    3    3  502    0 -0.48929242353E+02 -0.77039290152E+03 -0.34396610465E+03  0.84512369782E+03  0.46999998093E+01 0.  1.
       -5    1    3    3    0  502  0.48929242353E+02  0.77039290152E+03  0.74744237027E+03  0.10745191857E+04  0.46999998093E+01 0. -1.
</event>
<event>
 5   0  0.8587082E-05  0.1904862E+04  0.7818609E-02  0.8652440E-01
        1   -1    0    0  501    0  0.00000000000E+00  0.00000000000E+00  0.71596677655E+03  0.71596677657E+03  0.50400001928E-02 0.  1.
       -1   -1    0    0    0  501  0.00000000000E+00  0.00000000000E+00 -0.12669927009E+04  0.12669927009E+04  0.50400001928E-02 0. -1.
    10030    2    1    2    0    0  0.00000000000E+00  0.00000000000E+00 -0.55102592437E+03  0.19829594775E+04  0.19048618638E+04 0.  0.
        5    1    3    3  502    0  0.76132160850E+03  0.16104498265E+03  0.29614296116E+03  0.83262766075E+03  0.46999998093E+01 0.  1.
       -5    1    3    3    0  502 -0.76132160850E+03 -0.16104498265E+03 -0.84716888554E+03  0.11503318167E+04  0.46999998093E+01 0. -1.
</event>
<event>
 5   0  0.8587082E-05  0.1896187E+04  0.7818609E-02  0.8656757E-01
        1   -1    0    0  501    0  0.00000000000E+00  0.00000000000E+00  0.26108504676E+04  0.26108504676E+04  0.50400001928E-02 0. -1.
       -1   -1    0    0    0  501  0.00000000000E+00  0.00000000000E+00 -0.34428664651E+03  0.34428664655E+03  0.50400001928E-02 0.  1.
    10030    2    1    2    0    0  0.00000000000E+00  0.00000000000E+00  0.22665638210E+04  0.29551371141E+04  0.18961866491E+04 0.  0.
        5    1    3    3  502    0  0.40840025312E+03  0.46972101503E+03  0.22478067796E+04  0.23323991955E+04  0.46999998093E+01 0. -1.
       -5    1    3    3    0  502 -0.40840025312E+03 -0.46972101503E+03  0.18757041462E+02  0.62273791864E+03  0.46999998093E+01 0.  1.
</event>
<event>
 5   0  0.8587082E-05  0.1894512E+04  0.7818609E-02  0.8657593E-01
       -1   -1    0    0    0  501  0.00000000000E+00  0.00000000000E+00  0.34059341132E+03  0.34059341136E+03  0.50400001928E-02 0. -1.
        1   -1    0    0  501    0  0.00000000000E+00  0.00000000000E+00 -0.26345010145E+04  0.26345010145E+04  0.50400001928E-02 0.  1.
    10030    2    1    2    0    0  0.00000000000E+00  0.00000000000E+00 -0.22939076032E+04  0.29750944259E+04  0.18945117447E+04 0.  0.
        5    1    3    3  502    0  0.84058234221E+03  0.38712243978E+03 -0.14642673167E+04  0.17322076441E+04  0.46999998093E+01 0.  1.
       -5    1    3    3    0  502 -0.84058234221E+03 -0.38712243978E+03 -0.82964028649E+03  0.12428867818E+04  0.46999998093E+01 0. -1.
</event>
<event>
 5   0  0.8905646E-05  0.1914244E+04  0.7818609E-02  0.8647799E-01
        1   -1    0    0  501    0  0.00000000000E+00  0.00000000000E+00  0.11984454040E+04  0.11984454040E+04  0.50400001928E-02 0. -1.
       -1   -1    0    0    0  501  0.00000000000E+00  0.00000000000E+00 -0.76439226821E+03  0.76439226822E+03  0.50400001928E-02 0.  1.
    10030    2    1    2    0    0  0.00000000000E+00  0.00000000000E+00  0.43405313578E+03  0.19628376722E+04  0.19142438723E+04 0.  0.
        1    1    3    3  502    0  0.76039914740E+03  0.57846713117E+03  0.15855877842E+03  0.96848953089E+03  0.50400001928E-02 0.  1.
       -1    1    3    3    0  502 -0.76039914740E+03 -0.57846713117E+03  0.27549435736E+03  0.99434814133E+03  0.50400001928E-02 0. -1.
</event>
<event>
 5   0  0.1765328E-04  0.1837234E+04  0.7818609E-02  0.8686746E-01
       -2   -1    0    0    0  501  0.00000000000E+00  0.00000000000E+00  0.91315015443E+03  0.91315015443E+03  0.25500000920E-02 0. -1.
        2   -1    0    0  501    0  0.00000000000E+00  0.00000000000E+00 -0.92411664714E+03  0.92411664714E+03  0.25500000920E-02 0.  1.
    10030    2    1    2    0    0  0.00000000000E+00  0.00000000000E+00 -0.10966492711E+02  0.18372668016E+04  0.18372340722E+04 0.  0.
        3    1    3    3  502    0  0.46714495870E+03 -0.45977245861E+03  0.63814466000E+03  0.91479163935E+03  0.10100000352E+00 0. -1.
       -3    1    3    3    0  502 -0.46714495870E+03  0.45977245861E+03 -0.64911115271E+03  0.92247516222E+03  0.10100000352E+00 0.  1.
</event>
<event>
 5   0  0.6375750E-05  0.1937706E+04  0.7818609E-02  0.8636312E-01
       -4   -1    0    0    0  501  0.00000000000E+00  0.00000000000E+00  0.10073000022E+04  0.10073008028E+04  0.12699999809E+01 0.  1.
        4   -1    0    0  501    0  0.00000000000E+00  0.00000000000E+00 -0.93187195161E+03  0.93187281702E+03  0.12699999809E+01 0. -1.
    10030    2    1    2    0    0  0.00000000000E+00  0.00000000000E+00  0.75428050629E+02  0.19391736199E+04  0.19377061019E+04 0.  0.
        4    1    3    3  502    0 -0.48420064269E+03 -0.19199687266E+03 -0.77982667256E+03  0.93778692336E+03  0.12699999809E+01 0. -1.
       -4    1    3    3    0  502  0.48420064269E+03  0.19199687266E+03  0.85525472319E+03  0.10013866965E+04  0.12699999809E+01 0.  1.
</event>
<event>
 5   0  0.8567844E-05  0.1839334E+04  0.7818609E-02  0.8685657E-01
       -1   -1    0    0    0  501  0.00000000000E+00  0.00000000000E+00  0.53961414957E+03  0.53961414960E+03  0.50400001928E-02 0.  1.
        1   -1    0    0  501    0  0.00000000000E+00  0.00000000000E+00 -0.15673923445E+04  0.15673923445E+04  0.50400001928E-02 0. -1.
    10030    2    1    2    0    0  0.00000000000E+00  0.00000000000E+00 -0.10277781949E+04  0.21070064941E+04  0.18393336696E+04 0.  0.
        4    1    3    3  502    0  0.11249099255E+03  0.29158868587E+03 -0.15046920600E+04  0.15368077282E+04  0.12699999809E+01 0. -1.
       -4    1    3    3    0  502 -0.11249099255E+03 -0.29158868587E+03  0.47691386503E+03  0.57019876595E+03  0.12699999809E+01 0.  1.
</event>
<event>
 5   0  0.1658711E-04  0.1936117E+04  0.7818609E-02  0.8637084E-01
        2   -1    0    0  501    0  0.00000000000E+00  0.00000000000E+00  0.22734791949E+04  0.22734791949E+04  0.25500000920E-02 0.  1.
       -2   -1    0    0    0  501  0.00000000000E+00  0.00000000000E+00 -0.41220419823E+03  0.41220419824E+03  0.25500000920E-02 0. -1.
    10030    2    1    2    0    0  0.00000000000E+00  0.00000000000E+00  0.18612749967E+04  0.26856833931E+04  0.19361174228E+04 0.  0.
        2    1    3    3  502    0 -0.22901263115E+03  0.93375474486E+03  0.77374266551E+03  0.12341079455E+04  0.25500000920E-02 0. -1.
       -2    1    3    3    0  502  0.22901263115E+03 -0.93375474486E+03  0.10875323312E+04  0.14515754476E+04  0.25500000920E-02 0.  1.
</event>
<event>
 5   0  0.1658711E-04  0.1910815E+04  0.7818609E-02  0.8649492E-01
        2   -1    0    0  501    0  0.00000000000E+00  0.00000000000E+00  0.22462979345E+04  0.22462979345E+04  0.25500000920E-02 0. -1.
       -2   -1    0    0    0  501  0.00000000000E+00  0.00000000000E+00 -0.40635884257E+03  0.40635884257E+03  0.25500000920E-02 0.  1.
    10030    2    1    2    0    0  0.00000000000E+00  0.00000000000E+00  0.18399390919E+04  0.26526567771E+04  0.19108145161E+04 0.  0.
        2    1    3    3  502    0  0.86936383136E+02  0.81960408271E+03  0.15907812268E+04  0.17916176207E+04  0.25500000920E-02 0. -1.
       -2    1    3    3    0  502 -0.86936383136E+02 -0.81960408271E+03  0.24915786512E+03  0.86103915641E+03  0.25500000920E-02 0.  1.
</event>
<event>
 5   0  0.8905646E-05  0.1925477E+04  0.7818609E-02  0.8642278E-01
        1   -1    0    0  501    0  0.00000000000E+00  0.00000000000E+00  0.82181583023E+03  0.82181583025E+03  0.50400001928E-02 0. -1.
       -1   -1    0    0    0  501  0.00000000000E+00  0.00000000000E+00 -0.11278267420E+04  0.11278267420E+04  0.50400001928E-02 0.  1.
    10030    2    1    2    0    0  0.00000000000E+00  0.00000000000E+00 -0.30601091173E+03  0.19496425722E+04  0.19254774684E+04 0.  0.
        1    1    3    3  502    0  0.70924638024E+03  0.43036964768E+03  0.34160992938E+03  0.89718772027E+03  0.50400001928E-02 0. -1.
       -1    1    3    3    0  502 -0.70924638024E+03 -0.43036964768E+03 -0.64762084110E+03  0.10524548519E+04  0.50400001928E-02 0.  1.
</event>
<event>
 5   0  0.1790832E-04  0.1944110E+04  0.7818609E-02  0.8633206E-01
       -2   -1    0    0    0  501  0.00000000000E+00  0.00000000000E+00  0.11883710780E+04  0.11883710780E+04  0.25500000920E-02 0.  1.
        2   -1    0    0  501    0  0.00000000000E+00  0.00000000000E+00 -0.79511452724E+03  0.79511452724E+03  0.25500000920E-02 0. -1.
    10030    2    1    2    0    0  0.00000000000E+00  0.00000000000E+00  0.39325655076E+03  0.19834856052E+04  0.19441101902E+04 0.  0.
        5    1    3    3  502    0  0.45637711453E+03 -0.83563053966E+03  0.39632335340E+03  0.10313354255E+04  0.46999998093E+01 0.  1.
       -5    1    3    3    0  502 -0.45637711453E+03  0.83563053966E+03 -0.30668026375E+01  0.95215017973E+03  0.46999998093E+01 0. -1.
</event>
<event>
 5   0  0.8681396E-05  0.1930944E+04  0.7818609E-02  0.8639605E-01
        1   -1    0    0  501    0  0.00000000000E+00  0.00000000000E+00  0.92307758013E+03  0.92307758014E+03  0.50400001928E-02 0.  1.
       -1   -1    0    0    0  501  0.00000000000E+00  0.00000000000E+00 -0.10098139449E+04  0.10098139449E+04  0.50400001928E-02 0. -1.
    10030    2    1    2    0    0  0.00000000000E+00  0.00000000000E+00 -0.86736364738E+02  0.19328915250E+04  0.19309444452E+04 0.  0.
        3    1    3    3  502    0  0.91208877905E+03  0.31491823254E+03 -0.10821270650E+02  0.96498525592E+03  0.10100000352E+00 0. -1.
       -3    1    3    3    0  502 -0.91208877905E+03 -0.31491823254E+03 -0.75915094088E+02  0.96790626910E+03  0.10100000352E+00 0.  1.
</event>
<event>
 5   0  0.1810569E-04  0.1900625E+04  0.7818609E-02  0.8654545E-01
        2   -1    0    0  501    0  0.00000000000E+00  0.00000000000E+00  0.15472805742E+04  0.15472805742E+04  0.25500000920E-02 0. -1.
       -2   -1    0    0    0  501  0.00000000000E+00  0.00000000000E+00 -0.58366516344E+03  0.58366516345E+03  0.25500000920E-02 0.  1.
    10030    2    1    2    0    0  0.00000000000E+00  0.00000000000E+00  0.96361541078E+03  0.21309457377E+04  0.19006249175E+04 0.  0.
        4    1    3    3  502    0 -0.38674045551E+03 -0.67969618459E+03 -0.12356504337E+03  0.79172281521E+03  0.12699999809E+01 0.  1.
       -4    1    3    3    0  502  0.38674045551E+03  0.67969618459E+03  0.10871804542E+04  0.13392229225E+04  0.12699999809E+01 0. -1.
</event>
<event>
 5   0  0.6375750E-05  0.1894059E+04  0.7818609E-02  0.8657819E-01
       -3   -1    0    0    0  501  0.00000000000E+00  0.00000000000E+00  0.14039716523E+04  0.14039716559E+04  0.10100000352E+00 0. -1.
        3   -1    0    0  501    0  0.00000000000E+00  0.00000000000E+00 -0.63880562648E+03  0.63880563447E+03  0.10100000352E+00 0.  1.
    10030    2    1    2    0    0  0.00000000000E+00  0.00000000000E+00  0.76516602583E+03  0.20427772904E+04  0.18940591361E+04 0.  0.
        5    1    3    3  502    0  0.63765138561E+03  0.38974315698E+03 -0.24476230194E+03  0.78640300892E+03  0.46999998093E+01 0.  1.
       -5    1    3    3    0  502 -0.63765138561E+03 -0.38974315698E+03  0.10099283278E+04  0.12563742815E+04  0.46999998093E+01 0. -1.
</event>
<event>
 5   0  0.6375750E-05  0.1718537E+04  0.7818609E-02  0.8750862E-01
       -4   -1    0    0    0  501  0.00000000000E+00  0.00000000000E+00  0.61052664214E+03  0.61052796305E+03  0.12699999809E+01 0.  1.
        4   -1    0    0  501    0  0.00000000000E+00  0.00000000000E+00 -0.12093506971E+04  0.12093513640E+04  0.12699999809E+01 0. -1.
    10030    2    1    2    0    0  0.00000000000E+00  0.00000000000E+00 -0.59882405498E+03  0.18198793270E+04  0.17185373188E+04 0.  0.
        4    1    3    3  502    0  0.92714348674E+02  0.69999897288E+02 -0.12009960815E+04  0.12066023109E+04  0.12699999809E+01 0. -1.
       -4    1    3    3    0  502 -0.92714348674E+02 -0.69999897288E+02  0.60217202650E+03  0.61327701610E+03  0.12699999809E+01 0.  1.
</event>
<event>
 5   0  0.8905646E-05  0.1787612E+04  0.7818609E-02  0.8712915E-01
        1   -1    0    0  501    0  0.00000000000E+00  0.00000000000E+00  0.57626343497E+03  0.57626343499E+03  0.50400001928E-02 0.  1.
       -1   -1    0    0    0  501  0.00000000000E+00  0.00000000000E+00 -0.13863266875E+04  0.13863266875E+04  0.50400001928E-02 0. -1.
    10030    2    1    2    0    0  0.00000000000E+00  0.00000000000E+00 -0.81006325255E+03  0.19625901225E+04  0.17876122387E+04 0.  0.
        1    1    3    3  502    0 -0.39842514470E+03  0.43057054167E+03  0.33533257095E+03  0.67570816219E+03  0.50400001928E-02 0.  1.
       -1    1    3    3    0  502  0.39842514470E+03 -0.43057054167E+03 -0.11453958235E+04  0.12868819603E+04  0.50400001928E-02 0. -1.
</event>
<event>
 5   0  0.8905646E-05  0.1907098E+04  0.7818609E-02  0.8651331E-01
        1   -1    0    0  501    0  0.00000000000E+00  0.00000000000E+00  0.12111700956E+04  0.12111700956E+04  0.50400001928E-02 0.  1.
       -1   -1    0    0    0  501  0.00000000000E+00  0.00000000000E+00 -0.75072508641E+03  0.75072508643E+03  0.50400001928E-02 0. -1.
    10030    2    1    2    0    0  0.00000000000E+00  0.00000000000E+00  0.46044500922E+03  0.19618951821E+04  0.19070980832E+04 0.  0.
        1    1    3    3  502    0 -0.94560897621E+03 -0.64302283764E+02  0.12259982236E+03  0.95568919427E+03  0.50400001928E-02 0. -1.
       -1    1    3    3    0  502  0.94560897621E+03  0.64302283764E+02  0.33784518685E+03  0.10062059878E+04  0.50400001928E-02 0.  1.
</event>
<event>
 5   0  0.8681396E-05  0.1900042E+04  0.7818609E-02  0.8654835E-01
        1   -1    0    0  501    0  0.00000000000E+00  0.00000000000E+00  0.13549409189E+04  0.13549409189E+04  0.50400001928E-02 0. -1.
       -1   -1    0    0    0  501  0.00000000000E+00  0.00000000000E+00 -0.66611044106E+03  0.66611044108E+03  0.50400001928E-02 0.  1.
    10030    2    1    2    0    0  0.00000000000E+00  0.00000000000E+00  0.68883047782E+03  0.20210513600E+04  0.19000424133E+04 0.  0.
        3    1    3    3  502    0 -0.77056690577E+03 -0.52542153400E+03  0.53676081777E+03  0.10760823994E+04  0.10100000352E+00 0.  1.
       -3    1    3    3    0  502  0.77056690577E+03  0.52542153400E+03  0.15206966004E+03  0.94496896053E+03  0.10100000352E+00 0. -1.
</event>
<event>
 5   0  0.1810569E-04  0.1897637E+04  0.7818609E-02  0.8656034E-01
        2   -1    0    0  501    0  0.00000000000E+00  0.00000000000E+00  0.12454849051E+04  0.12454849051E+04  0.25500000920E-02 0.  1.
       -2   -1    0    0    0  501  0.00000000000E+00  0.00000000000E+00 -0.72281587748E+03  0.72281587749E+03  0.25500000920E-02 0. -1.
    10030    2    1    2    0    0  0.00000000000E+00  0.00000000000E+00  0.52266902766E+03  0.19683007826E+04  0.18976367035E+04 0.  0.
        4    1    3    3  502    0  0.25520909294E+03  0.72626744416E+03  0.83665905803E+03  0.11369239525E+04  0.12699999809E+01 0.  1.
       -4    1    3    3    0  502 -0.25520909294E+03 -0.72626744416E+03 -0.31399003037E+03  0.83137683010E+03  0.12699999809E+01 0. -1.
</event>
<event>
 5   0  0.1799738E-04  0.1874775E+04  0.7818609E-02  0.8667515E-01
        2   -1    0    0  501    0  0.00000000000E+00  0.00000000000E+00  0.12059323759E+04  0.12059323759E+04  0.25500000920E-02 0. -1.
       -2   -1    0    0    0  501  0.00000000000E+00  0.00000000000E+00 -0.72864392728E+03  0.72864392728E+03  0.25500000920E-02 0.  1.
    10030    2    1    2    0    0  0.00000000000E+00  0.00000000000E+00  0.47728844867E+03  0.19345763032E+04  0.18747749758E+04 0.  0.
        1    1    3    3  502    0  0.71759533102E+01 -0.37102271673E+03 -0.64961904301E+03  0.74814052938E+03  0.50400001928E-02 0.  1.
       -1    1    3    3    0  502 -0.71759533102E+01  0.37102271673E+03  0.11269074917E+04  0.11864357738E+04  0.50400001928E-02 0. -1.
</event>
<event>
 5   0  0.6375750E-05  0.1898481E+04  0.7818609E-02  0.8655613E-01
        4   -1    0    0  501    0  0.00000000000E+00  0.00000000000E+00  0.96918849195E+03  0.96918932404E+03  0.12699999809E+01 0.  1.
       -4   -1    0    0    0  501  0.00000000000E+00  0.00000000000E+00 -0.92970097996E+03  0.92970184739E+03  0.12699999809E+01 0. -1.
    10030    2    1    2    0    0  0.00000000000E+00  0.00000000000E+00  0.39487511990E+02  0.18988911714E+04  0.18984805549E+04 0.  0.
        4    1    3    3  502    0 -0.43950542132E+03  0.80401498178E+03  0.26768925372E+03  0.95460162149E+03  0.12699999809E+01 0. -1.
       -4    1    3    3    0  502  0.43950542132E+03 -0.80401498178E+03 -0.22820174173E+03  0.94428954994E+03  0.12699999809E+01 0.  1.
</event>
<event>
 5   0  0.8602017E-05  0.1896422E+04  0.7818609E-02  0.8656639E-01
        1   -1    0    0  501    0  0.00000000000E+00  0.00000000000E+00  0.20914874572E+04  0.20914874572E+04  0.50400001928E-02 0. -1.
       -1   -1    0    0    0  501  0.00000000000E+00  0.00000000000E+00 -0.42988748649E+03  0.42988748652E+03  0.50400001928E-02 0.  1.
    10030    2    1    2    0    0  0.00000000000E+00  0.00000000000E+00  0.16615999707E+04  0.25213749437E+04  0.18964221957E+04 0.  0.
        2    1    3    3  502    0  0.44808921376E+03  0.64339594495E+03  0.12181312982E+03  0.79346123035E+03  0.25500000920E-02 0.  1.
       -2    1    3    3    0  502 -0.44808921376E+03 -0.64339594495E+03  0.15397868409E+04  0.17279137134E+04  0.25500000920E-02 0. -1.
</event>
<event>
 5   0  0.8587082E-05  0.1892209E+04  0.7818609E-02  0.8658744E-01
       -1   -1    0    0    0  501  0.00000000000E+00  0.00000000000E+00  0.88011826096E+03  0.88011826097E+03  0.50400001928E-02 0.  1.
        1   -1    0    0  501    0  0.00000000000E+00  0.00000000000E+00 -0.10170384020E+04  0.10170384020E+04  0.50400001928E-02 0. -1.
    10030    2    1    2    0    0  0.00000000000E+00  0.00000000000E+00 -0.13692014105E+03  0.18971566630E+04  0.18922093645E+04 0.  0.
        5    1    3    3  502    0 -0.49993594805E+03 -0.35718966448E+03 -0.78976552253E+03  0.10006358374E+04  0.46999998093E+01 0. -1.
       -5    1    3    3    0  502  0.49993594805E+03  0.35718966448E+03  0.65284538148E+03  0.89652082557E+03  0.46999998093E+01 0.  1.
</event>
<event>
 5   0  0.1810569E-04  0.1916295E+04  0.7818609E-02  0.8646787E-01
       -2   -1    0    0    0  501  0.00000000000E+00  0.00000000000E+00  0.77651169327E+03  0.77651169328E+03  0.25500000920E-02 0.  1.
        2   -1    0    0  501    0  0.00000000000E+00  0.00000000000E+00 -0.11822708125E+04  0.11822708125E+04  0.25500000920E-02 0. -1.
    10030    2    1    2    0    0  0.00000000000E+00  0.00000000000E+00 -0.40575911922E+03  0.19587825058E+04  0.19162954997E+04 0.  0.
        4    1    3    3  502    0 -0.65004281430E+03 -0.47052290236E+03  0.33227188044E+03  0.86853536341E+03  0.12699999809E+01 0.  1.
       -4    1    3    3    0  502  0.65004281430E+03  0.47052290236E+03 -0.73803099966E+03  0.10902471424E+04  0.12699999809E+01 0. -1.
</event>
<event>
 5   0  0.8681396E-05  0.1778805E+04  0.7818609E-02  0.8717653E-01
        1   -1    0    0  501    0  0.00000000000E+00  0.00000000000E+00  0.66015674300E+03  0.66015674302E+03  0.50400001928E-02 0. -1.
       -1   -1    0    0    0  501  0.00000000000E+00  0.00000000000E+00 -0.11982554752E+04  0.11982554752E+04  0.50400001928E-02 0.  1.
    10030    2    1    2    0    0  0.00000000000E+00  0.00000000000E+00 -0.53809873224E+03  0.18584122183E+04  0.17788045782E+04 0.  0.
        3    1    3    3  502    0  0.41716579635E+03 -0.74068676933E+03  0.41735957495E+01  0.85009506587E+03  0.10100000352E+00 0. -1.
       -3    1    3    3    0  502 -0.41716579635E+03  0.74068676933E+03 -0.54227232799E+03  0.10083171524E+04  0.10100000352E+00 0.  1.
</event>
<event>
 5   0  0.1810569E-04  0.1920681E+04  0.7818609E-02  0.8644630E-01
        2   -1    0    0  501    0  0.00000000000E+00  0.00000000000E+00  0.60998591699E+03  0.60998591700E+03  0.25500000920E-02 0. -1.
       -2   -1    0    0    0  501  0.00000000000E+00  0.00000000000E+00 -0.15119269828E+04  0.15119269828E+04  0.25500000920E-02 0.  1.
    10030    2    1    2    0    0  0.00000000000E+00  0.00000000000E+00 -0.90194106582E+03  0.21219128998E+04  0.19206813031E+04 0.  0.
        4    1    3    3  502    0  0.46072375951E+03  0.20214306339E+03 -0.13546734053E+04  0.14450847202E+04  0.12699999809E+01 0.  1.
       -4    1    3    3    0  502 -0.46072375951E+03 -0.20214306339E+03  0.45273233945E+03  0.67682817963E+03  0.12699999809E+01 0. -1.
</event>
<event>
 5   0  0.8681396E-05  0.1925462E+04  0.7818609E-02  0.8642285E-01
       -1   -1    0    0    0  501  0.00000000000E+00  0.00000000000E+00  0.63183311094E+03  0.63183311096E+03  0.50400001928E-02 0. -1.
        1   -1    0    0  501    0  0.00000000000E+00  0.00000000000E+00 -0.14669235552E+04  0.14669235552E+04  0.50400001928E-02 0.  1.
    10030    2    1    2    0    0  0.00000000000E+00  0.00000000000E+00 -0.83509044426E+03  0.20987566662E+04  0.19254618910E+04 0.  0.
        3    1    3    3  502    0 -0.91074447273E+02  0.37928278666E+03  0.54184256283E+03  0.66764014281E+03  0.10100000352E+00 0. -1.
       -3    1    3    3    0  502  0.91074447273E+02 -0.37928278666E+03 -0.13769330071E+04  0.14311165233E+04  0.10100000352E+00 0.  1.
</event>
<event>
 5   0  0.8681396E-05  0.1836697E+04  0.7818609E-02  0.8687024E-01
        1   -1    0    0  501    0  0.00000000000E+00  0.00000000000E+00  0.11912995344E+04  0.11912995344E+04  0.50400001928E-02 0. -1.
       -1   -1    0    0    0  501  0.00000000000E+00  0.00000000000E+00 -0.70793602879E+03  0.70793602881E+03  0.50400001928E-02 0.  1.
    10030    2    1    2    0    0  0.00000000000E+00  0.00000000000E+00  0.48336350557E+03  0.18992355632E+04  0.18366968846E+04 0.  0.
        3    1    3    3  502    0  0.44733235243E+03 -0.45815073216E+03 -0.43903041409E+03  0.77637364819E+03  0.10100000352E+00 0.  1.
       -3    1    3    3    0  502 -0.44733235243E+03  0.45815073216E+03  0.92239391966E+03  0.11228619150E+04  0.10100000352E+00 0. -1.
</event>
<event>
 5   0  0.1810569E-04  0.1850519E+04  0.7818609E-02  0.8679886E-01
        2   -1    0    0  501    0  0.00000000000E+00  0.00000000000E+00  0.23536877650E+04  0.23536877650E+04  0.25500000920E-02 0.  1.
       -2   -1    0    0    0  501  0.00000000000E+00  0.00000000000E+00 -0.36372939730E+03  0.36372939731E+03  0.25500000920E-02 0. -1.
    10030    2    1    2    0    0  0.00000000000E+00  0.00000000000E+00  0.19899583677E+04  0.27174171623E+04  0.18505193133E+04 0.  0.
        4    1    3    3  502    0  0.30201560278E+03 -0.72092301162E+03  0.26788970877E+03  0.82626262288E+03  0.12699999809E+01 0. -1.
       -4    1    3    3    0  502 -0.30201560278E+03  0.72092301162E+03  0.17220686589E+04  0.18911545394E+04  0.12699999809E+01 0.  1.
</event>
<event>
 5   0  0.1799738E-04  0.1880881E+04  0.7818609E-02  0.8664432E-01
       -2   -1    0    0    0  501  0.00000000000E+00  0.00000000000E+00  0.89594225266E+03  0.89594225267E+03  0.25500000920E-02 0.  1.
        2   -1    0    0  501    0  0.00000000000E+00  0.00000000000E+00 -0.98714912377E+03  0.98714912377E+03  0.25500000920E-02 0. -1.
    10030    2    1    2    0    0  0.00000000000E+00  0.00000000000E+00 -0.91206871104E+02  0.18830913764E+04  0.18808812931E+04 0.  0.
        1    1    3    3  502    0  0.15794373548E+03 -0.91744098514E+03  0.87911521288E+02  0.93507893806E+03  0.50400001928E-02 0. -1.
       -1    1    3    3    0  502 -0.15794373548E+03  0.91744098514E+03 -0.17911839239E+03  0.94801243838E+03  0.50400001928E-02 0.  1.
</event>
<event>
 5   0  0.1658711E-04  0.1897164E+04  0.7818609E-02  0.8656269E-01
        2   -1    0    0  501    0  0.00000000000E+00  0.00000000000E+00  0.14160772572E+04  0.14160772572E+04  0.25500000920E-02 0. -1.
       -2   -1    0    0    0  501  0.00000000000E+00  0.00000000000E+00 -0.63542296872E+03  0.63542296872E+03  0.25500000920E-02 0.  1.
    10030    2    1    2    0    0  0.00000000000E+00  0.00000000000E+00  0.78065428848E+03  0.20515002259E+04  0.18971642150E+04 0.  0.
        2    1    3    3  502    0  0.91440636371E+02  0.38695585038E+03  0.13216156386E+04  0.13801319199E+04  0.25500000920E-02 0. -1.
       -2    1    3    3    0  502 -0.91440636371E+02 -0.38695585038E+03 -0.54096135007E+03  0.67136830607E+03  0.25500000920E-02 0.  1.
</event>
<event>
 5   0  0.1810569E-04  0.1849697E+04  0.7818609E-02  0.8680309E-01
       -2   -1    0    0    0  501  0.00000000000E+00  0.00000000000E+00  0.46343994416E+03  0.46343994417E+03  0.25500000920E-02 0.  1.
        2   -1    0    0  501    0  0.00000000000E+00  0.00000000000E+00 -0.18456434521E+04  0.18456434521E+04  0.25500000920E-02 0. -1.
    10030    2    1    2    0    0  0.00000000000E+00  0.00000000000E+00 -0.13822035080E+04  0.23090833963E+04  0.18496971627E+04 0.  0.
        4    1    3    3  502    0 -0.54375656621E+02 -0.10447524674E+02 -0.18435713585E+04  0.18444031093E+04  0.12699999809E+01 0. -1.
       -4    1    3    3    0  502  0.54375656621E+02  0.10447524674E+02  0.46136785049E+03  0.46468028704E+03  0.12699999809E+01 0.  1.
</event>
<event>
 5   0  0.8905646E-05  0.1884785E+04  0.7818609E-02  0.8662467E-01
       -1   -1    0    0    0  501  0.00000000000E+00  0.00000000000E+00  0.85170141139E+03  0.85170141140E+03  0.50400001928E-02 0.  1.
        1   -1    0    0  501    0  0.00000000000E+00  0.00000000000E+00 -0.10427408646E+04  0.10427408646E+04  0.50400001928E-02 0. -1.
    10030    2    1    2    0    0  0.00000000000E+00  0.00000000000E+00 -0.19103945320E+03  0.18944422760E+04  0.18847852569E+04 0.  0.
        1    1    3    3  502    0  0.92721006903E+03 -0.23258052528E+02  0.72201706691E+02  0.93030776391E+03  0.50400001928E-02 0.  1.
       -1    1    3    3    0  502 -0.92721006903E+03  0.23258052528E+02 -0.26324115989E+03  0.96413451209E+03  0.50400001928E-02 0. -1.
</event>
<event>
 5   0  0.8681396E-05  0.1909718E+04  0.7818609E-02  0.8650034E-01
       -1   -1    0    0    0  501  0.00000000000E+00  0.00000000000E+00  0.68408395772E+03  0.68408395774E+03  0.50400001928E-02 0. -1.
        1   -1    0    0  501    0  0.00000000000E+00  0.00000000000E+00 -0.13328119727E+04  0.13328119727E+04  0.50400001928E-02 0.  1.
    10030    2    1    2    0    0  0.00000000000E+00  0.00000000000E+00 -0.64872801501E+03  0.20168959305E+04  0.19097175595E+04 0.  0.
        3    1    3    3  502    0 -0.54406082525E+03  0.71325286795E+03 -0.66986858785E+03  0.11195783896E+04  0.10100000352E+00 0.  1.
       -3    1    3    3    0  502  0.54406082525E+03 -0.71325286795E+03  0.21140572840E+02  0.89731754091E+03  0.10100000352E+00 0. -1.
</event>
<event>
 5   0  0.1658711E-04  0.1946375E+04  0.7818609E-02  0.8632111E-01
        2   -1    0    0  501    0  0.00000000000E+00  0.00000000000E+00  0.19882396834E+04  0.19882396834E+04  0.25500000920E-02 0.  1.
       -2   -1    0    0    0  501  0.00000000000E+00  0.00000000000E+00 -0.47634811137E+03  0.47634811138E+03  0.25500000920E-02 0. -1.
    10030    2    1    2    0    0  0.00000000000E+00  0.00000000000E+00  0.15118915720E+04  0.24645877948E+04  0.19463753165E+04 0.  0.
        2    1    3    3  502    0  0.93945708139E+03 -0.14654600734E+03  0.10186385899E+04  0.13934417522E+04  0.25500000920E-02 0.  1.
       -2    1    3    3    0  502 -0.93945708139E+03  0.14654600734E+03  0.49325298212E+03  0.10711460425E+04  0.25500000920E-02 0. -1.
</event>
<event>
 5   0  0.8602017E-05  0.1906045E+04  0.7818609E-02  0.8651853E-01
       -1   -1    0    0    0  501  0.00000000000E+00  0.00000000000E+00  0.60149846665E+03  0.60149846667E+03  0.50400001928E-02 0.  1.
        1   -1    0    0  501    0  0.00000000000E+00  0.00000000000E+00 -0.15099814593E+04  0.15099814593E+04  0.50400001928E-02 0. -1.
    10030    2    1    2    0    0  0.00000000000E+00  0.00000000000E+00 -0.90848299267E+03  0.21114799260E+04  0.19060446296E+04 0.  0.
        2    1    3    3  502    0  0.37256027727E+03  0.45543823364E+03 -0.12847273609E+04  0.14130638827E+04  0.25500000920E-02 0. -1.
       -2    1    3    3    0  502 -0.37256027727E+03 -0.45543823364E+03  0.37624436821E+03  0.69841604326E+03  0.25500000920E-02 0.  1.
</event>
<event>
 5   0  0.8567844E-05  0.1903561E+04  0.7818609E-02  0.8653086E-01
        1   -1    0    0  501    0  0.00000000000E+00  0.00000000000E+00  0.13889625519E+04  0.13889625519E+04  0.50400001928E-02 0.  1.
       -1   -1    0    0    0  501  0.00000000000E+00  0.00000000000E+00 -0.65220370830E+03  0.65220370832E+03  0.50400001928E-02 0. -1.
    10030    2    1    2    0    0  0.00000000000E+00  0.00000000000E+00  0.73675884360E+03  0.20411662602E+04  0.19035614275E+04 0.  0.
        4    1    3    3  502    0  0.50905439117E+03  0.80420624480E+03  0.36937198058E+03  0.10209413941E+04  0.12699999809E+01 0. -1.
       -4    1    3    3    0  502 -0.50905439117E+03 -0.80420624480E+03  0.36738686302E+03  0.10202248661E+04  0.12699999809E+01 0.  1.
</event>
<event>
 5   0  0.8567844E-05  0.1894832E+04  0.7818609E-02  0.8657433E-01
        1   -1    0    0  501    0  0.00000000000E+00  0.00000000000E+00  0.10756009178E+04  0.10756009178E+04  0.50400001928E-02 0. -1.
       -1   -1    0    0    0  501  0.00000000000E+00  0.00000000000E+00 -0.83450726607E+03  0.83450726609E+03  0.50400001928E-02 0.  1.
    10030    2    1    2    0    0  0.00000000000E+00  0.00000000000E+00  0.24109365169E+03  0.19101081839E+04  0.18948316878E+04 0.  0.
        4    1    3    3  502    0  0.42276848903E+03 -0.10378415677E+03 -0.72771868372E+03  0.84798610959E+03  0.12699999809E+01 0.  1.
       -4    1    3    3    0  502 -0.42276848903E+03  0.10378415677E+03  0.96881233541E+03  0.10621220743E+04  0.12699999809E+01 0. -1.
</event>
<event>
 5   0  0.1658711E-04  0.1899796E+04  0.7818609E-02  0.8654958E-01
        2   -1    0    0  501    0  0.00000000000E+00  0.00000000000E+00  0.83550866684E+03  0.83550866685E+03  0.25500000920E-02 0.  1.
       -2   -1    0    0    0  501  0.00000000000E+00  0.00000000000E+00 -0.10799487979E+04  0.10799487979E+04  0.25500000920E-02 0. -1.
    10030    2    1    2    0    0  0.00000000000E+00  0.00000000000E+00 -0.24444013101E+03  0.19154574647E+04  0.18997963895E+04 0.  0.
        2    1    3    3  502    0  0.92081258093E+02 -0.38008426936E+03 -0.99501404654E+03  0.10691098927E+04  0.25500000920E-02 0. -1.
       -2    1    3    3    0  502 -0.92081258093E+02  0.38008426936E+03  0.75057391553E+03  0.84634757198E+03  0.25500000920E-02 0.  1.
</event>
<event>
 5   0  0.8905646E-05  0.1790733E+04  0.7818609E-02  0.8711243E-01
       -1   -1    0    0    0  501  0.00000000000E+00  0.00000000000E+00  0.37562914352E+03  0.37562914356E+03  0.50400001928E-02 0.  1.
        1   -1    0    0  501    0  0.00000000000E+00  0.00000000000E+00 -0.21342363771E+04  0.21342363771E+04  0.50400001928E-02 0. -1.
    10030    2    1    2    0    0  0.00000000000E+00  0.00000000000E+00 -0.17586072336E+04  0.25098655207E+04  0.17907332380E+04 0.  0.
        1    1    3    3  502    0 -0.72492488851E+03 -0.36259259982E+03 -0.34616313503E+03  0.88137302177E+03  0.50400001928E-02 0.  1.
       -1    1    3    3    0  502  0.72492488851E+03  0.36259259982E+03 -0.14124440986E+04  0.16284924989E+04  0.50400001928E-02 0. -1.
</event>
<event>
 5   0  0.1658711E-04  0.1915546E+04  0.7818609E-02  0.8647157E-01
        2   -1    0    0  501    0  0.00000000000E+00  0.00000000000E+00  0.14370674402E+04  0.14370674402E+04  0.25500000920E-02 0.  1.
       -2   -1    0    0    0  501  0.00000000000E+00  0.00000000000E+00 -0.63833416832E+03  0.63833416833E+03  0.25500000920E-02 0. -1.
    10030    2    1    2    0    0  0.00000000000E+00  0.00000000000E+00  0.79873327187E+03  0.20754016085E+04  0.19155461355E+04 0.  0.
        2    1    3    3  502    0  0.66729698632E+02 -0.92311219329E+03  0.66638916825E+03  0.11404663509E+04  0.25500000920E-02 0. -1.
       -2    1    3    3    0  502 -0.66729698632E+02  0.92311219329E+03  0.13234410362E+03  0.93493525757E+03  0.25500000920E-02 0.  1.
</event>
<event>
 5   0  0.1658711E-04  0.1898556E+04  0.7818609E-02  0.8655576E-01
       -2   -1    0    0    0  501  0.00000000000E+00  0.00000000000E+00  0.60754475768E+03  0.60754475769E+03  0.25500000920E-02 0. -1.
        2   -1    0    0  501    0  0.00000000000E+00  0.00000000000E+00 -0.14832299031E+04  0.14832299031E+04  0.25500000920E-02 0.  1.
    10030    2    1    2    0    0  0.00000000000E+00  0.00000000000E+00 -0.87568514545E+03  0.20907746608E+04  0.18985558218E+04 0.  0.
        2    1    3    3  502    0 -0.35990918038E+03 -0.21039521241E+03  0.50133766918E+03  0.65202777707E+03  0.25500000920E-02 0. -1.
       -2    1    3    3    0  502  0.35990918038E+03  0.21039521241E+03 -0.13770228146E+04  0.14387468838E+04  0.25500000920E-02 0.  1.
</event>
<event>
 5   0  0.1658711E-04  0.1523123E+04  0.7818609E-02  0.8869220E-01
       -2   -1    0    0    0  501  0.00000000000E+00  0.00000000000E+00  0.57990293411E+03  0.57990293411E+03  0.25500000920E-02 0. -1.
        2   -1    0    0  501    0  0.00000000000E+00  0.00000000000E+00 -0.10001259380E+04  0.10001259380E+04  0.25500000920E-02 0.  1.
    10030    2    1    2    0    0  0.00000000000E+00  0.00000000000E+00 -0.42022300385E+03  0.15800288721E+04  0.15231230625E+04 0.  0.
        2    1    3    3  502    0  0.60330971863E+03 -0.31053239020E+03 -0.56880904460E+03  0.88541329964E+03  0.25500000920E-02 0.  1.
       -2    1    3    3    0  502 -0.60330971863E+03  0.31053239020E+03  0.14858604075E+03  0.69461557243E+03  0.25500000920E-02 0. -1.
</event>
<event>
 5   0  0.1799738E-04  0.1903635E+04  0.7818609E-02  0.8653049E-01
       -2   -1    0    0    0  501  0.00000000000E+00  0.00000000000E+00  0.63412965981E+03  0.63412965982E+03  0.25500000920E-02 0. -1.
        2   -1    0    0  501    0  0.00000000000E+00  0.00000000000E+00 -0.14286608708E+04  0.14286608708E+04  0.25500000920E-02 0.  1.
    10030    2    1    2    0    0  0.00000000000E+00  0.00000000000E+00 -0.79453121097E+03  0.20627905306E+04  0.19036346624E+04 0.  0.
        1    1    3    3  502    0 -0.15397553034E+03 -0.13425897832E+03  0.61009336444E+03  0.64338779174E+03  0.50400001928E-02 0. -1.
       -1    1    3    3    0  502  0.15397553034E+03  0.13425897832E+03 -0.14046245754E+04  0.14194027389E+04  0.50400001928E-02 0.  1.
</event>
<event>
 5   0  0.8602017E-05  0.1898739E+04  0.7818609E-02  0.8655484E-01
        1   -1    0    0  501    0  0.00000000000E+00  0.00000000000E+00  0.10489564452E+04  0.10489564452E+04  0.50400001928E-02 0.  1.
       -1   -1    0    0    0  501  0.00000000000E+00  0.00000000000E+00 -0.85923701768E+03  0.85923701769E+03  0.50400001928E-02 0. -1.
    10030    2    1    2    0    0  0.00000000000E+00  0.00000000000E+00  0.18971942749E+03  0.19081934629E+04  0.18987387473E+04 0.  0.
        2    1    3    3  502    0 -0.36058105982E+02 -0.65544402392E+03  0.78412849600E+03  0.10226263021E+04  0.25500000920E-02 0.  1.
       -2    1    3    3    0  502  0.36058105982E+02  0.65544402392E+03 -0.59440906851E+03  0.88556716077E+03  0.25500000920E-02 0. -1.
</event>
<event>
 5   0  0.1810569E-04  0.1913722E+04  0.7818609E-02  0.8648056E-01
       -2   -1    0    0    0  501  0.00000000000E+00  0.00000000000E+00  0.81172665398E+03  0.81172665398E+03  0.25500000920E-02 0.  1.
        2   -1    0    0  501    0  0.00000000000E+00  0.00000000000E+00 -0.11279446874E+04  0.11279446874E+04  0.25500000920E-02 0. -1.
    10030    2    1    2    0    0  0.00000000000E+00  0.00000000000E+00 -0.31621803342E+03  0.19396713414E+04  0.19137217844E+04 0.  0.
        4    1    3    3  502    0 -0.24830124443E+03  0.40535595515E+03 -0.99979955470E+03  0.11070536215E+04  0.12699999809E+01 0. -1.
       -4    1    3    3    0  502  0.24830124443E+03 -0.40535595515E+03  0.68358152128E+03  0.83261771990E+03  0.12699999809E+01 0.  1.
</event>
<event>
 5   0  0.1790832E-04  0.1882516E+04  0.7818609E-02  0.8663608E-01
        2   -1    0    0  501    0  0.00000000000E+00  0.00000000000E+00  0.78989726571E+03  0.78989726572E+03  0.25500000920E-02 0.  1.
       -2   -1    0    0    0  501  0.00000000000E+00  0.00000000000E+00 -0.11216228349E+04  0.11216228349E+04  0.25500000920E-02 0. -1.
    10030    2    1    2    0    0  0.00000000000E+00  0.00000000000E+00 -0.33172556917E+03  0.19115201006E+04  0.18825161996E+04 0.  0.
        5    1    3    3  502    0 -0.11199220490E+03 -0.48216400413E+03  0.64704666904E+03  0.81468758598E+03  0.46999998093E+01 0.  1.
       -5    1    3    3    0  502  0.11199220490E+03  0.48216400413E+03 -0.97877223822E+03  0.10968325146E+04  0.46999998093E+01 0. -1.
</event>
<event>
 5   0  0.8681396E-05  0.1690789E+04  0.7818609E-02  0.8766635E-01
        1   -1    0    0  501    0  0.00000000000E+00  0.00000000000E+00  0.15336591019E+04  0.15336591019E+04  0.50400001928E-02 0. -1.
       -1   -1    0    0    0  501  0.00000000000E+00  0.00000000000E+00 -0.46600447308E+03  0.46600447310E+03  0.50400001928E-02 0.  1.
    10030    2    1    2    0    0  0.00000000000E+00  0.00000000000E+00  0.10676546289E+04  0.19996635750E+04  0.16907891669E+04 0.  0.
        3    1    3    3  502    0  0.39438319535E+03 -0.64230431817E+03  0.98665508874E+03  0.12416042913E+04  0.10100000352E+00 0. -1.
       -3    1    3    3    0  502 -0.39438319535E+03  0.64230431817E+03  0.80999540113E+02  0.75805928371E+03  0.10100000352E+00 0.  1.
</event>
<event>
 5   0  0.1790832E-04  0.1912091E+04  0.7818609E-02  0.8648861E-01
       -2   -1    0    0    0  501  0.00000000000E+00  0.00000000000E+00  0.12318254405E+04  0.12318254405E+04  0.25500000920E-02 0.  1.
        2   -1    0    0  501    0  0.00000000000E+00  0.00000000000E+00 -0.74200723098E+03  0.74200723099E+03  0.25500000920E-02 0. -1.
    10030    2    1    2    0    0  0.00000000000E+00  0.00000000000E+00  0.48981820949E+03  0.19738326715E+04  0.19120914038E+04 0.  0.
        5    1    3    3  502    0 -0.13858172066E+03 -0.74042165211E+03  0.85262211211E+03  0.11377238998E+04  0.46999998093E+01 0.  1.
       -5    1    3    3    0  502  0.13858172066E+03  0.74042165211E+03 -0.36280390262E+03  0.83610877162E+03  0.46999998093E+01 0. -1.
</event>
<event>
 5   0  0.8587082E-05  0.1946089E+04  0.7818609E-02  0.8632249E-01
        1   -1    0    0  501    0  0.00000000000E+00  0.00000000000E+00  0.71201601469E+03  0.71201601470E+03  0.50400001928E-02 0.  1.
       -1   -1    0    0    0  501  0.00000000000E+00  0.00000000000E+00 -0.13297671245E+04  0.13297671245E+04  0.50400001928E-02 0. -1.
    10030    2    1    2    0    0  0.00000000000E+00  0.00000000000E+00 -0.61775110983E+03  0.20417831392E+04  0.19460888864E+04 0.  0.
        5    1    3    3  502    0  0.22637110531E+03  0.76330919826E+03 -0.89576416720E+03  0.11984574847E+04  0.46999998093E+01 0. -1.
       -5    1    3    3    0  502 -0.22637110531E+03 -0.76330919826E+03  0.27801305738E+03  0.84332565450E+03  0.46999998093E+01 0.  1.
</event>
<event>
 5   0  0.1790832E-04  0.1889000E+04  0.7818609E-02  0.8660351E-01
        2   -1    0    0  501    0  0.00000000000E+00  0.00000000000E+00  0.92081167166E+03  0.92081167167E+03  0.25500000920E-02 0.  1.
       -2   -1    0    0    0  501  0.00000000000E+00  0.00000000000E+00 -0.96879779879E+03  0.96879779879E+03  0.25500000920E-02 0. -1.
    10030    2    1    2    0    0  0.00000000000E+00  0.00000000000E+00 -0.47986127128E+02  0.18896094705E+04  0.18890000748E+04 0.  0.
        5    1    3    3  502    0  0.60719964504E+03 -0.31320777020E+03  0.62834284935E+03  0.92823883919E+03  0.46999998093E+01 0.  1.
       -5    1    3    3    0  502 -0.60719964504E+03  0.31320777020E+03 -0.67632897648E+03  0.96137063127E+03  0.46999998093E+01 0. -1.
</event>
<event>
 5   0  0.1658711E-04  0.1900379E+04  0.7818609E-02  0.8654668E-01
       -2   -1    0    0    0  501  0.00000000000E+00  0.00000000000E+00  0.73483156489E+03  0.73483156489E+03  0.25500000920E-02 0. -1.
        2   -1    0    0  501    0  0.00000000000E+00  0.00000000000E+00 -0.12286628346E+04  0.12286628346E+04  0.25500000920E-02 0.  1.
    10030    2    1    2    0    0  0.00000000000E+00  0.00000000000E+00 -0.49383126972E+03  0.19634943995E+04  0.19003791553E+04 0.  0.
        2    1    3    3  502    0 -0.65406856333E+03  0.87456149928E+02  0.45946134281E+03  0.80408891874E+03  0.25500000920E-02 0. -1.
       -2    1    3    3    0  502  0.65406856333E+03 -0.87456149928E+02 -0.95329261253E+03  0.11594054808E+04  0.25500000920E-02 0.  1.
</event>
<event>
 5   0  0.8905646E-05  0.1898029E+04  0.7818609E-02  0.8655838E-01
        1   -1    0    0  501    0  0.00000000000E+00  0.00000000000E+00  0.81828126497E+03  0.81828126498E+03  0.50400001928E-02 0. -1.
       -1   -1    0    0    0  501  0.00000000000E+00  0.00000000000E+00 -0.11006341359E+04  0.11006341359E+04  0.50400001928E-02 0.  1.
    10030    2    1    2    0    0  0.00000000000E+00  0.00000000000E+00 -0.28235287091E+03  0.19189154009E+04  0.18980287595E+04 0.  0.
        1    1    3    3  502    0 -0.40685634715E+03 -0.50710067652E+03 -0.84011990397E+03  0.10623015751E+04  0.50400001928E-02 0.  1.
       -1    1    3    3    0  502  0.40685634715E+03  0.50710067652E+03  0.55776703306E+03  0.85661382579E+03  0.50400001928E-02 0. -1.
</event>
<event>
 5   0  0.8681396E-05  0.1912623E+04  0.7818609E-02  0.8648598E-01
        1   -1    0    0  501    0  0.00000000000E+00  0.00000000000E+00  0.14161554567E+04  0.14161554567E+04  0.50400001928E-02 0. -1.
       -1   -1    0    0    0  501  0.00000000000E+00  0.00000000000E+00 -0.64578488208E+03  0.64578488210E+03  0.50400001928E-02 0.  1.
    10030    2    1    2    0    0  0.00000000000E+00  0.00000000000E+00  0.77037057466E+03  0.20619403388E+04  0.19126231042E+04 0.  0.
        3    1    3    3  502    0 -0.81554738816E+03 -0.25080096716E+03  0.85077285573E+03  0.12049203831E+04  0.10100000352E+00 0. -1.
       -3    1    3    3    0  502  0.81554738816E+03  0.25080096716E+03 -0.80402281075E+02  0.85701995570E+03  0.10100000352E+00 0.  1.
</event>
<event>
 5   0  0.1810569E-04  0.1920674E+04  0.7818609E-02  0.8644633E-01
       -2   -1    0    0    0  501  0.00000000000E+00  0.00000000000E+00  0.35004703884E+03  0.35004703885E+03  0.25500000920E-02 0.  1.
        2   -1    0    0  501    0  0.00000000000E+00  0.00000000000E+00 -0.26346386323E+04  0.26346386323E+04  0.25500000920E-02 0. -1.
    10030    2    1    2    0    0  0.00000000000E+00  0.00000000000E+00 -0.22845915935E+04  0.29846856711E+04  0.19206743104E+04 0.  0.
        4    1    3    3  502    0  0.69085981953E+03  0.29331457398E+03 -0.20732896071E+04  0.22049608018E+04  0.12699999809E+01 0. -1.
       -4    1    3    3    0  502 -0.69085981953E+03 -0.29331457398E+03 -0.21130198631E+03  0.77972486934E+03  0.12699999809E+01 0.  1.
</event>
<event>
 5   0  0.1810569E-04  0.1947252E+04  0.7818609E-02  0.8631687E-01
        2   -1    0    0  501    0  0.00000000000E+00  0.00000000000E+00  0.82466282850E+03  0.82466282850E+03  0.25500000920E-02 0.  1.
       -2   -1    0    0    0  501  0.00000000000E+00  0.00000000000E+00 -0.11494977500E+04  0.11494977500E+04  0.25500000920E-02 0. -1.
    10030    2    1    2    0    0  0.00000000000E+00  0.00000000000E+00 -0.32483492153E+03  0.19741605785E+04  0.19472524910E+04 0.  0.
        4    1    3    3  502    0  0.15239609683E+03 -0.95745776131E+03 -0.25307640683E+03  0.10019976126E+04  0.12699999809E+01 0. -1.
       -4    1    3    3    0  502 -0.15239609683E+03  0.95745776131E+03 -0.71758514704E+02  0.97216296595E+03  0.12699999809E+01 0.  1.
</event>
<event>
 5   0  0.1799738E-04  0.1820502E+04  0.7818609E-02  0.8695472E-01
       -2   -1    0    0    0  501  0.00000000000E+00  0.00000000000E+00  0.33559328171E+03  0.33559328172E+03  0.25500000920E-02 0. -1.
        2   -1    0    0  501    0  0.00000000000E+00  0.00000000000E+00 -0.24689304232E+04  0.24689304232E+04  0.25500000920E-02 0.  1.
    10030    2    1    2    0    0  0.00000000000E+00  0.00000000000E+00 -0.21333371415E+04  0.28045237050E+04  0.18205015387E+04 0.  0.
        1    1    3    3  502    0  0.33291725017E+03 -0.11269620621E+03  0.22684038618E+03  0.41831912601E+03  0.50400001928E-02 0. -1.
       -1    1    3    3    0  502 -0.33291725017E+03  0.11269620621E+03 -0.23601775277E+04  0.23862045790E+04  0.50400001928E-02 0.  1.
</event>
<event>
 5   0  0.1790832E-04  0.1962561E+04  0.7818609E-02  0.8624328E-01
        2   -1    0    0  501    0  0.00000000000E+00  0.00000000000E+00  0.18279525300E+04  0.18279525301E+04  0.25500000920E-02 0.  1.
       -2   -1    0    0    0  501  0.00000000000E+00  0.00000000000E+00 -0.52677021257E+03  0.52677021257E+03  0.25500000920E-02 0. -1.
    10030    2    1    2    0    0  0.00000000000E+00  0.00000000000E+00  0.13011823175E+04  0.23547227426E+04  0.19625605141E+04 0.  0.
        5    1    3    3  502    0  0.46006804141E+03  0.60737871198E+03  0.13924627237E+04  0.15873077929E+04  0.46999998093E+01 0.  1.
       -5    1    3    3    0  502 -0.46006804141E+03 -0.60737871198E+03 -0.91280406235E+02  0.76741494972E+03  0.46999998093E+01 0. -1.
</event>
<event>
 5   0  0.8681396E-05  0.1893436E+04  0.7818609E-02  0.8658131E-01
        1   -1    0    0  501    0  0.00000000000E+00  0.00000000000E+00  0.11107359474E+04  0.11107359474E+04  0.50400001928E-02 0. -1.
       -1   -1    0    0    0  501  0.00000000000E+00  0.00000000000E+00 -0.80691977837E+03  0.80691977839E+03  0.50400001928E-02 0.  1.
    10030    2    1    2    0    0  0.00000000000E+00  0.00000000000E+00  0.30381616902E+03  0.19176557258E+04  0.18934358236E+04 0.  0.
        3    1    3    3  502    0 -0.42545601389E+03 -0.79728072505E+03 -0.13384529212E+03  0.91355566153E+03  0.10100000352E+00 0.  1.
       -3    1    3    3    0  502  0.42545601389E+03  0.79728072505E+03  0.43766146113E+03  0.10041000643E+04  0.10100000352E+00 0. -1.
</event>
<event>
 5   0  0.8905646E-05  0.1896840E+04  0.7818609E-02  0.8656431E-01
       -1   -1    0    0    0  501  0.00000000000E+00  0.00000000000E+00  0.80023370504E+03  0.80023370506E+03  0.50400001928E-02 0.  1.
        1   -1    0    0  501    0  0.00000000000E+00  0.00000000000E+00 -0.11240469185E+04  0.11240469186E+04  0.50400001928E-02 0. -1.
    10030    2    1    2    0    0  0.00000000000E+00  0.00000000000E+00 -0.32381321351E+03  0.19242806236E+04  0.18968397194E+04 0.  0.
        1    1    3    3  502    0 -0.25463873063E+03 -0.89249688593E+03  0.36131874199E+02  0.92881488301E+03  0.50400001928E-02 0.  1.
       -1    1    3    3    0  502  0.25463873063E+03  0.89249688593E+03 -0.35994508771E+03  0.99546574061E+03  0.50400001928E-02 0. -1.
</event>
<event>
 5   0  0.1658711E-04  0.1992951E+04  0.7818609E-02  0.8609924E-01
       -2   -1    0    0    0  501  0.00000000000E+00  0.00000000000E+00  0.69180360009E+03  0.69180360009E+03  0.25500000920E-02 0. -1.
        2   -1    0    0  501    0  0.00000000000E+00  0.00000000000E+00 -0.14353250276E+04  0.14353250276E+04  0.25500000920E-02 0.  1.
    10030    2    1    2    0    0  0.00000000000E+00  0.00000000000E+00 -0.74352142748E+03  0.21271286277E+04  0.19929505979E+04 0.  0.
        2    1    3    3  502    0 -0.67113198197E+03  0.57506740954E+03  0.11949048231E+03  0.89185124214E+03  0.25500000920E-02 0. -1.
       -2    1    3    3    0  502  0.67113198197E+03 -0.57506740954E+03 -0.86301190979E+03  0.12352773855E+04  0.25500000920E-02 0.  1.
</event>
<event>
 5   0  0.8587082E-05  0.1905812E+04  0.7818609E-02  0.8651969E-01
       -1   -1    0    0    0  501  0.00000000000E+00  0.00000000000E+00  0.57424766569E+03  0.57424766571E+03  0.50400001928E-02 0.  1.
        1   -1    0    0  501    0  0.00000000000E+00  0.00000000000E+00 -0.15812508522E+04  0.15812508522E+04  0.50400001928E-02 0. -1.
    10030    2    1    2    0    0  0.00000000000E+00  0.00000000000E+00 -0.10070031865E+04  0.21554985179E+04  0.19058117544E+04 0.  0.
        5    1    3    3  502    0  0.30202134222E+03  0.90068566275E+03 -0.41919771810E+03  0.10383642767E+04  0.46999998093E+01 0.  1.
       -5    1    3    3    0  502 -0.30202134222E+03 -0.90068566275E+03 -0.58780546841E+03  0.11171342412E+04  0.46999998093E+01 0. -1.
</event>
<event>
 5   0  0.8681396E-05  0.1901148E+04  0.7818609E-02  0.8654285E-01
        1   -1    0    0  501    0  0.00000000000E+00  0.00000000000E+00  0.11136812795E+04  0.11136812795E+04  0.50400001928E-02 0.  1.
       -1   -1    0    0    0  501  0.00000000000E+00  0.00000000000E+00 -0.81135468016E+03  0.81135468018E+03  0.50400001928E-02 0. -1.
    10030    2    1    2    0    0  0.00000000000E+00  0.00000000000E+00  0.30232659932E+03  0.19250359597E+04  0.19011475675E+04 0.  0.
        3    1    3    3  502    0  0.66952480574E+03  0.62812748791E+03  0.40080304585E+03  0.10017238633E+04  0.10100000352E+00 0.  1.
       -3    1    3    3    0  502 -0.66952480574E+03 -0.62812748791E+03 -0.98476446536E+02  0.92331209636E+03  0.10100000352E+00 0. -1.
</event>
<event>
 5   0  0.8602017E-05  0.1914524E+04  0.7818609E-02  0.8647660E-01
        1   -1    0    0  501    0  0.00000000000E+00  0.00000000000E+00  0.96431661542E+03  0.96431661543E+03  0.50400001928E-02 0.  1.
       -1   -1    0    0    0  501  0.00000000000E+00  0.00000000000E+00 -0.95025933687E+03  0.95025933688E+03  0.50400001928E-02 0. -1.
    10030    2    1    2    0    0  0.00000000000E+00  0.00000000000E+00  0.14057278546E+02  0.19145759523E+04  0.19145243457E+04 0.  0.
        2    1    3    3  502    0 -0.72421302063E+03 -0.55083376040E+02 -0.61655227163E+03  0.95270949467E+03  0.25500000920E-02 0. -1.
       -2    1    3    3    0  502  0.72421302063E+03  0.55083376040E+02  0.63060955018E+03  0.96186645765E+03  0.25500000920E-02 0.  1.
</event>
<event>
 5   0  0.1658711E-04  0.1906771E+04  0.7818609E-02  0.8651493E-01
        2   -1    0    0  501    0  0.00000000000E+00  0.00000000000E+00  0.89031466389E+03  0.89031466389E+03  0.25500000920E-02 0.  1.
       -2   -1    0    0    0  501  0.00000000000E+00  0.00000000000E+00 -0.10209244659E+04  0.10209244659E+04  0.25500000920E-02 0. -1.
    10030    2    1    2    0    0  0.00000000000E+00  0.00000000000E+00 -0.13060980206E+03  0.19112391298E+04  0.19067711166E+04 0.  0.
        2    1    3    3  502    0 -0.34663579360E+03  0.35262428640E+03 -0.88234915096E+03  0.10114545393E+04  0.25500000920E-02 0. -1.
       -2    1    3    3    0  502  0.34663579360E+03 -0.35262428640E+03  0.75173934890E+03  0.89978459059E+03  0.25500000920E-02 0.  1.
</event>
<event>
 5   0  0.1765328E-04  0.1926693E+04  0.7818609E-02  0.8641682E-01
        2   -1    0    0  501    0  0.00000000000E+00  0.00000000000E+00  0.12462608495E+04  0.12462608495E+04  0.25500000920E-02 0. -1.
       -2   -1    0    0    0  501  0.00000000000E+00  0.00000000000E+00 -0.74465702505E+03  0.74465702505E+03  0.25500000920E-02 0.  1.
    10030    2    1    2    0    0  0.00000000000E+00  0.00000000000E+00  0.50160382445E+03  0.19909178746E+04  0.19266934335E+04 0.  0.
        3    1    3    3  502    0  0.93906614477E+03  0.22142733920E+02  0.29897038406E+02  0.93980283465E+03  0.10100000352E+00 0.  1.
       -3    1    3    3    0  502 -0.93906614477E+03 -0.22142733920E+02  0.47170678604E+03  0.10511150399E+04  0.10100000352E+00 0. -1.
</event>
<event>
 5   0  0.8587082E-05  0.1899227E+04  0.7818609E-02  0.8655241E-01
       -1   -1    0    0    0  501  0.00000000000E+00  0.00000000000E+00  0.67107926296E+03  0.67107926298E+03  0.50400001928E-02 0.  1.
        1   -1    0    0  501    0  0.00000000000E+00  0.00000000000E+00 -0.13437541883E+04  0.13437541883E+04  0.50400001928E-02 0. -1.
    10030    2    1    2    0    0  0.00000000000E+00  0.00000000000E+00 -0.67267492533E+03  0.20148334513E+04  0.18992267588E+04 0.  0.
        5    1    3    3  502    0  0.43996910717E+03  0.61560007269E+03  0.27235371172E+03  0.80419829584E+03  0.46999998093E+01 0.  1.
       -5    1    3    3    0  502 -0.43996910717E+03 -0.61560007269E+03 -0.94502863705E+03  0.12106351554E+04  0.46999998093E+01 0. -1.
</event>
<event>
 5   0  0.8905646E-05  0.1900154E+04  0.7818609E-02  0.8654780E-01
        1   -1    0    0  501    0  0.00000000000E+00  0.00000000000E+00  0.12579225324E+04  0.12579225324E+04  0.50400001928E-02 0. -1.
       -1   -1    0    0    0  501  0.00000000000E+00  0.00000000000E+00 -0.71756912347E+03  0.71756912348E+03  0.50400001928E-02 0.  1.
    10030    2    1    2    0    0  0.00000000000E+00  0.00000000000E+00  0.54035340895E+03  0.19754916559E+04  0.19001540664E+04 0.  0.
        1    1    3    3  502    0 -0.15273882167E+03  0.74874172261E+03  0.85709749918E+03  0.11482854340E+04  0.50400001928E-02 0. -1.
       -1    1    3    3    0  502  0.15273882167E+03 -0.74874172261E+03 -0.31674409023E+03  0.82720622190E+03  0.50400001928E-02 0.  1.
</event>
<event>
 5   0  0.8681396E-05  0.1894682E+04  0.7818609E-02  0.8657508E-01
        1   -1    0    0  501    0  0.00000000000E+00  0.00000000000E+00  0.10531683165E+04  0.10531683166E+04  0.50400001928E-02 0. -1.
       -1   -1    0    0    0  501  0.00000000000E+00  0.00000000000E+00 -0.85214790684E+03  0.85214790685E+03  0.50400001928E-02 0.  1.
    10030    2    1    2    0    0  0.00000000000E+00  0.00000000000E+00  0.20102040971E+03  0.19053162234E+04  0.18946822177E+04 0.  0.
        3    1    3    3  502    0  0.26865148378E+03 -0.71562975344E+02 -0.81019968866E+03  0.85657365409E+03  0.10100000352E+00 0.  1.
       -3    1    3    3    0  502 -0.26865148378E+03  0.71562975344E+02  0.10112200984E+04  0.10487425693E+04  0.10100000352E+00 0. -1.
</event>
<event>
 5   0  0.1790832E-04  0.1883363E+04  0.7818609E-02  0.8663182E-01
       -2   -1    0    0    0  501  0.00000000000E+00  0.00000000000E+00  0.74274563996E+03  0.74274563996E+03  0.25500000920E-02 0. -1.
        2   -1    0    0  501    0  0.00000000000E+00  0.00000000000E+00 -0.11939001340E+04  0.11939001340E+04  0.25500000920E-02 0.  1.
    10030    2    1    2    0    0  0.00000000000E+00  0.00000000000E+00 -0.45115449407E+03  0.19366457740E+04  0.18833630761E+04 0.  0.
        5    1    3    3  502    0 -0.55915652755E+03 -0.45462061679E+03 -0.84886604702E+03  0.11135221521E+04  0.46999998093E+01 0.  1.
       -5    1    3    3    0  502  0.55915652755E+03  0.45462061679E+03  0.39771155295E+03  0.82312362186E+03  0.46999998093E+01 0. -1.
</event>
<event>
 5   0  0.6375750E-05  0.1890671E+04  0.7818609E-02  0.8659514E-01
       -3   -1    0    0    0  501  0.00000000000E+00  0.00000000000E+00  0.67893802047E+03  0.67893802798E+03  0.10100000352E+00 0. -1.
        3   -1    0    0  501    0  0.00000000000E+00  0.00000000000E+00 -0.13162601422E+04  0.13162601461E+04  0.10100000352E+00 0.  1.
    10030    2    1    2    0    0  0.00000000000E+00  0.00000000000E+00 -0.63732212172E+03  0.19951981740E+04  0.18906708510E+04 0.  0.
        1    1    3    3  502    0  0.62052216635E+03 -0.69545536961E+03 -0.48535994104E+03  0.10508473735E+04  0.50400001928E-02 0. -1.
       -1    1    3    3    0  502 -0.62052216635E+03  0.69545536961E+03 -0.15196218068E+03  0.94435080051E+03  0.50400001928E-02 0.  1.
</event>
<event>
 5   0  0.1658711E-04  0.1894945E+04  0.7818609E-02  0.8657377E-01
        2   -1    0    0  501    0  0.00000000000E+00  0.00000000000E+00  0.59221409392E+03  0.59221409393E+03  0.25500000920E-02 0.  1.
       -2   -1    0    0    0  501  0.00000000000E+00  0.00000000000E+00 -0.15158440858E+04  0.15158440858E+04  0.25500000920E-02 0. -1.
    10030    2    1    2    0    0  0.00000000000E+00  0.00000000000E+00 -0.92362999190E+03  0.21080581797E+04  0.18949450987E+04 0.  0.
        2    1    3    3  502    0  0.14414467835E+03  0.31081681289E+03  0.52088776790E+03  0.62346519248E+03  0.25500000920E-02 0.  1.
       -2    1    3    3    0  502 -0.14414467835E+03 -0.31081681289E+03 -0.14445177598E+04  0.14845929873E+04  0.25500000920E-02 0. -1.
</event>
<event>
 5   0  0.1658711E-04  0.1889157E+04  0.7818609E-02  0.8660272E-01
        2   -1    0    0  501    0  0.00000000000E+00  0.00000000000E+00  0.73083442460E+03  0.73083442460E+03  0.25500000920E-02 0.  1.
       -2   -1    0    0    0  501  0.00000000000E+00  0.00000000000E+00 -0.12208357703E+04  0.12208357703E+04  0.25500000920E-02 0. -1.
    10030    2    1    2    0    0  0.00000000000E+00  0.00000000000E+00 -0.49000134570E+03  0.19516701949E+04  0.18891572806E+04 0.  0.
        2    1    3    3  502    0  0.49431675965E+02 -0.31537006501E+03  0.67342017553E+03  0.74524928803E+03  0.25500000920E-02 0.  1.
       -2    1    3    3    0  502 -0.49431675965E+02  0.31537006501E+03 -0.11634215212E+04  0.12064209069E+04  0.25500000920E-02 0. -1.
</event>
<event>
 5   0  0.1790832E-04  0.1903883E+04  0.7818609E-02  0.8652926E-01
       -2   -1    0    0    0  501  0.00000000000E+00  0.00000000000E+00  0.54107709532E+03  0.54107709533E+03  0.25500000920E-02 0. -1.
        2   -1    0    0  501    0  0.00000000000E+00  0.00000000000E+00 -0.16747939030E+04  0.16747939030E+04  0.25500000920E-02 0.  1.
    10030    2    1    2    0    0  0.00000000000E+00  0.00000000000E+00 -0.11337168077E+04  0.22158709983E+04  0.19038830009E+04 0.  0.
        5    1    3    3  502    0 -0.86059553049E+03  0.35662685429E+03 -0.33889698716E+03  0.99130249581E+03  0.46999998093E+01 0.  1.
       -5    1    3    3    0  502  0.86059553049E+03 -0.35662685429E+03 -0.79481982053E+03  0.12245685025E+04  0.46999998093E+01 0. -1.
</event>
<event>
 5   0  0.1799738E-04  0.1917468E+04  0.7818609E-02  0.8646210E-01
        2   -1    0    0  501    0  0.00000000000E+00  0.00000000000E+00  0.12801524505E+04  0.12801524505E+04  0.25500000920E-02 0.  1.
       -2   -1    0    0    0  501  0.00000000000E+00  0.00000000000E+00 -0.71801660230E+03  0.71801660230E+03  0.25500000920E-02 0. -1.
    10030    2    1    2    0    0  0.00000000000E+00  0.00000000000E+00  0.56213584821E+03  0.19981690528E+04  0.19174678229E+04 0.  0.
        1    1    3    3  502    0 -0.42760740618E+03 -0.85807200986E+03  0.28723695848E+03  0.10008200329E+04  0.50400001928E-02 0.  1.
       -1    1    3    3    0  502  0.42760740618E+03  0.85807200986E+03  0.27489888973E+03  0.99734901991E+03  0.50400001928E-02 0. -1.
</event>
<event>
 5   0  0.1658711E-04  0.1897460E+04  0.7818609E-02  0.8656122E-01
        2   -1    0    0  501    0  0.00000000000E+00  0.00000000000E+00  0.14624316950E+04  0.14624316950E+04  0.25500000920E-02 0. -1.
       -2   -1    0    0    0  501  0.00000000000E+00  0.00000000000E+00 -0.61547390861E+03  0.61547390862E+03  0.25500000920E-02 0.  1.
    10030    2    1    2    0    0  0.00000000000E+00  0.00000000000E+00  0.84695778634E+03  0.20779056036E+04  0.18974599352E+04 0.  0.
        2    1    3    3  502    0 -0.62481505627E+03 -0.70146681875E+03  0.56892100366E+03  0.10982352484E+04  0.25500000920E-02 0.  1.
       -2    1    3    3    0  502  0.62481505627E+03  0.70146681875E+03  0.27803678269E+03  0.97967035521E+03  0.25500000920E-02 0. -1.
</event>
<event>
 5   0  0.1799738E-04  0.1908148E+04  0.7818609E-02  0.8650811E-01
        2   -1    0    0  501    0  0.00000000000E+00  0.00000000000E+00  0.28097522386E+04  0.28097522386E+04  0.25500000920E-02 0.  1.
       -2   -1    0    0    0  501  0.00000000000E+00  0.00000000000E+00 -0.32396337361E+03  0.32396337362E+03  0.25500000920E-02 0. -1.
    10030    2    1    2    0    0  0.00000000000E+00  0.00000000000E+00  0.24857888650E+04  0.31337156122E+04  0.19081475983E+04 0.  0.
        1    1    3    3  502    0  0.93392871735E+03 -0.59609620256E+02  0.93793969080E+03  0.13249554783E+04  0.50400001928E-02 0. -1.
       -1    1    3    3    0  502 -0.93392871735E+03  0.59609620256E+02  0.15478491742E+04  0.18087601339E+04  0.50400001928E-02 0.  1.
</event>
<event>
 5   0  0.8567844E-05  0.2068600E+04  0.7818609E-02  0.8575203E-01
       -1   -1    0    0    0  501  0.00000000000E+00  0.00000000000E+00  0.98112169518E+03  0.98112169520E+03  0.50400001928E-02 0. -1.
        1   -1    0    0  501    0  0.00000000000E+00  0.00000000000E+00 -0.10903610450E+04  0.10903610450E+04  0.50400001928E-02 0.  1.
    10030    2    1    2    0    0  0.00000000000E+00  0.00000000000E+00 -0.10923934977E+03  0.20714827402E+04  0.20686003740E+04 0.  0.
        4    1    3    3  502    0 -0.13721567876E+03 -0.71635759308E+03 -0.78897560728E+03  0.10744675265E+04  0.12699999809E+01 0.  1.
       -4    1    3    3    0  502  0.13721567876E+03  0.71635759308E+03  0.67973625751E+03  0.99701521369E+03  0.12699999809E+01 0. -1.
</event>
<event>
 5   0  0.8567844E-05  0.1885062E+04  0.7818609E-02  0.8662328E-01
       -1   -1    0    0    0  501  0.00000000000E+00  0.00000000000E+00  0.69601798398E+03  0.69601798399E+03  0.50400001928E-02 0.  1.
        1   -1    0    0  501    0  0.00000000000E+00  0.00000000000E+00 -0.12763528551E+04  0.12763528552E+04  0.50400001928E-02 0. -1.
    10030    2    1    2    0    0  0.00000000000E+00  0.00000000000E+00 -0.58033487117E+03  0.19723708392E+04  0.18850618463E+04 0.  0.
        4    1    3    3  502    0  0.17137534395E+03  0.16230811526E+03  0.66459226856E+03  0.70526443915E+03  0.12699999809E+01 0.  1.
       -4    1    3    3    0  502 -0.17137534395E+03 -0.16230811526E+03 -0.12449271397E+04  0.12671064000E+04  0.12699999809E+01 0. -1.
</event>
<event>
 5   0  0.8567844E-05  0.1899507E+04  0.7818609E-02  0.8655102E-01
       -1   -1    0    0    0  501  0.00000000000E+00  0.00000000000E+00  0.87155421161E+03  0.87155421163E+03  0.50400001928E-02 0. -1.
        1   -1    0    0  501    0  0.00000000000E+00  0.00000000000E+00 -0.10349689346E+04  0.10349689346E+04  0.50400001928E-02 0.  1.
    10030    2    1    2    0    0  0.00000000000E+00  0.00000000000E+00 -0.16341472302E+03  0.19065231463E+04  0.18995068138E+04 0.  0.
        4    1    3    3  502    0  0.67054071037E+03  0.44327647859E+03  0.42603773454E+03  0.90974097681E+03  0.12699999809E+01 0. -1.
       -4    1    3    3    0  502 -0.67054071037E+03 -0.44327647859E+03 -0.58945245756E+03  0.99678216946E+03  0.12699999809E+01 0.  1.
</event>
<event>
 5   0  0.1810569E-04  0.1898235E+04  0.7818609E-02  0.8655736E-01
        2   -1    0    0  501    0  0.00000000000E+00  0.00000000000E+00  0.15737448004E+04  0.15737448004E+04  0.25500000920E-02 0. -1.
       -2   -1    0    0    0  501  0.00000000000E+00  0.00000000000E+00 -0.57240779105E+03  0.57240779106E+03  0.25500000920E-02 0.  1.
    10030    2    1    2    0    0  0.00000000000E+00  0.00000000000E+00  0.10013370093E+04  0.21461525914E+04  0.18982347430E+04 0.  0.
        4    1    3    3  502    0 -0.16579651612E+03  0.89979042428E+03  0.21529248282E+03  0.93992752829E+03  0.12699999809E+01 0.  1.
       -4    1    3    3    0  502  0.16579651612E+03 -0.89979042428E+03  0.78604452649E+03  0.12062250631E+04  0.12699999809E+01 0. -1.
</event>
<event>
 5   0  0.8587082E-05  0.1899028E+04  0.7818609E-02  0.8655340E-01
       -1   -1    0    0    0  501  0.00000000000E+00  0.00000000000E+00  0.15432548105E+04  0.15432548105E+04  0.50400001928E-02 0.  1.
        1   -1    0    0  501    0  0.00000000000E+00  0.00000000000E+00 -0.58420508642E+03  0.58420508644E+03  0.50400001928E-02 0. -1.
    10030    2    1    2    0    0  0.00000000000E+00  0.00000000000E+00  0.95904972404E+03  0.21274598969E+04  0.18990284989E+04 0.  0.
        5    1    3    3  502    0  0.82872624413E+03 -0.45792019236E+03  0.55934988037E+03  0.10997147216E+04  0.46999998093E+01 0.  1.
       -5    1    3    3    0  502 -0.82872624413E+03  0.45792019236E+03  0.39969984367E+03  0.10277451753E+04  0.46999998093E+01 0. -1.
</event>
<event>
 5   0  0.8602017E-05  0.1895061E+04  0.7818609E-02  0.8657319E-01
        1   -1    0    0  501    0  0.00000000000E+00  0.00000000000E+00  0.21981484135E+04  0.21981484135E+04  0.50400001928E-02 0.  1.
       -1   -1    0    0    0  501  0.00000000000E+00  0.00000000000E+00 -0.40844090662E+03  0.40844090665E+03  0.50400001928E-02 0. -1.
    10030    2    1    2    0    0  0.00000000000E+00  0.00000000000E+00  0.17897075069E+04  0.26065893202E+04  0.18950606649E+04 0.  0.
        2    1    3    3  502    0 -0.27697969559E+03 -0.88443772020E+03  0.62368861873E+03  0.11171102568E+04  0.25500000920E-02 0. -1.
       -2    1    3    3    0  502  0.27697969559E+03  0.88443772020E+03  0.11660188882E+04  0.14894790634E+04  0.25500000920E-02 0.  1.
</event>
<event>
 5   0  0.8567844E-05  0.1902147E+04  0.7818609E-02  0.8653789E-01
       -1   -1    0    0    0  501  0.00000000000E+00  0.00000000000E+00  0.13475552294E+04  0.13475552294E+04  0.50400001928E-02 0. -1.
        1   -1    0    0  501    0  0.00000000000E+00  0.00000000000E+00 -0.67124566587E+03  0.67124566589E+03  0.50400001928E-02 0.  1.
    10030    2    1    2    0    0  0.00000000000E+00  0.00000000000E+00  0.67630956355E+03  0.20188008953E+04  0.19021467949E+04 0.  0.
        4    1    3    3  502    0 -0.53189559187E+02 -0.62383574109E+03  0.10979785013E+04  0.12639456330E+04  0.12699999809E+01 0. -1.
       -4    1    3    3    0  502  0.53189559187E+02  0.62383574109E+03 -0.42166893773E+03  0.75485526229E+03  0.12699999809E+01 0.  1.
</event>
<event>
 5   0  0.8567844E-05  0.1890118E+04  0.7818609E-02  0.8659791E-01
        1   -1    0    0  501    0  0.00000000000E+00  0.00000000000E+00  0.97710948165E+03  0.97710948166E+03  0.50400001928E-02 0. -1.
       -1   -1    0    0    0  501  0.00000000000E+00  0.00000000000E+00 -0.91405950221E+03  0.91405950222E+03  0.50400001928E-02 0.  1.
    10030    2    1    2    0    0  0.00000000000E+00  0.00000000000E+00  0.63049979441E+02  0.18911689839E+04  0.18901176751E+04 0.  0.
        4    1    3    3  502    0 -0.64522339858E+01 -0.37035032129E+03 -0.83840302822E+03  0.91658182528E+03  0.12699999809E+01 0.  1.
       -4    1    3    3    0  502  0.64522339858E+01  0.37035032129E+03  0.90145300766E+03  0.97458715861E+03  0.12699999809E+01 0. -1.
</event>
<event>
 5   0  0.1765328E-04  0.1861446E+04  0.7818609E-02  0.8674289E-01
        2   -1    0    0  501    0  0.00000000000E+00  0.00000000000E+00  0.10237407058E+04  0.10237407058E+04  0.25500000920E-02 0.  1.
       -2   -1    0    0    0  501  0.00000000000E+00  0.00000000000E+00 -0.84615710972E+03  0.84615710973E+03  0.25500000920E-02 0. -1.
    10030    2    1    2    0    0  0.00000000000E+00  0.00000000000E+00  0.17758359605E+03  0.18698978155E+04  0.18614461869E+04 0.  0.
        3    1    3    3  502    0  0.92422336349E+03 -0.90148888785E+02  0.15176469143E+03  0.94092942325E+03  0.10100000352E+00 0.  1.
       -3    1    3    3    0  502 -0.92422336349E+03  0.90148888785E+02  0.25818904619E+02  0.92896839226E+03  0.10100000352E+00 0. -1.
</event>
<event>
 5   0  0.8602017E-05  0.1908138E+04  0.7818609E-02  0.8650816E-01
       -1   -1    0    0    0  501  0.00000000000E+00  0.00000000000E+00  0.16611145213E+04  0.16611145213E+04  0.50400001928E-02 0. -1.
        1   -1    0    0  501    0  0.00000000000E+00  0.00000000000E+00 -0.54797428758E+03  0.54797428760E+03  0.50400001928E-02 0.  1.
    10030    2    1    2    0    0  0.00000000000E+00  0.00000000000E+00  0.11131402337E+04  0.22090888089E+04  0.19081384084E+04 0.  0.
        2    1    3    3  502    0  0.60080737605E+03 -0.67465312311E+03  0.20139036530E+03  0.92557248170E+03  0.25500000920E-02 0.  1.
       -2    1    3    3    0  502 -0.60080737605E+03  0.67465312311E+03  0.91174986844E+03  0.12835163272E+04  0.25500000920E-02 0. -1.
</event>
<event>
 5   0  0.1765328E-04  0.1911987E+04  0.7818609E-02  0.8648913E-01
       -2   -1    0    0    0  501  0.00000000000E+00  0.00000000000E+00  0.19958896883E+04  0.19958896883E+04  0.25500000920E-02 0. -1.
        2   -1    0    0  501    0  0.00000000000E+00  0.00000000000E+00 -0.45790269517E+03  0.45790269518E+03  0.25500000920E-02 0.  1.
    10030    2    1    2    0    0  0.00000000000E+00  0.00000000000E+00  0.15379869931E+04  0.24537923834E+04  0.19119866815E+04 0.  0.
        3    1    3    3  502    0  0.94301278878E+03 -0.15535875086E+03  0.79808380586E+03  0.12451294040E+04  0.10100000352E+00 0.  1.
       -3    1    3    3    0  502 -0.94301278878E+03  0.15535875086E+03  0.73990318723E+03  0.12086629795E+04  0.10100000352E+00 0. -1.
</event>
<event>
 5   0  0.8587082E-05  0.1900913E+04  0.7818609E-02  0.8654402E-01
       -1   -1    0    0    0  501  0.00000000000E+00  0.00000000000E+00  0.12755426904E+04  0.12755426904E+04  0.50400001928E-02 0. -1.
        1   -1    0    0  501    0  0.00000000000E+00  0.00000000000E+00 -0.70822246512E+03  0.70822246513E+03  0.50400001928E-02 0.  1.
    10030    2    1    2    0    0  0.00000000000E+00  0.00000000000E+00  0.56732022524E+03  0.19837651555E+04  0.19009134526E+04 0.  0.
        5    1    3    3  502    0 -0.60103463213E+02 -0.57182196237E+02  0.12717450077E+04  0.12744566232E+04  0.46999998093E+01 0. -1.
       -5    1    3    3    0  502  0.60103463213E+02  0.57182196237E+02 -0.70442478245E+03  0.70930853229E+03  0.46999998093E+01 0.  1.
</event>
<event>
 5   0  0.1765328E-04  0.1877986E+04  0.7818609E-02  0.8665892E-01
        2   -1    0    0  501    0  0.00000000000E+00  0.00000000000E+00  0.31908264722E+04  0.31908264722E+04  0.25500000920E-02 0. -1.
       -2   -1    0    0    0  501  0.00000000000E+00  0.00000000000E+00 -0.27632580860E+03  0.27632580861E+03  0.25500000920E-02 0.  1.
    10030    2    1    2    0    0  0.00000000000E+00  0.00000000000E+00  0.29145006637E+04  0.34671522809E+04  0.18779858413E+04 0.  0.
        3    1    3    3  502    0  0.75710202033E+03  0.55511033734E+03  0.14223800127E+04  0.17042640249E+04  0.10100000352E+00 0.  1.
       -3    1    3    3    0  502 -0.75710202033E+03 -0.55511033734E+03  0.14921206510E+04  0.17628882560E+04  0.10100000352E+00 0. -1.
</event>
<event>
 5   0  0.8681396E-05  0.1906143E+04  0.7818609E-02  0.8651805E-01
       -1   -1    0    0    0  501  0.00000000000E+00  0.00000000000E+00  0.98724376808E+03  0.98724376809E+03  0.50400001928E-02 0. -1.
        1   -1    0    0  501    0  0.00000000000E+00  0.00000000000E+00 -0.92008174120E+03  0.92008174122E+03  0.50400001928E-02 0.  1.
    10030    2    1    2    0    0  0.00000000000E+00  0.00000000000E+00  0.67162026875E+02  0.19073255093E+04  0.19061426653E+04 0.  0.
        3    1    3    3  502    0 -0.28420726839E+03 -0.64335301915E+03 -0.60998843383E+03  0.93100095503E+03  0.10100000352E+00 0.  1.
       -3    1    3    3    0  502  0.28420726839E+03  0.64335301915E+03  0.67715046070E+03  0.97632455428E+03  0.10100000352E+00 0. -1.
</event>
<event>
 5   0  0.8587082E-05  0.1911953E+04  0.7818609E-02  0.8648929E-01
        1   -1    0    0  501    0  0.00000000000E+00  0.00000000000E+00  0.10951436462E+04  0.10951436462E+04  0.50400001928E-02 0.  1.
       -1   -1    0    0    0  501  0.00000000000E+00  0.00000000000E+00 -0.83449433002E+03  0.83449433004E+03  0.50400001928E-02 0. -1.
    10030    2    1    2    0    0  0.00000000000E+00  0.00000000000E+00  0.26064931618E+03  0.19296379763E+04  0.19119530992E+04 0.  0.
        5    1    3    3  502    0 -0.97770184542E+01  0.94071967449E+03 -0.41010078036E+02  0.94167564085E+03  0.46999998093E+01 0. -1.
       -5    1    3    3    0  502  0.97770184542E+01 -0.94071967449E+03  0.30165939422E+03  0.98796233541E+03  0.46999998093E+01 0.  1.
</event>
<event>
 5   0  0.1790832E-04  0.1875493E+04  0.7818609E-02  0.8667152E-01
       -2   -1    0    0    0  501  0.00000000000E+00  0.00000000000E+00  0.98161567882E+03  0.98161567882E+03  0.25500000920E-02 0. -1.
        2   -1    0    0  501    0  0.00000000000E+00  0.00000000000E+00 -0.89583782422E+03  0.89583782422E+03  0.25500000920E-02 0.  1.
    10030    2    1    2    0    0  0.00000000000E+00  0.00000000000E+00  0.85777854600E+02  0.18774535030E+04  0.18754929527E+04 0.  0.
        5    1    3    3  502    0 -0.48886781059E+03  0.20222886328E+03  0.81794509244E+03  0.97413783091E+03  0.46999998093E+01 0. -1.
       -5    1    3    3    0  502  0.48886781059E+03 -0.20222886328E+03 -0.73216723784E+03  0.90331567214E+03  0.46999998093E+01 0.  1.
</event>
<event>
 5   0  0.8681396E-05  0.1903724E+04  0.7818609E-02  0.8653005E-01
        1   -1    0    0  501    0  0.00000000000E+00  0.00000000000E+00  0.11167029384E+04  0.11167029384E+04  0.50400001928E-02 0. -1.
       -1   -1    0    0    0  501  0.00000000000E+00  0.00000000000E+00 -0.81135364184E+03  0.81135364186E+03  0.50400001928E-02 0.  1.
    10030    2    1    2    0    0  0.00000000000E+00  0.00000000000E+00  0.30534929658E+03  0.19280565803E+04  0.19037237152E+04 0.  0.
        3    1    3    3  502    0 -0.53862215006E+03 -0.60704817235E+03  0.65644543130E+03  0.10438112466E+04  0.10100000352E+00 0. -1.
       -3    1    3    3    0  502  0.53862215006E+03  0.60704817235E+03 -0.35109613472E+03  0.88424533367E+03  0.10100000352E+00 0.  1.
</event>
<event>
 5   0  0.8602017E-05  0.1901470E+04  0.7818609E-02  0.8654125E-01
       -1   -1    0    0    0  501  0.00000000000E+00  0.00000000000E+00  0.51017421891E+03  0.51017421893E+03  0.50400001928E-02 0. -1.
        1   -1    0    0  501    0  0.00000000000E+00  0.00000000000E+00 -0.17717413559E+04  0.17717413559E+04  0.50400001928E-02 0.  1.
    10030    2    1    2    0    0  0.00000000000E+00  0.00000000000E+00 -0.12615671370E+04  0.22819155749E+04  0.19014697078E+04 0.  0.
        2    1    3    3  502    0 -0.66638156127E+03 -0.29047223689E+03 -0.13661283102E+04  0.15474963863E+04  0.25500000920E-02 0.  1.
       -2    1    3    3    0  502  0.66638156127E+03  0.29047223689E+03  0.10456117319E+03  0.73441918858E+03  0.25500000920E-02 0. -1.
</event>
<event>
 5   0  0.1658711E-04  0.1869382E+04  0.7818609E-02  0.8670249E-01
       -2   -1    0    0    0  501  0.00000000000E+00  0.00000000000E+00  0.86415605297E+03  0.86415605297E+03  0.25500000920E-02 0.  1.
        2   -1    0    0  501    0  0.00000000000E+00  0.00000000000E+00 -0.10109837285E+04  0.10109837285E+04  0.25500000920E-02 0. -1.
    10030    2    1    2    0    0  0.00000000000E+00  0.00000000000E+00 -0.14682767549E+03  0.18751397814E+04  0.18693824739E+04 0.  0.
        2    1    3    3  502    0  0.41384637771E+03  0.11209276054E+02 -0.91400023051E+03  0.10033897018E+04  0.25500000920E-02 0. -1.
       -2    1    3    3    0  502 -0.41384637771E+03 -0.11209276054E+02  0.76717255502E+03  0.87175007967E+03  0.25500000920E-02 0.  1.
</event>
<event>
 5   0  0.1658711E-04  0.1937746E+04  0.7818609E-02  0.8636293E-01
       -2   -1    0    0    0  501  0.00000000000E+00  0.00000000000E+00  0.87926738520E+03  0.87926738520E+03  0.25500000920E-02 0.  1.
        2   -1    0    0  501    0  0.00000000000E+00  0.00000000000E+00 -0.10676100859E+04  0.10676100859E+04  0.25500000920E-02 0. -1.
    10030    2    1    2    0    0  0.00000000000E+00  0.00000000000E+00 -0.18834270072E+03  0.19468774711E+04  0.19377458333E+04 0.  0.
        2    1    3    3  502    0  0.52461550780E+03  0.33229722957E+03 -0.84136398917E+03  0.10457228323E+04  0.25500000920E-02 0. -1.
       -2    1    3    3    0  502 -0.52461550780E+03 -0.33229722957E+03  0.65302128845E+03  0.90115463877E+03  0.25500000920E-02 0.  1.
</event>
<event>
 5   0  0.1810569E-04  0.1914060E+04  0.7818609E-02  0.8647889E-01
       -2   -1    0    0    0  501  0.00000000000E+00  0.00000000000E+00  0.81993013759E+03  0.81993013759E+03  0.25500000920E-02 0. -1.
        2   -1    0    0  501    0  0.00000000000E+00  0.00000000000E+00 -0.11170545781E+04  0.11170545781E+04  0.25500000920E-02 0.  1.
    10030    2    1    2    0    0  0.00000000000E+00  0.00000000000E+00 -0.29712444052E+03  0.19369847157E+04  0.19140603062E+04 0.  0.
        4    1    3    3  502    0 -0.53627868492E+03 -0.44905754113E+03  0.51245126388E+03  0.86709596579E+03  0.12699999809E+01 0. -1.
       -4    1    3    3    0  502  0.53627868492E+03  0.44905754113E+03 -0.80957570440E+03  0.10698887499E+04  0.12699999809E+01 0.  1.
</event>
<event>
 5   0  0.1799738E-04  0.1906374E+04  0.7818609E-02  0.8651690E-01
       -2   -1    0    0    0  501  0.00000000000E+00  0.00000000000E+00  0.55578425786E+03  0.55578425786E+03  0.25500000920E-02 0. -1.
        2   -1    0    0  501    0  0.00000000000E+00  0.00000000000E+00 -0.16347449883E+04  0.16347449883E+04  0.25500000920E-02 0.  1.
    10030    2    1    2    0    0  0.00000000000E+00  0.00000000000E+00 -0.10789607304E+04  0.21905292462E+04  0.19063740767E+04 0.  0.
        1    1    3    3  502    0  0.72327944358E+03 -0.56251703460E+03 -0.84132772911E+03  0.12439416849E+04  0.50400001928E-02 0. -1.
       -1    1    3    3    0  502 -0.72327944358E+03  0.56251703460E+03 -0.23763300132E+03  0.94658756122E+03  0.50400001928E-02 0.  1.
</event>
<event>
 5   0  0.6375750E-05  0.1613525E+04  0.7818609E-02  0.8812282E-01
       -4   -1    0    0    0  501  0.00000000000E+00  0.00000000000E+00  0.40055522956E+03  0.40055724289E+03  0.12699999809E+01 0.  1.
        4   -1    0    0  501    0  0.00000000000E+00  0.00000000000E+00 -0.16249024114E+04  0.16249029077E+04  0.12699999809E+01 0. -1.
    10030    2    1    2    0    0  0.00000000000E+00  0.00000000000E+00 -0.12243471819E+04  0.20254601506E+04  0.16135249611E+04 0.  0.
        4    1    3    3  502    0  0.20810661228E+03  0.77915280699E+02  0.36138118525E+03  0.42423711176E+03  0.12699999809E+01 0.  1.
       -4    1    3    3    0  502 -0.20810661228E+03 -0.77915280699E+02 -0.15857283671E+04  0.16012230389E+04  0.12699999809E+01 0. -1.
</event>
<event>
 5   0  0.1658711E-04  0.1911174E+04  0.7818609E-02  0.8649314E-01
        2   -1    0    0  501    0  0.00000000000E+00  0.00000000000E+00  0.17673335793E+04  0.17673335793E+04  0.25500000920E-02 0.  1.
       -2   -1    0    0    0  501  0.00000000000E+00  0.00000000000E+00 -0.51668039107E+03  0.51668039108E+03  0.25500000920E-02 0. -1.
    10030    2    1    2    0    0  0.00000000000E+00  0.00000000000E+00  0.12506531882E+04  0.22840139704E+04  0.19111740945E+04 0.  0.
        2    1    3    3  502    0  0.54651384047E+02  0.77206607506E+01  0.17654270418E+04  0.17662896202E+04  0.25500000920E-02 0.  1.
       -2    1    3    3    0  502 -0.54651384047E+02 -0.77206607506E+01 -0.51477385362E+03  0.51772435017E+03  0.25500000920E-02 0. -1.
</event>
<event>
 5   0  0.1765328E-04  0.1983419E+04  0.7818609E-02  0.8614412E-01
       -2   -1    0    0    0  501  0.00000000000E+00  0.00000000000E+00  0.10896543677E+04  0.10896543677E+04  0.25500000920E-02 0. -1.
        2   -1    0    0  501    0  0.00000000000E+00  0.00000000000E+00 -0.90256870287E+03  0.90256870288E+03  0.25500000920E-02 0.  1.
    10030    2    1    2    0    0  0.00000000000E+00  0.00000000000E+00  0.18708566479E+03  0.19922230705E+04  0.19834191985E+04 0.  0.
        3    1    3    3  502    0 -0.26475593454E+03  0.46558711977E+03  0.93188572387E+03  0.10748386314E+04  0.10100000352E+00 0. -1.
       -3    1    3    3    0  502  0.26475593454E+03 -0.46558711977E+03 -0.74480005909E+03  0.91738443915E+03  0.10100000352E+00 0.  1.
</event>
<event>
 5   0  0.6375750E-05  0.1941099E+04  0.7818609E-02  0.8634665E-01
        3   -1    0    0  501    0  0.00000000000E+00  0.00000000000E+00  0.15932257079E+04  0.15932257111E+04  0.10100000352E+00 0. -1.
       -3   -1    0    0    0  501  0.00000000000E+00  0.00000000000E+00 -0.59123231218E+03  0.59123232081E+03  0.10100000352E+00 0.  1.
    10030    2    1    2    0    0  0.00000000000E+00  0.00000000000E+00  0.10019933957E+04  0.21844580319E+04  0.19410992061E+04 0.  0.
        3    1    3    3  502    0  0.62612291081E+03  0.65564673065E+03  0.89094079795E+03  0.12710932501E+04  0.10100000352E+00 0. -1.
       -3    1    3    3    0  502 -0.62612291081E+03 -0.65564673065E+03  0.11105259772E+03  0.91336478174E+03  0.10100000352E+00 0.  1.
</event>
<event>
 5   0  0.6375750E-05  0.1894481E+04  0.7818609E-02  0.8657609E-01
       -3   -1    0    0    0  501  0.00000000000E+00  0.00000000000E+00  0.69626123244E+03  0.69626123977E+03  0.10100000352E+00 0. -1.
        3   -1    0    0  501    0  0.00000000000E+00  0.00000000000E+00 -0.12886892423E+04  0.12886892462E+04  0.10100000352E+00 0.  1.
    10030    2    1    2    0    0  0.00000000000E+00  0.00000000000E+00 -0.59242800981E+03  0.19849504860E+04  0.18944807956E+04 0.  0.
        3    1    3    3  502    0 -0.20020880415E+03  0.48894845866E+03  0.52753030193E+03  0.74662064675E+03  0.10100000352E+00 0. -1.
       -3    1    3    3    0  502  0.20020880415E+03 -0.48894845866E+03 -0.11199583117E+04  0.12383298392E+04  0.10100000352E+00 0.  1.
</event>
<event>
 5   0  0.8681396E-05  0.1904175E+04  0.7818609E-02  0.8652781E-01
        1   -1    0    0  501    0  0.00000000000E+00  0.00000000000E+00  0.17791437842E+04  0.17791437842E+04  0.50400001928E-02 0. -1.
       -1   -1    0    0    0  501  0.00000000000E+00  0.00000000000E+00 -0.50949839497E+03  0.50949839500E+03  0.50400001928E-02 0.  1.
    10030    2    1    2    0    0  0.00000000000E+00  0.00000000000E+00  0.12696453892E+04  0.22886421792E+04  0.19041753097E+04 0.  0.
        3    1    3    3  502    0 -0.93047003335E+03 -0.42016779740E+02  0.87197030077E+03  0.12758809147E+04  0.10100000352E+00 0.  1.
       -3    1    3    3    0  502  0.93047003335E+03  0.42016779740E+02  0.39767508841E+03  0.10127612645E+04  0.10100000352E+00 0. -1.
</event>
<event>
 5   0  0.1790832E-04  0.1907848E+04  0.7818609E-02  0.8650960E-01
        2   -1    0    0  501    0  0.00000000000E+00  0.00000000000E+00  0.19826812012E+04  0.19826812012E+04  0.25500000920E-02 0.  1.
       -2   -1    0    0    0  501  0.00000000000E+00  0.00000000000E+00 -0.45895994120E+03  0.45895994120E+03  0.25500000920E-02 0. -1.
    10030    2    1    2    0    0  0.00000000000E+00  0.00000000000E+00  0.15237212600E+04  0.24416411425E+04  0.19078482618E+04 0.  0.
        5    1    3    3  502    0 -0.55721288140E+02 -0.24887420697E+03  0.19382258651E+04  0.19549385737E+04  0.46999998093E+01 0.  1.
       -5    1    3    3    0  502  0.55721288140E+02  0.24887420697E+03 -0.41450460503E+03  0.48670256876E+03  0.46999998093E+01 0. -1.
</event>
<event>
 5   0  0.8567844E-05  0.1924654E+04  0.7818609E-02  0.8642681E-01
        1   -1    0    0  501    0  0.00000000000E+00  0.00000000000E+00  0.10696529299E+04  0.10696529299E+04  0.50400001928E-02 0. -1.
       -1   -1    0    0    0  501  0.00000000000E+00  0.00000000000E+00 -0.86577007315E+03  0.86577007317E+03  0.50400001928E-02 0.  1.
    10030    2    1    2    0    0  0.00000000000E+00  0.00000000000E+00  0.20388285670E+03  0.19354230030E+04  0.19246542498E+04 0.  0.
        4    1    3    3  502    0  0.44608154038E+03  0.23237883182E+03  0.92694828389E+03  0.10546200245E+04  0.12699999809E+01 0. -1.
       -4    1    3    3    0  502 -0.44608154038E+03 -0.23237883182E+03 -0.72306542718E+03  0.88080297855E+03  0.12699999809E+01 0.  1.
</event>
<event>
 5   0  0.1799738E-04  0.1862323E+04  0.7818609E-02  0.8673841E-01
        2   -1    0    0  501    0  0.00000000000E+00  0.00000000000E+00  0.12454105417E+04  0.12454105417E+04  0.25500000920E-02 0.  1.
       -2   -1    0    0    0  501  0.00000000000E+00  0.00000000000E+00 -0.69620542157E+03  0.69620542158E+03  0.25500000920E-02 0. -1.
    10030    2    1    2    0    0  0.00000000000E+00  0.00000000000E+00  0.54920512013E+03  0.19416159633E+04  0.18623228197E+04 0.  0.
        1    1    3    3  502    0 -0.87302570352E+03  0.12624075669E+03  0.58554764583E+03  0.10587618491E+04  0.50400001928E-02 0.  1.
       -1    1    3    3    0  502  0.87302570352E+03 -0.12624075669E+03 -0.36342525695E+02  0.88285411414E+03  0.50400001928E-02 0. -1.
</event>
<event>
 5   0  0.1658711E-04  0.1896158E+04  0.7818609E-02  0.8656771E-01
        2   -1    0    0  501    0  0.00000000000E+00  0.00000000000E+00  0.14816072162E+04  0.14816072162E+04  0.25500000920E-02 0. -1.
       -2   -1    0    0    0  501  0.00000000000E+00  0.00000000000E+00 -0.60667499552E+03  0.60667499552E+03  0.25500000920E-02 0.  1.
    10030    2    1    2    0    0  0.00000000000E+00  0.00000000000E+00  0.87493222064E+03  0.20882822117E+04  0.18961582753E+04 0.  0.
        2    1    3    3  502    0  0.14439800740E+03  0.16310527821E+03  0.14536713028E+04  0.14699028447E+04  0.25500000920E-02 0. -1.
       -2    1    3    3    0  502 -0.14439800740E+03 -0.16310527821E+03 -0.57873908214E+03  0.61837936699E+03  0.25500000920E-02 0.  1.
</event>
<event>
 5   0  0.8587082E-05  0.1881522E+04  0.7818609E-02  0.8664109E-01
        1   -1    0    0  501    0  0.00000000000E+00  0.00000000000E+00  0.64922030723E+03  0.64922030725E+03  0.50400001928E-02 0. -1.
       -1   -1    0    0    0  501  0.00000000000E+00  0.00000000000E+00 -0.13632217911E+04  0.13632217911E+04  0.50400001928E-02 0.  1.
    10030    2    1    2    0    0  0.00000000000E+00  0.00000000000E+00 -0.71400148383E+03  0.20124420983E+04  0.18815220116E+04 0.  0.
        5    1    3    3  502    0 -0.23988886432E+03 -0.48531151286E+03 -0.11799085655E+04  0.12981834403E+04  0.46999998093E+01 0.  1.
       -5    1    3    3    0  502  0.23988886432E+03  0.48531151286E+03  0.46590708169E+03  0.71425865799E+03  0.46999998093E+01 0. -1.
</event>
<event>
 5   0  0.1658711E-04  0.1923823E+04  0.7818609E-02  0.8643088E-01
        2   -1    0    0  501    0  0.00000000000E+00  0.00000000000E+00  0.73576167234E+03  0.73576167234E+03  0.25500000920E-02 0. -1.
       -2   -1    0    0    0  501  0.00000000000E+00  0.00000000000E+00 -0.12575724508E+04  0.12575724508E+04  0.25500000920E-02 0.  1.
    10030    2    1    2    0    0  0.00000000000E+00  0.00000000000E+00 -0.52181077847E+03  0.19933341231E+04  0.19238228707E+04 0.  0.
        2    1    3    3  502    0 -0.49755669846E+03  0.79717343526E+03 -0.47381839404E+03  0.10524029763E+04  0.25500000920E-02 0.  1.
       -2    1    3    3    0  502  0.49755669846E+03 -0.79717343526E+03 -0.47992384427E+02  0.94093114681E+03  0.25500000920E-02 0. -1.
</event>
<event>
 5   0  0.1790832E-04  0.1919869E+04  0.7818609E-02  0.8645029E-01
        2   -1    0    0  501    0  0.00000000000E+00  0.00000000000E+00  0.13269943758E+04  0.13269943758E+04  0.25500000920E-02 0.  1.
       -2   -1    0    0    0  501  0.00000000000E+00  0.00000000000E+00 -0.69440715123E+03  0.69440715124E+03  0.25500000920E-02 0. -1.
    10030    2    1    2    0    0  0.00000000000E+00  0.00000000000E+00  0.63258722459E+03  0.20214015271E+04  0.19198691458E+04 0.  0.
        5    1    3    3  502    0  0.16767078763E+03  0.87021510935E+03  0.70467044798E+03  0.11322412993E+04  0.46999998093E+01 0.  1.
       -5    1    3    3    0  502 -0.16767078763E+03 -0.87021510935E+03 -0.72083223388E+02  0.88916022778E+03  0.46999998093E+01 0. -1.
</event>
<event>
 5   0  0.8567844E-05  0.1720859E+04  0.7818609E-02  0.8749556E-01
       -1   -1    0    0    0  501  0.00000000000E+00  0.00000000000E+00  0.41360374760E+03  0.41360374763E+03  0.50400001928E-02 0. -1.
        1   -1    0    0  501    0  0.00000000000E+00  0.00000000000E+00 -0.17899718934E+04  0.17899718934E+04  0.50400001928E-02 0.  1.
    10030    2    1    2    0    0  0.00000000000E+00  0.00000000000E+00 -0.13763681458E+04  0.22035756410E+04  0.17208591845E+04 0.  0.
        4    1    3    3  502    0 -0.51282243759E+03  0.15008697467E+03  0.17539987813E+03  0.56238748440E+03  0.12699999809E+01 0. -1.
       -4    1    3    3    0  502  0.51282243759E+03 -0.15008697467E+03 -0.15517680239E+04  0.16411881566E+04  0.12699999809E+01 0.  1.
</event>
<event>
 5   0  0.1799738E-04  0.1883145E+04  0.7818609E-02  0.8663292E-01
        2   -1    0    0  501    0  0.00000000000E+00  0.00000000000E+00  0.79641967575E+03  0.79641967576E+03  0.25500000920E-02 0. -1.
       -2   -1    0    0    0  501  0.00000000000E+00  0.00000000000E+00 -0.11131808978E+04  0.11131808978E+04  0.25500000920E-02 0.  1.
    10030    2    1    2    0    0  0.00000000000E+00  0.00000000000E+00 -0.31676122206E+03  0.19096005736E+04  0.18831454216E+04 0.  0.
        1    1    3    3  502    0 -0.82048672019E+03 -0.46077537976E+03 -0.12557240697E+03  0.94935811896E+03  0.50400001928E-02 0.  1.
       -1    1    3    3    0  502  0.82048672019E+03  0.46077537976E+03 -0.19118881509E+03  0.96024245462E+03  0.50400001928E-02 0. -1.
</event>
<event>
 5   0  0.8587082E-05  0.1654464E+04  0.7818609E-02  0.8787770E-01
        1   -1    0    0  501    0  0.00000000000E+00  0.00000000000E+00  0.76782760605E+03  0.76782760607E+03  0.50400001928E-02 0. -1.
       -1   -1    0    0    0  501  0.00000000000E+00  0.00000000000E+00 -0.89123192957E+03  0.89123192958E+03  0.50400001928E-02 0.  1.
    10030    2    1    2    0    0  0.00000000000E+00  0.00000000000E+00 -0.12340432352E+03  0.16590595356E+04  0.16544636339E+04 0.  0.
        5    1    3    3  502    0  0.25963022599E+03  0.24058430989E+03 -0.81144326227E+03  0.88529708137E+03  0.46999998093E+01 0.  1.
       -5    1    3    3    0  502 -0.25963022599E+03 -0.24058430989E+03  0.68803893875E+03  0.77376245427E+03  0.46999998093E+01 0. -1.
</event>
<event>
 5   0  0.8681396E-05  0.1903854E+04  0.7818609E-02  0.8652940E-01
       -1   -1    0    0    0  501  0.00000000000E+00  0.00000000000E+00  0.46931703523E+03  0.46931703526E+03  0.50400001928E-02 0. -1.
        1   -1    0    0  501    0  0.00000000000E+00  0.00000000000E+00 -0.19308159292E+04  0.19308159292E+04  0.50400001928E-02 0.  1.
    10030    2    1    2    0    0  0.00000000000E+00  0.00000000000E+00 -0.14614988940E+04  0.24001329645E+04  0.19038537838E+04 0.  0.
        3    1    3    3  502    0  0.55234198829E+03  0.35934433660E+03  0.13531837213E+03  0.67269688294E+03  0.10100000352E+00 0. -1.
       -3    1    3    3    0  502 -0.55234198829E+03 -0.35934433660E+03 -0.15968172661E+04  0.17274360816E+04  0.10100000352E+00 0.  1.
</event>
<event>
 5   0  0.8681396E-05  0.1901536E+04  0.7818609E-02  0.8654092E-01
       -1   -1    0    0    0  501  0.00000000000E+00  0.00000000000E+00  0.88570451019E+03  0.88570451020E+03  0.50400001928E-02 0.  1.
        1   -1    0    0  501    0  0.00000000000E+00  0.00000000000E+00 -0.10206109364E+04  0.10206109364E+04  0.50400001928E-02 0. -1.
    10030    2    1    2    0    0  0.00000000000E+00  0.00000000000E+00 -0.13490642616E+03  0.19063154466E+04  0.19015359155E+04 0.  0.
        3    1    3    3  502    0 -0.57702817496E+03 -0.25574008987E+03 -0.78029262220E+03  0.10036040528E+04  0.10100000352E+00 0. -1.
       -3    1    3    3    0  502  0.57702817496E+03  0.25574008987E+03  0.64538619603E+03  0.90271139380E+03  0.10100000352E+00 0.  1.
</event>
<event>
 5   0  0.8905646E-05  0.1941909E+04  0.7818609E-02  0.8634273E-01
        1   -1    0    0  501    0  0.00000000000E+00  0.00000000000E+00  0.13012869323E+04  0.13012869323E+04  0.50400001928E-02 0.  1.
       -1   -1    0    0    0  501  0.00000000000E+00  0.00000000000E+00 -0.72447678298E+03  0.72447678299E+03  0.50400001928E-02 0. -1.
    10030    2    1    2    0    0  0.00000000000E+00  0.00000000000E+00  0.57681014928E+03  0.20257637153E+04  0.19419085153E+04 0.  0.
        1    1    3    3  502    0  0.45855985171E+03 -0.10668314872E+03 -0.59743614340E+03  0.76064997028E+03  0.50400001928E-02 0. -1.
       -1    1    3    3    0  502 -0.45855985171E+03  0.10668314872E+03  0.11742462927E+04  0.12651137450E+04  0.50400001928E-02 0.  1.
</event>
<event>
 5   0  0.1765328E-04  0.1893956E+04  0.7818609E-02  0.8657871E-01
       -2   -1    0    0    0  501  0.00000000000E+00  0.00000000000E+00  0.57184648575E+03  0.57184648576E+03  0.25500000920E-02 0. -1.
        2   -1    0    0  501    0  0.00000000000E+00  0.00000000000E+00 -0.15681955116E+04  0.15681955116E+04  0.25500000920E-02 0.  1.
    10030    2    1    2    0    0  0.00000000000E+00  0.00000000000E+00 -0.99634902580E+03  0.21400419973E+04  0.18939557463E+04 0.  0.
        3    1    3    3  502    0  0.74808370246E+03 -0.26410342635E+03 -0.10824569140E+04  0.13420479971E+04  0.10100000352E+00 0. -1.
       -3    1    3    3    0  502 -0.74808370246E+03  0.26410342635E+03  0.86107888226E+02  0.79799400017E+03  0.10100000352E+00 0.  1.
</event>
<event>
 5   0  0.6375750E-05  0.1901759E+04  0.7818609E-02  0.8653982E-01
       -3   -1    0    0    0  501  0.00000000000E+00  0.00000000000E+00  0.15784321000E+04  0.15784321033E+04  0.10100000352E+00 0.  1.
        3   -1    0    0  501    0  0.00000000000E+00  0.00000000000E+00 -0.57282878316E+03  0.57282879207E+03  0.10100000352E+00 0. -1.
    10030    2    1    2    0    0  0.00000000000E+00  0.00000000000E+00  0.10056033169E+04  0.21512608953E+04  0.19017585044E+04 0.  0.
        4    1    3    3  502    0 -0.23436678969E+03 -0.45305079491E+03 -0.40496920803E+03  0.65129447045E+03  0.12699999809E+01 0. -1.
       -4    1    3    3    0  502  0.23436678969E+03  0.45305079491E+03  0.14105725249E+04  0.14999664249E+04  0.12699999809E+01 0.  1.
</event>
<event>
 5   0  0.1765328E-04  0.1885717E+04  0.7818609E-02  0.8661999E-01
       -2   -1    0    0    0  501  0.00000000000E+00  0.00000000000E+00  0.94632492603E+03  0.94632492603E+03  0.25500000920E-02 0.  1.
        2   -1    0    0  501    0  0.00000000000E+00  0.00000000000E+00 -0.93940486827E+03  0.93940486828E+03  0.25500000920E-02 0. -1.
    10030    2    1    2    0    0  0.00000000000E+00  0.00000000000E+00  0.69200577591E+01  0.18857297943E+04  0.18857170970E+04 0.  0.
        3    1    3    3  502    0  0.57307699058E+03 -0.49714343398E+03 -0.55637710984E+03  0.94081046425E+03  0.10100000352E+00 0.  1.
       -3    1    3    3    0  502 -0.57307699058E+03  0.49714343398E+03  0.56329716760E+03  0.94491933006E+03  0.10100000352E+00 0. -1.
</event>
<event>
 5   0  0.1790832E-04  0.1882447E+04  0.7818609E-02  0.8663643E-01
        2   -1    0    0  501    0  0.00000000000E+00  0.00000000000E+00  0.17616358958E+04  0.17616358958E+04  0.25500000920E-02 0. -1.
       -2   -1    0    0    0  501  0.00000000000E+00  0.00000000000E+00 -0.50288565790E+03  0.50288565791E+03  0.25500000920E-02 0.  1.
    10030    2    1    2    0    0  0.00000000000E+00  0.00000000000E+00  0.12587502379E+04  0.22645215538E+04  0.18824467339E+04 0.  0.
        5    1    3    3  502    0 -0.67720719023E+03 -0.53603689819E+02  0.14130566455E+04  0.15678756671E+04  0.46999998093E+01 0. -1.
       -5    1    3    3    0  502  0.67720719023E+03  0.53603689819E+02 -0.15430640752E+03  0.69664588670E+03  0.46999998093E+01 0.  1.
</event>
<event>
 5   0  0.8602017E-05  0.1900625E+04  0.7818609E-02  0.8654545E-01
       -1   -1    0    0    0  501  0.00000000000E+00  0.00000000000E+00  0.43212264043E+03  0.43212264046E+03  0.50400001928E-02 0. -1.
        1   -1    0    0  501    0  0.00000000000E+00  0.00000000000E+00 -0.20899026323E+04  0.20899026323E+04  0.50400001928E-02 0.  1.
    10030    2    1    2    0    0  0.00000000000E+00  0.00000000000E+00 -0.16577799919E+04  0.25220252728E+04  0.19006254168E+04 0.  0.
        2    1    3    3  502    0 -0.92839807278E+03 -0.14304867200E+03 -0.10198425807E+04  0.13865297665E+04  0.25500000920E-02 0.  1.
       -2    1    3    3    0  502  0.92839807278E+03  0.14304867200E+03 -0.63793741119E+03  0.11354955062E+04  0.25500000920E-02 0. -1.
</event>
<event>
 5   0  0.8567844E-05  0.1907371E+04  0.7818609E-02  0.8651196E-01
        1   -1    0    0  501    0  0.00000000000E+00  0.00000000000E+00  0.73803597836E+03  0.73803597837E+03  0.50400001928E-02 0.  1.
       -1   -1    0    0    0  501  0.00000000000E+00  0.00000000000E+00 -0.12323465851E+04  0.12323465852E+04  0.50400001928E-02 0. -1.
    10030    2    1    2    0    0  0.00000000000E+00  0.00000000000E+00 -0.49431060679E+03  0.19703825635E+04  0.19073710889E+04 0.  0.
        4    1    3    3  502    0  0.78591844520E+03  0.52424074455E+03 -0.38191933954E+03  0.10189995857E+04  0.12699999809E+01 0. -1.
       -4    1    3    3    0  502 -0.78591844520E+03 -0.52424074455E+03 -0.11239126725E+03  0.95138297788E+03  0.12699999809E+01 0.  1.
</event>
<event>
 5   0  0.1658711E-04  0.1897094E+04  0.7818609E-02  0.8656304E-01
       -2   -1    0    0    0  501  0.00000000000E+00  0.00000000000E+00  0.46309666064E+03  0.46309666065E+03  0.25500000920E-02 0.  1.
        2   -1    0    0  501    0  0.00000000000E+00  0.00000000000E+00 -0.19428801587E+04  0.19428801587E+04  0.25500000920E-02 0. -1.
    10030    2    1    2    0    0  0.00000000000E+00  0.00000000000E+00 -0.14797834981E+04  0.24059768194E+04  0.18970938970E+04 0.  0.
        2    1    3    3  502    0 -0.12480485884E+02  0.55075945942E+03 -0.17191937703E+04  0.18053030118E+04  0.25500000920E-02 0. -1.
       -2    1    3    3    0  502  0.12480485884E+02 -0.55075945942E+03  0.23941027219E+03  0.60067380757E+03  0.25500000920E-02 0.  1.
</event>
<event>
 5   0  0.1765328E-04  0.1900762E+04  0.7818609E-02  0.8654477E-01
        2   -1    0    0  501    0  0.00000000000E+00  0.00000000000E+00  0.16999041778E+04  0.16999041778E+04  0.25500000920E-02 0.  1.
       -2   -1    0    0    0  501  0.00000000000E+00  0.00000000000E+00 -0.53133818352E+03  0.53133818352E+03  0.25500000920E-02 0. -1.
    10030    2    1    2    0    0  0.00000000000E+00  0.00000000000E+00  0.11685659943E+04  0.22312423613E+04  0.19007619504E+04 0.  0.
        3    1    3    3  502    0 -0.18490497138E+03 -0.57940799049E+03  0.14415441894E+04  0.15645935984E+04  0.10100000352E+00 0.  1.
       -3    1    3    3    0  502  0.18490497138E+03  0.57940799049E+03 -0.27297819514E+03  0.66664876293E+03  0.10100000352E+00 0. -1.
</event>
<event>
 5   0  0.8905646E-05  0.1872896E+04  0.7818609E-02  0.8668467E-01
        1   -1    0    0  501    0  0.00000000000E+00  0.00000000000E+00  0.98823142301E+03  0.98823142302E+03  0.50400001928E-02 0.  1.
       -1   -1    0    0    0  501  0.00000000000E+00  0.00000000000E+00 -0.88737817821E+03  0.88737817822E+03  0.50400001928E-02 0. -1.
    10030    2    1    2    0    0  0.00000000000E+00  0.00000000000E+00  0.10085324480E+03  0.18756096012E+04  0.18728961528E+04 0.  0.
        1    1    3    3  502    0  0.35257157756E+03 -0.24896168850E+03  0.88268200635E+03  0.98255593429E+03  0.50400001928E-02 0.  1.
       -1    1    3    3    0  502 -0.35257157756E+03  0.24896168850E+03 -0.78182876155E+03  0.89305366696E+03  0.50400001928E-02 0. -1.
</event>
<event>
 5   0  0.1790832E-04  0.1906728E+04  0.7818609E-02  0.8651515E-01
       -2   -1    0    0    0  501  0.00000000000E+00  0.00000000000E+00  0.11643512980E+04  0.11643512980E+04  0.25500000920E-02 0. -1.
        2   -1    0    0  501    0  0.00000000000E+00  0.00000000000E+00 -0.78060888054E+03  0.78060888054E+03  0.25500000920E-02 0.  1.
    10030    2    1    2    0    0  0.00000000000E+00  0.00000000000E+00  0.38374241746E+03  0.19449601785E+04  0.19067280491E+04 0.  0.
        5    1    3    3  502    0  0.48920082860E+03  0.42714576689E+03 -0.52005575859E+03  0.83201624919E+03  0.46999998093E+01 0.  1.
       -5    1    3    3    0  502 -0.48920082860E+03 -0.42714576689E+03  0.90379817605E+03  0.11129439294E+04  0.46999998093E+01 0. -1.
</event>
<event>
 5   0  0.8567844E-05  0.1830198E+04  0.7818609E-02  0.8690404E-01
       -1   -1    0    0    0  501  0.00000000000E+00  0.00000000000E+00  0.83330790531E+03  0.83330790532E+03  0.50400001928E-02 0. -1.
        1   -1    0    0  501    0  0.00000000000E+00  0.00000000000E+00 -0.10049176555E+04  0.10049176555E+04  0.50400001928E-02 0.  1.
    10030    2    1    2    0    0  0.00000000000E+00  0.00000000000E+00 -0.17160975021E+03  0.18382255608E+04  0.18301976140E+04 0.  0.
        4    1    3    3  502    0  0.55640669185E+03 -0.11737854791E+02 -0.81540570966E+03  0.98722554070E+03  0.12699999809E+01 0.  1.
       -4    1    3    3    0  502 -0.55640669185E+03  0.11737854791E+02  0.64379595946E+03  0.85100002014E+03  0.12699999809E+01 0. -1.
</event>
<event>
 5   0  0.8587082E-05  0.1898876E+04  0.7818609E-02  0.8655416E-01
       -1   -1    0    0    0  501  0.00000000000E+00  0.00000000000E+00  0.88926305006E+03  0.88926305007E+03  0.50400001928E-02 0.  1.
        1   -1    0    0  501    0  0.00000000000E+00  0.00000000000E+00 -0.10136844137E+04  0.10136844137E+04  0.50400001928E-02 0. -1.
    10030    2    1    2    0    0  0.00000000000E+00  0.00000000000E+00 -0.12442136367E+03  0.19029474638E+04  0.18988755552E+04 0.  0.
        5    1    3    3  502    0 -0.28401168088E+03 -0.25764201469E+03 -0.93261675444E+03  0.10083839265E+04  0.46999998093E+01 0. -1.
       -5    1    3    3    0  502  0.28401168088E+03  0.25764201469E+03  0.80819539077E+03  0.89456353730E+03  0.46999998093E+01 0.  1.
</event>
<event>
 5   0  0.1658711E-04  0.1912128E+04  0.7818609E-02  0.8648843E-01
       -2   -1    0    0    0  501  0.00000000000E+00  0.00000000000E+00  0.45459806329E+03  0.45459806330E+03  0.25500000920E-02 0. -1.
        2   -1    0    0  501    0  0.00000000000E+00  0.00000000000E+00 -0.20106953735E+04  0.20106953735E+04  0.25500000920E-02 0.  1.
    10030    2    1    2    0    0  0.00000000000E+00  0.00000000000E+00 -0.15560973102E+04  0.24652934368E+04  0.19121278437E+04 0.  0.
        2    1    3    3  502    0  0.31948858540E+03 -0.74132443177E+03 -0.14385184095E+04  0.16495363239E+04  0.25500000920E-02 0.  1.
       -2    1    3    3    0  502 -0.31948858540E+03  0.74132443177E+03 -0.11757890069E+03  0.81575711289E+03  0.25500000920E-02 0. -1.
</event>
<event>
 5   0  0.8905646E-05  0.1896334E+04  0.7818609E-02  0.8656683E-01
        1   -1    0    0  501    0  0.00000000000E+00  0.00000000000E+00  0.12051650616E+04  0.12051650616E+04  0.50400001928E-02 0. -1.
       -1   -1    0    0    0  501  0.00000000000E+00  0.00000000000E+00 -0.74597317251E+03  0.74597317252E+03  0.50400001928E-02 0.  1.
    10030    2    1    2    0    0  0.00000000000E+00  0.00000000000E+00  0.45919188912E+03  0.19511382342E+04  0.18963341525E+04 0.  0.
        1    1    3    3  502    0  0.27225684894E+03 -0.54207373745E+03 -0.52019835966E+03  0.79910829181E+03  0.50400001928E-02 0.  1.
       -1    1    3    3    0  502 -0.27225684894E+03  0.54207373745E+03  0.97939024878E+03  0.11520299423E+04  0.50400001928E-02 0. -1.
</event>
<event>
 5   0  0.8602017E-05  0.1907720E+04  0.7818609E-02  0.8651023E-01
       -1   -1    0    0    0  501  0.00000000000E+00  0.00000000000E+00  0.72493675629E+03  0.72493675630E+03  0.50400001928E-02 0.  1.
        1   -1    0    0  501    0  0.00000000000E+00  0.00000000000E+00 -0.12550740233E+04  0.12550740233E+04  0.50400001928E-02 0. -1.
    10030    2    1    2    0    0  0.00000000000E+00  0.00000000000E+00 -0.53013726704E+03  0.19800107796E+04  0.19077204108E+04 0.  0.
        2    1    3    3  502    0 -0.94855178686E+03  0.15836795812E+01 -0.36935649410E+03  0.10179279052E+04  0.25500000920E-02 0. -1.
       -2    1    3    3    0  502  0.94855178686E+03 -0.15836795812E+01 -0.16078077295E+03  0.96208287447E+03  0.25500000920E-02 0.  1.
</event>
<event>
 5   0  0.1790832E-04  0.1900150E+04  0.7818609E-02  0.8654782E-01
       -2   -1    0    0    0  501  0.00000000000E+00  0.00000000000E+00  0.78220416118E+03  0.78220416118E+03  0.25500000920E-02 0. -1.
        2   -1    0    0  501    0  0.00000000000E+00  0.00000000000E+00 -0.11539724422E+04  0.11539724422E+04  0.25500000920E-02 0.  1.
    10030    2    1    2    0    0  0.00000000000E+00  0.00000000000E+00 -0.37176828100E+03  0.19361766034E+04  0.19001495164E+04 0.  0.
        5    1    3    3  502    0  0.26202427547E+03  0.85272445547E+03 -0.51892084061E+03  0.10320351965E+04  0.46999998093E+01 0.  1.
       -5    1    3    3    0  502 -0.26202427547E+03 -0.85272445547E+03  0.14715255961E+03  0.90414140691E+03  0.46999998093E+01 0. -1.
</event>
<event>
 5   0  0.1810569E-04  0.1925115E+04  0.7818609E-02  0.8642455E-01
        2   -1    0    0  501    0  0.00000000000E+00  0.00000000000E+00  0.64303658000E+03  0.64303658001E+03  0.25500000920E-02 0. -1.
       -2   -1    0    0    0  501  0.00000000000E+00  0.00000000000E+00 -0.14408459698E+04  0.14408459698E+04  0.25500000920E-02 0.  1.
    10030    2    1    2    0    0  0.00000000000E+00  0.00000000000E+00 -0.79780938982E+03  0.20838825498E+04  0.19251147132E+04 0.  0.
        4    1    3    3  502    0  0.35334396235E+03 -0.78951558402E+01 -0.13680651508E+04  0.14129820095E+04  0.12699999809E+01 0.  1.
       -4    1    3    3    0  502 -0.35334396235E+03  0.78951558402E+01  0.57025576101E+03  0.67090054038E+03  0.12699999809E+01 0. -1.
</event>
<event>
 5   0  0.8602017E-05  0.1871046E+04  0.7818609E-02  0.8669404E-01
       -1   -1    0    0    0  501  0.00000000000E+00  0.00000000000E+00  0.69167528600E+03  0.69167528602E+03  0.50400001928E-02 0.  1.
        1   -1    0    0  501    0  0.00000000000E+00  0.00000000000E+00 -0.12653383907E+04  0.12653383907E+04  0.50400001928E-02 0. -1.
    10030    2    1    2    0    0  0.00000000000E+00  0.00000000000E+00 -0.57366310468E+03  0.19570136767E+04  0.18710460104E+04 0.  0.
        2    1    3    3  502    0  0.60721903772E+03  0.34092440566E+03  0.36657847082E+03  0.78697152771E+03  0.25500000920E-02 0.  1.
       -2    1    3    3    0  502 -0.60721903772E+03 -0.34092440566E+03 -0.94024157550E+03  0.11700421490E+04  0.25500000920E-02 0. -1.
</event>
<event>
 5   0  0.8681396E-05  0.1907352E+04  0.7818609E-02  0.8651205E-01
       -1   -1    0    0    0  501  0.00000000000E+00  0.00000000000E+00  0.10484218846E+04  0.10484218846E+04  0.50400001928E-02 0.  1.
        1   -1    0    0  501    0  0.00000000000E+00  0.00000000000E+00 -0.86749246177E+03  0.86749246178E+03  0.50400001928E-02 0. -1.
    10030    2    1    2    0    0  0.00000000000E+00  0.00000000000E+00  0.18092942286E+03  0.19159143464E+04  0.19073521769E+04 0.  0.
        3    1    3    3  502    0 -0.20659954243E+03 -0.25748993814E+03  0.98919538869E+03  0.10428288289E+04  0.10100000352E+00 0.  1.
       -3    1    3    3    0  502  0.20659954243E+03  0.25748993814E+03 -0.80826596583E+03  0.87308551752E+03  0.10100000352E+00 0. -1.
</event>
<event>
 5   0  0.8602017E-05  0.1894021E+04  0.7818609E-02  0.8657838E-01
        1   -1    0    0  501    0  0.00000000000E+00  0.00000000000E+00  0.20260770500E+04  0.20260770500E+04  0.50400001928E-02 0. -1.
       -1   -1    0    0    0  501  0.00000000000E+00  0.00000000000E+00 -0.44264291460E+03  0.44264291463E+03  0.50400001928E-02 0.  1.
    10030    2    1    2    0    0  0.00000000000E+00  0.00000000000E+00  0.15834341354E+04  0.24687199646E+04  0.18940207503E+04 0.  0.
        2    1    3    3  502    0  0.71333499426E+03 -0.62201004485E+03  0.74877626635E+03  0.12068178019E+04  0.25500000920E-02 0. -1.
       -2    1    3    3    0  502 -0.71333499426E+03  0.62201004485E+03  0.83465786900E+03  0.12619021627E+04  0.25500000920E-02 0.  1.
</event>
<event>
 5   0  0.1765328E-04  0.1880676E+04  0.7818609E-02  0.8664535E-01
       -2   -1    0    0    0  501  0.00000000000E+00  0.00000000000E+00  0.19194382527E+04  0.19194382527E+04  0.25500000920E-02 0.  1.
        2   -1    0    0  501    0  0.00000000000E+00  0.00000000000E+00 -0.46067406433E+03  0.46067406434E+03  0.25500000920E-02 0. -1.
    10030    2    1    2    0    0  0.00000000000E+00  0.00000000000E+00  0.14587641884E+04  0.23801123170E+04  0.18806758584E+04 0.  0.
        3    1    3    3  502    0 -0.52859943276E+03 -0.67241317069E+03  0.12238892221E+04  0.14931381954E+04  0.10100000352E+00 0.  1.
       -3    1    3    3    0  502  0.52859943276E+03  0.67241317069E+03  0.23487496623E+03  0.88697412160E+03  0.10100000352E+00 0. -1.
</event>
<event>
 5   0  0.8587082E-05  0.1834045E+04  0.7818609E-02  0.8688401E-01
       -1   -1    0    0    0  501  0.00000000000E+00  0.00000000000E+00  0.83153146333E+03  0.83153146335E+03  0.50400001928E-02 0. -1.
        1   -1    0    0  501    0  0.00000000000E+00  0.00000000000E+00 -0.10113028483E+04  0.10113028484E+04  0.50400001928E-02 0.  1.
    10030    2    1    2    0    0  0.00000000000E+00  0.00000000000E+00 -0.17977138502E+03  0.18428343117E+04  0.18340448603E+04 0.  0.
        5    1    3    3  502    0 -0.12971027636E+03  0.45287173275E+02  0.82111937683E+03  0.83254717876E+03  0.46999998093E+01 0. -1.
       -5    1    3    3    0  502  0.12971027636E+03 -0.45287173275E+02 -0.10008907618E+04  0.10102871329E+04  0.46999998093E+01 0.  1.
</event>
<event>
 5   0  0.8567844E-05  0.1889718E+04  0.7818609E-02  0.8659992E-01
       -1   -1    0    0    0  501  0.00000000000E+00  0.00000000000E+00  0.71974378831E+03  0.71974378833E+03  0.50400001928E-02 0.  1.
        1   -1    0    0  501    0  0.00000000000E+00  0.00000000000E+00 -0.12403832503E+04  0.12403832503E+04  0.50400001928E-02 0. -1.
    10030    2    1    2    0    0  0.00000000000E+00  0.00000000000E+00 -0.52063946200E+03  0.19601270386E+04  0.18897175869E+04 0.  0.
        4    1    3    3  502    0  0.92796766263E+03  0.17536675386E+03 -0.22956634257E+03  0.97189495306E+03  0.12699999809E+01 0.  1.
       -4    1    3    3    0  502 -0.92796766263E+03 -0.17536675386E+03 -0.29107311943E+03  0.98823208559E+03  0.12699999809E+01 0. -1.
</event>
<event>
 5   0  0.8681396E-05  0.1900963E+04  0.7818609E-02  0.8654377E-01
        1   -1    0    0  501    0  0.00000000000E+00  0.00000000000E+00  0.65791674182E+03  0.65791674184E+03  0.50400001928E-02 0.  1.
       -1   -1    0    0    0  501  0.00000000000E+00  0.00000000000E+00 -0.13731453945E+04  0.13731453945E+04  0.50400001928E-02 0. -1.
    10030    2    1    2    0    0  0.00000000000E+00  0.00000000000E+00 -0.71522865266E+03  0.20310621363E+04  0.19009632758E+04 0.  0.
        3    1    3    3  502    0 -0.74494747433E+03 -0.19241614349E+02  0.27276283219E+03  0.79354681781E+03  0.10100000352E+00 0.  1.
       -3    1    3    3    0  502  0.74494747433E+03  0.19241614349E+02 -0.98799148484E+03  0.12375153185E+04  0.10100000352E+00 0. -1.
</event>
<event>
 5   0  0.1799738E-04  0.1931156E+04  0.7818609E-02  0.8639501E-01
        2   -1    0    0  501    0  0.00000000000E+00  0.00000000000E+00  0.77339681377E+03  0.77339681377E+03  0.25500000920E-02 0. -1.
       -2   -1    0    0    0  501  0.00000000000E+00  0.00000000000E+00 -0.12055145795E+04  0.12055145796E+04  0.25500000920E-02 0.  1.
    10030    2    1    2    0    0  0.00000000000E+00  0.00000000000E+00 -0.43211776578E+03  0.19789113933E+04  0.19311562700E+04 0.  0.
        1    1    3    3  502    0  0.78863398394E+03 -0.48548687517E+03  0.64012947336E+02  0.92829883337E+03  0.50400001928E-02 0. -1.
       -1    1    3    3    0  502 -0.78863398394E+03  0.48548687517E+03 -0.49613071312E+03  0.10506125599E+04  0.50400001928E-02 0.  1.
</event>
<event>
 5   0  0.8905646E-05  0.1906260E+04  0.7818609E-02  0.8651747E-01
       -1   -1    0    0    0  501  0.00000000000E+00  0.00000000000E+00  0.46140338239E+03  0.46140338242E+03  0.50400001928E-02 0.  1.
        1   -1    0    0  501    0  0.00000000000E+00  0.00000000000E+00 -0.19688994656E+04  0.19688994656E+04  0.50400001928E-02 0. -1.
    10030    2    1    2    0    0  0.00000000000E+00  0.00000000000E+00 -0.15074960832E+04  0.24303028480E+04  0.19062600799E+04 0.  0.
        1    1    3    3  502    0  0.72952695542E+03 -0.42785093513E+03 -0.19338234236E+03  0.86756137059E+03  0.50400001928E-02 0.  1.
       -1    1    3    3    0  502 -0.72952695542E+03  0.42785093513E+03 -0.13141137409E+04  0.15627414775E+04  0.50400001928E-02 0. -1.
</event>
<event>
 5   0  0.1765328E-04  0.1920485E+04  0.7818609E-02  0.8644726E-01
       -2   -1    0    0    0  501  0.00000000000E+00  0.00000000000E+00  0.72348368361E+03  0.72348368361E+03  0.25500000920E-02 0. -1.
        2   -1    0    0  501    0  0.00000000000E+00  0.00000000000E+00 -0.12744798897E+04  0.12744798897E+04  0.25500000920E-02 0.  1.
    10030    2    1    2    0    0  0.00000000000E+00  0.00000000000E+00 -0.55099620612E+03  0.19979635733E+04  0.19204847360E+04 0.  0.
        3    1    3    3  502    0 -0.22390197514E+03  0.55977719362E+03  0.50203785616E+03  0.78455377138E+03  0.10100000352E+00 0. -1.
       -3    1    3    3    0  502  0.22390197514E+03 -0.55977719362E+03 -0.10530340623E+04  0.12134098020E+04  0.10100000352E+00 0.  1.
</event>
<event>
 5   0  0.1765328E-04  0.1982917E+04  0.7818609E-02  0.8614650E-01
       -2   -1    0    0    0  501  0.00000000000E+00  0.00000000000E+00  0.36897210762E+03  0.36897210763E+03  0.25500000920E-02 0. -1.
        2   -1    0    0  501    0  0.00000000000E+00  0.00000000000E+00 -0.26641300975E+04  0.26641300975E+04  0.25500000920E-02 0.  1.
    10030    2    1    2    0    0  0.00000000000E+00  0.00000000000E+00 -0.22951579899E+04  0.30331022052E+04  0.19829167376E+04 0.  0.
        3    1    3    3  502    0  0.39281633693E+03  0.20371247368E+03  0.20955057507E+03  0.48960688333E+03  0.10100000352E+00 0. -1.
       -3    1    3    3    0  502 -0.39281633693E+03 -0.20371247368E+03 -0.25047085650E+04  0.25434953218E+04  0.10100000352E+00 0.  1.
</event>
<event>
 5   0  0.1810569E-04  0.1915028E+04  0.7818609E-02  0.8647412E-01
        2   -1    0    0  501    0  0.00000000000E+00  0.00000000000E+00  0.18379109951E+04  0.18379109951E+04  0.25500000920E-02 0. -1.
       -2   -1    0    0    0  501  0.00000000000E+00  0.00000000000E+00 -0.49884533187E+03  0.49884533187E+03  0.25500000920E-02 0.  1.
    10030    2    1    2    0    0  0.00000000000E+00  0.00000000000E+00  0.13390656632E+04  0.23367563269E+04  0.19150282716E+04 0.  0.
        4    1    3    3  502    0  0.40004603653E+03 -0.86331067634E+03  0.53873823949E+03  0.10934270249E+04  0.12699999809E+01 0.  1.
       -4    1    3    3    0  502 -0.40004603653E+03  0.86331067634E+03  0.80032742372E+03  0.12433293020E+04  0.12699999809E+01 0. -1.
</event>
<event>
 5   0  0.8681396E-05  0.1908081E+04  0.7818609E-02  0.8650845E-01
        1   -1    0    0  501    0  0.00000000000E+00  0.00000000000E+00  0.90160290026E+03  0.90160290028E+03  0.50400001928E-02 0.  1.
       -1   -1    0    0    0  501  0.00000000000E+00  0.00000000000E+00 -0.10095275763E+04  0.10095275763E+04  0.50400001928E-02 0. -1.
    10030    2    1    2    0    0  0.00000000000E+00  0.00000000000E+00 -0.10792467599E+03  0.19111304765E+04  0.19080807013E+04 0.  0.
        3    1    3    3  502    0 -0.58891611847E+03  0.74648839832E+03  0.24430615701E+02  0.95113825946E+03  0.10100000352E+00 0.  1.
       -3    1    3    3    0  502  0.58891611847E+03 -0.74648839832E+03 -0.13235529169E+03  0.95999221708E+03  0.10100000352E+00 0. -1.
</event>
<event>
 5   0  0.1810569E-04  0.1924671E+04  0.7818609E-02  0.8642672E-01
        2   -1    0    0  501    0  0.00000000000E+00  0.00000000000E+00  0.18134736995E+04  0.18134736995E+04  0.25500000920E-02 0. -1.
       -2   -1    0    0    0  501  0.00000000000E+00  0.00000000000E+00 -0.51067184851E+03  0.51067184852E+03  0.25500000920E-02 0.  1.
    10030    2    1    2    0    0  0.00000000000E+00  0.00000000000E+00  0.13028018510E+04  0.23241455480E+04  0.19246713656E+04 0.  0.
        4    1    3    3  502    0 -0.20168819886E+03  0.24257082952E+03 -0.44645779389E+03  0.54666709387E+03  0.12699999809E+01 0.  1.
       -4    1    3    3    0  502  0.20168819886E+03 -0.24257082952E+03  0.17492596449E+04  0.17774784541E+04  0.12699999809E+01 0. -1.
</event>
<event>
 5   0  0.8587082E-05  0.1825800E+04  0.7818609E-02  0.8692698E-01
       -1   -1    0    0    0  501  0.00000000000E+00  0.00000000000E+00  0.88970140758E+03  0.88970140759E+03  0.50400001928E-02 0. -1.
        1   -1    0    0  501    0  0.00000000000E+00  0.00000000000E+00 -0.93670395873E+03  0.93670395874E+03  0.50400001928E-02 0.  1.
    10030    2    1    2    0    0  0.00000000000E+00  0.00000000000E+00 -0.47002551152E+02  0.18264053663E+04  0.18258004607E+04 0.  0.
        5    1    3    3  502    0 -0.78800349089E+03  0.31158631084E+02  0.43648188613E+03  0.90136501422E+03  0.46999998093E+01 0. -1.
       -5    1    3    3    0  502  0.78800349089E+03 -0.31158631084E+02 -0.48348443728E+03  0.92504035211E+03  0.46999998093E+01 0.  1.
</event>
<event>
 5   0  0.1799738E-04  0.1911032E+04  0.7818609E-02  0.8649385E-01
       -2   -1    0    0    0  501  0.00000000000E+00  0.00000000000E+00  0.73499608258E+03  0.73499608259E+03  0.25500000920E-02 0.  1.
        2   -1    0    0  501    0  0.00000000000E+00  0.00000000000E+00 -0.12421979073E+04  0.12421979073E+04  0.25500000920E-02 0. -1.
    10030    2    1    2    0    0  0.00000000000E+00  0.00000000000E+00 -0.50720182469E+03  0.19771939899E+04  0.19110317587E+04 0.  0.
        1    1    3    3  502    0  0.19058733528E+02 -0.87549612811E+03 -0.64913741265E+03  0.10900624231E+04  0.50400001928E-02 0. -1.
       -1    1    3    3    0  502 -0.19058733528E+02  0.87549612811E+03  0.14193558796E+03  0.88713156680E+03  0.50400001928E-02 0.  1.
</event>
<event>
 5   0  0.8602017E-05  0.1748357E+04  0.7818609E-02  0.8734255E-01
        1   -1    0    0  501    0  0.00000000000E+00  0.00000000000E+00  0.25609764126E+04  0.25609764126E+04  0.50400001928E-02 0.  1.
       -1   -1    0    0    0  501  0.00000000000E+00  0.00000000000E+00 -0.29839719058E+03  0.29839719062E+03  0.50400001928E-02 0. -1.
    10030    2    1    2    0    0  0.00000000000E+00  0.00000000000E+00  0.22625792220E+04  0.28593736032E+04  0.17483571337E+04 0.  0.
        2    1    3    3  502    0  0.27270241102E+03 -0.50975055968E+03  0.58874745844E+02  0.58110108739E+03  0.25500000920E-02 0. -1.
       -2    1    3    3    0  502 -0.27270241102E+03  0.50975055968E+03  0.22037044762E+04  0.22782725159E+04  0.25500000920E-02 0.  1.
</event>
<event>
 5   0  0.1790832E-04  0.1908644E+04  0.7818609E-02  0.8650566E-01
        2   -1    0    0  501    0  0.00000000000E+00  0.00000000000E+00  0.21040110492E+04  0.21040110492E+04  0.25500000920E-02 0.  1.
       -2   -1    0    0    0  501  0.00000000000E+00  0.00000000000E+00 -0.43285450884E+03  0.43285450885E+03  0.25500000920E-02 0. -1.
    10030    2    1    2    0    0  0.00000000000E+00  0.00000000000E+00  0.16711565403E+04  0.25368655580E+04  0.19086441987E+04 0.  0.
        5    1    3    3  502    0 -0.24021234336E+02 -0.87455641910E+03  0.32896178054E+03  0.93469989459E+03  0.46999998093E+01 0. -1.
       -5    1    3    3    0  502  0.24021234336E+02  0.87455641910E+03  0.13421947598E+04  0.16021656634E+04  0.46999998093E+01 0.  1.
</event>
<event>
 5   0  0.8681396E-05  0.1896479E+04  0.7818609E-02  0.8656611E-01
        1   -1    0    0  501    0  0.00000000000E+00  0.00000000000E+00  0.92535455560E+03  0.92535455561E+03  0.50400001928E-02 0. -1.
       -1   -1    0    0    0  501  0.00000000000E+00  0.00000000000E+00 -0.97169068356E+03  0.97169068357E+03  0.50400001928E-02 0.  1.
    10030    2    1    2    0    0  0.00000000000E+00  0.00000000000E+00 -0.46336127961E+02  0.18970452392E+04  0.18964792650E+04 0.  0.
        3    1    3    3  502    0  0.12152384689E+03 -0.65773106694E+03 -0.69551461316E+03  0.96494496688E+03  0.10100000352E+00 0.  1.
       -3    1    3    3    0  502 -0.12152384689E+03  0.65773106694E+03  0.64917848520E+03  0.93210027230E+03  0.10100000352E+00 0. -1.
</event>
<event>
 5   0  0.8681396E-05  0.1896041E+04  0.7818609E-02  0.8656829E-01
       -1   -1    0    0    0  501  0.00000000000E+00  0.00000000000E+00  0.10315431764E+04  0.10315431764E+04  0.50400001928E-02 0.  1.
        1   -1    0    0  501    0  0.00000000000E+00  0.00000000000E+00 -0.87126096585E+03  0.87126096587E+03  0.50400001928E-02 0. -1.
    10030    2    1    2    0    0  0.00000000000E+00  0.00000000000E+00  0.16028221056E+03  0.19028041423E+04  0.18960414597E+04 0.  0.
        3    1    3    3  502    0 -0.72812112346E+03  0.38678599118E+03  0.54976264592E+03  0.99096051912E+03  0.10100000352E+00 0.  1.
       -3    1    3    3    0  502  0.72812112346E+03 -0.38678599118E+03 -0.38948043535E+03  0.91184362318E+03  0.10100000352E+00 0. -1.
</event>
<event>
 5   0  0.6375750E-05  0.1833163E+04  0.7818609E-02  0.8688860E-01
       -3   -1    0    0    0  501  0.00000000000E+00  0.00000000000E+00  0.78057327750E+03  0.78057328404E+03  0.10100000352E+00 0. -1.
        3   -1    0    0  501    0  0.00000000000E+00  0.00000000000E+00 -0.10762878361E+04  0.10762878409E+04  0.10100000352E+00 0.  1.
    10030    2    1    2    0    0  0.00000000000E+00  0.00000000000E+00 -0.29571455861E+03  0.18568611249E+04  0.18331628779E+04 0.  0.
        1    1    3    3  502    0  0.23751281138E+03  0.44669968723E+03 -0.92204712371E+03  0.10517242246E+04  0.50400001928E-02 0.  1.
       -1    1    3    3    0  502 -0.23751281138E+03 -0.44669968723E+03  0.62633256510E+03  0.80513690033E+03  0.50400001928E-02 0. -1.
</event>
<event>
 5   0  0.8681396E-05  0.1910831E+04  0.7818609E-02  0.8649484E-01
       -1   -1    0    0    0  501  0.00000000000E+00  0.00000000000E+00  0.67802314467E+03  0.67802314469E+03  0.50400001928E-02 0.  1.
        1   -1    0    0  501    0  0.00000000000E+00  0.00000000000E+00 -0.13462950106E+04  0.13462950106E+04  0.50400001928E-02 0. -1.
    10030    2    1    2    0    0  0.00000000000E+00  0.00000000000E+00 -0.66827186595E+03  0.20243181553E+04  0.19108314178E+04 0.  0.
        3    1    3    3  502    0  0.73840940081E+03 -0.53147612432E+02 -0.97394692689E+03  0.12233747335E+04  0.10100000352E+00 0. -1.
       -3    1    3    3    0  502 -0.73840940081E+03  0.53147612432E+02  0.30567506094E+03  0.80094342184E+03  0.10100000352E+00 0.  1.
</event>
<event>
 5   0  0.8602017E-05  0.1892022E+04  0.7818609E-02  0.8658838E-01
        1   -1    0    0  501    0  0.00000000000E+00  0.00000000000E+00  0.10219474927E+04  0.10219474927E+04  0.50400001928E-02 0.  1.
       -1   -1    0    0    0  501  0.00000000000E+00  0.00000000000E+00 -0.87571694599E+03  0.87571694601E+03  0.50400001928E-02 0. -1.
    10030    2    1    2    0    0  0.00000000000E+00  0.00000000000E+00  0.14623054671E+03  0.18976644387E+04  0.18920219209E+04 0.  0.
        2    1    3    3  502    0 -0.51887111890E+03 -0.58145059454E+03  0.61102122406E+03  0.99028226693E+03  0.25500000920E-02 0.  1.
       -2    1    3    3    0  502  0.51887111890E+03  0.58145059454E+03 -0.46479067735E+03  0.90738217179E+03  0.25500000920E-02 0. -1.
</event>
<event>
 5   0  0.8587082E-05  0.1903644E+04  0.7818609E-02  0.8653045E-01
        1   -1    0    0  501    0  0.00000000000E+00  0.00000000000E+00  0.18958174764E+04  0.18958174764E+04  0.50400001928E-02 0.  1.
       -1   -1    0    0    0  501  0.00000000000E+00  0.00000000000E+00 -0.47787565448E+03  0.47787565450E+03  0.50400001928E-02 0. -1.
    10030    2    1    2    0    0  0.00000000000E+00  0.00000000000E+00  0.14179418219E+04  0.23736931309E+04  0.19036438925E+04 0.  0.
        5    1    3    3  502    0 -0.85078354259E+03 -0.25871850250E+03  0.11321439842E+04  0.14396318942E+04  0.46999998093E+01 0.  1.
       -5    1    3    3    0  502  0.85078354259E+03  0.25871850250E+03  0.28579783773E+03  0.93406123671E+03  0.46999998093E+01 0. -1.
</event>
<event>
 5   0  0.1790832E-04  0.1893317E+04  0.7818609E-02  0.8658190E-01
       -2   -1    0    0    0  501  0.00000000000E+00  0.00000000000E+00  0.73865461397E+03  0.73865461397E+03  0.25500000920E-02 0. -1.
        2   -1    0    0  501    0  0.00000000000E+00  0.00000000000E+00 -0.12132362072E+04  0.12132362072E+04  0.25500000920E-02 0.  1.
    10030    2    1    2    0    0  0.00000000000E+00  0.00000000000E+00 -0.47458159322E+03  0.19518908212E+04  0.18933172183E+04 0.  0.
        5    1    3    3  502    0 -0.34984512627E+02  0.33567950100E+03  0.67451212245E+03  0.75425018187E+03  0.46999998093E+01 0. -1.
       -5    1    3    3    0  502  0.34984512627E+02 -0.33567950100E+03 -0.11490937157E+04  0.11976406393E+04  0.46999998093E+01 0.  1.
</event>
<event>
 5   0  0.8587082E-05  0.1916789E+04  0.7818609E-02  0.8646544E-01
       -1   -1    0    0    0  501  0.00000000000E+00  0.00000000000E+00  0.11152251082E+04  0.11152251083E+04  0.50400001928E-02 0.  1.
        1   -1    0    0  501    0  0.00000000000E+00  0.00000000000E+00 -0.82361827315E+03  0.82361827317E+03  0.50400001928E-02 0. -1.
    10030    2    1    2    0    0  0.00000000000E+00  0.00000000000E+00  0.29160683510E+03  0.19388433814E+04  0.19167887498E+04 0.  0.
        5    1    3    3  502    0 -0.93093461560E+03  0.21675872423E+03  0.21642135309E+03  0.98004280270E+03  0.46999998093E+01 0.  1.
       -5    1    3    3    0  502  0.93093461560E+03 -0.21675872423E+03  0.75185482002E+02  0.95880057872E+03  0.46999998093E+01 0. -1.
</event>
<event>
 5   0  0.1799738E-04  0.1897507E+04  0.7818609E-02  0.8656098E-01
        2   -1    0    0  501    0  0.00000000000E+00  0.00000000000E+00  0.55897053426E+03  0.55897053427E+03  0.25500000920E-02 0. -1.
       -2   -1    0    0    0  501  0.00000000000E+00  0.00000000000E+00 -0.16103417315E+04  0.16103417315E+04  0.25500000920E-02 0.  1.
    10030    2    1    2    0    0  0.00000000000E+00  0.00000000000E+00 -0.10513711972E+04  0.21693122658E+04  0.18975073945E+04 0.  0.
        1    1    3    3  502    0  0.12741913038E+03  0.69426385067E+03  0.19907612143E+03  0.73339568535E+03  0.50400001928E-02 0. -1.
       -1    1    3    3    0  502 -0.12741913038E+03 -0.69426385067E+03 -0.12504473187E+04  0.14359165804E+04  0.50400001928E-02 0.  1.
</event>
<event>
 5   0  0.8905646E-05  0.1885934E+04  0.7818609E-02  0.8661890E-01
        1   -1    0    0  501    0  0.00000000000E+00  0.00000000000E+00  0.46654211179E+03  0.46654211182E+03  0.50400001928E-02 0.  1.
       -1   -1    0    0    0  501  0.00000000000E+00  0.00000000000E+00 -0.19059081486E+04  0.19059081486E+04  0.50400001928E-02 0. -1.
    10030    2    1    2    0    0  0.00000000000E+00  0.00000000000E+00 -0.14393660368E+04  0.23724502604E+04  0.18859336283E+04 0.  0.
        1    1    3    3  502    0  0.21120398946E+03 -0.39715676924E+03  0.32287523601E+03  0.55370483344E+03  0.50400001928E-02 0.  1.
       -1    1    3    3    0  502 -0.21120398946E+03  0.39715676924E+03 -0.17622412728E+04  0.18187454270E+04  0.50400001928E-02 0. -1.
</event>
<event>
 5   0  0.1810569E-04  0.1924536E+04  0.7818609E-02  0.8642739E-01
        2   -1    0    0  501    0  0.00000000000E+00  0.00000000000E+00  0.10551422189E+04  0.10551422189E+04  0.25500000920E-02 0.  1.
       -2   -1    0    0    0  501  0.00000000000E+00  0.00000000000E+00 -0.87756850495E+03  0.87756850496E+03  0.25500000920E-02 0. -1.
    10030    2    1    2    0    0  0.00000000000E+00  0.00000000000E+00  0.17757371392E+03  0.19327107238E+04  0.19245358708E+04 0.  0.
        4    1    3    3  502    0 -0.43328931777E+02 -0.69308229298E+03  0.75773758014E+03  0.10278172573E+04  0.12699999809E+01 0.  1.
       -4    1    3    3    0  502  0.43328931777E+02  0.69308229298E+03 -0.58016386623E+03  0.90489346652E+03  0.12699999809E+01 0. -1.
</event>
<event>
 5   0  0.1765328E-04  0.1899849E+04  0.7818609E-02  0.8654932E-01
        2   -1    0    0  501    0  0.00000000000E+00  0.00000000000E+00  0.21518877306E+04  0.21518877306E+04  0.25500000920E-02 0. -1.
       -2   -1    0    0    0  501  0.00000000000E+00  0.00000000000E+00 -0.41933249892E+03  0.41933249893E+03  0.25500000920E-02 0.  1.
    10030    2    1    2    0    0  0.00000000000E+00  0.00000000000E+00  0.17325552316E+04  0.25712202295E+04  0.18998488987E+04 0.  0.
        3    1    3    3  502    0  0.79493092500E+03  0.51995861058E+03  0.87870494634E+03  0.12939839741E+04  0.10100000352E+00 0.  1.
       -3    1    3    3    0  502 -0.79493092500E+03 -0.51995861058E+03  0.85385028530E+03  0.12772362554E+04  0.10100000352E+00 0. -1.
</event>
<event>
 5   0  0.8681396E-05  0.1895239E+04  0.7818609E-02  0.8657230E-01
       -1   -1    0    0    0  501  0.00000000000E+00  0.00000000000E+00  0.11850374276E+04  0.11850374276E+04  0.50400001928E-02 0.  1.
        1   -1    0    0  501    0  0.00000000000E+00  0.00000000000E+00 -0.75776767109E+03  0.75776767111E+03  0.50400001928E-02 0. -1.
    10030    2    1    2    0    0  0.00000000000E+00  0.00000000000E+00  0.42726975654E+03  0.19428050987E+04  0.18952393534E+04 0.  0.
        3    1    3    3  502    0 -0.82893252127E+03  0.41587772337E+03  0.14070654209E+02  0.92751355738E+03  0.10100000352E+00 0. -1.
       -3    1    3    3    0  502  0.82893252127E+03 -0.41587772337E+03  0.41319910233E+03  0.10152915414E+04  0.10100000352E+00 0.  1.
</event>
<event>
 5   0  0.8587082E-05  0.2263015E+04  0.7818609E-02  0.8492648E-01
        1   -1    0    0  501    0  0.00000000000E+00  0.00000000000E+00  0.20172289493E+04  0.20172289493E+04  0.50400001928E-02 0.  1.
       -1   -1    0    0    0  501  0.00000000000E+00  0.00000000000E+00 -0.63468711675E+03  0.63468711677E+03  0.50400001928E-02 0. -1.
    10030    2    1    2    0    0  0.00000000000E+00  0.00000000000E+00  0.13825418326E+04  0.26519160661E+04  0.22630150028E+04 0.  0.
        5    1    3    3  502    0 -0.93965618197E+03  0.55581587850E+03  0.34285046135E+03  0.11443135759E+04  0.46999998093E+01 0.  1.
       -5    1    3    3    0  502  0.93965618197E+03 -0.55581587850E+03  0.10396913712E+04  0.15076024902E+04  0.46999998093E+01 0. -1.
</event>
<event>
 5   0  0.6375750E-05  0.1920717E+04  0.7818609E-02  0.8644612E-01
       -3   -1    0    0    0  501  0.00000000000E+00  0.00000000000E+00  0.16522690131E+04  0.16522690162E+04  0.10100000352E+00 0.  1.
        3   -1    0    0  501    0  0.00000000000E+00  0.00000000000E+00 -0.55819503861E+03  0.55819504775E+03  0.10100000352E+00 0. -1.
    10030    2    1    2    0    0  0.00000000000E+00  0.00000000000E+00  0.10940739745E+04  0.22104640640E+04  0.19207169277E+04 0.  0.
        5    1    3    3  502    0  0.55439410827E+03 -0.76017357712E+03  0.76855641673E+03  0.12148735532E+04  0.46999998093E+01 0.  1.
       -5    1    3    3    0  502 -0.55439410827E+03  0.76017357712E+03  0.32551755779E+03  0.99559051073E+03  0.46999998093E+01 0. -1.
</event>
<event>
 5   0  0.8567844E-05  0.1833529E+04  0.7818609E-02  0.8688669E-01
        1   -1    0    0  501    0  0.00000000000E+00  0.00000000000E+00  0.85910803602E+03  0.85910803603E+03  0.50400001928E-02 0.  1.
       -1   -1    0    0    0  501  0.00000000000E+00  0.00000000000E+00 -0.97829079181E+03  0.97829079183E+03  0.50400001928E-02 0. -1.
    10030    2    1    2    0    0  0.00000000000E+00  0.00000000000E+00 -0.11918275580E+03  0.18373988279E+04  0.18335293626E+04 0.  0.
        4    1    3    3  502    0 -0.57000864892E+03 -0.37930282573E+03 -0.67052982910E+03  0.95832789694E+03  0.12699999809E+01 0. -1.
       -4    1    3    3    0  502  0.57000864892E+03  0.37930282573E+03  0.55134707330E+03  0.87907093092E+03  0.12699999809E+01 0.  1.
</event>
<event>
 5   0  0.1765328E-04  0.1889535E+04  0.7818609E-02  0.8660083E-01
        2   -1    0    0  501    0  0.00000000000E+00  0.00000000000E+00  0.17314560930E+04  0.17314560931E+04  0.25500000920E-02 0.  1.
       -2   -1    0    0    0  501  0.00000000000E+00  0.00000000000E+00 -0.51551162390E+03  0.51551162390E+03  0.25500000920E-02 0. -1.
    10030    2    1    2    0    0  0.00000000000E+00  0.00000000000E+00  0.12159444692E+04  0.22469677170E+04  0.18895351198E+04 0.  0.
        3    1    3    3  502    0 -0.61169985749E+03  0.16673377821E+03  0.14409042579E+04  0.15742242404E+04  0.10100000352E+00 0.  1.
       -3    1    3    3    0  502  0.61169985749E+03 -0.16673377821E+03 -0.22495978876E+03  0.67274347653E+03  0.10100000352E+00 0. -1.
</event>
<event>
 5   0  0.1658711E-04  0.1860550E+04  0.7818609E-02  0.8674746E-01
       -2   -1    0    0    0  501  0.00000000000E+00  0.00000000000E+00  0.35771507941E+03  0.35771507942E+03  0.25500000920E-02 0.  1.
        2   -1    0    0  501    0  0.00000000000E+00  0.00000000000E+00 -0.24192773361E+04  0.24192773361E+04  0.25500000920E-02 0. -1.
    10030    2    1    2    0    0  0.00000000000E+00  0.00000000000E+00 -0.20615622567E+04  0.27769924155E+04  0.18605504394E+04 0.  0.
        2    1    3    3  502    0 -0.77774455378E+02 -0.62435557317E+03 -0.20535347830E+04  0.21477601944E+04  0.25500000920E-02 0. -1.
       -2    1    3    3    0  502  0.77774455378E+02  0.62435557317E+03 -0.80274736120E+01  0.62923222105E+03  0.25500000920E-02 0.  1.
</event>
<event>
 5   0  0.1765328E-04  0.1868186E+04  0.7818609E-02  0.8670856E-01
       -2   -1    0    0    0  501  0.00000000000E+00  0.00000000000E+00  0.46687984704E+03  0.46687984705E+03  0.25500000920E-02 0. -1.
        2   -1    0    0  501    0  0.00000000000E+00  0.00000000000E+00 -0.18688534516E+04  0.18688534516E+04  0.25500000920E-02 0.  1.
    10030    2    1    2    0    0  0.00000000000E+00  0.00000000000E+00 -0.14019736046E+04  0.23357332987E+04  0.18681863008E+04 0.  0.
        3    1    3    3  502    0  0.72339580498E+03 -0.25734134029E+03 -0.35867861401E+02  0.76864333066E+03  0.10100000352E+00 0. -1.
       -3    1    3    3    0  502 -0.72339580498E+03  0.25734134029E+03 -0.13661057432E+04  0.15670899680E+04  0.10100000352E+00 0.  1.
</event>
<event>
 5   0  0.1658711E-04  0.1920443E+04  0.7818609E-02  0.8644747E-01
       -2   -1    0    0    0  501  0.00000000000E+00  0.00000000000E+00  0.35418253911E+03  0.35418253912E+03  0.25500000920E-02 0.  1.
        2   -1    0    0  501    0  0.00000000000E+00  0.00000000000E+00 -0.26032477016E+04  0.26032477016E+04  0.25500000920E-02 0. -1.
    10030    2    1    2    0    0  0.00000000000E+00  0.00000000000E+00 -0.22490651625E+04  0.29574302408E+04  0.19204425333E+04 0.  0.
        2    1    3    3  502    0 -0.23195802740E+03 -0.78631674510E+03 -0.18944057783E+04  0.20641879282E+04  0.25500000920E-02 0.  1.
       -2    1    3    3    0  502  0.23195802740E+03  0.78631674510E+03 -0.35465938422E+03  0.89324231255E+03  0.25500000920E-02 0. -1.
</event>
<event>
 5   0  0.1765328E-04  0.1902970E+04  0.7818609E-02  0.8653380E-01
       -2   -1    0    0    0  501  0.00000000000E+00  0.00000000000E+00  0.66312171827E+03  0.66312171827E+03  0.25500000920E-02 0. -1.
        2   -1    0    0  501    0  0.00000000000E+00  0.00000000000E+00 -0.13652446741E+04  0.13652446741E+04  0.25500000920E-02 0.  1.
    10030    2    1    2    0    0  0.00000000000E+00  0.00000000000E+00 -0.70212295586E+03  0.20283663924E+04  0.19029696731E+04 0.  0.
        3    1    3    3  502    0 -0.68696288016E+03 -0.12783794595E+03 -0.10394209450E+04  0.12524601591E+04  0.10100000352E+00 0.  1.
       -3    1    3    3    0  502  0.68696288016E+03  0.12783794595E+03  0.33729798913E+03  0.77590623326E+03  0.10100000352E+00 0. -1.
</event>
<event>
 5   0  0.1790832E-04  0.1913121E+04  0.7818609E-02  0.8648353E-01
       -2   -1    0    0    0  501  0.00000000000E+00  0.00000000000E+00  0.61811919341E+03  0.61811919341E+03  0.25500000920E-02 0.  1.
        2   -1    0    0  501    0  0.00000000000E+00  0.00000000000E+00 -0.14803093161E+04  0.14803093161E+04  0.25500000920E-02 0. -1.
    10030    2    1    2    0    0  0.00000000000E+00  0.00000000000E+00 -0.86219012273E+03  0.20984285095E+04  0.19131205926E+04 0.  0.
        5    1    3    3  502    0  0.74062838461E+03  0.30692864878E+03  0.14122069787E+03  0.81406447843E+03  0.46999998093E+01 0.  1.
       -5    1    3    3    0  502 -0.74062838461E+03 -0.30692864878E+03 -0.10034108206E+04  0.12843640311E+04  0.46999998093E+01 0. -1.
</event>
<event>
 5   0  0.1810569E-04  0.1890909E+04  0.7818609E-02  0.8659395E-01
       -2   -1    0    0    0  501  0.00000000000E+00  0.00000000000E+00  0.40149759130E+03  0.40149759131E+03  0.25500000920E-02 0. -1.
        2   -1    0    0  501    0  0.00000000000E+00  0.00000000000E+00 -0.22263740270E+04  0.22263740270E+04  0.25500000920E-02 0.  1.
    10030    2    1    2    0    0  0.00000000000E+00  0.00000000000E+00 -0.18248764357E+04  0.26278716183E+04  0.18909085744E+04 0.  0.
        4    1    3    3  502    0 -0.43894681354E+03 -0.25294664459E+02 -0.20756499755E+04  0.21217065204E+04  0.12699999809E+01 0.  1.
       -4    1    3    3    0  502  0.43894681354E+03  0.25294664459E+02  0.25077353978E+03  0.50616509789E+03  0.12699999809E+01 0. -1.
</event>
<event>
 5   0  0.1810569E-04  0.1876165E+04  0.7818609E-02  0.8666812E-01
        2   -1    0    0  501    0  0.00000000000E+00  0.00000000000E+00  0.13759850043E+04  0.13759850043E+04  0.25500000920E-02 0.  1.
       -2   -1    0    0    0  501  0.00000000000E+00  0.00000000000E+00 -0.63954104771E+03  0.63954104771E+03  0.25500000920E-02 0. -1.
    10030    2    1    2    0    0  0.00000000000E+00  0.00000000000E+00  0.73644395659E+03  0.20155260520E+04  0.18761651220E+04 0.  0.
        4    1    3    3  502    0  0.24834571042E+03  0.76882572418E+03 -0.14387114336E+03  0.82065163428E+03  0.12699999809E+01 0. -1.
       -4    1    3    3    0  502 -0.24834571042E+03 -0.76882572418E+03  0.88031509995E+03  0.11948744177E+04  0.12699999809E+01 0.  1.
</event>
<event>
 5   0  0.8905646E-05  0.1925917E+04  0.7818609E-02  0.8642062E-01
       -1   -1    0    0    0  501  0.00000000000E+00  0.00000000000E+00  0.88940270332E+03  0.88940270334E+03  0.50400001928E-02 0.  1.
        1   -1    0    0  501    0  0.00000000000E+00  0.00000000000E+00 -0.10425980415E+04  0.10425980415E+04  0.50400001928E-02 0. -1.
    10030    2    1    2    0    0  0.00000000000E+00  0.00000000000E+00 -0.15319533819E+03  0.19320007449E+04  0.19259174610E+04 0.  0.
        1    1    3    3  502    0 -0.56728984077E+03  0.71064579051E+03 -0.39454407066E+03  0.99121149445E+03  0.50400001928E-02 0. -1.
       -1    1    3    3    0  502  0.56728984077E+03 -0.71064579051E+03  0.24134873247E+03  0.94078925041E+03  0.50400001928E-02 0.  1.
</event>
<event>
 5   0  0.1658711E-04  0.2042022E+04  0.7818609E-02  0.8587222E-01
        2   -1    0    0  501    0  0.00000000000E+00  0.00000000000E+00  0.16319500368E+04  0.16319500368E+04  0.25500000920E-02 0. -1.
       -2   -1    0    0    0  501  0.00000000000E+00  0.00000000000E+00 -0.63878372134E+03  0.63878372134E+03  0.25500000920E-02 0.  1.
    10030    2    1    2    0    0  0.00000000000E+00  0.00000000000E+00  0.99316631547E+03  0.22707337582E+04  0.20420216625E+04 0.  0.
        2    1    3    3  502    0  0.99578103116E+02  0.10124728054E+04  0.40062732263E+03  0.10933980208E+04  0.25500000920E-02 0.  1.
       -2    1    3    3    0  502 -0.99578103116E+02 -0.10124728054E+04  0.59253899284E+03  0.11773357373E+04  0.25500000920E-02 0. -1.
</event>
<event>
 5   0  0.8587082E-05  0.1904928E+04  0.7818609E-02  0.8652408E-01
       -1   -1    0    0    0  501  0.00000000000E+00  0.00000000000E+00  0.13496288779E+04  0.13496288779E+04  0.50400001928E-02 0.  1.
        1   -1    0    0  501    0  0.00000000000E+00  0.00000000000E+00 -0.67217531963E+03  0.67217531964E+03  0.50400001928E-02 0. -1.
    10030    2    1    2    0    0  0.00000000000E+00  0.00000000000E+00  0.67745355826E+03  0.20218041975E+04  0.19049275287E+04 0.  0.
        5    1    3    3  502    0 -0.45327896904E+02 -0.22249561842E+03  0.13204692989E+04  0.13398582678E+04  0.46999998093E+01 0.  1.
       -5    1    3    3    0  502  0.45327896904E+02  0.22249561842E+03 -0.64301574061E+03  0.68194592977E+03  0.46999998093E+01 0. -1.
</event>
<event>
 5   0  0.8567844E-05  0.1939021E+04  0.7818609E-02  0.8635673E-01
        1   -1    0    0  501    0  0.00000000000E+00  0.00000000000E+00  0.76988019270E+03  0.76988019271E+03  0.50400001928E-02 0.  1.
       -1   -1    0    0    0  501  0.00000000000E+00  0.00000000000E+00 -0.12209054609E+04  0.12209054609E+04  0.50400001928E-02 0. -1.
    10030    2    1    2    0    0  0.00000000000E+00  0.00000000000E+00 -0.45102526816E+03  0.19907856536E+04  0.19390213320E+04 0.  0.
        4    1    3    3  502    0  0.17018339125E+03 -0.88438091402E+03  0.14303742148E+03  0.91189544608E+03  0.12699999809E+01 0.  1.
       -4    1    3    3    0  502 -0.17018339125E+03  0.88438091402E+03 -0.59406268964E+03  0.10788902075E+04  0.12699999809E+01 0. -1.
</event>
<event>
 5   0  0.8587082E-05  0.1891958E+04  0.7818609E-02  0.8658870E-01
        1   -1    0    0  501    0  0.00000000000E+00  0.00000000000E+00  0.69556908513E+03  0.69556908515E+03  0.50400001928E-02 0. -1.
       -1   -1    0    0    0  501  0.00000000000E+00  0.00000000000E+00 -0.12865379774E+04  0.12865379774E+04  0.50400001928E-02 0.  1.
    10030    2    1    2    0    0  0.00000000000E+00  0.00000000000E+00 -0.59096889228E+03  0.19821070626E+04  0.18919577627E+04 0.  0.
        5    1    3    3  502    0  0.12070274129E+03  0.93814266520E+03 -0.28169912697E+03  0.98694341284E+03  0.46999998093E+01 0.  1.
       -5    1    3    3    0  502 -0.12070274129E+03 -0.93814266520E+03 -0.30926976531E+03  0.99516364973E+03  0.46999998093E+01 0. -1.
</event>
<event>
 5   0  0.1799738E-04  0.1875534E+04  0.7818609E-02  0.8667131E-01
        2   -1    0    0  501    0  0.00000000000E+00  0.00000000000E+00  0.63628721986E+03  0.63628721987E+03  0.25500000920E-02 0.  1.
       -2   -1    0    0    0  501  0.00000000000E+00  0.00000000000E+00 -0.13820912062E+04  0.13820912062E+04  0.25500000920E-02 0. -1.
    10030    2    1    2    0    0  0.00000000000E+00  0.00000000000E+00 -0.74580398634E+03  0.20183784261E+04  0.18755340266E+04 0.  0.
        1    1    3    3  502    0  0.85614250710E+03  0.21930352007E+03 -0.71036577598E+03  0.11338842807E+04  0.50400001928E-02 0. -1.
       -1    1    3    3    0  502 -0.85614250710E+03 -0.21930352007E+03 -0.35438210365E+02  0.88449414535E+03  0.50400001928E-02 0.  1.
</event>
<event>
 5   0  0.1765328E-04  0.1874497E+04  0.7818609E-02  0.8667656E-01
       -2   -1    0    0    0  501  0.00000000000E+00  0.00000000000E+00  0.79830152129E+03  0.79830152130E+03  0.25500000920E-02 0. -1.
        2   -1    0    0  501    0  0.00000000000E+00  0.00000000000E+00 -0.11003795115E+04  0.11003795115E+04  0.25500000920E-02 0.  1.
    10030    2    1    2    0    0  0.00000000000E+00  0.00000000000E+00 -0.30207799021E+03  0.18986810328E+04  0.18744968797E+04 0.  0.
        3    1    3    3  502    0 -0.45480157028E+03  0.29398893883E+03  0.62378819393E+03  0.82606639295E+03  0.10100000352E+00 0. -1.
       -3    1    3    3    0  502  0.45480157028E+03 -0.29398893883E+03 -0.92586618414E+03  0.10726146398E+04  0.10100000352E+00 0.  1.
</event>
<event>
 5   0  0.1790832E-04  0.1897158E+04  0.7818609E-02  0.8656272E-01
       -2   -1    0    0    0  501  0.00000000000E+00  0.00000000000E+00  0.56908430790E+03  0.56908430791E+03  0.25500000920E-02 0. -1.
        2   -1    0    0  501    0  0.00000000000E+00  0.00000000000E+00 -0.15811406642E+04  0.15811406642E+04  0.25500000920E-02 0.  1.
    10030    2    1    2    0    0  0.00000000000E+00  0.00000000000E+00 -0.10120563563E+04  0.21502249721E+04  0.18971582333E+04 0.  0.
        5    1    3    3  502    0  0.85501049065E+03  0.77100607437E+02 -0.96332475798E+03  0.12903503873E+04  0.46999998093E+01 0.  1.
       -5    1    3    3    0  502 -0.85501049065E+03 -0.77100607437E+02 -0.48731598277E+02  0.85987458472E+03  0.46999998093E+01 0. -1.
</event>
<event>
 5   0  0.8587082E-05  0.1897526E+04  0.7818609E-02  0.8656089E-01
       -1   -1    0    0    0  501  0.00000000000E+00  0.00000000000E+00  0.85163896213E+03  0.85163896215E+03  0.50400001928E-02 0.  1.
        1   -1    0    0  501    0  0.00000000000E+00  0.00000000000E+00 -0.10569630182E+04  0.10569630182E+04  0.50400001928E-02 0. -1.
    10030    2    1    2    0    0  0.00000000000E+00  0.00000000000E+00 -0.20532405604E+03  0.19086019803E+04  0.18975256392E+04 0.  0.
        5    1    3    3  502    0  0.91947840036E+03 -0.23357995364E+03 -0.91252340856E+02  0.95307355601E+03  0.46999998093E+01 0. -1.
       -5    1    3    3    0  502 -0.91947840036E+03  0.23357995364E+03 -0.11407171518E+03  0.95552842431E+03  0.46999998093E+01 0.  1.
</event>
<event>
 5   0  0.1765328E-04  0.1862681E+04  0.7818609E-02  0.8673659E-01
        2   -1    0    0  501    0  0.00000000000E+00  0.00000000000E+00  0.10705646530E+04  0.10705646530E+04  0.25500000920E-02 0.  1.
       -2   -1    0    0    0  501  0.00000000000E+00  0.00000000000E+00 -0.81022224153E+03  0.81022224153E+03  0.25500000920E-02 0. -1.
    10030    2    1    2    0    0  0.00000000000E+00  0.00000000000E+00  0.26034241143E+03  0.18807868945E+04  0.18626811781E+04 0.  0.
        3    1    3    3  502    0  0.62638578758E+03 -0.21917603772E+03  0.78997374139E+03  0.10317246787E+04  0.10100000352E+00 0.  1.
       -3    1    3    3    0  502 -0.62638578758E+03  0.21917603772E+03 -0.52963132996E+03  0.84906221578E+03  0.10100000352E+00 0. -1.
</event>
<event>
 5   0  0.1810569E-04  0.1844078E+04  0.7818609E-02  0.8683204E-01
       -2   -1    0    0    0  501  0.00000000000E+00  0.00000000000E+00  0.10928573594E+04  0.10928573594E+04  0.25500000920E-02 0. -1.
        2   -1    0    0  501    0  0.00000000000E+00  0.00000000000E+00 -0.77792043406E+03  0.77792043407E+03  0.25500000920E-02 0.  1.
    10030    2    1    2    0    0  0.00000000000E+00  0.00000000000E+00  0.31493692537E+03  0.18707777935E+04  0.18440781669E+04 0.  0.
        4    1    3    3  502    0 -0.53568353222E+03 -0.25125560233E+03  0.87486208913E+03  0.10561588480E+04  0.12699999809E+01 0. -1.
       -4    1    3    3    0  502  0.53568353222E+03  0.25125560233E+03 -0.55992516376E+03  0.81461894546E+03  0.12699999809E+01 0.  1.
</event>
<event>
 5   0  0.1790832E-04  0.1829030E+04  0.7818609E-02  0.8691012E-01
        2   -1    0    0  501    0  0.00000000000E+00  0.00000000000E+00  0.21413098167E+04  0.21413098167E+04  0.25500000920E-02 0.  1.
       -2   -1    0    0    0  501  0.00000000000E+00  0.00000000000E+00 -0.39057310799E+03  0.39057310800E+03  0.25500000920E-02 0. -1.
    10030    2    1    2    0    0  0.00000000000E+00  0.00000000000E+00  0.17507367087E+04  0.25318829247E+04  0.18290303773E+04 0.  0.
        5    1    3    3  502    0 -0.51313438060E+03 -0.27940020802E+03 -0.98501637573E+02  0.59253356985E+03  0.46999998093E+01 0. -1.
       -5    1    3    3    0  502  0.51313438060E+03  0.27940020802E+03  0.18492383463E+04  0.19393493548E+04  0.46999998093E+01 0.  1.
</event>
<event>
 5   0  0.8587082E-05  0.1898989E+04  0.7818609E-02  0.8655360E-01
        1   -1    0    0  501    0  0.00000000000E+00  0.00000000000E+00  0.55008916542E+03  0.55008916544E+03  0.50400001928E-02 0. -1.
       -1   -1    0    0    0  501  0.00000000000E+00  0.00000000000E+00 -0.16388972936E+04  0.16388972936E+04  0.50400001928E-02 0.  1.
    10030    2    1    2    0    0  0.00000000000E+00  0.00000000000E+00 -0.10888081282E+04  0.21889864591E+04  0.18989888304E+04 0.  0.
        5    1    3    3  502    0  0.50711772441E+03 -0.11970286197E+03 -0.14593553427E+04  0.15495926135E+04  0.46999998093E+01 0.  1.
       -5    1    3    3    0  502 -0.50711772441E+03  0.11970286197E+03  0.37054721450E+03  0.63939384556E+03  0.46999998093E+01 0. -1.
</event>
<event>
 5   0  0.1765328E-04  0.1868037E+04  0.7818609E-02  0.8670932E-01
       -2   -1    0    0    0  501  0.00000000000E+00  0.00000000000E+00  0.67448725657E+03  0.67448725657E+03  0.25500000920E-02 0.  1.
        2   -1    0    0  501    0  0.00000000000E+00  0.00000000000E+00 -0.12934130897E+04  0.12934130897E+04  0.25500000920E-02 0. -1.
    10030    2    1    2    0    0  0.00000000000E+00  0.00000000000E+00 -0.61892583317E+03  0.19679003463E+04  0.18680370944E+04 0.  0.
        3    1    3    3  502    0 -0.24083596901E+03 -0.18626441206E+03  0.62074443922E+03  0.69138995089E+03  0.10100000352E+00 0.  1.
       -3    1    3    3    0  502  0.24083596901E+03  0.18626441206E+03 -0.12396702724E+04  0.12765103954E+04  0.10100000352E+00 0. -1.
</event>
<event>
 5   0  0.1799738E-04  0.1912677E+04  0.7818609E-02  0.8648572E-01
       -2   -1    0    0    0  501  0.00000000000E+00  0.00000000000E+00  0.83081946436E+03  0.83081946436E+03  0.25500000920E-02 0.  1.
        2   -1    0    0  501    0  0.00000000000E+00  0.00000000000E+00 -0.11008208438E+04  0.11008208438E+04  0.25500000920E-02 0. -1.
    10030    2    1    2    0    0  0.00000000000E+00  0.00000000000E+00 -0.27000137949E+03  0.19316403082E+04  0.19126770599E+04 0.  0.
        1    1    3    3  502    0  0.16362916580E+03  0.46080462188E+03 -0.96501770157E+03  0.10818385128E+04  0.50400001928E-02 0. -1.
       -1    1    3    3    0  502 -0.16362916580E+03 -0.46080462188E+03  0.69501632209E+03  0.84980179538E+03  0.50400001928E-02 0.  1.
</event>
<event>
 5   0  0.1810569E-04  0.1904992E+04  0.7818609E-02  0.8652376E-01
        2   -1    0    0  501    0  0.00000000000E+00  0.00000000000E+00  0.96826215527E+03  0.96826215527E+03  0.25500000920E-02 0.  1.
       -2   -1    0    0    0  501  0.00000000000E+00  0.00000000000E+00 -0.93698625790E+03  0.93698625791E+03  0.25500000920E-02 0. -1.
    10030    2    1    2    0    0  0.00000000000E+00  0.00000000000E+00  0.31275897367E+02  0.19052484132E+04  0.19049916887E+04 0.  0.
        4    1    3    3  502    0  0.41634776126E+03  0.58571462769E+03  0.64089388558E+03  0.96288819126E+03  0.12699999809E+01 0.  1.
       -4    1    3    3    0  502 -0.41634776126E+03 -0.58571462769E+03 -0.60961798822E+03  0.94236022192E+03  0.12699999809E+01 0. -1.
</event>
<event>
 5   0  0.1799738E-04  0.1877870E+04  0.7818609E-02  0.8665951E-01
        2   -1    0    0  501    0  0.00000000000E+00  0.00000000000E+00  0.10851223908E+04  0.10851223908E+04  0.25500000920E-02 0. -1.
       -2   -1    0    0    0  501  0.00000000000E+00  0.00000000000E+00 -0.81244225878E+03  0.81244225878E+03  0.25500000920E-02 0.  1.
    10030    2    1    2    0    0  0.00000000000E+00  0.00000000000E+00  0.27268013202E+03  0.18975646496E+04  0.18778703749E+04 0.  0.
        1    1    3    3  502    0  0.21186391386E+02  0.32315997024E+03 -0.75421888123E+03  0.82080896095E+03  0.50400001928E-02 0.  1.
       -1    1    3    3    0  502 -0.21186391386E+02 -0.32315997024E+03  0.10268990133E+04  0.10767556886E+04  0.50400001928E-02 0. -1.
</event>
<event>
 5   0  0.1765328E-04  0.1894134E+04  0.7818609E-02  0.8657782E-01
       -2   -1    0    0    0  501  0.00000000000E+00  0.00000000000E+00  0.70639397879E+03  0.70639397880E+03  0.25500000920E-02 0.  1.
        2   -1    0    0  501    0  0.00000000000E+00  0.00000000000E+00 -0.12697384787E+04  0.12697384787E+04  0.25500000920E-02 0. -1.
    10030    2    1    2    0    0  0.00000000000E+00  0.00000000000E+00 -0.56334449987E+03  0.19761324575E+04  0.18941336975E+04 0.  0.
        3    1    3    3  502    0  0.10693276453E+03 -0.51171777062E+03 -0.11055721709E+04  0.12229388898E+04  0.10100000352E+00 0. -1.
       -3    1    3    3    0  502 -0.10693276453E+03  0.51171777062E+03  0.54222767105E+03  0.75319356765E+03  0.10100000352E+00 0.  1.
</event>
<event>
 5   0  0.1658711E-04  0.1859662E+04  0.7818609E-02  0.8675200E-01
       -2   -1    0    0    0  501  0.00000000000E+00  0.00000000000E+00  0.87804658277E+03  0.87804658278E+03  0.25500000920E-02 0.  1.
        2   -1    0    0  501    0  0.00000000000E+00  0.00000000000E+00 -0.98466949619E+03  0.98466949620E+03  0.25500000920E-02 0. -1.
    10030    2    1    2    0    0  0.00000000000E+00  0.00000000000E+00 -0.10662291342E+03  0.18627160790E+04  0.18596619976E+04 0.  0.
        2    1    3    3  502    0 -0.83499491920E+03 -0.93591068879E+02 -0.45222407090E+03  0.95419202133E+03  0.25500000920E-02 0. -1.
       -2    1    3    3    0  502  0.83499491920E+03  0.93591068879E+02  0.34560115748E+03  0.90852405764E+03  0.25500000920E-02 0.  1.
</event>
<event>
 5   0  0.1799738E-04  0.1812464E+04  0.7818609E-02  0.8699699E-01
        2   -1    0    0  501    0  0.00000000000E+00  0.00000000000E+00  0.13437559109E+04  0.13437559109E+04  0.25500000920E-02 0.  1.
       -2   -1    0    0    0  501  0.00000000000E+00  0.00000000000E+00 -0.61116491489E+03  0.61116491490E+03  0.25500000920E-02 0. -1.
    10030    2    1    2    0    0  0.00000000000E+00  0.00000000000E+00  0.73259099597E+03  0.19549208258E+04  0.18124640321E+04 0.  0.
        1    1    3    3  502    0 -0.23284470747E+03 -0.64387833141E+03 -0.27405095013E+03  0.73749568592E+03  0.50400001928E-02 0. -1.
       -1    1    3    3    0  502  0.23284470747E+03  0.64387833141E+03  0.10066419461E+04  0.12174251398E+04  0.50400001928E-02 0.  1.
</event>
<event>
 5   0  0.1658711E-04  0.1909540E+04  0.7818609E-02  0.8650122E-01
        2   -1    0    0  501    0  0.00000000000E+00  0.00000000000E+00  0.12909295345E+04  0.12909295345E+04  0.25500000920E-02 0. -1.
       -2   -1    0    0    0  501  0.00000000000E+00  0.00000000000E+00 -0.70614657163E+03  0.70614657164E+03  0.25500000920E-02 0.  1.
    10030    2    1    2    0    0  0.00000000000E+00  0.00000000000E+00  0.58478296284E+03  0.19970761061E+04  0.19095396985E+04 0.  0.
        2    1    3    3  502    0 -0.43820278273E+01 -0.15780696895E+03  0.12771852043E+04  0.12869049256E+04  0.25500000920E-02 0. -1.
       -2    1    3    3    0  502  0.43820278273E+01  0.15780696895E+03 -0.69240224144E+03  0.71017118047E+03  0.25500000920E-02 0.  1.
</event>
<event>
 5   0  0.8905646E-05  0.1893016E+04  0.7818609E-02  0.8658340E-01
       -1   -1    0    0    0  501  0.00000000000E+00  0.00000000000E+00  0.53058522036E+03  0.53058522039E+03  0.50400001928E-02 0.  1.
        1   -1    0    0  501    0  0.00000000000E+00  0.00000000000E+00 -0.16884707101E+04  0.16884707101E+04  0.50400001928E-02 0. -1.
    10030    2    1    2    0    0  0.00000000000E+00  0.00000000000E+00 -0.11578854897E+04  0.22190559305E+04  0.18930162216E+04 0.  0.
        1    1    3    3  502    0 -0.71548658278E+03 -0.57262057416E+02 -0.13021996361E+04  0.14869175786E+04  0.50400001928E-02 0. -1.
       -1    1    3    3    0  502  0.71548658278E+03  0.57262057416E+02  0.14431414639E+03  0.73213835183E+03  0.50400001928E-02 0.  1.
</event>
<event>
 5   0  0.8602017E-05  0.1784585E+04  0.7818609E-02  0.8714540E-01
        1   -1    0    0  501    0  0.00000000000E+00  0.00000000000E+00  0.77409842882E+03  0.77409842884E+03  0.50400001928E-02 0. -1.
       -1   -1    0    0    0  501  0.00000000000E+00  0.00000000000E+00 -0.10285329969E+04  0.10285329969E+04  0.50400001928E-02 0.  1.
    10030    2    1    2    0    0  0.00000000000E+00  0.00000000000E+00 -0.25443456808E+03  0.18026314258E+04  0.17845848558E+04 0.  0.
        2    1    3    3  502    0  0.65653653265E+03  0.89369663182E+02  0.47645370305E+03  0.81610984957E+03  0.25500000920E-02 0. -1.
       -2    1    3    3    0  502 -0.65653653265E+03 -0.89369663182E+02 -0.73088827113E+03  0.98652157619E+03  0.25500000920E-02 0.  1.
</event>
<event>
 5   0  0.8567844E-05  0.1551961E+04  0.7818609E-02  0.8850616E-01
        1   -1    0    0  501    0  0.00000000000E+00  0.00000000000E+00  0.82701386821E+03  0.82701386822E+03  0.50400001928E-02 0. -1.
       -1   -1    0    0    0  501  0.00000000000E+00  0.00000000000E+00 -0.72809664033E+03  0.72809664034E+03  0.50400001928E-02 0.  1.
    10030    2    1    2    0    0  0.00000000000E+00  0.00000000000E+00  0.98917227878E+02  0.15551105086E+04  0.15519613642E+04 0.  0.
        4    1    3    3  502    0 -0.41359626977E+03  0.54535922937E+03  0.41580386910E+03  0.80085768642E+03  0.12699999809E+01 0. -1.
       -4    1    3    3    0  502  0.41359626977E+03 -0.54535922937E+03 -0.31688664122E+03  0.75425282215E+03  0.12699999809E+01 0.  1.
</event>
<event>
 5   0  0.8587082E-05  0.1894895E+04  0.7818609E-02  0.8657402E-01
        1   -1    0    0  501    0  0.00000000000E+00  0.00000000000E+00  0.18282299569E+04  0.18282299569E+04  0.50400001928E-02 0. -1.
       -1   -1    0    0    0  501  0.00000000000E+00  0.00000000000E+00 -0.49099767927E+03  0.49099767930E+03  0.50400001928E-02 0.  1.
    10030    2    1    2    0    0  0.00000000000E+00  0.00000000000E+00  0.13372322776E+04  0.23192276362E+04  0.18948948953E+04 0.  0.
        5    1    3    3  502    0  0.54267483946E+03  0.64068935687E+03  0.13139977728E+03  0.84986282709E+03  0.46999998093E+01 0.  1.
       -5    1    3    3    0  502 -0.54267483946E+03 -0.64068935687E+03  0.12058325004E+04  0.14693648091E+04  0.46999998093E+01 0. -1.
</event>
<event>
 5   0  0.1765328E-04  0.1895738E+04  0.7818609E-02  0.8656981E-01
       -2   -1    0    0    0  501  0.00000000000E+00  0.00000000000E+00  0.63428718681E+03  0.63428718681E+03  0.25500000920E-02 0.  1.
        2   -1    0    0  501    0  0.00000000000E+00  0.00000000000E+00 -0.14164814636E+04  0.14164814636E+04  0.25500000920E-02 0. -1.
    10030    2    1    2    0    0  0.00000000000E+00  0.00000000000E+00 -0.78219427681E+03  0.20507686504E+04  0.18957384237E+04 0.  0.
        3    1    3    3  502    0  0.56434656451E+03  0.70015061068E+03 -0.67000066843E+02  0.90176878504E+03  0.10100000352E+00 0. -1.
       -3    1    3    3    0  502 -0.56434656451E+03 -0.70015061068E+03 -0.71519420997E+03  0.11489998654E+04  0.10100000352E+00 0.  1.
</event>
<event>
 5   0  0.1765328E-04  0.1904401E+04  0.7818609E-02  0.8652669E-01
       -2   -1    0    0    0  501  0.00000000000E+00  0.00000000000E+00  0.55826910037E+03  0.55826910038E+03  0.25500000920E-02 0. -1.
        2   -1    0    0  501    0  0.00000000000E+00  0.00000000000E+00 -0.16241023283E+04  0.16241023283E+04  0.25500000920E-02 0.  1.
    10030    2    1    2    0    0  0.00000000000E+00  0.00000000000E+00 -0.10658332279E+04  0.21823714287E+04  0.19044013713E+04 0.  0.
        3    1    3    3  502    0 -0.10553395368E+02 -0.13196339089E+03  0.54767164417E+03  0.56344471842E+03  0.10100000352E+00 0. -1.
       -3    1    3    3    0  502  0.10553395368E+02  0.13196339089E+03 -0.16135048721E+04  0.16189267102E+04  0.10100000352E+00 0.  1.
</event>
<event>
 5   0  0.8681396E-05  0.1881076E+04  0.7818609E-02  0.8664334E-01
       -1   -1    0    0    0  501  0.00000000000E+00  0.00000000000E+00  0.31945079161E+03  0.31945079165E+03  0.50400001928E-02 0.  1.
        1   -1    0    0  501    0  0.00000000000E+00  0.00000000000E+00 -0.27691641664E+04  0.27691641664E+04  0.50400001928E-02 0. -1.
    10030    2    1    2    0    0  0.00000000000E+00  0.00000000000E+00 -0.24497133748E+04  0.30886149581E+04  0.18810759529E+04 0.  0.
        3    1    3    3  502    0  0.11006111429E+03  0.83583967899E+01 -0.27584928023E+04  0.27607002485E+04  0.10100000352E+00 0. -1.
       -3    1    3    3    0  502 -0.11006111429E+03 -0.83583967899E+01  0.30877942751E+03  0.32791470953E+03  0.10100000352E+00 0.  1.
</event>
<event>
 5   0  0.8567844E-05  0.1938375E+04  0.7818609E-02  0.8635987E-01
       -1   -1    0    0    0  501  0.00000000000E+00  0.00000000000E+00  0.86432858872E+03  0.86432858873E+03  0.50400001928E-02 0. -1.
        1   -1    0    0  501    0  0.00000000000E+00  0.00000000000E+00 -0.10867675110E+04  0.10867675110E+04  0.50400001928E-02 0.  1.
    10030    2    1    2    0    0  0.00000000000E+00  0.00000000000E+00 -0.22243892225E+03  0.19510960997E+04  0.19383748131E+04 0.  0.
        4    1    3    3  502    0 -0.78336941346E+03  0.55850704704E+03 -0.22914145422E+03  0.98899200122E+03  0.12699999809E+01 0.  1.
       -4    1    3    3    0  502  0.78336941346E+03 -0.55850704704E+03  0.67025319655E+01  0.96210409851E+03  0.12699999809E+01 0. -1.
</event>
<event>
 5   0  0.8587082E-05  0.1883022E+04  0.7818609E-02  0.8663354E-01
       -1   -1    0    0    0  501  0.00000000000E+00  0.00000000000E+00  0.49196234991E+03  0.49196234993E+03  0.50400001928E-02 0.  1.
        1   -1    0    0  501    0  0.00000000000E+00  0.00000000000E+00 -0.18018508920E+04  0.18018508920E+04  0.50400001928E-02 0. -1.
    10030    2    1    2    0    0  0.00000000000E+00  0.00000000000E+00 -0.13098885421E+04  0.22938132420E+04  0.18830218258E+04 0.  0.
        5    1    3    3  502    0  0.82302218045E+03  0.23316783548E+03 -0.17583899022E+03  0.87331219474E+03  0.46999998093E+01 0.  1.
       -5    1    3    3    0  502 -0.82302218045E+03 -0.23316783548E+03 -0.11340495519E+04  0.14205010472E+04  0.46999998093E+01 0. -1.
</event>
<event>
 5   0  0.1810569E-04  0.1888076E+04  0.7818609E-02  0.8660815E-01
        2   -1    0    0  501    0  0.00000000000E+00  0.00000000000E+00  0.14061120754E+04  0.14061120754E+04  0.25500000920E-02 0.  1.
       -2   -1    0    0    0  501  0.00000000000E+00  0.00000000000E+00 -0.63380959151E+03  0.63380959151E+03  0.25500000920E-02 0. -1.
    10030    2    1    2    0    0  0.00000000000E+00  0.00000000000E+00  0.77230248392E+03  0.20399216669E+04  0.18880755495E+04 0.  0.
        4    1    3    3  502    0 -0.79136178908E+03 -0.15874050702E+03 -0.14287444683E+03  0.81967478321E+03  0.12699999809E+01 0. -1.
       -4    1    3    3    0  502  0.79136178908E+03  0.15874050702E+03  0.91517693075E+03  0.12202468837E+04  0.12699999809E+01 0.  1.
</event>
<event>
 5   0  0.1810569E-04  0.1915582E+04  0.7818609E-02  0.8647139E-01
       -2   -1    0    0    0  501  0.00000000000E+00  0.00000000000E+00  0.55198879889E+03  0.55198879890E+03  0.25500000920E-02 0.  1.
        2   -1    0    0  501    0  0.00000000000E+00  0.00000000000E+00 -0.16619242131E+04  0.16619242131E+04  0.25500000920E-02 0. -1.
    10030    2    1    2    0    0  0.00000000000E+00  0.00000000000E+00 -0.11099354142E+04  0.22139130120E+04  0.19155819484E+04 0.  0.
        4    1    3    3  502    0  0.54708983516E+02  0.67806261847E+02  0.54739853011E+03  0.55429010968E+03  0.12699999809E+01 0.  1.
       -4    1    3    3    0  502 -0.54708983516E+02 -0.67806261847E+02 -0.16573339443E+04  0.16596229023E+04  0.12699999809E+01 0. -1.
</event>
<event>
 5   0  0.1765328E-04  0.1841699E+04  0.7818609E-02  0.8684433E-01
        2   -1    0    0  501    0  0.00000000000E+00  0.00000000000E+00  0.27017874291E+04  0.27017874291E+04  0.25500000920E-02 0.  1.
       -2   -1    0    0    0  501  0.00000000000E+00  0.00000000000E+00 -0.31385301660E+03  0.31385301661E+03  0.25500000920E-02 0. -1.
    10030    2    1    2    0    0  0.00000000000E+00  0.00000000000E+00  0.23879344125E+04  0.30156404457E+04  0.18416993619E+04 0.  0.
        3    1    3    3  502    0 -0.34450531474E+03 -0.72899366786E+03  0.19222954344E+04  0.20845468158E+04  0.10100000352E+00 0. -1.
       -3    1    3    3    0  502  0.34450531474E+03  0.72899366786E+03  0.46563897811E+03  0.93109362999E+03  0.10100000352E+00 0.  1.
</event>
<event>
 5   0  0.8905646E-05  0.1913685E+04  0.7818609E-02  0.8648074E-01
       -1   -1    0    0    0  501  0.00000000000E+00  0.00000000000E+00  0.14836830814E+04  0.14836830814E+04  0.50400001928E-02 0. -1.
        1   -1    0    0  501    0  0.00000000000E+00  0.00000000000E+00 -0.61707759329E+03  0.61707759331E+03  0.50400001928E-02 0.  1.
    10030    2    1    2    0    0  0.00000000000E+00  0.00000000000E+00  0.86660548814E+03  0.21007606747E+04  0.19136850160E+04 0.  0.
        1    1    3    3  502    0 -0.20250667066E+03  0.32131338059E+03 -0.53078543806E+03  0.65267482064E+03  0.50400001928E-02 0.  1.
       -1    1    3    3    0  502  0.20250667066E+03 -0.32131338059E+03  0.13973909262E+04  0.14480858541E+04  0.50400001928E-02 0. -1.
</event>
<event>
 5   0  0.1810569E-04  0.1898546E+04  0.7818609E-02  0.8655580E-01
       -2   -1    0    0    0  501  0.00000000000E+00  0.00000000000E+00  0.77914644094E+03  0.77914644095E+03  0.25500000920E-02 0. -1.
        2   -1    0    0  501    0  0.00000000000E+00  0.00000000000E+00 -0.11565467899E+04  0.11565467899E+04  0.25500000920E-02 0.  1.
    10030    2    1    2    0    0  0.00000000000E+00  0.00000000000E+00 -0.37740034900E+03  0.19356932309E+04  0.18985460913E+04 0.  0.
        4    1    3    3  502    0  0.93949888082E+03  0.53338007747E+02 -0.61296783722E+02  0.94300689220E+03  0.12699999809E+01 0.  1.
       -4    1    3    3    0  502 -0.93949888082E+03 -0.53338007747E+02 -0.31610356527E+03  0.99268633869E+03  0.12699999809E+01 0. -1.
</event>
<event>
 5   0  0.8567844E-05  0.1908211E+04  0.7818609E-02  0.8650780E-01
        1   -1    0    0  501    0  0.00000000000E+00  0.00000000000E+00  0.85750779628E+03  0.85750779630E+03  0.50400001928E-02 0. -1.
       -1   -1    0    0    0  501  0.00000000000E+00  0.00000000000E+00 -0.10615843626E+04  0.10615843626E+04  0.50400001928E-02 0.  1.
    10030    2    1    2    0    0  0.00000000000E+00  0.00000000000E+00 -0.20407656629E+03  0.19190921589E+04  0.19082105412E+04 0.  0.
        4    1    3    3  502    0  0.88081203669E+03  0.31007961271E+03 -0.29895073923E+03  0.98048578143E+03  0.12699999809E+01 0. -1.
       -4    1    3    3    0  502 -0.88081203669E+03 -0.31007961271E+03  0.94874172940E+02  0.93860637745E+03  0.12699999809E+01 0.  1.
</event>
<event>
 5   0  0.1799738E-04  0.1924037E+04  0.7818609E-02  0.8642983E-01
        2   -1    0    0  501    0  0.00000000000E+00  0.00000000000E+00  0.13945731930E+04  0.13945731930E+04  0.25500000920E-02 0. -1.
       -2   -1    0    0    0  501  0.00000000000E+00  0.00000000000E+00 -0.66362948365E+03  0.66362948366E+03  0.25500000920E-02 0.  1.
    10030    2    1    2    0    0  0.00000000000E+00  0.00000000000E+00  0.73094370930E+03  0.20582026766E+04  0.19240373052E+04 0.  0.
        1    1    3    3  502    0  0.70143877807E+03 -0.63859942338E+03  0.53681028239E+03  0.10899499356E+04  0.50400001928E-02 0. -1.
       -1    1    3    3    0  502 -0.70143877807E+03  0.63859942338E+03  0.19413342691E+03  0.96825274097E+03  0.50400001928E-02 0.  1.
</event>
<event>
 5   0  0.1790832E-04  0.1857039E+04  0.7818609E-02  0.8676541E-01
       -2   -1    0    0    0  501  0.00000000000E+00  0.00000000000E+00  0.63070404978E+03  0.63070404978E+03  0.25500000920E-02 0.  1.
        2   -1    0    0  501    0  0.00000000000E+00  0.00000000000E+00 -0.13669624150E+04  0.13669624150E+04  0.25500000920E-02 0. -1.
    10030    2    1    2    0    0  0.00000000000E+00  0.00000000000E+00 -0.73625836521E+03  0.19976664648E+04  0.18570392899E+04 0.  0.
        5    1    3    3  502    0 -0.27524396244E+03 -0.57775463398E+03 -0.10918037683E+04  0.12655501628E+04  0.46999998093E+01 0. -1.
       -5    1    3    3    0  502  0.27524396244E+03  0.57775463398E+03  0.35554540314E+03  0.73211630199E+03  0.46999998093E+01 0.  1.
</event>
<event>
 5   0  0.8905646E-05  0.1917459E+04  0.7818609E-02  0.8646214E-01
       -1   -1    0    0    0  501  0.00000000000E+00  0.00000000000E+00  0.10355627194E+04  0.10355627194E+04  0.50400001928E-02 0.  1.
        1   -1    0    0  501    0  0.00000000000E+00  0.00000000000E+00 -0.88759705813E+03  0.88759705815E+03  0.50400001928E-02 0. -1.
    10030    2    1    2    0    0  0.00000000000E+00  0.00000000000E+00  0.14796566125E+03  0.19231597775E+04  0.19174591764E+04 0.  0.
        1    1    3    3  502    0 -0.56028453197E+03  0.59174268623E+03  0.58054303837E+03  0.10005540380E+04  0.50400001928E-02 0.  1.
       -1    1    3    3    0  502  0.56028453197E+03 -0.59174268623E+03 -0.43257737712E+03  0.92260573957E+03  0.50400001928E-02 0. -1.
</event>
<event>
 5   0  0.8905646E-05  0.1851582E+04  0.7818609E-02  0.8679340E-01
        1   -1    0    0  501    0  0.00000000000E+00  0.00000000000E+00  0.10426490313E+04  0.10426490313E+04  0.50400001928E-02 0.  1.
       -1   -1    0    0    0  501  0.00000000000E+00  0.00000000000E+00 -0.82202991605E+03  0.82202991606E+03  0.50400001928E-02 0. -1.
    10030    2    1    2    0    0  0.00000000000E+00  0.00000000000E+00  0.22061911527E+03  0.18646789474E+04  0.18515816976E+04 0.  0.
        1    1    3    3  502    0  0.39076636302E+03  0.82655043682E+03 -0.36338888516E+02  0.91498879223E+03  0.50400001928E-02 0. -1.
       -1    1    3    3    0  502 -0.39076636302E+03 -0.82655043682E+03  0.25695800378E+03  0.94969015516E+03  0.50400001928E-02 0.  1.
</event>
<event>
 5   0  0.8567844E-05  0.1891392E+04  0.7818609E-02  0.8659153E-01
        1   -1    0    0  501    0  0.00000000000E+00  0.00000000000E+00  0.13498600177E+04  0.13498600177E+04  0.50400001928E-02 0. -1.
       -1   -1    0    0    0  501  0.00000000000E+00  0.00000000000E+00 -0.66254351401E+03  0.66254351403E+03  0.50400001928E-02 0.  1.
    10030    2    1    2    0    0  0.00000000000E+00  0.00000000000E+00  0.68731650373E+03  0.20124035318E+04  0.18913920795E+04 0.  0.
        4    1    3    3  502    0 -0.16461595426E+03  0.32291286519E+03  0.12730241644E+04  0.13236174927E+04  0.12699999809E+01 0. -1.
       -4    1    3    3    0  502  0.16461595426E+03 -0.32291286519E+03 -0.58570766070E+03  0.68878603906E+03  0.12699999809E+01 0.  1.
</event>
<event>
 5   0  0.1810569E-04  0.1905786E+04  0.7818609E-02  0.8651982E-01
       -2   -1    0    0    0  501  0.00000000000E+00  0.00000000000E+00  0.49559678664E+03  0.49559678665E+03  0.25500000920E-02 0.  1.
        2   -1    0    0  501    0  0.00000000000E+00  0.00000000000E+00 -0.18321444819E+04  0.18321444819E+04  0.25500000920E-02 0. -1.
    10030    2    1    2    0    0  0.00000000000E+00  0.00000000000E+00 -0.13365476953E+04  0.23277412686E+04  0.19057858410E+04 0.  0.
        4    1    3    3  502    0 -0.62380945204E+02  0.65752387140E+03 -0.15072077421E+04  0.16455715769E+04  0.12699999809E+01 0. -1.
       -4    1    3    3    0  502  0.62380945204E+02 -0.65752387140E+03  0.17066004685E+03  0.68216969170E+03  0.12699999809E+01 0.  1.
</event>
<event>
 5   0  0.8905646E-05  0.2148507E+04  0.7818609E-02  0.8540172E-01
        1   -1    0    0  501    0  0.00000000000E+00  0.00000000000E+00  0.12304519055E+04  0.12304519055E+04  0.50400001928E-02 0. -1.
       -1   -1    0    0    0  501  0.00000000000E+00  0.00000000000E+00 -0.93788315385E+03  0.93788315386E+03  0.50400001928E-02 0.  1.
    10030    2    1    2    0    0  0.00000000000E+00  0.00000000000E+00  0.29256875160E+03  0.21683350593E+04  0.21485065639E+04 0.  0.
        1    1    3    3  502    0 -0.50084929828E+03  0.94834655755E+03  0.83998504234E+02  0.10757634320E+04  0.50400001928E-02 0. -1.
       -1    1    3    3    0  502  0.50084929828E+03 -0.94834655755E+03  0.20857024737E+03  0.10925716274E+04  0.50400001928E-02 0.  1.
</event>
<event>
 5   0  0.1799738E-04  0.1858573E+04  0.7818609E-02  0.8675757E-01
       -2   -1    0    0    0  501  0.00000000000E+00  0.00000000000E+00  0.35906414102E+03  0.35906414103E+03  0.25500000920E-02 0.  1.
        2   -1    0    0  501    0  0.00000000000E+00  0.00000000000E+00 -0.24050666041E+04  0.24050666041E+04  0.25500000920E-02 0. -1.
    10030    2    1    2    0    0  0.00000000000E+00  0.00000000000E+00 -0.20460024631E+04  0.27641307451E+04  0.18585727581E+04 0.  0.
        1    1    3    3  502    0 -0.83541749332E+03 -0.31636833350E+03 -0.64219446242E+03  0.11001931822E+04  0.50400001928E-02 0.  1.
       -1    1    3    3    0  502  0.83541749332E+03  0.31636833350E+03 -0.14038080007E+04  0.16639375629E+04  0.50400001928E-02 0. -1.
</event>
<event>
 5   0  0.6375750E-05  0.1924304E+04  0.7818609E-02  0.8642853E-01
        3   -1    0    0  501    0  0.00000000000E+00  0.00000000000E+00  0.93490091162E+03  0.93490091708E+03  0.10100000352E+00 0.  1.
       -3   -1    0    0    0  501  0.00000000000E+00  0.00000000000E+00 -0.99019701309E+03  0.99019701824E+03  0.10100000352E+00 0. -1.
    10030    2    1    2    0    0  0.00000000000E+00  0.00000000000E+00 -0.55296101465E+02  0.19250979353E+04  0.19243036147E+04 0.  0.
        3    1    3    3  502    0 -0.48053425332E+03  0.83218515337E+03  0.20233926160E+02  0.96117361599E+03  0.10100000352E+00 0. -1.
       -3    1    3    3    0  502  0.48053425332E+03 -0.83218515337E+03 -0.75530027624E+02  0.96392431932E+03  0.10100000352E+00 0.  1.
</event>
<event>
 5   0  0.8587082E-05  0.1883590E+04  0.7818609E-02  0.8663068E-01
        1   -1    0    0  501    0  0.00000000000E+00  0.00000000000E+00  0.10989355058E+04  0.10989355059E+04  0.50400001928E-02 0. -1.
       -1   -1    0    0    0  501  0.00000000000E+00  0.00000000000E+00 -0.80712496351E+03  0.80712496352E+03  0.50400001928E-02 0.  1.
    10030    2    1    2    0    0  0.00000000000E+00  0.00000000000E+00  0.29181054234E+03  0.19060604694E+04  0.18835904864E+04 0.  0.
        5    1    3    3  502    0 -0.30299956740E+03  0.62106259193E+03  0.79340461440E+03  0.10521598990E+04  0.46999998093E+01 0. -1.
       -5    1    3    3    0  502  0.30299956740E+03 -0.62106259193E+03 -0.50159407207E+03  0.85390057036E+03  0.46999998093E+01 0.  1.
</event>
<event>
 5   0  0.1765328E-04  0.1847849E+04  0.7818609E-02  0.8681260E-01
       -2   -1    0    0    0  501  0.00000000000E+00  0.00000000000E+00  0.40495018805E+03  0.40495018805E+03  0.25500000920E-02 0.  1.
        2   -1    0    0  501    0  0.00000000000E+00  0.00000000000E+00 -0.21080042346E+04  0.21080042346E+04  0.25500000920E-02 0. -1.
    10030    2    1    2    0    0  0.00000000000E+00  0.00000000000E+00 -0.17030540465E+04  0.25129544226E+04  0.18478492484E+04 0.  0.
        3    1    3    3  502    0  0.84821262315E+03 -0.21187729936E+03 -0.44518166459E+03  0.98109294603E+03  0.10100000352E+00 0. -1.
       -3    1    3    3    0  502 -0.84821262315E+03  0.21187729936E+03 -0.12578723819E+04  0.15318614766E+04  0.10100000352E+00 0.  1.
</event>
<event>
 5   0  0.8905646E-05  0.1906701E+04  0.7818609E-02  0.8651528E-01
       -1   -1    0    0    0  501  0.00000000000E+00  0.00000000000E+00  0.83855314303E+03  0.83855314305E+03  0.50400001928E-02 0. -1.
        1   -1    0    0  501    0  0.00000000000E+00  0.00000000000E+00 -0.10838632223E+04  0.10838632223E+04  0.50400001928E-02 0.  1.
    10030    2    1    2    0    0  0.00000000000E+00  0.00000000000E+00 -0.24531007924E+03  0.19224163653E+04  0.19067007229E+04 0.  0.
        1    1    3    3  502    0  0.13923328312E+03 -0.92835374609E+03 -0.29030947863E+03  0.98260173947E+03  0.50400001928E-02 0.  1.
       -1    1    3    3    0  502 -0.13923328312E+03  0.92835374609E+03  0.44999399396E+02  0.93981462586E+03  0.50400001928E-02 0. -1.
</event>
<event>
 5   0  0.8587082E-05  0.1966181E+04  0.7818609E-02  0.8622597E-01
        1   -1    0    0  501    0  0.00000000000E+00  0.00000000000E+00  0.13607514560E+04  0.13607514560E+04  0.50400001928E-02 0. -1.
       -1   -1    0    0    0  501  0.00000000000E+00  0.00000000000E+00 -0.71024521905E+03  0.71024521907E+03  0.50400001928E-02 0.  1.
    10030    2    1    2    0    0  0.00000000000E+00  0.00000000000E+00  0.65050623693E+03  0.20709966751E+04  0.19661812897E+04 0.  0.
        5    1    3    3  502    0 -0.93952600634E+01  0.26748131343E+03 -0.67111862616E+03  0.72253499868E+03  0.46999998093E+01 0.  1.
       -5    1    3    3    0  502  0.93952600634E+01 -0.26748131343E+03  0.13216248631E+04  0.13484616764E+04  0.46999998093E+01 0. -1.
</event>
<event>
 5   0  0.1790832E-04  0.1898607E+04  0.7818609E-02  0.8655550E-01
        2   -1    0    0  501    0  0.00000000000E+00  0.00000000000E+00  0.11211954976E+04  0.11211954976E+04  0.25500000920E-02 0.  1.
       -2   -1    0    0    0  501  0.00000000000E+00  0.00000000000E+00 -0.80376474375E+03  0.80376474375E+03  0.25500000920E-02 0. -1.
    10030    2    1    2    0    0  0.00000000000E+00  0.00000000000E+00  0.31743075382E+03  0.19249602413E+04  0.18986072915E+04 0.  0.
        5    1    3    3  502    0 -0.13301106217E+03  0.62235457547E+03  0.87286290285E+03  0.10802448322E+04  0.46999998093E+01 0.  1.
       -5    1    3    3    0  502  0.13301106217E+03 -0.62235457547E+03 -0.55543214904E+03  0.84471540914E+03  0.46999998093E+01 0. -1.
</event>
<event>
 5   0  0.8905646E-05  0.1898401E+04  0.7818609E-02  0.8655653E-01
       -1   -1    0    0    0  501  0.00000000000E+00  0.00000000000E+00  0.51875359741E+03  0.51875359744E+03  0.50400001928E-02 0.  1.
        1   -1    0    0  501    0  0.00000000000E+00  0.00000000000E+00 -0.17368194568E+04  0.17368194568E+04  0.50400001928E-02 0. -1.
    10030    2    1    2    0    0  0.00000000000E+00  0.00000000000E+00 -0.12180658594E+04  0.22555730542E+04  0.18984007388E+04 0.  0.
        1    1    3    3  502    0  0.13282534487E+03  0.93505597795E+03 -0.72180703668E+03  0.11886873653E+04  0.50400001928E-02 0.  1.
       -1    1    3    3    0  502 -0.13282534487E+03 -0.93505597795E+03 -0.49625882268E+03  0.10668856889E+04  0.50400001928E-02 0. -1.
</event>
<event>
 5   0  0.8587082E-05  0.1894751E+04  0.7818609E-02  0.8657474E-01
       -1   -1    0    0    0  501  0.00000000000E+00  0.00000000000E+00  0.49140566428E+03  0.49140566430E+03  0.50400001928E-02 0. -1.
        1   -1    0    0  501    0  0.00000000000E+00  0.00000000000E+00 -0.18264337992E+04  0.18264337992E+04  0.50400001928E-02 0.  1.
    10030    2    1    2    0    0  0.00000000000E+00  0.00000000000E+00 -0.13350281350E+04  0.23178394635E+04  0.18947505529E+04 0.  0.
        5    1    3    3  502    0  0.45766582180E+03  0.41986916608E+03 -0.15426189566E+04  0.16629622534E+04  0.46999998093E+01 0.  1.
       -5    1    3    3    0  502 -0.45766582180E+03 -0.41986916608E+03  0.20759082166E+03  0.65487721010E+03  0.46999998093E+01 0. -1.
</event>
<event>
 5   0  0.8681396E-05  0.1929519E+04  0.7818609E-02  0.8640301E-01
       -1   -1    0    0    0  501  0.00000000000E+00  0.00000000000E+00  0.10165321063E+04  0.10165321064E+04  0.50400001928E-02 0.  1.
        1   -1    0    0  501    0  0.00000000000E+00  0.00000000000E+00 -0.91562402382E+03  0.91562402383E+03  0.50400001928E-02 0. -1.
    10030    2    1    2    0    0  0.00000000000E+00  0.00000000000E+00  0.10090808253E+03  0.19321561302E+04  0.19295193366E+04 0.  0.
        3    1    3    3  502    0 -0.49625360079E+03  0.90659705555E+02 -0.77302879620E+03  0.92307115027E+03  0.10100000352E+00 0. -1.
       -3    1    3    3    0  502  0.49625360079E+03 -0.90659705555E+02  0.87393687872E+03  0.10090849799E+04  0.10100000352E+00 0.  1.
</event>
<event>
 5   0  0.1810569E-04  0.1918455E+04  0.7818609E-02  0.8645724E-01
        2   -1    0    0  501    0  0.00000000000E+00  0.00000000000E+00  0.18892256282E+04  0.18892256282E+04  0.25500000920E-02 0.  1.
       -2   -1    0    0    0  501  0.00000000000E+00  0.00000000000E+00 -0.48703424993E+03  0.48703424994E+03  0.25500000920E-02 0. -1.
    10030    2    1    2    0    0  0.00000000000E+00  0.00000000000E+00  0.14021913783E+04  0.23762598781E+04  0.19184551981E+04 0.  0.
        4    1    3    3  502    0  0.65659392849E+03 -0.34032734457E+03 -0.55563145380E+02  0.74163816273E+03  0.12699999809E+01 0. -1.
       -4    1    3    3    0  502 -0.65659392849E+03  0.34032734457E+03  0.14577545236E+04  0.16346217154E+04  0.12699999809E+01 0.  1.
</event>
<event>
 5   0  0.8602017E-05  0.1897157E+04  0.7818609E-02  0.8656273E-01
        1   -1    0    0  501    0  0.00000000000E+00  0.00000000000E+00  0.11079989550E+04  0.11079989550E+04  0.50400001928E-02 0.  1.
       -1   -1    0    0    0  501  0.00000000000E+00  0.00000000000E+00 -0.81209566410E+03  0.81209566412E+03  0.50400001928E-02 0. -1.
    10030    2    1    2    0    0  0.00000000000E+00  0.00000000000E+00  0.29590329093E+03  0.19200946192E+04  0.18971569753E+04 0.  0.
        2    1    3    3  502    0  0.61314614402E+03  0.70105493015E+03  0.33005747048E+03  0.98811140204E+03  0.25500000920E-02 0.  1.
       -2    1    3    3    0  502 -0.61314614402E+03 -0.70105493015E+03 -0.34154179549E+02  0.93198321712E+03  0.25500000920E-02 0. -1.
</event>
<event>
 5   0  0.6375750E-05  0.1905988E+04  0.7818609E-02  0.8651881E-01
        3   -1    0    0  501    0  0.00000000000E+00  0.00000000000E+00  0.52409531419E+03  0.52409532393E+03  0.10100000352E+00 0. -1.
       -3   -1    0    0    0  501  0.00000000000E+00  0.00000000000E+00 -0.17328865611E+04  0.17328865640E+04  0.10100000352E+00 0.  1.
    10030    2    1    2    0    0  0.00000000000E+00  0.00000000000E+00 -0.12087912469E+04  0.22569818879E+04  0.19059881857E+04 0.  0.
        1    1    3    3  502    0 -0.30379523087E+03 -0.33400920849E+03  0.38940735472E+03  0.59623131551E+03  0.50400001928E-02 0. -1.
       -1    1    3    3    0  502  0.30379523087E+03  0.33400920849E+03 -0.15981986016E+04  0.16607505724E+04  0.50400001928E-02 0.  1.
</event>
<event>
 5   0  0.1799738E-04  0.1858450E+04  0.7818609E-02  0.8675819E-01
       -2   -1    0    0    0  501  0.00000000000E+00  0.00000000000E+00  0.10511649587E+04  0.10511649587E+04  0.25500000920E-02 0.  1.
        2   -1    0    0  501    0  0.00000000000E+00  0.00000000000E+00 -0.82143059246E+03  0.82143059246E+03  0.25500000920E-02 0. -1.
    10030    2    1    2    0    0  0.00000000000E+00  0.00000000000E+00  0.22973436622E+03  0.18725955511E+04  0.18584499507E+04 0.  0.
        1    1    3    3  502    0 -0.77562883987E+03  0.22423520726E+03 -0.34860949785E+03  0.87943738119E+03  0.50400001928E-02 0. -1.
       -1    1    3    3    0  502  0.77562883987E+03 -0.22423520726E+03  0.57834386406E+03  0.99315816995E+03  0.50400001928E-02 0.  1.
</event>
<event>
 5   0  0.1810569E-04  0.1875332E+04  0.7818609E-02  0.8667233E-01
        2   -1    0    0  501    0  0.00000000000E+00  0.00000000000E+00  0.87278497840E+03  0.87278497840E+03  0.25500000920E-02 0. -1.
       -2   -1    0    0    0  501  0.00000000000E+00  0.00000000000E+00 -0.10073704459E+04  0.10073704459E+04  0.25500000920E-02 0.  1.
    10030    2    1    2    0    0  0.00000000000E+00  0.00000000000E+00 -0.13458546754E+03  0.18801554243E+04  0.18753322830E+04 0.  0.
        4    1    3    3  502    0  0.14160987251E+03  0.88742704512E+03  0.20104477211E+03  0.92086955086E+03  0.12699999809E+01 0.  1.
       -4    1    3    3    0  502 -0.14160987251E+03 -0.88742704512E+03 -0.33563023965E+03  0.95928587349E+03  0.12699999809E+01 0. -1.
</event>
<event>
 5   0  0.1810569E-04  0.1902704E+04  0.7818609E-02  0.8653512E-01
        2   -1    0    0  501    0  0.00000000000E+00  0.00000000000E+00  0.14994644074E+04  0.14994644074E+04  0.25500000920E-02 0. -1.
       -2   -1    0    0    0  501  0.00000000000E+00  0.00000000000E+00 -0.60359582671E+03  0.60359582671E+03  0.25500000920E-02 0.  1.
    10030    2    1    2    0    0  0.00000000000E+00  0.00000000000E+00  0.89586858073E+03  0.21030602341E+04  0.19027038221E+04 0.  0.
        4    1    3    3  502    0 -0.45584891913E+03 -0.22299690817E+02  0.13705615486E+04  0.14445539397E+04  0.12699999809E+01 0. -1.
       -4    1    3    3    0  502  0.45584891913E+03  0.22299690817E+02 -0.47469296783E+03  0.65850629449E+03  0.12699999809E+01 0.  1.
</event>
<event>
 5   0  0.1658711E-04  0.1894378E+04  0.7818609E-02  0.8657660E-01
        2   -1    0    0  501    0  0.00000000000E+00  0.00000000000E+00  0.10555024594E+04  0.10555024594E+04  0.25500000920E-02 0. -1.
       -2   -1    0    0    0  501  0.00000000000E+00  0.00000000000E+00 -0.84999038514E+03  0.84999038514E+03  0.25500000920E-02 0.  1.
    10030    2    1    2    0    0  0.00000000000E+00  0.00000000000E+00  0.20551207430E+03  0.19054928446E+04  0.18943779370E+04 0.  0.
        2    1    3    3  502    0 -0.75692070998E+02  0.44916755641E+02  0.10513801820E+04  0.10550578617E+04  0.25500000920E-02 0. -1.
       -2    1    3    3    0  502  0.75692070998E+02 -0.44916755641E+02 -0.84586810765E+03  0.85043498287E+03  0.25500000920E-02 0.  1.
</event>
<event>
 5   0  0.1765328E-04  0.1843755E+04  0.7818609E-02  0.8683371E-01
        2   -1    0    0  501    0  0.00000000000E+00  0.00000000000E+00  0.62881533083E+03  0.62881533083E+03  0.25500000920E-02 0. -1.
       -2   -1    0    0    0  501  0.00000000000E+00  0.00000000000E+00 -0.13515226648E+04  0.13515226648E+04  0.25500000920E-02 0.  1.
    10030    2    1    2    0    0  0.00000000000E+00  0.00000000000E+00 -0.72270733402E+03  0.19803379957E+04  0.18437550506E+04 0.  0.
        3    1    3    3  502    0 -0.85334331695E+03  0.26150106565E+03 -0.11342862480E+03  0.89969088417E+03  0.10100000352E+00 0. -1.
       -3    1    3    3    0  502  0.85334331695E+03 -0.26150106565E+03 -0.60927870922E+03  0.10806471115E+04  0.10100000352E+00 0.  1.
</event>
<event>
 5   0  0.8681396E-05  0.1907073E+04  0.7818609E-02  0.8651344E-01
       -1   -1    0    0    0  501  0.00000000000E+00  0.00000000000E+00  0.85431951459E+03  0.85431951461E+03  0.50400001928E-02 0. -1.
        1   -1    0    0  501    0  0.00000000000E+00  0.00000000000E+00 -0.10642764806E+04  0.10642764806E+04  0.50400001928E-02 0.  1.
    10030    2    1    2    0    0  0.00000000000E+00  0.00000000000E+00 -0.20995696603E+03  0.19185959952E+04  0.19070733246E+04 0.  0.
        3    1    3    3  502    0 -0.81088619987E+03  0.42068258015E+03  0.17002619229E+03  0.92920351842E+03  0.10100000352E+00 0. -1.
       -3    1    3    3    0  502  0.81088619987E+03 -0.42068258015E+03 -0.37998315832E+03  0.98939247682E+03  0.10100000352E+00 0.  1.
</event>
<event>
 5   0  0.8567844E-05  0.1910585E+04  0.7818609E-02  0.8649605E-01
        1   -1    0    0  501    0  0.00000000000E+00  0.00000000000E+00  0.12120599002E+04  0.12120599003E+04  0.50400001928E-02 0. -1.
       -1   -1    0    0    0  501  0.00000000000E+00  0.00000000000E+00 -0.75291999799E+03  0.75291999801E+03  0.50400001928E-02 0.  1.
    10030    2    1    2    0    0  0.00000000000E+00  0.00000000000E+00  0.45913990225E+03  0.19649798983E+04  0.19105853948E+04 0.  0.
        4    1    3    3  502    0 -0.59253317902E+03 -0.72152502243E+03  0.21603744042E+02  0.93389627951E+03  0.12699999809E+01 0.  1.
       -4    1    3    3    0  502  0.59253317902E+03  0.72152502243E+03  0.43753615821E+03  0.10310836188E+04  0.12699999809E+01 0. -1.
</event>
<event>
 5   0  0.1765328E-04  0.1899516E+04  0.7818609E-02  0.8655097E-01
        2   -1    0    0  501    0  0.00000000000E+00  0.00000000000E+00  0.72704848560E+03  0.72704848560E+03  0.25500000920E-02 0. -1.
       -2   -1    0    0    0  501  0.00000000000E+00  0.00000000000E+00 -0.12406875518E+04  0.12406875518E+04  0.25500000920E-02 0.  1.
    10030    2    1    2    0    0  0.00000000000E+00  0.00000000000E+00 -0.51363906624E+03  0.19677360374E+04  0.18995157337E+04 0.  0.
        3    1    3    3  502    0  0.85629096780E+03 -0.28306996083E+03  0.51662489389E+02  0.90334481084E+03  0.10100000352E+00 0. -1.
       -3    1    3    3    0  502 -0.85629096780E+03  0.28306996083E+03 -0.56530155562E+03  0.10643912266E+04  0.10100000352E+00 0.  1.
</event>
<event>
 5   0  0.1658711E-04  0.1894720E+04  0.7818609E-02  0.8657489E-01
       -2   -1    0    0    0  501  0.00000000000E+00  0.00000000000E+00  0.83560337017E+03  0.83560337017E+03  0.25500000920E-02 0.  1.
        2   -1    0    0  501    0  0.00000000000E+00  0.00000000000E+00 -0.10740636128E+04  0.10740636128E+04  0.25500000920E-02 0. -1.
    10030    2    1    2    0    0  0.00000000000E+00  0.00000000000E+00 -0.23846024260E+03  0.19096669829E+04  0.18947202164E+04 0.  0.
        2    1    3    3  502    0  0.28676924519E+03 -0.81795119884E+03 -0.50462123747E+03  0.10029573057E+04  0.25500000920E-02 0. -1.
       -2    1    3    3    0  502 -0.28676924519E+03  0.81795119884E+03  0.26616099487E+03  0.90670967728E+03  0.25500000920E-02 0.  1.
</event>
<event>
 5   0  0.8905646E-05  0.1884242E+04  0.7818609E-02  0.8662740E-01
       -1   -1    0    0    0  501  0.00000000000E+00  0.00000000000E+00  0.68489223931E+03  0.68489223932E+03  0.50400001928E-02 0.  1.
        1   -1    0    0  501    0  0.00000000000E+00  0.00000000000E+00 -0.12959581252E+04  0.12959581252E+04  0.50400001928E-02 0. -1.
    10030    2    1    2    0    0  0.00000000000E+00  0.00000000000E+00 -0.61106588586E+03  0.19808503645E+04  0.18842416644E+04 0.  0.
        1    1    3    3  502    0  0.79079630150E+03 -0.35230347695E+03 -0.69622600450E+03  0.11109487746E+04  0.50400001928E-02 0. -1.
       -1    1    3    3    0  502 -0.79079630150E+03  0.35230347695E+03  0.85160118634E+02  0.86990158994E+03  0.50400001928E-02 0.  1.
</event>
<event>
 5   0  0.1799738E-04  0.1875619E+04  0.7818609E-02  0.8667088E-01
       -2   -1    0    0    0  501  0.00000000000E+00  0.00000000000E+00  0.72959732285E+03  0.72959732285E+03  0.25500000920E-02 0. -1.
        2   -1    0    0  501    0  0.00000000000E+00  0.00000000000E+00 -0.12054410129E+04  0.12054410129E+04  0.25500000920E-02 0.  1.
    10030    2    1    2    0    0  0.00000000000E+00  0.00000000000E+00 -0.47584369006E+03  0.19350383358E+04  0.18756188695E+04 0.  0.
        1    1    3    3  502    0  0.69317172009E+03 -0.28767544628E+03  0.34224778012E+03  0.82485013121E+03  0.50400001928E-02 0. -1.
       -1    1    3    3    0  502 -0.69317172009E+03  0.28767544628E+03 -0.81809147018E+03  0.11101882046E+04  0.50400001928E-02 0.  1.
</event>
<event>
 5   0  0.8602017E-05  0.1725715E+04  0.7818609E-02  0.8746833E-01
       -1   -1    0    0    0  501  0.00000000000E+00  0.00000000000E+00  0.11998263591E+04  0.11998263591E+04  0.50400001928E-02 0. -1.
        1   -1    0    0  501    0  0.00000000000E+00  0.00000000000E+00 -0.62052552255E+03  0.62052552257E+03  0.50400001928E-02 0.  1.
    10030    2    1    2    0    0  0.00000000000E+00  0.00000000000E+00  0.57930083651E+03  0.18203518816E+04  0.17257147835E+04 0.  0.
        2    1    3    3  502    0 -0.63794935385E+03  0.41469868212E+03  0.71886571281E+03  0.10467675425E+04  0.25500000920E-02 0. -1.
       -2    1    3    3    0  502  0.63794935385E+03 -0.41469868212E+03 -0.13956487630E+03  0.77358433912E+03  0.25500000920E-02 0.  1.
</event>
<event>
 5   0  0.1790832E-04  0.1912872E+04  0.7818609E-02  0.8648476E-01
        2   -1    0    0  501    0  0.00000000000E+00  0.00000000000E+00  0.12948534728E+04  0.12948534728E+04  0.25500000920E-02 0.  1.
       -2   -1    0    0    0  501  0.00000000000E+00  0.00000000000E+00 -0.70646553158E+03  0.70646553158E+03  0.25500000920E-02 0. -1.
    10030    2    1    2    0    0  0.00000000000E+00  0.00000000000E+00  0.58838794123E+03  0.20013190044E+04  0.19128715033E+04 0.  0.
        5    1    3    3  502    0 -0.88964443186E+03  0.15941121823E+03 -0.33109878370E+02  0.90443214542E+03  0.46999998093E+01 0.  1.
       -5    1    3    3    0  502  0.88964443186E+03 -0.15941121823E+03  0.62149781960E+03  0.10968868590E+04  0.46999998093E+01 0. -1.
</event>
<event>
 5   0  0.8602017E-05  0.1876430E+04  0.7818609E-02  0.8666679E-01
       -1   -1    0    0    0  501  0.00000000000E+00  0.00000000000E+00  0.41634932611E+03  0.41634932614E+03  0.50400001928E-02 0.  1.
        1   -1    0    0  501    0  0.00000000000E+00  0.00000000000E+00 -0.21142028293E+04  0.21142028293E+04  0.50400001928E-02 0. -1.
    10030    2    1    2    0    0  0.00000000000E+00  0.00000000000E+00 -0.16978535032E+04  0.25305521555E+04  0.18764295066E+04 0.  0.
        2    1    3    3  502    0 -0.20232584398E+03 -0.78916334868E+03 -0.14764711671E+04  0.16863219281E+04  0.25500000920E-02 0. -1.
       -2    1    3    3    0  502  0.20232584398E+03  0.78916334868E+03 -0.22138233618E+03  0.84423022738E+03  0.25500000920E-02 0.  1.
</event>
<event>
 5   0  0.8681396E-05  0.1897676E+04  0.7818609E-02  0.8656014E-01
       -1   -1    0    0    0  501  0.00000000000E+00  0.00000000000E+00  0.58216602998E+03  0.58216603000E+03  0.50400001928E-02 0. -1.
        1   -1    0    0  501    0  0.00000000000E+00  0.00000000000E+00 -0.15464553340E+04  0.15464553340E+04  0.50400001928E-02 0.  1.
    10030    2    1    2    0    0  0.00000000000E+00  0.00000000000E+00 -0.96428930406E+03  0.21286213640E+04  0.18976762236E+04 0.  0.
        3    1    3    3  502    0  0.80991109285E+03 -0.43106013737E+03 -0.75350523194E+03  0.11872400621E+04  0.10100000352E+00 0. -1.
       -3    1    3    3    0  502 -0.80991109285E+03  0.43106013737E+03 -0.21078407212E+03  0.94138130193E+03  0.10100000352E+00 0.  1.
</event>
<event>
 5   0  0.8587082E-05  0.1899767E+04  0.7818609E-02  0.8654972E-01
        1   -1    0    0  501    0  0.00000000000E+00  0.00000000000E+00  0.20331469074E+04  0.20331469074E+04  0.50400001928E-02 0.  1.
       -1   -1    0    0    0  501  0.00000000000E+00  0.00000000000E+00 -0.44378423504E+03  0.44378423507E+03  0.50400001928E-02 0. -1.
    10030    2    1    2    0    0  0.00000000000E+00  0.00000000000E+00  0.15893626723E+04  0.24769311425E+04  0.18997668752E+04 0.  0.
        5    1    3    3  502    0  0.63080722455E+03  0.20846970350E+02  0.17202050921E+04  0.18323427625E+04  0.46999998093E+01 0.  1.
       -5    1    3    3    0  502 -0.63080722455E+03 -0.20846970350E+02 -0.13084241973E+03  0.64458837991E+03  0.46999998093E+01 0. -1.
</event>
<event>
 5   0  0.1799738E-04  0.1881482E+04  0.7818609E-02  0.8664129E-01
        2   -1    0    0  501    0  0.00000000000E+00  0.00000000000E+00  0.10489823035E+04  0.10489823035E+04  0.25500000920E-02 0.  1.
       -2   -1    0    0    0  501  0.00000000000E+00  0.00000000000E+00 -0.84366919337E+03  0.84366919337E+03  0.25500000920E-02 0. -1.
    10030    2    1    2    0    0  0.00000000000E+00  0.00000000000E+00  0.20531311017E+03  0.18926514969E+04  0.18814824516E+04 0.  0.
        1    1    3    3  502    0  0.42623249064E+03  0.32706236767E+03  0.87947787804E+03  0.10305946179E+04  0.50400001928E-02 0.  1.
       -1    1    3    3    0  502 -0.42623249064E+03 -0.32706236767E+03 -0.67416476787E+03  0.86205687903E+03  0.50400001928E-02 0. -1.
</event>
<event>
 5   0  0.8681396E-05  0.1903414E+04  0.7818609E-02  0.8653159E-01
        1   -1    0    0  501    0  0.00000000000E+00  0.00000000000E+00  0.19508301369E+04  0.19508301369E+04  0.50400001928E-02 0.  1.
       -1   -1    0    0    0  501  0.00000000000E+00  0.00000000000E+00 -0.46428748511E+03  0.46428748514E+03  0.50400001928E-02 0. -1.
    10030    2    1    2    0    0  0.00000000000E+00  0.00000000000E+00  0.14865426518E+04  0.24151176221E+04  0.19034137944E+04 0.  0.
        3    1    3    3  502    0 -0.67575570625E+03 -0.52339064769E+03  0.12743093223E+04  0.15344209995E+04  0.10100000352E+00 0.  1.
       -3    1    3    3    0  502  0.67575570625E+03  0.52339064769E+03  0.21223332947E+03  0.88069662254E+03  0.10100000352E+00 0. -1.
</event>
<event>
 5   0  0.1658711E-04  0.1882436E+04  0.7818609E-02  0.8663649E-01
        2   -1    0    0  501    0  0.00000000000E+00  0.00000000000E+00  0.16698619923E+04  0.16698619923E+04  0.25500000920E-02 0. -1.
       -2   -1    0    0    0  501  0.00000000000E+00  0.00000000000E+00 -0.53051783606E+03  0.53051783606E+03  0.25500000920E-02 0.  1.
    10030    2    1    2    0    0  0.00000000000E+00  0.00000000000E+00  0.11393441562E+04  0.22003798284E+04  0.18824362626E+04 0.  0.
        2    1    3    3  502    0  0.60455755526E+03 -0.61534997638E+03  0.10097534589E+04  0.13280615493E+04  0.25500000920E-02 0. -1.
       -2    1    3    3    0  502 -0.60455755526E+03  0.61534997638E+03  0.12959069732E+03  0.87231827901E+03  0.25500000920E-02 0.  1.
</event>
<event>
 5   0  0.8567844E-05  0.1899728E+04  0.7818609E-02  0.8654992E-01
        1   -1    0    0  501    0  0.00000000000E+00  0.00000000000E+00  0.59695638006E+03  0.59695638008E+03  0.50400001928E-02 0. -1.
       -1   -1    0    0    0  501  0.00000000000E+00  0.00000000000E+00 -0.15114022120E+04  0.15114022120E+04  0.50400001928E-02 0.  1.
    10030    2    1    2    0    0  0.00000000000E+00  0.00000000000E+00 -0.91444583192E+03  0.21083585921E+04  0.18997275524E+04 0.  0.
        4    1    3    3  502    0  0.20816395878E+03  0.42692274977E+03  0.45569845646E+03  0.65822333910E+03  0.12699999809E+01 0. -1.
       -4    1    3    3    0  502 -0.20816395878E+03 -0.42692274977E+03 -0.13701442884E+04  0.14501352530E+04  0.12699999809E+01 0.  1.
</event>
<event>
 5   0  0.8587082E-05  0.1911656E+04  0.7818609E-02  0.8649076E-01
        1   -1    0    0  501    0  0.00000000000E+00  0.00000000000E+00  0.87523233051E+03  0.87523233053E+03  0.50400001928E-02 0. -1.
       -1   -1    0    0    0  501  0.00000000000E+00  0.00000000000E+00 -0.10438455705E+04  0.10438455705E+04  0.50400001928E-02 0.  1.
    10030    2    1    2    0    0  0.00000000000E+00  0.00000000000E+00 -0.16861323997E+03  0.19190779010E+04  0.19116562362E+04 0.  0.
        5    1    3    3  502    0  0.50055505059E+02 -0.87699350161E+03  0.29393479910E+03  0.92630605719E+03  0.46999998093E+01 0.  1.
       -5    1    3    3    0  502 -0.50055505059E+02  0.87699350161E+03 -0.46254803907E+03  0.99277184383E+03  0.46999998093E+01 0. -1.
</event>
<event>
 5   0  0.1790832E-04  0.1886734E+04  0.7818609E-02  0.8661488E-01
       -2   -1    0    0    0  501  0.00000000000E+00  0.00000000000E+00  0.71558916805E+03  0.71558916806E+03  0.25500000920E-02 0.  1.
        2   -1    0    0  501    0  0.00000000000E+00  0.00000000000E+00 -0.12436484873E+04  0.12436484873E+04  0.25500000920E-02 0. -1.
    10030    2    1    2    0    0  0.00000000000E+00  0.00000000000E+00 -0.52805931922E+03  0.19592376553E+04  0.18867340951E+04 0.  0.
        5    1    3    3  502    0  0.26461051020E+03 -0.39643857398E+02  0.67534832160E+03  0.72643499573E+03  0.46999998093E+01 0.  1.
       -5    1    3    3    0  502 -0.26461051020E+03  0.39643857398E+02 -0.12034076408E+04  0.12328026596E+04  0.46999998093E+01 0. -1.
</event>
<event>
 5   0  0.8587082E-05  0.1898395E+04  0.7818609E-02  0.8655656E-01
       -1   -1    0    0    0  501  0.00000000000E+00  0.00000000000E+00  0.50007761117E+03  0.50007761119E+03  0.50400001928E-02 0. -1.
        1   -1    0    0  501    0  0.00000000000E+00  0.00000000000E+00 -0.18016726188E+04  0.18016726188E+04  0.50400001928E-02 0.  1.
    10030    2    1    2    0    0  0.00000000000E+00  0.00000000000E+00 -0.13015950076E+04  0.23017502300E+04  0.18983952585E+04 0.  0.
        5    1    3    3  502    0 -0.92943842516E+03 -0.99791886868E+02 -0.85054218156E+03  0.12638268471E+04  0.46999998093E+01 0.  1.
       -5    1    3    3    0  502  0.92943842516E+03  0.99791886868E+02 -0.45105282608E+03  0.10379233829E+04  0.46999998093E+01 0. -1.
</event>
<event>
 5   0  0.8602017E-05  0.1844707E+04  0.7818609E-02  0.8682880E-01
       -1   -1    0    0    0  501  0.00000000000E+00  0.00000000000E+00  0.71892957606E+03  0.71892957608E+03  0.50400001928E-02 0. -1.
        1   -1    0    0  501    0  0.00000000000E+00  0.00000000000E+00 -0.11833371133E+04  0.11833371134E+04  0.50400001928E-02 0.  1.
    10030    2    1    2    0    0  0.00000000000E+00  0.00000000000E+00 -0.46440753728E+03  0.19022666894E+04  0.18447070762E+04 0.  0.
        2    1    3    3  502    0  0.13192677064E+03  0.76645809162E+03  0.27912442137E+03  0.82630086629E+03  0.25500000920E-02 0. -1.
       -2    1    3    3    0  502 -0.13192677064E+03 -0.76645809162E+03 -0.74353195865E+03  0.10759658231E+04  0.25500000920E-02 0.  1.
</event>
<event>
 5   0  0.1799738E-04  0.1908425E+04  0.7818609E-02  0.8650674E-01
       -2   -1    0    0    0  501  0.00000000000E+00  0.00000000000E+00  0.31910329248E+03  0.31910329249E+03  0.25500000920E-02 0.  1.
        2   -1    0    0  501    0  0.00000000000E+00  0.00000000000E+00 -0.28533760351E+04  0.28533760351E+04  0.25500000920E-02 0. -1.
    10030    2    1    2    0    0  0.00000000000E+00  0.00000000000E+00 -0.25342727427E+04  0.31724793276E+04  0.19084252016E+04 0.  0.
        1    1    3    3  502    0 -0.46831466295E+03 -0.42491233852E+03 -0.24550542487E+04  0.25351845067E+04  0.50400001928E-02 0. -1.
       -1    1    3    3    0  502  0.46831466295E+03  0.42491233852E+03 -0.79218493969E+02  0.63729482092E+03  0.50400001928E-02 0.  1.
</event>
<event>
 5   0  0.8567844E-05  0.1894453E+04  0.7818609E-02  0.8657622E-01
        1   -1    0    0  501    0  0.00000000000E+00  0.00000000000E+00  0.76680980568E+03  0.76680980570E+03  0.50400001928E-02 0.  1.
       -1   -1    0    0    0  501  0.00000000000E+00  0.00000000000E+00 -0.11700918167E+04  0.11700918167E+04  0.50400001928E-02 0. -1.
    10030    2    1    2    0    0  0.00000000000E+00  0.00000000000E+00 -0.40328201103E+03  0.19369016224E+04  0.18944528272E+04 0.  0.
        4    1    3    3  502    0  0.56569197855E+03 -0.59195557480E+03  0.28528391022E+03  0.86706824383E+03  0.12699999809E+01 0.  1.
       -4    1    3    3    0  502 -0.56569197855E+03  0.59195557480E+03 -0.68856592125E+03  0.10698333786E+04  0.12699999809E+01 0. -1.
</event>
<event>
 5   0  0.1799738E-04  0.1545738E+04  0.7818609E-02  0.8854595E-01
       -2   -1    0    0    0  501  0.00000000000E+00  0.00000000000E+00  0.51084159141E+03  0.51084159142E+03  0.25500000920E-02 0.  1.
        2   -1    0    0  501    0  0.00000000000E+00  0.00000000000E+00 -0.11692986758E+04  0.11692986758E+04  0.25500000920E-02 0. -1.
    10030    2    1    2    0    0  0.00000000000E+00  0.00000000000E+00 -0.65845708437E+03  0.16801402672E+04  0.15457378774E+04 0.  0.
        1    1    3    3  502    0  0.35503033585E+03 -0.26326346182E+03  0.35991184774E+03  0.56999186649E+03  0.50400001928E-02 0.  1.
       -1    1    3    3    0  502 -0.35503033585E+03  0.26326346182E+03 -0.10183689321E+04  0.11101484007E+04  0.50400001928E-02 0. -1.
</event>
<event>
 5   0  0.1799738E-04  0.1905936E+04  0.7818609E-02  0.8651908E-01
        2   -1    0    0  501    0  0.00000000000E+00  0.00000000000E+00  0.10076379937E+04  0.10076379937E+04  0.25500000920E-02 0. -1.
       -2   -1    0    0    0  501  0.00000000000E+00  0.00000000000E+00 -0.90126373524E+03  0.90126373524E+03  0.25500000920E-02 0.  1.
    10030    2    1    2    0    0  0.00000000000E+00  0.00000000000E+00  0.10637425848E+03  0.19089017290E+04  0.19059355519E+04 0.  0.
        1    1    3    3  502    0 -0.53192628991E+03  0.34933066136E+03 -0.65726164651E+03  0.91486084234E+03  0.50400001928E-02 0.  1.
       -1    1    3    3    0  502  0.53192628991E+03 -0.34933066136E+03  0.76363590499E+03  0.99404088662E+03  0.50400001928E-02 0. -1.
</event>
<event>
 5   0  0.8567844E-05  0.1921905E+04  0.7818609E-02  0.8644029E-01
        1   -1    0    0  501    0  0.00000000000E+00  0.00000000000E+00  0.19267877740E+04  0.19267877740E+04  0.50400001928E-02 0. -1.
       -1   -1    0    0    0  501  0.00000000000E+00  0.00000000000E+00 -0.47925864011E+03  0.47925864014E+03  0.50400001928E-02 0.  1.
    10030    2    1    2    0    0  0.00000000000E+00  0.00000000000E+00  0.14475291339E+04  0.24060464142E+04  0.19219049804E+04 0.  0.
        4    1    3    3  502    0  0.19475366403E+03  0.60071482952E+03 -0.18301789314E+03  0.65748342806E+03  0.12699999809E+01 0.  1.
       -4    1    3    3    0  502 -0.19475366403E+03 -0.60071482952E+03  0.16305470270E+04  0.17485629861E+04  0.12699999809E+01 0. -1.
</event>
<event>
 5   0  0.8681396E-05  0.1885863E+04  0.7818609E-02  0.8661925E-01
       -1   -1    0    0    0  501  0.00000000000E+00  0.00000000000E+00  0.54920562917E+03  0.54920562920E+03  0.50400001928E-02 0. -1.
        1   -1    0    0  501    0  0.00000000000E+00  0.00000000000E+00 -0.16189200708E+04  0.16189200708E+04  0.50400001928E-02 0.  1.
    10030    2    1    2    0    0  0.00000000000E+00  0.00000000000E+00 -0.10697144417E+04  0.21681257000E+04  0.18858632147E+04 0.  0.
        3    1    3    3  502    0  0.68502615757E+03 -0.44641292755E+03 -0.10748054046E+04  0.13504636265E+04  0.10100000352E+00 0.  1.
       -3    1    3    3    0  502 -0.68502615757E+03  0.44641292755E+03  0.50909629614E+01  0.81766207356E+03  0.10100000352E+00 0. -1.
</event>
<event>
 5   0  0.1810569E-04  0.1912088E+04  0.7818609E-02  0.8648863E-01
       -2   -1    0    0    0  501  0.00000000000E+00  0.00000000000E+00  0.97925160302E+03  0.97925160302E+03  0.25500000920E-02 0. -1.
        2   -1    0    0  501    0  0.00000000000E+00  0.00000000000E+00 -0.93338617714E+03  0.93338617714E+03  0.25500000920E-02 0.  1.
    10030    2    1    2    0    0  0.00000000000E+00  0.00000000000E+00  0.45865425878E+02  0.19126377802E+04  0.19120877702E+04 0.  0.
        4    1    3    3  502    0  0.65020763009E+03  0.65690918543E+03 -0.22151159181E+03  0.95045706812E+03  0.12699999809E+01 0.  1.
       -4    1    3    3    0  502 -0.65020763009E+03 -0.65690918543E+03  0.26737701769E+03  0.96218071204E+03  0.12699999809E+01 0. -1.
</event>
<event>
 5   0  0.8567844E-05  0.1900618E+04  0.7818609E-02  0.8654549E-01
        1   -1    0    0  501    0  0.00000000000E+00  0.00000000000E+00  0.74727797079E+03  0.74727797081E+03  0.50400001928E-02 0.  1.
       -1   -1    0    0    0  501  0.00000000000E+00  0.00000000000E+00 -0.12085018201E+04  0.12085018201E+04  0.50400001928E-02 0. -1.
    10030    2    1    2    0    0  0.00000000000E+00  0.00000000000E+00 -0.46122384934E+03  0.19557797910E+04  0.19006175711E+04 0.  0.
        4    1    3    3  502    0  0.19530335450E+03  0.39456822998E+03  0.63600514666E+03  0.77351900291E+03  0.12699999809E+01 0.  1.
       -4    1    3    3    0  502 -0.19530335450E+03 -0.39456822998E+03 -0.10972289960E+04  0.11822607880E+04  0.12699999809E+01 0. -1.
</event>
<event>
 5   0  0.8905646E-05  0.1930246E+04  0.7818609E-02  0.8639946E-01
        1   -1    0    0  501    0  0.00000000000E+00  0.00000000000E+00  0.16175178248E+04  0.16175178248E+04  0.50400001928E-02 0.  1.
       -1   -1    0    0    0  501  0.00000000000E+00  0.00000000000E+00 -0.57585903710E+03  0.57585903712E+03  0.50400001928E-02 0. -1.
    10030    2    1    2    0    0  0.00000000000E+00  0.00000000000E+00  0.10416587877E+04  0.21933768619E+04  0.19302458466E+04 0.  0.
        1    1    3    3  502    0  0.29714280197E+03 -0.90169235988E+03  0.71803673213E+03  0.11903443642E+04  0.50400001928E-02 0. -1.
       -1    1    3    3    0  502 -0.29714280197E+03  0.90169235988E+03  0.32362205556E+03  0.10030324977E+04  0.50400001928E-02 0.  1.
</event>
<event>
 5   0  0.8587082E-05  0.1933849E+04  0.7818609E-02  0.8638189E-01
        1   -1    0    0  501    0  0.00000000000E+00  0.00000000000E+00  0.24853099878E+04  0.24853099878E+04  0.50400001928E-02 0.  1.
       -1   -1    0    0    0  501  0.00000000000E+00  0.00000000000E+00 -0.37618767141E+03  0.37618767144E+03  0.50400001928E-02 0. -1.
    10030    2    1    2    0    0  0.00000000000E+00  0.00000000000E+00  0.21091223164E+04  0.28614976593E+04  0.19338489880E+04 0.  0.
        5    1    3    3  502    0  0.78456281324E+02 -0.36649758359E+03  0.23734335009E+04  0.24028492546E+04  0.46999998093E+01 0.  1.
       -5    1    3    3    0  502 -0.78456281324E+02  0.36649758359E+03 -0.26431118453E+03  0.45864840469E+03  0.46999998093E+01 0. -1.
</event>
<event>
 5   0  0.1810569E-04  0.1893697E+04  0.7818609E-02  0.8658000E-01
       -2   -1    0    0    0  501  0.00000000000E+00  0.00000000000E+00  0.49975060810E+03  0.49975060811E+03  0.25500000920E-02 0. -1.
        2   -1    0    0  501    0  0.00000000000E+00  0.00000000000E+00 -0.17939395814E+04  0.17939395814E+04  0.25500000920E-02 0.  1.
    10030    2    1    2    0    0  0.00000000000E+00  0.00000000000E+00 -0.12941889733E+04  0.22936901895E+04  0.18936973324E+04 0.  0.
        4    1    3    3  502    0  0.28575289581E+03 -0.63176805178E+03  0.13387233854E+03  0.70619331960E+03  0.12699999809E+01 0. -1.
       -4    1    3    3    0  502 -0.28575289581E+03  0.63176805178E+03 -0.14280613118E+04  0.15874968699E+04  0.12699999809E+01 0.  1.
</event>
<event>
 5   0  0.1658711E-04  0.1915928E+04  0.7818609E-02  0.8646968E-01
       -2   -1    0    0    0  501  0.00000000000E+00  0.00000000000E+00  0.34349599973E+03  0.34349599974E+03  0.25500000920E-02 0.  1.
        2   -1    0    0  501    0  0.00000000000E+00  0.00000000000E+00 -0.26716323099E+04  0.26716323099E+04  0.25500000920E-02 0. -1.
    10030    2    1    2    0    0  0.00000000000E+00  0.00000000000E+00 -0.23281363102E+04  0.30151283096E+04  0.19159279853E+04 0.  0.
        2    1    3    3  502    0 -0.52439531055E+03 -0.77768522316E+03 -0.85765668610E+03  0.12709680323E+04  0.25500000920E-02 0. -1.
       -2    1    3    3    0  502  0.52439531055E+03  0.77768522316E+03 -0.14704796241E+04  0.17441602773E+04  0.25500000920E-02 0.  1.
</event>
<event>
 5   0  0.8587082E-05  0.1894307E+04  0.7818609E-02  0.8657695E-01
       -1   -1    0    0    0  501  0.00000000000E+00  0.00000000000E+00  0.15267588689E+04  0.15267588689E+04  0.50400001928E-02 0.  1.
        1   -1    0    0  501    0  0.00000000000E+00  0.00000000000E+00 -0.58758445974E+03  0.58758445977E+03  0.50400001928E-02 0. -1.
    10030    2    1    2    0    0  0.00000000000E+00  0.00000000000E+00  0.93917440919E+03  0.21143433287E+04  0.18943070345E+04 0.  0.
        5    1    3    3  502    0 -0.65768149612E+03  0.63990926884E+03  0.73146540746E+03  0.11734958692E+04  0.46999998093E+01 0.  1.
       -5    1    3    3    0  502  0.65768149612E+03 -0.63990926884E+03  0.20770900174E+03  0.94084745953E+03  0.46999998093E+01 0. -1.
</event>
<event>
 5   0  0.8905646E-05  0.1909421E+04  0.7818609E-02  0.8650181E-01
        1   -1    0    0  501    0  0.00000000000E+00  0.00000000000E+00  0.11352880527E+04  0.11352880527E+04  0.50400001928E-02 0. -1.
       -1   -1    0    0    0  501  0.00000000000E+00  0.00000000000E+00 -0.80285567828E+03  0.80285567829E+03  0.50400001928E-02 0.  1.
    10030    2    1    2    0    0  0.00000000000E+00  0.00000000000E+00  0.33243237443E+03  0.19381437310E+04  0.19094213360E+04 0.  0.
        1    1    3    3  502    0 -0.56256002589E+03  0.67547088812E+03 -0.21186193114E+03  0.90422352398E+03  0.50400001928E-02 0.  1.
       -1    1    3    3    0  502  0.56256002589E+03 -0.67547088812E+03  0.54429430556E+03  0.10339202070E+04  0.50400001928E-02 0. -1.
</event>
<event>
 5   0  0.1765328E-04  0.1898303E+04  0.7818609E-02  0.8655702E-01
        2   -1    0    0  501    0  0.00000000000E+00  0.00000000000E+00  0.12193687183E+04  0.12193687183E+04  0.25500000920E-02 0.  1.
       -2   -1    0    0    0  501  0.00000000000E+00  0.00000000000E+00 -0.73881536591E+03  0.73881536591E+03  0.25500000920E-02 0. -1.
    10030    2    1    2    0    0  0.00000000000E+00  0.00000000000E+00  0.48055335235E+03  0.19581840842E+04  0.18983027638E+04 0.  0.
        3    1    3    3  502    0  0.90995307259E+03 -0.26849350049E+03  0.26917799981E+03  0.98618464798E+03  0.10100000352E+00 0.  1.
       -3    1    3    3    0  502 -0.90995307259E+03  0.26849350049E+03  0.21137535255E+03  0.97199943621E+03  0.10100000352E+00 0. -1.
</event>
<event>
 5   0  0.1810569E-04  0.1851844E+04  0.7818609E-02  0.8679205E-01
        2   -1    0    0  501    0  0.00000000000E+00  0.00000000000E+00  0.17468341297E+04  0.17468341297E+04  0.25500000920E-02 0.  1.
       -2   -1    0    0    0  501  0.00000000000E+00  0.00000000000E+00 -0.49079158028E+03  0.49079158029E+03  0.25500000920E-02 0. -1.
    10030    2    1    2    0    0  0.00000000000E+00  0.00000000000E+00  0.12560425494E+04  0.22376257099E+04  0.18518439275E+04 0.  0.
        4    1    3    3  502    0  0.15200413828E+02  0.91451814082E+03  0.80210111751E+03  0.12165287905E+04  0.12699999809E+01 0. -1.
       -4    1    3    3    0  502 -0.15200413828E+02 -0.91451814082E+03  0.45394143186E+03  0.10210969195E+04  0.12699999809E+01 0.  1.
</event>
<event>
 5   0  0.1810569E-04  0.1902480E+04  0.7818609E-02  0.8653623E-01
       -2   -1    0    0    0  501  0.00000000000E+00  0.00000000000E+00  0.35211682356E+03  0.35211682357E+03  0.25500000920E-02 0.  1.
        2   -1    0    0  501    0  0.00000000000E+00  0.00000000000E+00 -0.25697658536E+04  0.25697658536E+04  0.25500000920E-02 0. -1.
    10030    2    1    2    0    0  0.00000000000E+00  0.00000000000E+00 -0.22176490300E+04  0.29218826772E+04  0.19024802650E+04 0.  0.
        4    1    3    3  502    0  0.38183116593E+03  0.49782461282E+03 -0.10700118541E+02  0.62748744198E+03  0.12699999809E+01 0.  1.
       -4    1    3    3    0  502 -0.38183116593E+03 -0.49782461282E+03 -0.22069489115E+04  0.22943952352E+04  0.12699999809E+01 0. -1.
</event>
<event>
 5   0  0.8681396E-05  0.1906720E+04  0.7818609E-02  0.8651519E-01
       -1   -1    0    0    0  501  0.00000000000E+00  0.00000000000E+00  0.75297890711E+03  0.75297890713E+03  0.50400001928E-02 0.  1.
        1   -1    0    0  501    0  0.00000000000E+00  0.00000000000E+00 -0.12070654763E+04  0.12070654763E+04  0.50400001928E-02 0. -1.
    10030    2    1    2    0    0  0.00000000000E+00  0.00000000000E+00 -0.45408656917E+03  0.19600443834E+04  0.19067195317E+04 0.  0.
        3    1    3    3  502    0  0.68310268961E+03 -0.92460452753E+02 -0.90403307495E+03  0.11368614826E+04  0.10100000352E+00 0. -1.
       -3    1    3    3    0  502 -0.68310268961E+03  0.92460452753E+02  0.44994650578E+03  0.82318290079E+03  0.10100000352E+00 0.  1.
</event>
<event>
 5   0  0.8681396E-05  0.1895996E+04  0.7818609E-02  0.8656852E-01
       -1   -1    0    0    0  501  0.00000000000E+00  0.00000000000E+00  0.65383643520E+03  0.65383643522E+03  0.50400001928E-02 0.  1.
        1   -1    0    0  501    0  0.00000000000E+00  0.00000000000E+00 -0.13745033356E+04  0.13745033356E+04  0.50400001928E-02 0. -1.
    10030    2    1    2    0    0  0.00000000000E+00  0.00000000000E+00 -0.72066690041E+03  0.20283397708E+04  0.18959961616E+04 0.  0.
        3    1    3    3  502    0 -0.48619868076E+02  0.57876737448E+03  0.44120772202E+03  0.72938318427E+03  0.10100000352E+00 0.  1.
       -3    1    3    3    0  502  0.48619868076E+02 -0.57876737448E+03 -0.11618746224E+04  0.12989565866E+04  0.10100000352E+00 0. -1.
</event>
<event>
 5   0  0.8905646E-05  0.1908917E+04  0.7818609E-02  0.8650430E-01
        1   -1    0    0  501    0  0.00000000000E+00  0.00000000000E+00  0.17936592691E+04  0.17936592691E+04  0.50400001928E-02 0.  1.
       -1   -1    0    0    0  501  0.00000000000E+00  0.00000000000E+00 -0.50789530863E+03  0.50789530866E+03  0.50400001928E-02 0. -1.
    10030    2    1    2    0    0  0.00000000000E+00  0.00000000000E+00  0.12857639604E+04  0.23015545777E+04  0.19089171046E+04 0.  0.
        1    1    3    3  502    0  0.46679079752E+03  0.56611229803E+03  0.13788585593E+04  0.15619307632E+04  0.50400001928E-02 0.  1.
       -1    1    3    3    0  502 -0.46679079752E+03 -0.56611229803E+03 -0.93094598830E+02  0.73962381451E+03  0.50400001928E-02 0. -1.
</event>
<event>
 5   0  0.8602017E-05  0.1879353E+04  0.7818609E-02  0.8665202E-01
        1   -1    0    0  501    0  0.00000000000E+00  0.00000000000E+00  0.10360410546E+04  0.10360410546E+04  0.50400001928E-02 0.  1.
       -1   -1    0    0    0  501  0.00000000000E+00  0.00000000000E+00 -0.85227528336E+03  0.85227528338E+03  0.50400001928E-02 0. -1.
    10030    2    1    2    0    0  0.00000000000E+00  0.00000000000E+00  0.18376577123E+03  0.18883163380E+04  0.18793532754E+04 0.  0.
        2    1    3    3  502    0  0.35448310510E+03  0.52713949326E+03 -0.60384842652E+03  0.87645150429E+03  0.25500000920E-02 0. -1.
       -2    1    3    3    0  502 -0.35448310510E+03 -0.52713949326E+03  0.78761419776E+03  0.10118648337E+04  0.25500000920E-02 0.  1.
</event>
<event>
 5   0  0.1765328E-04  0.2072220E+04  0.7818609E-02  0.8573580E-01
       -2   -1    0    0    0  501  0.00000000000E+00  0.00000000000E+00  0.23631138320E+04  0.23631138320E+04  0.25500000920E-02 0. -1.
        2   -1    0    0  501    0  0.00000000000E+00  0.00000000000E+00 -0.45428354065E+03  0.45428354066E+03  0.25500000920E-02 0.  1.
    10030    2    1    2    0    0  0.00000000000E+00  0.00000000000E+00  0.19088302913E+04  0.28173973726E+04  0.20722197939E+04 0.  0.
        3    1    3    3  502    0  0.12664376516E+03  0.98350702162E+03  0.13627469026E+04  0.16853497665E+04  0.10100000352E+00 0.  1.
       -3    1    3    3    0  502 -0.12664376516E+03 -0.98350702162E+03  0.54608338875E+03  0.11320476061E+04  0.10100000352E+00 0. -1.
</event>
<event>
 5   0  0.1765328E-04  0.1700712E+04  0.7818609E-02  0.8760958E-01
        2   -1    0    0  501    0  0.00000000000E+00  0.00000000000E+00  0.12177955309E+04  0.12177955309E+04  0.25500000920E-02 0. -1.
       -2   -1    0    0    0  501  0.00000000000E+00  0.00000000000E+00 -0.59378217158E+03  0.59378217158E+03  0.25500000920E-02 0.  1.
    10030    2    1    2    0    0  0.00000000000E+00  0.00000000000E+00  0.62401335936E+03  0.18115777025E+04  0.17007119390E+04 0.  0.
        3    1    3    3  502    0 -0.61361733425E+03  0.19335271068E+03  0.90430645405E+03  0.11098115501E+04  0.10100000352E+00 0. -1.
       -3    1    3    3    0  502  0.61361733425E+03 -0.19335271068E+03 -0.28029309469E+03  0.70176615246E+03  0.10100000352E+00 0.  1.
</event>
<event>
 5   0  0.8681396E-05  0.1782890E+04  0.7818609E-02  0.8715452E-01
        1   -1    0    0  501    0  0.00000000000E+00  0.00000000000E+00  0.74215503904E+03  0.74215503906E+03  0.50400001928E-02 0.  1.
       -1   -1    0    0    0  501  0.00000000000E+00  0.00000000000E+00 -0.10707652785E+04  0.10707652785E+04  0.50400001928E-02 0. -1.
    10030    2    1    2    0    0  0.00000000000E+00  0.00000000000E+00 -0.32861023947E+03  0.18129203176E+04  0.17828896176E+04 0.  0.
        3    1    3    3  502    0 -0.32000917265E+03  0.20731955092E+03  0.65505056318E+03  0.75794361090E+03  0.10100000352E+00 0.  1.
       -3    1    3    3    0  502  0.32000917265E+03 -0.20731955092E+03 -0.98366080266E+03  0.10549767067E+04  0.10100000352E+00 0. -1.
</event>
<event>
 5   0  0.1658711E-04  0.1851994E+04  0.7818609E-02  0.8679128E-01
       -2   -1    0    0    0  501  0.00000000000E+00  0.00000000000E+00  0.85710046382E+03  0.85710046383E+03  0.25500000920E-02 0. -1.
        2   -1    0    0  501    0  0.00000000000E+00  0.00000000000E+00 -0.10004313222E+04  0.10004313222E+04  0.25500000920E-02 0.  1.
    10030    2    1    2    0    0  0.00000000000E+00  0.00000000000E+00 -0.14333085839E+03  0.18575317860E+04  0.18519936828E+04 0.  0.
        2    1    3    3  502    0  0.31185058366E+03  0.76137296807E+03  0.35449402403E+03  0.89588257942E+03  0.25500000920E-02 0. -1.
       -2    1    3    3    0  502 -0.31185058366E+03 -0.76137296807E+03 -0.49782488242E+03  0.96164920662E+03  0.25500000920E-02 0.  1.
</event>
<event>
 5   0  0.1799738E-04  0.1898857E+04  0.7818609E-02  0.8655426E-01
       -2   -1    0    0    0  501  0.00000000000E+00  0.00000000000E+00  0.56531571995E+03  0.56531571995E+03  0.25500000920E-02 0.  1.
        2   -1    0    0  501    0  0.00000000000E+00  0.00000000000E+00 -0.15945325999E+04  0.15945325999E+04  0.25500000920E-02 0. -1.
    10030    2    1    2    0    0  0.00000000000E+00  0.00000000000E+00 -0.10292168800E+04  0.21598483199E+04  0.18988568611E+04 0.  0.
        1    1    3    3  502    0 -0.50023292296E+03  0.25123916688E+03  0.35764348453E+03  0.66427626651E+03  0.50400001928E-02 0.  1.
       -1    1    3    3    0  502  0.50023292296E+03 -0.25123916688E+03 -0.13868603645E+04  0.14955720534E+04  0.50400001928E-02 0. -1.
</event>
<event>
 5   0  0.1810569E-04  0.1898697E+04  0.7818609E-02  0.8655505E-01
       -2   -1    0    0    0  501  0.00000000000E+00  0.00000000000E+00  0.31781286483E+03  0.31781286484E+03  0.25500000920E-02 0. -1.
        2   -1    0    0  501    0  0.00000000000E+00  0.00000000000E+00 -0.28358271230E+04  0.28358271230E+04  0.25500000920E-02 0.  1.
    10030    2    1    2    0    0  0.00000000000E+00  0.00000000000E+00 -0.25180142582E+04  0.31536399879E+04  0.18986967553E+04 0.  0.
        4    1    3    3  502    0 -0.30689454755E+03 -0.16676203986E+03  0.20721448404E+03  0.40611980566E+03  0.12699999809E+01 0. -1.
       -4    1    3    3    0  502  0.30689454755E+03  0.16676203986E+03 -0.27252287422E+04  0.27475201822E+04  0.12699999809E+01 0.  1.
</event>
<event>
 5   0  0.8587082E-05  0.1889205E+04  0.7818609E-02  0.8660248E-01
       -1   -1    0    0    0  501  0.00000000000E+00  0.00000000000E+00  0.11399756849E+04  0.11399756849E+04  0.50400001928E-02 0.  1.
        1   -1    0    0  501    0  0.00000000000E+00  0.00000000000E+00 -0.78271324597E+03  0.78271324599E+03  0.50400001928E-02 0. -1.
    10030    2    1    2    0    0  0.00000000000E+00  0.00000000000E+00  0.35726243890E+03  0.19226889309E+04  0.18892051965E+04 0.  0.
        5    1    3    3  502    0  0.71248449130E+02  0.59285973100E+03  0.92351389007E+03  0.10997540622E+04  0.46999998093E+01 0.  1.
       -5    1    3    3    0  502 -0.71248449130E+02 -0.59285973100E+03 -0.56625145117E+03  0.82293486868E+03  0.46999998093E+01 0. -1.
</event>
<event>
 5   0  0.1799738E-04  0.1894000E+04  0.7818609E-02  0.8657849E-01
       -2   -1    0    0    0  501  0.00000000000E+00  0.00000000000E+00  0.66293936275E+03  0.66293936275E+03  0.25500000920E-02 0. -1.
        2   -1    0    0  501    0  0.00000000000E+00  0.00000000000E+00 -0.13527764327E+04  0.13527764327E+04  0.25500000920E-02 0.  1.
    10030    2    1    2    0    0  0.00000000000E+00  0.00000000000E+00 -0.68983706994E+03  0.20157157954E+04  0.18939997320E+04 0.  0.
        1    1    3    3  502    0 -0.10241540537E+03  0.10492108973E+03 -0.13406235101E+04  0.13486173461E+04  0.50400001928E-02 0.  1.
       -1    1    3    3    0  502  0.10241540537E+03 -0.10492108973E+03  0.65078644019E+03  0.66709844932E+03  0.50400001928E-02 0. -1.
</event>
<event>
 5   0  0.1765328E-04  0.1928763E+04  0.7818609E-02  0.8640670E-01
       -2   -1    0    0    0  501  0.00000000000E+00  0.00000000000E+00  0.11446790424E+04  0.11446790424E+04  0.25500000920E-02 0. -1.
        2   -1    0    0  501    0  0.00000000000E+00  0.00000000000E+00 -0.81248280207E+03  0.81248280207E+03  0.25500000920E-02 0.  1.
    10030    2    1    2    0    0  0.00000000000E+00  0.00000000000E+00  0.33219624034E+03  0.19571618445E+04  0.19287633715E+04 0.  0.
        3    1    3    3  502    0  0.16362210108E+03 -0.85528766037E+03 -0.25442233466E+03  0.90720444693E+03  0.10100000352E+00 0.  1.
       -3    1    3    3    0  502 -0.16362210108E+03  0.85528766037E+03  0.58661857501E+03  0.10499573976E+04  0.10100000352E+00 0. -1.
</event>
<event>
 5   0  0.8567844E-05  0.1728673E+04  0.7818609E-02  0.8745178E-01
        1   -1    0    0  501    0  0.00000000000E+00  0.00000000000E+00  0.12798490952E+04  0.12798490952E+04  0.50400001928E-02 0.  1.
       -1   -1    0    0    0  501  0.00000000000E+00  0.00000000000E+00 -0.58372289775E+03  0.58372289777E+03  0.50400001928E-02 0. -1.
    10030    2    1    2    0    0  0.00000000000E+00  0.00000000000E+00  0.69612619746E+03  0.18635719930E+04  0.17286725804E+04 0.  0.
        4    1    3    3  502    0  0.29357023169E+03 -0.79108272866E+03  0.14614988496E+03  0.85636252037E+03  0.12699999809E+01 0. -1.
       -4    1    3    3    0  502 -0.29357023169E+03  0.79108272866E+03  0.54997631250E+03  0.10072094726E+04  0.12699999809E+01 0.  1.
</event>
<event>
 5   0  0.1790832E-04  0.1917971E+04  0.7818609E-02  0.8645963E-01
       -2   -1    0    0    0  501  0.00000000000E+00  0.00000000000E+00  0.88068406398E+03  0.88068406398E+03  0.25500000920E-02 0. -1.
        2   -1    0    0  501    0  0.00000000000E+00  0.00000000000E+00 -0.10442484244E+04  0.10442484244E+04  0.25500000920E-02 0.  1.
    10030    2    1    2    0    0  0.00000000000E+00  0.00000000000E+00 -0.16356436045E+03  0.19249324884E+04  0.19179707466E+04 0.  0.
        5    1    3    3  502    0  0.13202226368E+03  0.94931492969E+03 -0.50010641813E+02  0.95976656960E+03  0.46999998093E+01 0. -1.
       -5    1    3    3    0  502 -0.13202226368E+03 -0.94931492969E+03 -0.11355371864E+03  0.96516591882E+03  0.46999998093E+01 0.  1.
</event>
<event>
 5   0  0.1658711E-04  0.1893446E+04  0.7818609E-02  0.8658126E-01
        2   -1    0    0  501    0  0.00000000000E+00  0.00000000000E+00  0.14046266311E+04  0.14046266311E+04  0.25500000920E-02 0.  1.
       -2   -1    0    0    0  501  0.00000000000E+00  0.00000000000E+00 -0.63809449765E+03  0.63809449765E+03  0.25500000920E-02 0. -1.
    10030    2    1    2    0    0  0.00000000000E+00  0.00000000000E+00  0.76653213342E+03  0.20427211287E+04  0.18934460906E+04 0.  0.
        2    1    3    3  502    0  0.22534969358E+03 -0.13493119515E+03 -0.59799935901E+03  0.65314021864E+03  0.25500000920E-02 0. -1.
       -2    1    3    3    0  502 -0.22534969358E+03  0.13493119515E+03  0.13645314924E+04  0.13895809101E+04  0.25500000920E-02 0.  1.
</event>
<event>
 5   0  0.1658711E-04  0.1921413E+04  0.7818609E-02  0.8644271E-01
        2   -1    0    0  501    0  0.00000000000E+00  0.00000000000E+00  0.14135660253E+04  0.14135660253E+04  0.25500000920E-02 0. -1.
       -2   -1    0    0    0  501  0.00000000000E+00  0.00000000000E+00 -0.65292802770E+03  0.65292802771E+03  0.25500000920E-02 0.  1.
    10030    2    1    2    0    0  0.00000000000E+00  0.00000000000E+00  0.76063799758E+03  0.20664940530E+04  0.19214128936E+04 0.  0.
        2    1    3    3  502    0 -0.84321528813E+03  0.36846558841E+03  0.83475089547E+02  0.92398430861E+03  0.25500000920E-02 0.  1.
       -2    1    3    3    0  502  0.84321528813E+03 -0.36846558841E+03  0.67716290803E+03  0.11425097444E+04  0.25500000920E-02 0. -1.
</event>
<event>
 5   0  0.8681396E-05  0.1923819E+04  0.7818609E-02  0.8643090E-01
        1   -1    0    0  501    0  0.00000000000E+00  0.00000000000E+00  0.11077218057E+04  0.11077218057E+04  0.50400001928E-02 0.  1.
       -1   -1    0    0    0  501  0.00000000000E+00  0.00000000000E+00 -0.83529109535E+03  0.83529109537E+03  0.50400001928E-02 0. -1.
    10030    2    1    2    0    0  0.00000000000E+00  0.00000000000E+00  0.27243071031E+03  0.19430129010E+04  0.19238192851E+04 0.  0.
        3    1    3    3  502    0 -0.80497991809E+03 -0.28988881324E+03 -0.30776333389E+03  0.90925599940E+03  0.10100000352E+00 0. -1.
       -3    1    3    3    0  502  0.80497991809E+03  0.28988881324E+03  0.58019404420E+03  0.10337569016E+04  0.10100000352E+00 0.  1.
</event>
<event>
 5   0  0.8602017E-05  0.1900773E+04  0.7818609E-02  0.8654472E-01
        1   -1    0    0  501    0  0.00000000000E+00  0.00000000000E+00  0.71675981469E+03  0.71675981471E+03  0.50400001928E-02 0. -1.
       -1   -1    0    0    0  501  0.00000000000E+00  0.00000000000E+00 -0.12601633454E+04  0.12601633454E+04  0.50400001928E-02 0.  1.
    10030    2    1    2    0    0  0.00000000000E+00  0.00000000000E+00 -0.54340353067E+03  0.19769231601E+04  0.19007729438E+04 0.  0.
        2    1    3    3  502    0  0.53382151776E+03  0.68663271936E+03 -0.67020265359E+03  0.10979988620E+04  0.25500000920E-02 0.  1.
       -2    1    3    3    0  502 -0.53382151776E+03 -0.68663271936E+03  0.12679912293E+03  0.87892429805E+03  0.25500000920E-02 0. -1.
</event>
<event>
 5   0  0.1799738E-04  0.1853004E+04  0.7818609E-02  0.8678609E-01
        2   -1    0    0  501    0  0.00000000000E+00  0.00000000000E+00  0.19094532480E+04  0.19094532480E+04  0.25500000920E-02 0.  1.
       -2   -1    0    0    0  501  0.00000000000E+00  0.00000000000E+00 -0.44955605959E+03  0.44955605959E+03  0.25500000920E-02 0. -1.
    10030    2    1    2    0    0  0.00000000000E+00  0.00000000000E+00  0.14598971884E+04  0.23590093076E+04  0.18530043477E+04 0.  0.
        1    1    3    3  502    0  0.13716097731E+02 -0.45212481712E+03 -0.29943230374E+03  0.54246169094E+03  0.50400001928E-02 0. -1.
       -1    1    3    3    0  502 -0.13716097731E+02  0.45212481712E+03  0.17593294921E+04  0.18165476166E+04  0.50400001928E-02 0.  1.
</event>
<event>
 5   0  0.8602017E-05  0.1902209E+04  0.7818609E-02  0.8653757E-01
        1   -1    0    0  501    0  0.00000000000E+00  0.00000000000E+00  0.12339855357E+04  0.12339855357E+04  0.50400001928E-02 0.  1.
       -1   -1    0    0    0  501  0.00000000000E+00  0.00000000000E+00 -0.73307192653E+03  0.73307192655E+03  0.50400001928E-02 0. -1.
    10030    2    1    2    0    0  0.00000000000E+00  0.00000000000E+00  0.50091360913E+03  0.19670574622E+04  0.19022094038E+04 0.  0.
        2    1    3    3  502    0 -0.65115669517E+03  0.33914766394E+03  0.87569623330E+03  0.11427467229E+04  0.25500000920E-02 0.  1.
       -2    1    3    3    0  502  0.65115669517E+03 -0.33914766394E+03 -0.37478262417E+03  0.82431073935E+03  0.25500000920E-02 0. -1.
</event>
<event>
 5   0  0.8587082E-05  0.1932716E+04  0.7818609E-02  0.8638741E-01
        1   -1    0    0  501    0  0.00000000000E+00  0.00000000000E+00  0.11686598674E+04  0.11686598674E+04  0.50400001928E-02 0.  1.
       -1   -1    0    0    0  501  0.00000000000E+00  0.00000000000E+00 -0.79907577605E+03  0.79907577606E+03  0.50400001928E-02 0. -1.
    10030    2    1    2    0    0  0.00000000000E+00  0.00000000000E+00  0.36958409131E+03  0.19677356434E+04  0.19327160065E+04 0.  0.
        5    1    3    3  502    0  0.76034316210E+03 -0.89632157707E+02  0.78511140749E+03  0.10966210193E+04  0.46999998093E+01 0.  1.
       -5    1    3    3    0  502 -0.76034316210E+03  0.89632157707E+02 -0.41552731618E+03  0.87111462411E+03  0.46999998093E+01 0. -1.
</event>
<event>
 5   0  0.1790832E-04  0.1912628E+04  0.7818609E-02  0.8648596E-01
        2   -1    0    0  501    0  0.00000000000E+00  0.00000000000E+00  0.92357512934E+03  0.92357512934E+03  0.25500000920E-02 0.  1.
       -2   -1    0    0    0  501  0.00000000000E+00  0.00000000000E+00 -0.99021328544E+03  0.99021328545E+03  0.25500000920E-02 0. -1.
    10030    2    1    2    0    0  0.00000000000E+00  0.00000000000E+00 -0.66638156103E+02  0.19137884148E+04  0.19126278919E+04 0.  0.
        5    1    3    3  502    0 -0.92081357005E+03  0.11857591457E+03  0.19607184021E+03  0.94890681041E+03  0.46999998093E+01 0.  1.
       -5    1    3    3    0  502  0.92081357005E+03 -0.11857591457E+03 -0.26270999632E+03  0.96488160438E+03  0.46999998093E+01 0. -1.
</event>
<event>
 5   0  0.8602017E-05  0.1890722E+04  0.7818609E-02  0.8659489E-01
        1   -1    0    0  501    0  0.00000000000E+00  0.00000000000E+00  0.16739396891E+04  0.16739396891E+04  0.50400001928E-02 0. -1.
       -1   -1    0    0    0  501  0.00000000000E+00  0.00000000000E+00 -0.53389452853E+03  0.53389452856E+03  0.50400001928E-02 0.  1.
    10030    2    1    2    0    0  0.00000000000E+00  0.00000000000E+00  0.11400451606E+04  0.22078342177E+04  0.18907218105E+04 0.  0.
        2    1    3    3  502    0 -0.83367943045E+03  0.39910964667E+03  0.33824455051E+03  0.98423537773E+03  0.25500000920E-02 0.  1.
       -2    1    3    3    0  502  0.83367943045E+03 -0.39910964667E+03  0.80180061009E+03  0.12235988400E+04  0.25500000920E-02 0. -1.
</event>
<event>
 5   0  0.8681396E-05  0.1891910E+04  0.7818609E-02  0.8658894E-01
       -1   -1    0    0    0  501  0.00000000000E+00  0.00000000000E+00  0.56487813171E+03  0.56487813173E+03  0.50400001928E-02 0.  1.
        1   -1    0    0  501    0  0.00000000000E+00  0.00000000000E+00 -0.15841123901E+04  0.15841123902E+04  0.50400001928E-02 0. -1.
    10030    2    1    2    0    0  0.00000000000E+00  0.00000000000E+00 -0.10192342584E+04  0.21489905219E+04  0.18919095617E+04 0.  0.
        3    1    3    3  502    0  0.25792117667E+03  0.13285177175E+02 -0.15432910188E+04  0.15647514205E+04  0.10100000352E+00 0. -1.
       -3    1    3    3    0  502 -0.25792117667E+03 -0.13285177175E+02  0.52405676032E+03  0.58423910135E+03  0.10100000352E+00 0.  1.
</event>
<event>
 5   0  0.8587082E-05  0.1890335E+04  0.7818609E-02  0.8659682E-01
       -1   -1    0    0    0  501  0.00000000000E+00  0.00000000000E+00  0.96119040306E+03  0.96119040307E+03  0.50400001928E-02 0.  1.
        1   -1    0    0  501    0  0.00000000000E+00  0.00000000000E+00 -0.92941204967E+03  0.92941204968E+03  0.50400001928E-02 0. -1.
    10030    2    1    2    0    0  0.00000000000E+00  0.00000000000E+00  0.31778353389E+02  0.18906024528E+04  0.18903353593E+04 0.  0.
        5    1    3    3  502    0 -0.86416016185E+03 -0.19832423843E+03 -0.31159343889E+03  0.93979670676E+03  0.46999998093E+01 0.  1.
       -5    1    3    3    0  502  0.86416016185E+03  0.19832423843E+03  0.34337179227E+03  0.95080574599E+03  0.46999998093E+01 0. -1.
</event>
<event>
 5   0  0.1658711E-04  0.1897634E+04  0.7818609E-02  0.8656035E-01
       -2   -1    0    0    0  501  0.00000000000E+00  0.00000000000E+00  0.11179033345E+04  0.11179033345E+04  0.25500000920E-02 0. -1.
        2   -1    0    0  501    0  0.00000000000E+00  0.00000000000E+00 -0.80530520593E+03  0.80530520593E+03  0.25500000920E-02 0.  1.
    10030    2    1    2    0    0  0.00000000000E+00  0.00000000000E+00  0.31259812862E+03  0.19232085405E+04  0.18976336580E+04 0.  0.
        2    1    3    3  502    0 -0.71253291370E+03 -0.12842550994E+03  0.77779874009E+03  0.10626227669E+04  0.25500000920E-02 0. -1.
       -2    1    3    3    0  502  0.71253291370E+03  0.12842550994E+03 -0.46520061147E+03  0.86058577354E+03  0.25500000920E-02 0.  1.
</event>
<event>
 5   0  0.1799738E-04  0.1904451E+04  0.7818609E-02  0.8652644E-01
       -2   -1    0    0    0  501  0.00000000000E+00  0.00000000000E+00  0.53113237334E+03  0.53113237334E+03  0.25500000920E-02 0.  1.
        2   -1    0    0  501    0  0.00000000000E+00  0.00000000000E+00 -0.17071703495E+04  0.17071703495E+04  0.25500000920E-02 0. -1.
    10030    2    1    2    0    0  0.00000000000E+00  0.00000000000E+00 -0.11760379762E+04  0.22383027228E+04  0.19044510384E+04 0.  0.
        1    1    3    3  502    0 -0.42629577103E+03  0.26675336308E+03  0.36233939601E+03  0.61981874692E+03  0.50400001928E-02 0.  1.
       -1    1    3    3    0  502  0.42629577103E+03 -0.26675336308E+03 -0.15383773722E+04  0.16184839759E+04  0.50400001928E-02 0. -1.
</event>
<event>
 5   0  0.8681396E-05  0.1531090E+04  0.7818609E-02  0.8864038E-01
        1   -1    0    0  501    0  0.00000000000E+00  0.00000000000E+00  0.90961119268E+03  0.90961119269E+03  0.50400001928E-02 0.  1.
       -1   -1    0    0    0  501  0.00000000000E+00  0.00000000000E+00 -0.64429605538E+03  0.64429605539E+03  0.50400001928E-02 0. -1.
    10030    2    1    2    0    0  0.00000000000E+00  0.00000000000E+00  0.26531513730E+03  0.15539072481E+04  0.15310896818E+04 0.  0.
        3    1    3    3  502    0 -0.13917160661E+02 -0.41894164305E+03 -0.51747709910E+03  0.66594920673E+03  0.10100000352E+00 0. -1.
       -3    1    3    3    0  502  0.13917160661E+02  0.41894164305E+03  0.78279223640E+03  0.88795804136E+03  0.10100000352E+00 0.  1.
</event>
<event>
 5   0  0.1799738E-04  0.2050155E+04  0.7818609E-02  0.8583524E-01
       -2   -1    0    0    0  501  0.00000000000E+00  0.00000000000E+00  0.35809621699E+03  0.35809621700E+03  0.25500000920E-02 0.  1.
        2   -1    0    0  501    0  0.00000000000E+00  0.00000000000E+00 -0.29343624264E+04  0.29343624264E+04  0.25500000920E-02 0. -1.
    10030    2    1    2    0    0  0.00000000000E+00  0.00000000000E+00 -0.25762662094E+04  0.32924586434E+04  0.20501551982E+04 0.  0.
        1    1    3    3  502    0 -0.94593761560E+03  0.11463425389E+03 -0.68116445150E+03  0.11712915926E+04  0.50400001928E-02 0. -1.
       -1    1    3    3    0  502  0.94593761560E+03 -0.11463425389E+03 -0.18951017579E+04  0.21211670508E+04  0.50400001928E-02 0.  1.
</event>
<event>
 5   0  0.1799738E-04  0.1846843E+04  0.7818609E-02  0.8681778E-01
        2   -1    0    0  501    0  0.00000000000E+00  0.00000000000E+00  0.22801171191E+04  0.22801171191E+04  0.25500000920E-02 0.  1.
       -2   -1    0    0    0  501  0.00000000000E+00  0.00000000000E+00 -0.37397513105E+03  0.37397513106E+03  0.25500000920E-02 0. -1.
    10030    2    1    2    0    0  0.00000000000E+00  0.00000000000E+00  0.19061419880E+04  0.26540922501E+04  0.18468428178E+04 0.  0.
        1    1    3    3  502    0  0.17495612922E+03  0.63291295635E+03  0.18860985528E+04  0.19971370029E+04  0.50400001928E-02 0.  1.
       -1    1    3    3    0  502 -0.17495612922E+03 -0.63291295635E+03  0.20043435162E+02  0.65695524717E+03  0.50400001928E-02 0. -1.
</event>
<event>
 5   0  0.1790832E-04  0.1896880E+04  0.7818609E-02  0.8656411E-01
        2   -1    0    0  501    0  0.00000000000E+00  0.00000000000E+00  0.13689426798E+04  0.13689426798E+04  0.25500000920E-02 0. -1.
       -2   -1    0    0    0  501  0.00000000000E+00  0.00000000000E+00 -0.65710430108E+03  0.65710430108E+03  0.25500000920E-02 0.  1.
    10030    2    1    2    0    0  0.00000000000E+00  0.00000000000E+00  0.71183837868E+03  0.20260469808E+04  0.18968796723E+04 0.  0.
        5    1    3    3  502    0  0.17318340417E+03 -0.54188133571E+03 -0.45462893263E+03  0.72824269983E+03  0.46999998093E+01 0.  1.
       -5    1    3    3    0  502 -0.17318340417E+03  0.54188133571E+03  0.11664673113E+04  0.12978042810E+04  0.46999998093E+01 0. -1.
</event>
<event>
 5   0  0.1765328E-04  0.1957216E+04  0.7818609E-02  0.8626889E-01
        2   -1    0    0  501    0  0.00000000000E+00  0.00000000000E+00  0.17455281087E+04  0.17455281088E+04  0.25500000920E-02 0. -1.
       -2   -1    0    0    0  501  0.00000000000E+00  0.00000000000E+00 -0.54864421089E+03  0.54864421090E+03  0.25500000920E-02 0.  1.
    10030    2    1    2    0    0  0.00000000000E+00  0.00000000000E+00  0.11968838979E+04  0.22941723196E+04  0.19572162802E+04 0.  0.
        3    1    3    3  502    0  0.22596666779E+03  0.89645529131E+03  0.22228813684E+03  0.95084438803E+03  0.10100000352E+00 0.  1.
       -3    1    3    3    0  502 -0.22596666779E+03 -0.89645529131E+03  0.97459576101E+03  0.13433279316E+04  0.10100000352E+00 0. -1.
</event>
<event>
 5   0  0.8905646E-05  0.1897819E+04  0.7818609E-02  0.8655943E-01
       -1   -1    0    0    0  501  0.00000000000E+00  0.00000000000E+00  0.99801158796E+03  0.99801158797E+03  0.50400001928E-02 0.  1.
        1   -1    0    0  501    0  0.00000000000E+00  0.00000000000E+00 -0.90222329193E+03  0.90222329195E+03  0.50400001928E-02 0. -1.
    10030    2    1    2    0    0  0.00000000000E+00  0.00000000000E+00  0.95788296026E+02  0.19002348799E+04  0.18978190644E+04 0.  0.
        1    1    3    3  502    0  0.48014729367E+03  0.12116833613E+03 -0.76258426178E+03  0.90926230849E+03  0.50400001928E-02 0. -1.
       -1    1    3    3    0  502 -0.48014729367E+03 -0.12116833613E+03  0.85837255781E+03  0.99097257143E+03  0.50400001928E-02 0.  1.
</event>
<event>
 5   0  0.8905646E-05  0.1822122E+04  0.7818609E-02  0.8694623E-01
        1   -1    0    0  501    0  0.00000000000E+00  0.00000000000E+00  0.17661071143E+04  0.17661071143E+04  0.50400001928E-02 0.  1.
       -1   -1    0    0    0  501  0.00000000000E+00  0.00000000000E+00 -0.46997844180E+03  0.46997844182E+03  0.50400001928E-02 0. -1.
    10030    2    1    2    0    0  0.00000000000E+00  0.00000000000E+00  0.12961286725E+04  0.22360855562E+04  0.18221221361E+04 0.  0.
        1    1    3    3  502    0  0.61059393738E+03  0.38035822711E+03  0.13341213603E+04  0.15157101113E+04  0.50400001928E-02 0.  1.
       -1    1    3    3    0  502 -0.61059393738E+03 -0.38035822711E+03 -0.37992687760E+02  0.72037544492E+03  0.50400001928E-02 0. -1.
</event>
<event>
 5   0  0.8905646E-05  0.1909773E+04  0.7818609E-02  0.8650007E-01
       -1   -1    0    0    0  501  0.00000000000E+00  0.00000000000E+00  0.48361259373E+03  0.48361259376E+03  0.50400001928E-02 0. -1.
        1   -1    0    0  501    0  0.00000000000E+00  0.00000000000E+00 -0.18854101765E+04  0.18854101765E+04  0.50400001928E-02 0.  1.
    10030    2    1    2    0    0  0.00000000000E+00  0.00000000000E+00 -0.14017975828E+04  0.23690227703E+04  0.19097728721E+04 0.  0.
        1    1    3    3  502    0 -0.36286446409E+03  0.23264053737E+03 -0.17578637054E+04  0.18099384094E+04  0.50400001928E-02 0.  1.
       -1    1    3    3    0  502  0.36286446409E+03 -0.23264053737E+03  0.35606612261E+03  0.55908436092E+03  0.50400001928E-02 0. -1.
</event>
<event>
 5   0  0.1790832E-04  0.1892319E+04  0.7818609E-02  0.8658689E-01
       -2   -1    0    0    0  501  0.00000000000E+00  0.00000000000E+00  0.10419176269E+04  0.10419176269E+04  0.25500000920E-02 0.  1.
        2   -1    0    0  501    0  0.00000000000E+00  0.00000000000E+00 -0.85920163851E+03  0.85920163852E+03  0.25500000920E-02 0. -1.
    10030    2    1    2    0    0  0.00000000000E+00  0.00000000000E+00  0.18271598834E+03  0.19011192654E+04  0.18923185062E+04 0.  0.
        5    1    3    3  502    0 -0.64494910548E+03 -0.32657028398E+02  0.78607194773E+03  0.10173283773E+04  0.46999998093E+01 0.  1.
       -5    1    3    3    0  502  0.64494910548E+03  0.32657028398E+02 -0.60335595940E+03  0.88379088811E+03  0.46999998093E+01 0. -1.
</event>
<event>
 5   0  0.1799738E-04  0.1908952E+04  0.7818609E-02  0.8650413E-01
       -2   -1    0    0    0  501  0.00000000000E+00  0.00000000000E+00  0.53750678731E+03  0.53750678732E+03  0.25500000920E-02 0.  1.
        2   -1    0    0  501    0  0.00000000000E+00  0.00000000000E+00 -0.16949081446E+04  0.16949081446E+04  0.25500000920E-02 0. -1.
    10030    2    1    2    0    0  0.00000000000E+00  0.00000000000E+00 -0.11574013573E+04  0.22324149319E+04  0.19089522064E+04 0.  0.
        1    1    3    3  502    0 -0.29634022122E+02  0.75022759119E+03  0.11048364823E+03  0.75889805008E+03  0.50400001928E-02 0.  1.
       -1    1    3    3    0  502  0.29634022122E+02 -0.75022759119E+03 -0.12678850055E+04  0.14735168819E+04  0.50400001928E-02 0. -1.
</event>
<event>
 5   0  0.8587082E-05  0.1873701E+04  0.7818609E-02  0.8668059E-01
        1   -1    0    0  501    0  0.00000000000E+00  0.00000000000E+00  0.26296832615E+04  0.26296832615E+04  0.50400001928E-02 0.  1.
       -1   -1    0    0    0  501  0.00000000000E+00  0.00000000000E+00 -0.33376222710E+03  0.33376222714E+03  0.50400001928E-02 0. -1.
    10030    2    1    2    0    0  0.00000000000E+00  0.00000000000E+00  0.22959210344E+04  0.29634454886E+04  0.18737010882E+04 0.  0.
        5    1    3    3  502    0  0.77479533774E+03  0.88680007525E+02  0.32690617230E+03  0.84561320626E+03  0.46999998093E+01 0.  1.
       -5    1    3    3    0  502 -0.77479533774E+03 -0.88680007525E+02  0.19690148621E+04  0.21178322823E+04  0.46999998093E+01 0. -1.
</event>
<event>
 5   0  0.8681396E-05  0.1853539E+04  0.7818609E-02  0.8678335E-01
       -1   -1    0    0    0  501  0.00000000000E+00  0.00000000000E+00  0.62173625216E+03  0.62173625218E+03  0.50400001928E-02 0.  1.
        1   -1    0    0  501    0  0.00000000000E+00  0.00000000000E+00 -0.13814560595E+04  0.13814560595E+04  0.50400001928E-02 0. -1.
    10030    2    1    2    0    0  0.00000000000E+00  0.00000000000E+00 -0.75971980735E+03  0.20031923117E+04  0.18535385758E+04 0.  0.
        3    1    3    3  502    0  0.73650114084E+03 -0.52597838590E+03 -0.16421484002E+03  0.91981178334E+03  0.10100000352E+00 0.  1.
       -3    1    3    3    0  502 -0.73650114084E+03  0.52597838590E+03 -0.59550496732E+03  0.10833805283E+04  0.10100000352E+00 0. -1.
</event>
<event>
 5   0  0.1799738E-04  0.1892260E+04  0.7818609E-02  0.8658719E-01
        2   -1    0    0  501    0  0.00000000000E+00  0.00000000000E+00  0.12735011051E+04  0.12735011051E+04  0.25500000920E-02 0.  1.
       -2   -1    0    0    0  501  0.00000000000E+00  0.00000000000E+00 -0.70291442688E+03  0.70291442689E+03  0.25500000920E-02 0. -1.
    10030    2    1    2    0    0  0.00000000000E+00  0.00000000000E+00  0.57058667825E+03  0.19764155320E+04  0.18922603409E+04 0.  0.
        1    1    3    3  502    0  0.43010028887E+03 -0.59679509247E+03 -0.33615660501E+03  0.80879657764E+03  0.50400001928E-02 0. -1.
       -1    1    3    3    0  502 -0.43010028887E+03  0.59679509247E+03  0.90674328326E+03  0.11676189544E+04  0.50400001928E-02 0.  1.
</event>
<event>
 5   0  0.8905646E-05  0.1939684E+04  0.7818609E-02  0.8635351E-01
        1   -1    0    0  501    0  0.00000000000E+00  0.00000000000E+00  0.13394234899E+04  0.13394234899E+04  0.50400001928E-02 0.  1.
       -1   -1    0    0    0  501  0.00000000000E+00  0.00000000000E+00 -0.70223778791E+03  0.70223778793E+03  0.50400001928E-02 0. -1.
    10030    2    1    2    0    0  0.00000000000E+00  0.00000000000E+00  0.63718570199E+03  0.20416612778E+04  0.19396842925E+04 0.  0.
        1    1    3    3  502    0  0.71904463224E+02  0.96118730328E+03  0.43167724497E+03  0.10561233487E+04  0.50400001928E-02 0.  1.
       -1    1    3    3    0  502 -0.71904463224E+02 -0.96118730328E+03  0.20550845703E+03  0.98553792913E+03  0.50400001928E-02 0. -1.
</event>
<event>
 5   0  0.8602017E-05  0.1789901E+04  0.7818609E-02  0.8711688E-01
        1   -1    0    0  501    0  0.00000000000E+00  0.00000000000E+00  0.10877441848E+04  0.10877441848E+04  0.50400001928E-02 0.  1.
       -1   -1    0    0    0  501  0.00000000000E+00  0.00000000000E+00 -0.73632805540E+03  0.73632805542E+03  0.50400001928E-02 0. -1.
    10030    2    1    2    0    0  0.00000000000E+00  0.00000000000E+00  0.35141612936E+03  0.18240722402E+04  0.17899011820E+04 0.  0.
        2    1    3    3  502    0 -0.10229080211E+03  0.45641125972E+03 -0.60185365956E+03  0.76223518269E+03  0.25500000920E-02 0. -1.
       -2    1    3    3    0  502  0.10229080211E+03 -0.45641125972E+03  0.95326978892E+03  0.10618370575E+04  0.25500000920E-02 0.  1.
</event>
<event>
 5   0  0.8567844E-05  0.1850531E+04  0.7818609E-02  0.8679880E-01
        1   -1    0    0  501    0  0.00000000000E+00  0.00000000000E+00  0.13459036466E+04  0.13459036466E+04  0.50400001928E-02 0. -1.
       -1   -1    0    0    0  501  0.00000000000E+00  0.00000000000E+00 -0.63609051006E+03  0.63609051008E+03  0.50400001928E-02 0.  1.
    10030    2    1    2    0    0  0.00000000000E+00  0.00000000000E+00  0.70981313649E+03  0.19819941566E+04  0.18505313151E+04 0.  0.
        4    1    3    3  502    0 -0.20273640945E+03  0.54664003004E+03 -0.41460278063E+03  0.71541208598E+03  0.12699999809E+01 0.  1.
       -4    1    3    3    0  502  0.20273640945E+03 -0.54664003004E+03  0.11244159171E+04  0.12665820707E+04  0.12699999809E+01 0. -1.
</event>
<event>
 5   0  0.8567844E-05  0.1910580E+04  0.7818609E-02  0.8649608E-01
       -1   -1    0    0    0  501  0.00000000000E+00  0.00000000000E+00  0.15516879910E+04  0.15516879910E+04  0.50400001928E-02 0. -1.
        1   -1    0    0  501    0  0.00000000000E+00  0.00000000000E+00 -0.58811995220E+03  0.58811995222E+03  0.50400001928E-02 0.  1.
    10030    2    1    2    0    0  0.00000000000E+00  0.00000000000E+00  0.96356803879E+03  0.21398079432E+04  0.19105796682E+04 0.  0.
        4    1    3    3  502    0 -0.83347678846E+03  0.43117961100E+03  0.28150620168E+03  0.97971769829E+03  0.12699999809E+01 0.  1.
       -4    1    3    3    0  502  0.83347678846E+03 -0.43117961100E+03  0.68206183711E+03  0.11600902449E+04  0.12699999809E+01 0. -1.
</event>
<event>
 5   0  0.8905646E-05  0.1896410E+04  0.7818609E-02  0.8656646E-01
       -1   -1    0    0    0  501  0.00000000000E+00  0.00000000000E+00  0.45789259508E+03  0.45789259511E+03  0.50400001928E-02 0.  1.
        1   -1    0    0  501    0  0.00000000000E+00  0.00000000000E+00 -0.19635443519E+04  0.19635443519E+04  0.50400001928E-02 0. -1.
    10030    2    1    2    0    0  0.00000000000E+00  0.00000000000E+00 -0.15056517568E+04  0.24214369470E+04  0.18964096803E+04 0.  0.
        1    1    3    3  502    0  0.73252293814E+03  0.14809979627E+03 -0.76761158719E+01  0.74738365471E+03  0.50400001928E-02 0.  1.
       -1    1    3    3    0  502 -0.73252293814E+03 -0.14809979627E+03 -0.14979756409E+04  0.16740532923E+04  0.50400001928E-02 0. -1.
</event>
<event>
 5   0  0.8681396E-05  0.1887473E+04  0.7818609E-02  0.8661117E-01
        1   -1    0    0  501    0  0.00000000000E+00  0.00000000000E+00  0.85335106234E+03  0.85335106235E+03  0.50400001928E-02 0. -1.
       -1   -1    0    0    0  501  0.00000000000E+00  0.00000000000E+00 -0.10436949845E+04  0.10436949845E+04  0.50400001928E-02 0.  1.
    10030    2    1    2    0    0  0.00000000000E+00  0.00000000000E+00 -0.19034392220E+03  0.18970460469E+04  0.18874726211E+04 0.  0.
        3    1    3    3  502    0 -0.53712511625E+03 -0.54123578227E+03 -0.65404866544E+03  0.10045990392E+04  0.10100000352E+00 0.  1.
       -3    1    3    3    0  502  0.53712511625E+03  0.54123578227E+03  0.46370474324E+03  0.89244700774E+03  0.10100000352E+00 0. -1.
</event>
<event>
 5   0  0.8567844E-05  0.1889734E+04  0.7818609E-02  0.8659983E-01
       -1   -1    0    0    0  501  0.00000000000E+00  0.00000000000E+00  0.47686860736E+03  0.47686860738E+03  0.50400001928E-02 0.  1.
        1   -1    0    0  501    0  0.00000000000E+00  0.00000000000E+00 -0.18721586971E+04  0.18721586971E+04  0.50400001928E-02 0. -1.
    10030    2    1    2    0    0  0.00000000000E+00  0.00000000000E+00 -0.13952900897E+04  0.23490273045E+04  0.18897340666E+04 0.  0.
        4    1    3    3  502    0  0.12675649395E+02 -0.66947083351E+03  0.13103004099E+03  0.68229198556E+03  0.12699999809E+01 0.  1.
       -4    1    3    3    0  502 -0.12675649395E+02  0.66947083351E+03 -0.15263201307E+04  0.16667353189E+04  0.12699999809E+01 0. -1.
</event>
<event>
 5   0  0.1765328E-04  0.1875041E+04  0.7818609E-02  0.8667381E-01
        2   -1    0    0  501    0  0.00000000000E+00  0.00000000000E+00  0.11662573207E+04  0.11662573207E+04  0.25500000920E-02 0.  1.
       -2   -1    0    0    0  501  0.00000000000E+00  0.00000000000E+00 -0.75364528418E+03  0.75364528418E+03  0.25500000920E-02 0. -1.
    10030    2    1    2    0    0  0.00000000000E+00  0.00000000000E+00  0.41261203656E+03  0.19199026049E+04  0.18750406181E+04 0.  0.
        3    1    3    3  502    0 -0.34676206455E+03  0.53699426693E+02 -0.68387181871E+03  0.76864050926E+03  0.10100000352E+00 0. -1.
       -3    1    3    3    0  502  0.34676206455E+03 -0.53699426693E+02  0.10964838553E+04  0.11512620957E+04  0.10100000352E+00 0.  1.
</event>
<event>
 5   0  0.8602017E-05  0.1663726E+04  0.7818609E-02  0.8782328E-01
       -1   -1    0    0    0  501  0.00000000000E+00  0.00000000000E+00  0.10376351009E+04  0.10376351009E+04  0.50400001928E-02 0.  1.
        1   -1    0    0  501    0  0.00000000000E+00  0.00000000000E+00 -0.66689711807E+03  0.66689711809E+03  0.50400001928E-02 0. -1.
    10030    2    1    2    0    0  0.00000000000E+00  0.00000000000E+00  0.37073798283E+03  0.17045322190E+04  0.16637257688E+04 0.  0.
        2    1    3    3  502    0  0.65461280735E+03  0.57261831654E+02 -0.33723929820E+03  0.73859812426E+03  0.25500000920E-02 0. -1.
       -2    1    3    3    0  502 -0.65461280735E+03 -0.57261831654E+02  0.70797728103E+03  0.96593409473E+03  0.25500000920E-02 0.  1.
</event>
<event>
 5   0  0.8681396E-05  0.1883564E+04  0.7818609E-02  0.8663081E-01
        1   -1    0    0  501    0  0.00000000000E+00  0.00000000000E+00  0.18701147825E+04  0.18701147825E+04  0.50400001928E-02 0. -1.
       -1   -1    0    0    0  501  0.00000000000E+00  0.00000000000E+00 -0.47427727722E+03  0.47427727725E+03  0.50400001928E-02 0.  1.
    10030    2    1    2    0    0  0.00000000000E+00  0.00000000000E+00  0.13958375053E+04  0.23443920598E+04  0.18835635877E+04 0.  0.
        3    1    3    3  502    0  0.27648351602E+03 -0.80457689772E+03  0.12006831857E+04  0.14715390724E+04  0.10100000352E+00 0. -1.
       -3    1    3    3    0  502 -0.27648351602E+03  0.80457689772E+03  0.19515431966E+03  0.87285298743E+03  0.10100000352E+00 0.  1.
</event>
<event>
 5   0  0.8602017E-05  0.1895211E+04  0.7818609E-02  0.8657244E-01
        1   -1    0    0  501    0  0.00000000000E+00  0.00000000000E+00  0.11666864324E+04  0.11666864324E+04  0.50400001928E-02 0.  1.
       -1   -1    0    0    0  501  0.00000000000E+00  0.00000000000E+00 -0.76966342851E+03  0.76966342852E+03  0.50400001928E-02 0. -1.
    10030    2    1    2    0    0  0.00000000000E+00  0.00000000000E+00  0.39702300393E+03  0.19363498610E+04  0.18952106792E+04 0.  0.
        2    1    3    3  502    0 -0.89753364700E+03 -0.67864391765E+02  0.50122596216E+03  0.10302425386E+04  0.25500000920E-02 0.  1.
       -2    1    3    3    0  502  0.89753364700E+03  0.67864391765E+02 -0.10420295823E+03  0.90610732238E+03  0.25500000920E-02 0. -1.
</event>
<event>
 5   0  0.1799738E-04  0.1872266E+04  0.7818609E-02  0.8668786E-01
       -2   -1    0    0    0  501  0.00000000000E+00  0.00000000000E+00  0.95766314810E+03  0.95766314810E+03  0.25500000920E-02 0.  1.
        2   -1    0    0  501    0  0.00000000000E+00  0.00000000000E+00 -0.91508731153E+03  0.91508731154E+03  0.25500000920E-02 0. -1.
    10030    2    1    2    0    0  0.00000000000E+00  0.00000000000E+00  0.42575836567E+02  0.18727504596E+04  0.18722664293E+04 0.  0.
        1    1    3    3  502    0  0.70391527749E+03  0.71336486122E+02 -0.59186303880E+03  0.92243561773E+03  0.50400001928E-02 0. -1.
       -1    1    3    3    0  502 -0.70391527749E+03 -0.71336486122E+02  0.63443887537E+03  0.95031484190E+03  0.50400001928E-02 0.  1.
</event>
<event>
 5   0  0.8905646E-05  0.1914402E+04  0.7818609E-02  0.8647721E-01
        1   -1    0    0  501    0  0.00000000000E+00  0.00000000000E+00  0.85024514880E+03  0.85024514882E+03  0.50400001928E-02 0.  1.
       -1   -1    0    0    0  501  0.00000000000E+00  0.00000000000E+00 -0.10776113240E+04  0.10776113240E+04  0.50400001928E-02 0. -1.
    10030    2    1    2    0    0  0.00000000000E+00  0.00000000000E+00 -0.22736617519E+03  0.19278564728E+04  0.19144020482E+04 0.  0.
        1    1    3    3  502    0  0.37000311065E+03 -0.33568505847E+03  0.70853973100E+03  0.86695750231E+03  0.50400001928E-02 0.  1.
       -1    1    3    3    0  502 -0.37000311065E+03  0.33568505847E+03 -0.93590590620E+03  0.10608989705E+04  0.50400001928E-02 0. -1.
</event>
<event>
 5   0  0.1658711E-04  0.1897526E+04  0.7818609E-02  0.8656089E-01
       -2   -1    0    0    0  501  0.00000000000E+00  0.00000000000E+00  0.59202787164E+03  0.59202787165E+03  0.25500000920E-02 0.  1.
        2   -1    0    0  501    0  0.00000000000E+00  0.00000000000E+00 -0.15204535088E+04  0.15204535088E+04  0.25500000920E-02 0. -1.
    10030    2    1    2    0    0  0.00000000000E+00  0.00000000000E+00 -0.92842563713E+03  0.21124813804E+04  0.18975256043E+04 0.  0.
        2    1    3    3  502    0  0.16128898518E+03 -0.24998625598E+03  0.53875714338E+03  0.61544010632E+03  0.25500000920E-02 0.  1.
       -2    1    3    3    0  502 -0.16128898518E+03  0.24998625598E+03 -0.14671827805E+04  0.14970412741E+04  0.25500000920E-02 0. -1.
</event>
<event>
 5   0  0.8587082E-05  0.1921266E+04  0.7818609E-02  0.8644343E-01
        1   -1    0    0  501    0  0.00000000000E+00  0.00000000000E+00  0.81228060973E+03  0.81228060974E+03  0.50400001928E-02 0.  1.
       -1   -1    0    0    0  501  0.00000000000E+00  0.00000000000E+00 -0.11360797081E+04  0.11360797081E+04  0.50400001928E-02 0. -1.
    10030    2    1    2    0    0  0.00000000000E+00  0.00000000000E+00 -0.32379909836E+03  0.19483603178E+04  0.19212657474E+04 0.  0.
        5    1    3    3  502    0  0.17507790583E+02 -0.92826057041E+03 -0.41199296254E+03  0.10157433241E+04  0.46999998093E+01 0. -1.
       -5    1    3    3    0  502 -0.17507790583E+02  0.92826057041E+03  0.88193864177E+02  0.93261699373E+03  0.46999998093E+01 0.  1.
</event>
<event>
 5   0  0.8567844E-05  0.1955939E+04  0.7818609E-02  0.8627502E-01
        1   -1    0    0  501    0  0.00000000000E+00  0.00000000000E+00  0.17832143777E+04  0.17832143777E+04  0.50400001928E-02 0.  1.
       -1   -1    0    0    0  501  0.00000000000E+00  0.00000000000E+00 -0.53634856137E+03  0.53634856139E+03  0.50400001928E-02 0. -1.
    10030    2    1    2    0    0  0.00000000000E+00  0.00000000000E+00  0.12468658164E+04  0.23195629391E+04  0.19559391260E+04 0.  0.
        4    1    3    3  502    0  0.42309969310E+03 -0.67402747354E+03  0.12975214298E+04  0.15221333250E+04  0.12699999809E+01 0.  1.
       -4    1    3    3    0  502 -0.42309969310E+03  0.67402747354E+03 -0.50655613464E+02  0.79742961411E+03  0.12699999809E+01 0. -1.
</event>
<event>
 5   0  0.8681396E-05  0.1905455E+04  0.7818609E-02  0.8652146E-01
       -1   -1    0    0    0  501  0.00000000000E+00  0.00000000000E+00  0.49409523563E+03  0.49409523566E+03  0.50400001928E-02 0.  1.
        1   -1    0    0  501    0  0.00000000000E+00  0.00000000000E+00 -0.18370745414E+04  0.18370745414E+04  0.50400001928E-02 0. -1.
    10030    2    1    2    0    0  0.00000000000E+00  0.00000000000E+00 -0.13429793057E+04  0.23311697770E+04  0.19054550936E+04 0.  0.
        3    1    3    3  502    0 -0.78746593344E+03  0.44906945112E+03 -0.31287178548E+03  0.95898630470E+03  0.10100000352E+00 0.  1.
       -3    1    3    3    0  502  0.78746593344E+03 -0.44906945112E+03 -0.10301075203E+04  0.13721834723E+04  0.10100000352E+00 0. -1.
</event>
<event>
 5   0  0.1765328E-04  0.1899027E+04  0.7818609E-02  0.8655341E-01
       -2   -1    0    0    0  501  0.00000000000E+00  0.00000000000E+00  0.31003626580E+03  0.31003626581E+03  0.25500000920E-02 0. -1.
        2   -1    0    0  501    0  0.00000000000E+00  0.00000000000E+00 -0.29079680081E+04  0.29079680081E+04  0.25500000920E-02 0.  1.
    10030    2    1    2    0    0  0.00000000000E+00  0.00000000000E+00 -0.25979317423E+04  0.32180042739E+04  0.18990266373E+04 0.  0.
        3    1    3    3  502    0  0.36556203677E+03  0.71369390596E+03 -0.43727039439E+03  0.91334549988E+03  0.10100000352E+00 0. -1.
       -3    1    3    3    0  502 -0.36556203677E+03 -0.71369390596E+03 -0.21606613479E+04  0.23046587740E+04  0.10100000352E+00 0.  1.
</event>
<event>
 5   0  0.1810569E-04  0.1609123E+04  0.7818609E-02  0.8814963E-01
        2   -1    0    0  501    0  0.00000000000E+00  0.00000000000E+00  0.21081463751E+04  0.21081463751E+04  0.25500000920E-02 0. -1.
       -2   -1    0    0    0  501  0.00000000000E+00  0.00000000000E+00 -0.30705618751E+03  0.30705618752E+03  0.25500000920E-02 0.  1.
    10030    2    1    2    0    0  0.00000000000E+00  0.00000000000E+00  0.18010901876E+04  0.24152025626E+04  0.16091232254E+04 0.  0.
        4    1    3    3  502    0  0.56373244324E+03  0.26591304875E+03  0.13695912845E+03  0.63817194612E+03  0.12699999809E+01 0.  1.
       -4    1    3    3    0  502 -0.56373244324E+03 -0.26591304875E+03  0.16641310591E+04  0.17770306165E+04  0.12699999809E+01 0. -1.
</event>
<event>
 5   0  0.8905646E-05  0.1883945E+04  0.7818609E-02  0.8662889E-01
       -1   -1    0    0    0  501  0.00000000000E+00  0.00000000000E+00  0.54461044623E+03  0.54461044625E+03  0.50400001928E-02 0. -1.
        1   -1    0    0  501    0  0.00000000000E+00  0.00000000000E+00 -0.16292609953E+04  0.16292609953E+04  0.50400001928E-02 0.  1.
    10030    2    1    2    0    0  0.00000000000E+00  0.00000000000E+00 -0.10846505491E+04  0.21738714416E+04  0.18839453896E+04 0.  0.
        1    1    3    3  502    0  0.44152138943E+03 -0.38380118200E+03 -0.13942297891E+04  0.15119924568E+04  0.50400001928E-02 0.  1.
       -1    1    3    3    0  502 -0.44152138943E+03  0.38380118200E+03  0.30957924000E+03  0.66187898478E+03  0.50400001928E-02 0. -1.
</event>
<event>
 5   0  0.8587082E-05  0.1885056E+04  0.7818609E-02  0.8662331E-01
        1   -1    0    0  501    0  0.00000000000E+00  0.00000000000E+00  0.10887679269E+04  0.10887679269E+04  0.50400001928E-02 0. -1.
       -1   -1    0    0    0  501  0.00000000000E+00  0.00000000000E+00 -0.81593087880E+03  0.81593087882E+03  0.50400001928E-02 0.  1.
    10030    2    1    2    0    0  0.00000000000E+00  0.00000000000E+00  0.27283704809E+03  0.19046988057E+04  0.18850563614E+04 0.  0.
        5    1    3    3  502    0  0.86869200911E+03  0.28764427266E+03 -0.91704363325E+02  0.91967212339E+03  0.46999998093E+01 0.  1.
       -5    1    3    3    0  502 -0.86869200911E+03 -0.28764427266E+03  0.36454141142E+03  0.98502668234E+03  0.46999998093E+01 0. -1.
</event>
<event>
 5   0  0.1765328E-04  0.1900138E+04  0.7818609E-02  0.8654788E-01
       -2   -1    0    0    0  501  0.00000000000E+00  0.00000000000E+00  0.10278016770E+04  0.10278016770E+04  0.25500000920E-02 0. -1.
        2   -1    0    0  501    0  0.00000000000E+00  0.00000000000E+00 -0.87821499226E+03  0.87821499226E+03  0.25500000920E-02 0.  1.
    10030    2    1    2    0    0  0.00000000000E+00  0.00000000000E+00  0.14958668477E+03  0.19060166693E+04  0.19001377233E+04 0.  0.
        3    1    3    3  502    0  0.37241152832E+03  0.66114202383E+03  0.64825410410E+03  0.99801428636E+03  0.10100000352E+00 0. -1.
       -3    1    3    3    0  502 -0.37241152832E+03 -0.66114202383E+03 -0.49866741933E+03  0.90800238293E+03  0.10100000352E+00 0.  1.
</event>
<event>
 5   0  0.8567844E-05  0.1807902E+04  0.7818609E-02  0.8702109E-01
        1   -1    0    0  501    0  0.00000000000E+00  0.00000000000E+00  0.18544791075E+04  0.18544791075E+04  0.50400001928E-02 0. -1.
       -1   -1    0    0    0  501  0.00000000000E+00  0.00000000000E+00 -0.44062361599E+03  0.44062361601E+03  0.50400001928E-02 0.  1.
    10030    2    1    2    0    0  0.00000000000E+00  0.00000000000E+00  0.14138554916E+04  0.22951027236E+04  0.18079018670E+04 0.  0.
        4    1    3    3  502    0  0.40683450590E+03  0.75597805038E+03  0.34761989298E+03  0.92620641908E+03  0.12699999809E+01 0. -1.
       -4    1    3    3    0  502 -0.40683450590E+03 -0.75597805038E+03  0.10662355986E+04  0.13688963045E+04  0.12699999809E+01 0.  1.
</event>
<event>
 5   0  0.1765328E-04  0.2013230E+04  0.7818609E-02  0.8600460E-01
        2   -1    0    0  501    0  0.00000000000E+00  0.00000000000E+00  0.24539013667E+04  0.24539013667E+04  0.25500000920E-02 0.  1.
       -2   -1    0    0    0  501  0.00000000000E+00  0.00000000000E+00 -0.41292354322E+03  0.41292354323E+03  0.25500000920E-02 0. -1.
    10030    2    1    2    0    0  0.00000000000E+00  0.00000000000E+00  0.20409778235E+04  0.28668249100E+04  0.20132298896E+04 0.  0.
        3    1    3    3  502    0  0.57832765726E+03 -0.79124871756E+03  0.13474998787E+04  0.16662212775E+04  0.10100000352E+00 0.  1.
       -3    1    3    3    0  502 -0.57832765726E+03  0.79124871756E+03  0.69347794479E+03  0.12006036325E+04  0.10100000352E+00 0. -1.
</event>
<event>
 5   0  0.8587082E-05  0.1925344E+04  0.7818609E-02  0.8642343E-01
       -1   -1    0    0    0  501  0.00000000000E+00  0.00000000000E+00  0.51704923940E+03  0.51704923943E+03  0.50400001928E-02 0.  1.
        1   -1    0    0  501    0  0.00000000000E+00  0.00000000000E+00 -0.17923579426E+04  0.17923579426E+04  0.50400001928E-02 0. -1.
    10030    2    1    2    0    0  0.00000000000E+00  0.00000000000E+00 -0.12753087032E+04  0.23094071821E+04  0.19253439288E+04 0.  0.
        5    1    3    3  502    0 -0.29385209074E+03 -0.90070011689E+03 -0.43301955003E+03  0.10416994636E+04  0.46999998093E+01 0.  1.
       -5    1    3    3    0  502  0.29385209074E+03  0.90070011689E+03 -0.84228915320E+03  0.12677077184E+04  0.46999998093E+01 0. -1.
</event>
<event>
 5   0  0.8602017E-05  0.1888712E+04  0.7818609E-02  0.8660496E-01
        1   -1    0    0  501    0  0.00000000000E+00  0.00000000000E+00  0.14128366126E+04  0.14128366126E+04  0.50400001928E-02 0.  1.
       -1   -1    0    0    0  501  0.00000000000E+00  0.00000000000E+00 -0.63121799528E+03  0.63121799530E+03  0.50400001928E-02 0. -1.
    10030    2    1    2    0    0  0.00000000000E+00  0.00000000000E+00  0.78161861735E+03  0.20440546079E+04  0.18887116183E+04 0.  0.
        2    1    3    3  502    0  0.24692368661E+03 -0.22374581312E+03 -0.56548071330E+03  0.65635503579E+03  0.25500000920E-02 0. -1.
       -2    1    3    3    0  502 -0.24692368661E+03  0.22374581312E+03  0.13470993306E+04  0.13876995721E+04  0.25500000920E-02 0.  1.
</event>
<event>
 5   0  0.1790832E-04  0.1909616E+04  0.7818609E-02  0.8650084E-01
       -2   -1    0    0    0  501  0.00000000000E+00  0.00000000000E+00  0.91311705735E+03  0.91311705735E+03  0.25500000920E-02 0.  1.
        2   -1    0    0  501    0  0.00000000000E+00  0.00000000000E+00 -0.99840292983E+03  0.99840292984E+03  0.25500000920E-02 0. -1.
    10030    2    1    2    0    0  0.00000000000E+00  0.00000000000E+00 -0.85285872484E+02  0.19115199872E+04  0.19096164488E+04 0.  0.
        5    1    3    3  502    0  0.21373438654E+03  0.59255078701E+03  0.67559431014E+03  0.92371455823E+03  0.46999998093E+01 0.  1.
       -5    1    3    3    0  502 -0.21373438654E+03 -0.59255078701E+03 -0.76088018263E+03  0.98780542897E+03  0.46999998093E+01 0. -1.
</event>
<event>
 5   0  0.8905646E-05  0.1900242E+04  0.7818609E-02  0.8654736E-01
       -1   -1    0    0    0  501  0.00000000000E+00  0.00000000000E+00  0.66305962278E+03  0.66305962280E+03  0.50400001928E-02 0. -1.
        1   -1    0    0  501    0  0.00000000000E+00  0.00000000000E+00 -0.13614609325E+04  0.13614609325E+04  0.50400001928E-02 0.  1.
    10030    2    1    2    0    0  0.00000000000E+00  0.00000000000E+00 -0.69840130972E+03  0.20245205553E+04  0.19002418502E+04 0.  0.
        1    1    3    3  502    0 -0.59713701512E+03  0.24325462011E+03 -0.10926832619E+04  0.12687403737E+04  0.50400001928E-02 0.  1.
       -1    1    3    3    0  502  0.59713701512E+03 -0.24325462011E+03  0.39428195219E+03  0.75578018158E+03  0.50400001928E-02 0. -1.
</event>
<event>
 5   0  0.8905646E-05  0.1856380E+04  0.7818609E-02  0.8676879E-01
       -1   -1    0    0    0  501  0.00000000000E+00  0.00000000000E+00  0.77726647775E+03  0.77726647777E+03  0.50400001928E-02 0. -1.
        1   -1    0    0  501    0  0.00000000000E+00  0.00000000000E+00 -0.11084180911E+04  0.11084180911E+04  0.50400001928E-02 0.  1.
    10030    2    1    2    0    0  0.00000000000E+00  0.00000000000E+00 -0.33115161336E+03  0.18856845689E+04  0.18563795146E+04 0.  0.
        1    1    3    3  502    0  0.97511376762E+02 -0.12153162488E+03  0.76388672317E+03  0.77961614292E+03  0.50400001928E-02 0. -1.
       -1    1    3    3    0  502 -0.97511376762E+02  0.12153162488E+03 -0.10950383365E+04  0.11060684260E+04  0.50400001928E-02 0.  1.
</event>
<event>
 5   0  0.1765328E-04  0.1888340E+04  0.7818609E-02  0.8660682E-01
       -2   -1    0    0    0  501  0.00000000000E+00  0.00000000000E+00  0.56617107509E+03  0.56617107510E+03  0.25500000920E-02 0.  1.
        2   -1    0    0  501    0  0.00000000000E+00  0.00000000000E+00 -0.15745366712E+04  0.15745366712E+04  0.25500000920E-02 0. -1.
    10030    2    1    2    0    0  0.00000000000E+00  0.00000000000E+00 -0.10083655962E+04  0.21407077463E+04  0.18883401388E+04 0.  0.
        3    1    3    3  502    0 -0.61546296747E+03 -0.38112989364E+03  0.18296186811E+03  0.74667912488E+03  0.10100000352E+00 0.  1.
       -3    1    3    3    0  502  0.61546296747E+03  0.38112989364E+03 -0.11913274643E+04  0.13940286215E+04  0.10100000352E+00 0. -1.
</event>
<event>
 5   0  0.8567844E-05  0.1908394E+04  0.7818609E-02  0.8650689E-01
       -1   -1    0    0    0  501  0.00000000000E+00  0.00000000000E+00  0.55929918562E+03  0.55929918565E+03  0.50400001928E-02 0. -1.
        1   -1    0    0  501    0  0.00000000000E+00  0.00000000000E+00 -0.16279154670E+04  0.16279154670E+04  0.50400001928E-02 0.  1.
    10030    2    1    2    0    0  0.00000000000E+00  0.00000000000E+00 -0.10686162814E+04  0.21872146527E+04  0.19083938744E+04 0.  0.
        4    1    3    3  502    0 -0.30302873912E+02  0.75315481506E+03  0.13626431348E+03  0.76598303875E+03  0.12699999809E+01 0. -1.
       -4    1    3    3    0  502  0.30302873912E+02 -0.75315481506E+03 -0.12048805949E+04  0.14212316139E+04  0.12699999809E+01 0.  1.
</event>
<event>
 5   0  0.8905646E-05  0.1890951E+04  0.7818609E-02  0.8659374E-01
        1   -1    0    0  501    0  0.00000000000E+00  0.00000000000E+00  0.14918515640E+04  0.14918515640E+04  0.50400001928E-02 0.  1.
       -1   -1    0    0    0  501  0.00000000000E+00  0.00000000000E+00 -0.59920419728E+03  0.59920419730E+03  0.50400001928E-02 0. -1.
    10030    2    1    2    0    0  0.00000000000E+00  0.00000000000E+00  0.89264736674E+03  0.20910557613E+04  0.18909507861E+04 0.  0.
        1    1    3    3  502    0 -0.12512032736E+03  0.25836068739E+03  0.14424962274E+04  0.14707823453E+04  0.50400001928E-02 0.  1.
       -1    1    3    3    0  502  0.12512032736E+03 -0.25836068739E+03 -0.54984886064E+03  0.62027341606E+03  0.50400001928E-02 0. -1.
</event>
<event>
 5   0  0.1790832E-04  0.1930448E+04  0.7818609E-02  0.8639847E-01
       -2   -1    0    0    0  501  0.00000000000E+00  0.00000000000E+00  0.14068636054E+04  0.14068636054E+04  0.25500000920E-02 0.  1.
        2   -1    0    0  501    0  0.00000000000E+00  0.00000000000E+00 -0.66222280959E+03  0.66222280959E+03  0.25500000920E-02 0. -1.
    10030    2    1    2    0    0  0.00000000000E+00  0.00000000000E+00  0.74464079582E+03  0.20690864150E+04  0.19304477921E+04 0.  0.
        5    1    3    3  502    0  0.24918970529E+02  0.84120529200E+03 -0.13426221019E+03  0.85222985717E+03  0.46999998093E+01 0. -1.
       -5    1    3    3    0  502 -0.24918970529E+02 -0.84120529200E+03  0.87890300601E+03  0.12168565578E+04  0.46999998093E+01 0.  1.
</event>
<event>
 5   0  0.8587082E-05  0.1899176E+04  0.7818609E-02  0.8655267E-01
       -1   -1    0    0    0  501  0.00000000000E+00  0.00000000000E+00  0.87201357275E+03  0.87201357276E+03  0.50400001928E-02 0.  1.
        1   -1    0    0  501    0  0.00000000000E+00  0.00000000000E+00 -0.10340636762E+04  0.10340636762E+04  0.50400001928E-02 0. -1.
    10030    2    1    2    0    0  0.00000000000E+00  0.00000000000E+00 -0.16205010344E+03  0.19060772490E+04  0.18991762011E+04 0.  0.
        5    1    3    3  502    0 -0.92273480174E+02  0.83681857947E+03  0.35979269524E+03  0.91556135984E+03  0.46999998093E+01 0. -1.
       -5    1    3    3    0  502  0.92273480174E+02 -0.83681857947E+03 -0.52184279868E+03  0.99051588913E+03  0.46999998093E+01 0.  1.
</event>
<event>
 5   0  0.1765328E-04  0.1889019E+04  0.7818609E-02  0.8660341E-01
       -2   -1    0    0    0  501  0.00000000000E+00  0.00000000000E+00  0.88324797340E+03  0.88324797340E+03  0.25500000920E-02 0.  1.
        2   -1    0    0  501    0  0.00000000000E+00  0.00000000000E+00 -0.10100205675E+04  0.10100205675E+04  0.25500000920E-02 0. -1.
    10030    2    1    2    0    0  0.00000000000E+00  0.00000000000E+00 -0.12677259414E+03  0.18932685409E+04  0.18890194487E+04 0.  0.
        3    1    3    3  502    0  0.55628283081E+03 -0.42914702270E+03  0.56928702095E+03  0.90427068811E+03  0.10100000352E+00 0.  1.
       -3    1    3    3    0  502 -0.55628283081E+03  0.42914702270E+03 -0.69605961509E+03  0.98899785284E+03  0.10100000352E+00 0. -1.
</event>
<event>
 5   0  0.8602017E-05  0.1894684E+04  0.7818609E-02  0.8657507E-01
       -1   -1    0    0    0  501  0.00000000000E+00  0.00000000000E+00  0.69544548147E+03  0.69544548149E+03  0.50400001928E-02 0.  1.
        1   -1    0    0  501    0  0.00000000000E+00  0.00000000000E+00 -0.12904782867E+04  0.12904782867E+04  0.50400001928E-02 0. -1.
    10030    2    1    2    0    0  0.00000000000E+00  0.00000000000E+00 -0.59503280519E+03  0.19859237682E+04  0.18946844523E+04 0.  0.
        2    1    3    3  502    0 -0.98897153467E+02 -0.26637109317E+03  0.64973029204E+03  0.70914290424E+03  0.25500000920E-02 0.  1.
       -2    1    3    3    0  502  0.98897153467E+02  0.26637109317E+03 -0.12447630972E+04  0.12767808639E+04  0.25500000920E-02 0. -1.
</event>
<event>
 5   0  0.8567844E-05  0.1886273E+04  0.7818609E-02  0.8661720E-01
        1   -1    0    0  501    0  0.00000000000E+00  0.00000000000E+00  0.15427470904E+04  0.15427470904E+04  0.50400001928E-02 0. -1.
       -1   -1    0    0    0  501  0.00000000000E+00  0.00000000000E+00 -0.57657307061E+03  0.57657307064E+03  0.50400001928E-02 0.  1.
    10030    2    1    2    0    0  0.00000000000E+00  0.00000000000E+00  0.96617401974E+03  0.21193201610E+04  0.18862729676E+04 0.  0.
        4    1    3    3  502    0 -0.29667252864E+03 -0.38384600407E+03  0.13918100125E+04  0.14739365888E+04  0.12699999809E+01 0. -1.
       -4    1    3    3    0  502  0.29667252864E+03  0.38384600407E+03 -0.42563599272E+03  0.64538357221E+03  0.12699999809E+01 0.  1.
</event>
<event>
 5   0  0.8905646E-05  0.1892006E+04  0.7818609E-02  0.8658846E-01
        1   -1    0    0  501    0  0.00000000000E+00  0.00000000000E+00  0.14013561270E+04  0.14013561270E+04  0.50400001928E-02 0. -1.
       -1   -1    0    0    0  501  0.00000000000E+00  0.00000000000E+00 -0.63861105561E+03  0.63861105563E+03  0.50400001928E-02 0.  1.
    10030    2    1    2    0    0  0.00000000000E+00  0.00000000000E+00  0.76274507143E+03  0.20399671827E+04  0.18920058304E+04 0.  0.
        1    1    3    3  502    0  0.11995726335E+03  0.90474921303E+03  0.11298729427E+03  0.91963417303E+03  0.50400001928E-02 0. -1.
       -1    1    3    3    0  502 -0.11995726335E+03 -0.90474921303E+03  0.64975777716E+03  0.11203330097E+04  0.50400001928E-02 0.  1.
</event>
<event>
 5   0  0.8567844E-05  0.1879859E+04  0.7818609E-02  0.8664947E-01
       -1   -1    0    0    0  501  0.00000000000E+00  0.00000000000E+00  0.38985709534E+03  0.38985709537E+03  0.50400001928E-02 0. -1.
        1   -1    0    0  501    0  0.00000000000E+00  0.00000000000E+00 -0.22661317491E+04  0.22661317491E+04  0.50400001928E-02 0.  1.
    10030    2    1    2    0    0  0.00000000000E+00  0.00000000000E+00 -0.18762746538E+04  0.26559888445E+04  0.18798590813E+04 0.  0.
        4    1    3    3  502    0 -0.85368729465E+03  0.10824651466E+03 -0.14723550378E+04  0.17053827357E+04  0.12699999809E+01 0.  1.
       -4    1    3    3    0  502  0.85368729465E+03 -0.10824651466E+03 -0.40391961596E+03  0.95060610878E+03  0.12699999809E+01 0. -1.
</event>
<event>
 5   0  0.1658711E-04  0.1856953E+04  0.7818609E-02  0.8676585E-01
       -2   -1    0    0    0  501  0.00000000000E+00  0.00000000000E+00  0.48359845531E+03  0.48359845532E+03  0.25500000920E-02 0. -1.
        2   -1    0    0  501    0  0.00000000000E+00  0.00000000000E+00 -0.17826124446E+04  0.17826124446E+04  0.25500000920E-02 0.  1.
    10030    2    1    2    0    0  0.00000000000E+00  0.00000000000E+00 -0.12990139893E+04  0.22662108999E+04  0.18569530146E+04 0.  0.
        2    1    3    3  502    0 -0.46153280092E+03  0.64321520486E+03 -0.12415296572E+04  0.14724585617E+04  0.25500000920E-02 0.  1.
       -2    1    3    3    0  502  0.46153280092E+03 -0.64321520486E+03 -0.57484332124E+02  0.79375233829E+03  0.25500000920E-02 0. -1.
</event>
<event>
 5   0  0.1799738E-04  0.1905831E+04  0.7818609E-02  0.8651959E-01
        2   -1    0    0  501    0  0.00000000000E+00  0.00000000000E+00  0.29821941807E+03  0.29821941808E+03  0.25500000920E-02 0.  1.
       -2   -1    0    0    0  501  0.00000000000E+00  0.00000000000E+00 -0.30448990595E+04  0.30448990595E+04  0.25500000920E-02 0. -1.
    10030    2    1    2    0    0  0.00000000000E+00  0.00000000000E+00 -0.27466796414E+04  0.33431184776E+04  0.19058310792E+04 0.  0.
        1    1    3    3  502    0  0.92259497043E+03 -0.11452153451E+03 -0.17402528744E+04  0.19730120953E+04  0.50400001928E-02 0.  1.
       -1    1    3    3    0  502 -0.92259497043E+03  0.11452153451E+03 -0.10064267670E+04  0.13701063823E+04  0.50400001928E-02 0. -1.
</event>
<event>
 5   0  0.1765328E-04  0.1818363E+04  0.7818609E-02  0.8696595E-01
       -2   -1    0    0    0  501  0.00000000000E+00  0.00000000000E+00  0.12420626089E+04  0.12420626089E+04  0.25500000920E-02 0.  1.
        2   -1    0    0  501    0  0.00000000000E+00  0.00000000000E+00 -0.66551449555E+03  0.66551449556E+03  0.25500000920E-02 0. -1.
    10030    2    1    2    0    0  0.00000000000E+00  0.00000000000E+00  0.57654811338E+03  0.19075771045E+04  0.18183626378E+04 0.  0.
        3    1    3    3  502    0 -0.83979399346E+03  0.22685190369E+03  0.10926453794E+02  0.86996272061E+03  0.10100000352E+00 0. -1.
       -3    1    3    3    0  502  0.83979399346E+03 -0.22685190369E+03  0.56562165959E+03  0.10376143839E+04  0.10100000352E+00 0.  1.
</event>
<event>
 5   0  0.1799738E-04  0.1904941E+04  0.7818609E-02  0.8652401E-01
       -2   -1    0    0    0  501  0.00000000000E+00  0.00000000000E+00  0.84692203762E+03  0.84692203762E+03  0.25500000920E-02 0. -1.
        2   -1    0    0  501    0  0.00000000000E+00  0.00000000000E+00 -0.10711735751E+04  0.10711735751E+04  0.25500000920E-02 0.  1.
    10030    2    1    2    0    0  0.00000000000E+00  0.00000000000E+00 -0.22425153747E+03  0.19180956127E+04  0.19049414761E+04 0.  0.
        1    1    3    3  502    0  0.44670821817E+03 -0.29077398767E+03  0.68269361989E+03  0.86612257952E+03  0.50400001928E-02 0. -1.
       -1    1    3    3    0  502 -0.44670821817E+03  0.29077398767E+03 -0.90694515736E+03  0.10519730332E+04  0.50400001928E-02 0.  1.
</event>
<event>
 5   0  0.1810569E-04  0.1881911E+04  0.7818609E-02  0.8663913E-01
       -2   -1    0    0    0  501  0.00000000000E+00  0.00000000000E+00  0.10028653010E+04  0.10028653010E+04  0.25500000920E-02 0. -1.
        2   -1    0    0  501    0  0.00000000000E+00  0.00000000000E+00 -0.88286719032E+03  0.88286719032E+03  0.25500000920E-02 0.  1.
    10030    2    1    2    0    0  0.00000000000E+00  0.00000000000E+00  0.11999811072E+03  0.18857324914E+04  0.18819105936E+04 0.  0.
        4    1    3    3  502    0 -0.83396539653E+03 -0.94053686021E+02  0.48636392738E+03  0.96999786660E+03  0.12699999809E+01 0. -1.
       -4    1    3    3    0  502  0.83396539653E+03  0.94053686021E+02 -0.36636581667E+03  0.91573462476E+03  0.12699999809E+01 0.  1.
</event>
<event>
 5   0  0.8681396E-05  0.1891246E+04  0.7818609E-02  0.8659226E-01
       -1   -1    0    0    0  501  0.00000000000E+00  0.00000000000E+00  0.91346147215E+03  0.91346147217E+03  0.50400001928E-02 0. -1.
        1   -1    0    0  501    0  0.00000000000E+00  0.00000000000E+00 -0.97891638433E+03  0.97891638434E+03  0.50400001928E-02 0.  1.
    10030    2    1    2    0    0  0.00000000000E+00  0.00000000000E+00 -0.65454912178E+02  0.18923778565E+04  0.18912455172E+04 0.  0.
        3    1    3    3  502    0 -0.73565209083E+02 -0.29486471092E+03  0.86326685954E+03  0.91519763915E+03  0.10100000352E+00 0. -1.
       -3    1    3    3    0  502  0.73565209083E+02  0.29486471092E+03 -0.92872177171E+03  0.97718021736E+03  0.10100000352E+00 0.  1.
</event>
<event>
 5   0  0.8905646E-05  0.1921328E+04  0.7818609E-02  0.8644312E-01
       -1   -1    0    0    0  501  0.00000000000E+00  0.00000000000E+00  0.52991545510E+03  0.52991545512E+03  0.50400001928E-02 0. -1.
        1   -1    0    0  501    0  0.00000000000E+00  0.00000000000E+00 -0.17415516175E+04  0.17415516175E+04  0.50400001928E-02 0.  1.
    10030    2    1    2    0    0  0.00000000000E+00  0.00000000000E+00 -0.12116361624E+04  0.22714670726E+04  0.19213277888E+04 0.  0.
        1    1    3    3  502    0  0.37354443136E+03  0.30658037969E+03 -0.15873948869E+04  0.16593219996E+04  0.50400001928E-02 0.  1.
       -1    1    3    3    0  502 -0.37354443136E+03 -0.30658037969E+03  0.37575872447E+03  0.61214507304E+03  0.50400001928E-02 0. -1.
</event>
<event>
 5   0  0.6375750E-05  0.1817550E+04  0.7818609E-02  0.8697022E-01
       -3   -1    0    0    0  501  0.00000000000E+00  0.00000000000E+00  0.89832328818E+03  0.89832329385E+03  0.10100000352E+00 0. -1.
        3   -1    0    0  501    0  0.00000000000E+00  0.00000000000E+00 -0.91934866082E+03  0.91934866637E+03  0.10100000352E+00 0.  1.
    10030    2    1    2    0    0  0.00000000000E+00  0.00000000000E+00 -0.21025372643E+02  0.18176719602E+04  0.18175503538E+04 0.  0.
        2    1    3    3  502    0  0.14674560468E+03  0.60718766461E+03 -0.67060320202E+03  0.91647137823E+03  0.25500000920E-02 0.  1.
       -2    1    3    3    0  502 -0.14674560468E+03 -0.60718766461E+03  0.64957782938E+03  0.90120058199E+03  0.25500000920E-02 0. -1.
</event>
<event>
 5   0  0.8905646E-05  0.1886076E+04  0.7818609E-02  0.8661818E-01
        1   -1    0    0  501    0  0.00000000000E+00  0.00000000000E+00  0.11698141258E+04  0.11698141258E+04  0.50400001928E-02 0. -1.
       -1   -1    0    0    0  501  0.00000000000E+00  0.00000000000E+00 -0.76022391142E+03  0.76022391143E+03  0.50400001928E-02 0.  1.
    10030    2    1    2    0    0  0.00000000000E+00  0.00000000000E+00  0.40959021437E+03  0.19300380372E+04  0.18860760010E+04 0.  0.
        1    1    3    3  502    0 -0.46661196159E+03  0.74122674205E+03 -0.15289025443E+03  0.88911148669E+03  0.50400001928E-02 0.  1.
       -1    1    3    3    0  502  0.46661196159E+03 -0.74122674205E+03  0.56248046880E+03  0.10409265505E+04  0.50400001928E-02 0. -1.
</event>
<event>
 5   0  0.8567844E-05  0.1899240E+04  0.7818609E-02  0.8655235E-01
       -1   -1    0    0    0  501  0.00000000000E+00  0.00000000000E+00  0.17467108426E+04  0.17467108426E+04  0.50400001928E-02 0.  1.
        1   -1    0    0  501    0  0.00000000000E+00  0.00000000000E+00 -0.51627232912E+03  0.51627232915E+03  0.50400001928E-02 0. -1.
    10030    2    1    2    0    0  0.00000000000E+00  0.00000000000E+00  0.12304385135E+04  0.22629831717E+04  0.18992403482E+04 0.  0.
        4    1    3    3  502    0  0.41361342536E+03  0.28396138435E+03 -0.34546431884E+03  0.60914476270E+03  0.12699999809E+01 0. -1.
       -4    1    3    3    0  502 -0.41361342536E+03 -0.28396138435E+03  0.15759028323E+04  0.16538384090E+04  0.12699999809E+01 0.  1.
</event>
<event>
 5   0  0.8681396E-05  0.1926003E+04  0.7818609E-02  0.8642020E-01
       -1   -1    0    0    0  501  0.00000000000E+00  0.00000000000E+00  0.14394715281E+04  0.14394715281E+04  0.50400001928E-02 0. -1.
        1   -1    0    0  501    0  0.00000000000E+00  0.00000000000E+00 -0.64424498760E+03  0.64424498762E+03  0.50400001928E-02 0.  1.
    10030    2    1    2    0    0  0.00000000000E+00  0.00000000000E+00  0.79522654050E+03  0.20837165157E+04  0.19260034442E+04 0.  0.
        3    1    3    3  502    0  0.82000824694E+03  0.50281227201E+03  0.44764510436E+03  0.10609523343E+04  0.10100000352E+00 0. -1.
       -3    1    3    3    0  502 -0.82000824694E+03 -0.50281227201E+03  0.34758143615E+03  0.10227641815E+04  0.10100000352E+00 0.  1.
</event>
<event>
 5   0  0.1810569E-04  0.1898836E+04  0.7818609E-02  0.8655436E-01
       -2   -1    0    0    0  501  0.00000000000E+00  0.00000000000E+00  0.14744289692E+04  0.14744289692E+04  0.25500000920E-02 0.  1.
        2   -1    0    0  501    0  0.00000000000E+00  0.00000000000E+00 -0.61135157140E+03  0.61135157141E+03  0.25500000920E-02 0. -1.
    10030    2    1    2    0    0  0.00000000000E+00  0.00000000000E+00  0.86307739779E+03  0.20857805406E+04  0.18988359247E+04 0.  0.
        4    1    3    3  502    0 -0.44081695981E+03 -0.73597307814E+03 -0.15218025552E+02  0.85802631953E+03  0.12699999809E+01 0. -1.
       -4    1    3    3    0  502  0.44081695981E+03  0.73597307814E+03  0.87829542334E+03  0.12277542211E+04  0.12699999809E+01 0.  1.
</event>
<event>
 5   0  0.8602017E-05  0.1880887E+04  0.7818609E-02  0.8664429E-01
       -1   -1    0    0    0  501  0.00000000000E+00  0.00000000000E+00  0.58623117324E+03  0.58623117326E+03  0.50400001928E-02 0. -1.
        1   -1    0    0  501    0  0.00000000000E+00  0.00000000000E+00 -0.15086774885E+04  0.15086774885E+04  0.50400001928E-02 0.  1.
    10030    2    1    2    0    0  0.00000000000E+00  0.00000000000E+00 -0.92244631527E+03  0.20949086618E+04  0.18808867846E+04 0.  0.
        2    1    3    3  502    0  0.51534032657E+03 -0.78201305396E+03 -0.36597180124E+03  0.10055125201E+04  0.25500000920E-02 0. -1.
       -2    1    3    3    0  502 -0.51534032657E+03  0.78201305396E+03 -0.55647451404E+03  0.10893961417E+04  0.25500000920E-02 0.  1.
</event>
<event>
 5   0  0.8681396E-05  0.1874509E+04  0.7818609E-02  0.8667650E-01
        1   -1    0    0  501    0  0.00000000000E+00  0.00000000000E+00  0.11080545507E+04  0.11080545507E+04  0.50400001928E-02 0.  1.
       -1   -1    0    0    0  501  0.00000000000E+00  0.00000000000E+00 -0.79278255222E+03  0.79278255224E+03  0.50400001928E-02 0. -1.
    10030    2    1    2    0    0  0.00000000000E+00  0.00000000000E+00  0.31527199849E+03  0.19008371030E+04  0.18745093382E+04 0.  0.
        3    1    3    3  502    0  0.24301605917E+03  0.85992147723E+03  0.44431600131E+03  0.99796716942E+03  0.10100000352E+00 0.  1.
       -3    1    3    3    0  502 -0.24301605917E+03 -0.85992147723E+03 -0.12904400282E+03  0.90286993354E+03  0.10100000352E+00 0. -1.
</event>
<event>
 5   0  0.1790832E-04  0.1838640E+04  0.7818609E-02  0.8686017E-01
        2   -1    0    0  501    0  0.00000000000E+00  0.00000000000E+00  0.45269020996E+03  0.45269020997E+03  0.25500000920E-02 0.  1.
       -2   -1    0    0    0  501  0.00000000000E+00  0.00000000000E+00 -0.18669481253E+04  0.18669481253E+04  0.25500000920E-02 0. -1.
    10030    2    1    2    0    0  0.00000000000E+00  0.00000000000E+00 -0.14142579153E+04  0.23196383352E+04  0.18386398656E+04 0.  0.
        5    1    3    3  502    0 -0.16690297306E+03 -0.12278490943E+03  0.42283188651E+03  0.47089450054E+03  0.46999998093E+01 0.  1.
       -5    1    3    3    0  502  0.16690297306E+03  0.12278490943E+03 -0.18370898018E+04  0.18487438347E+04  0.46999998093E+01 0. -1.
</event>
<event>
 5   0  0.8602017E-05  0.1791672E+04  0.7818609E-02  0.8710741E-01
        1   -1    0    0  501    0  0.00000000000E+00  0.00000000000E+00  0.12320741808E+04  0.12320741808E+04  0.50400001928E-02 0.  1.
       -1   -1    0    0    0  501  0.00000000000E+00  0.00000000000E+00 -0.65135865377E+03  0.65135865379E+03  0.50400001928E-02 0. -1.
    10030    2    1    2    0    0  0.00000000000E+00  0.00000000000E+00  0.58071552701E+03  0.18834328346E+04  0.17916720456E+04 0.  0.
        2    1    3    3  502    0 -0.59663852743E+03  0.45412250468E+03  0.80568634028E+03  0.11006067693E+04  0.25500000920E-02 0.  1.
       -2    1    3    3    0  502  0.59663852743E+03 -0.45412250468E+03 -0.22497081327E+03  0.78282606529E+03  0.25500000920E-02 0. -1.
</event>
<event>
 5   0  0.8587082E-05  0.1908113E+04  0.7818609E-02  0.8650828E-01
        1   -1    0    0  501    0  0.00000000000E+00  0.00000000000E+00  0.90393430423E+03  0.90393430425E+03  0.50400001928E-02 0. -1.
       -1   -1    0    0    0  501  0.00000000000E+00  0.00000000000E+00 -0.10069583629E+04  0.10069583629E+04  0.50400001928E-02 0.  1.
    10030    2    1    2    0    0  0.00000000000E+00  0.00000000000E+00 -0.10302405867E+03  0.19108926672E+04  0.19081134213E+04 0.  0.
        5    1    3    3  502    0 -0.39757403805E+03 -0.26243162628E+03  0.77629139212E+03  0.91081605699E+03  0.46999998093E+01 0. -1.
       -5    1    3    3    0  502  0.39757403805E+03  0.26243162628E+03 -0.87931545078E+03  0.10000766102E+04  0.46999998093E+01 0.  1.
</event>
<event>
 5   0  0.8587082E-05  0.1929137E+04  0.7818609E-02  0.8640487E-01
        1   -1    0    0  501    0  0.00000000000E+00  0.00000000000E+00  0.13752918856E+04  0.13752918856E+04  0.50400001928E-02 0. -1.
       -1   -1    0    0    0  501  0.00000000000E+00  0.00000000000E+00 -0.67650566208E+03  0.67650566210E+03  0.50400001928E-02 0.  1.
    10030    2    1    2    0    0  0.00000000000E+00  0.00000000000E+00  0.69878622347E+03  0.20517975477E+04  0.19291373695E+04 0.  0.
        5    1    3    3  502    0  0.74432184974E+02 -0.60579996476E+03 -0.44498080536E+03  0.75535670686E+03  0.46999998093E+01 0.  1.
       -5    1    3    3    0  502 -0.74432184974E+02  0.60579996476E+03  0.11437670288E+04  0.12964408408E+04  0.46999998093E+01 0. -1.
</event>
<event>
 5   0  0.1658711E-04  0.1896374E+04  0.7818609E-02  0.8656663E-01
        2   -1    0    0  501    0  0.00000000000E+00  0.00000000000E+00  0.17074696562E+04  0.17074696562E+04  0.25500000920E-02 0. -1.
       -2   -1    0    0    0  501  0.00000000000E+00  0.00000000000E+00 -0.52654447816E+03  0.52654447816E+03  0.25500000920E-02 0.  1.
    10030    2    1    2    0    0  0.00000000000E+00  0.00000000000E+00  0.11809251780E+04  0.22340141343E+04  0.18963741393E+04 0.  0.
        2    1    3    3  502    0  0.13397475274E+03 -0.78618388501E+02  0.16923778736E+04  0.16994919690E+04  0.25500000920E-02 0. -1.
       -2    1    3    3    0  502 -0.13397475274E+03  0.78618388501E+02 -0.51145269563E+03  0.53452216536E+03  0.25500000920E-02 0.  1.
</event>
<event>
 5   0  0.1658711E-04  0.1887300E+04  0.7818609E-02  0.8661204E-01
       -2   -1    0    0    0  501  0.00000000000E+00  0.00000000000E+00  0.69199092220E+03  0.69199092221E+03  0.25500000920E-02 0.  1.
        2   -1    0    0  501    0  0.00000000000E+00  0.00000000000E+00 -0.12868314768E+04  0.12868314768E+04  0.25500000920E-02 0. -1.
    10030    2    1    2    0    0  0.00000000000E+00  0.00000000000E+00 -0.59484055458E+03  0.19788223990E+04  0.18873004004E+04 0.  0.
        2    1    3    3  502    0  0.34826323863E+03 -0.26557402499E+03 -0.11738122061E+04  0.12528575104E+04  0.25500000920E-02 0. -1.
       -2    1    3    3    0  502 -0.34826323863E+03  0.26557402499E+03  0.57897165156E+03  0.72596488857E+03  0.25500000920E-02 0.  1.
</event>
<event>
 5   0  0.1790832E-04  0.1549173E+04  0.7818609E-02  0.8852396E-01
       -2   -1    0    0    0  501  0.00000000000E+00  0.00000000000E+00  0.89678661375E+03  0.89678661375E+03  0.25500000920E-02 0. -1.
        2   -1    0    0  501    0  0.00000000000E+00  0.00000000000E+00 -0.66903831459E+03  0.66903831459E+03  0.25500000920E-02 0.  1.
    10030    2    1    2    0    0  0.00000000000E+00  0.00000000000E+00  0.22774829916E+03  0.15658249283E+04  0.15491734630E+04 0.  0.
        5    1    3    3  502    0  0.12666387304E+03 -0.70478956260E+03 -0.18457999500E+03  0.73950248738E+03  0.46999998093E+01 0.  1.
       -5    1    3    3    0  502 -0.12666387304E+03  0.70478956260E+03  0.41232829417E+03  0.82632244097E+03  0.46999998093E+01 0. -1.
</event>
<event>
 5   0  0.1810569E-04  0.1894269E+04  0.7818609E-02  0.8657714E-01
        2   -1    0    0  501    0  0.00000000000E+00  0.00000000000E+00  0.13229954193E+04  0.13229954193E+04  0.25500000920E-02 0.  1.
       -2   -1    0    0    0  501  0.00000000000E+00  0.00000000000E+00 -0.67805542193E+03  0.67805542193E+03  0.25500000920E-02 0. -1.
    10030    2    1    2    0    0  0.00000000000E+00  0.00000000000E+00  0.64493999735E+03  0.20010508412E+04  0.18942694816E+04 0.  0.
        4    1    3    3  502    0 -0.15720940049E+02 -0.52154242208E+03  0.11574767452E+04  0.12696486422E+04  0.12699999809E+01 0.  1.
       -4    1    3    3    0  502  0.15720940049E+02  0.52154242208E+03 -0.51253674784E+03  0.73140219905E+03  0.12699999809E+01 0. -1.
</event>
<event>
 5   0  0.8905646E-05  0.1904883E+04  0.7818609E-02  0.8652430E-01
        1   -1    0    0  501    0  0.00000000000E+00  0.00000000000E+00  0.13742385759E+04  0.13742385760E+04  0.50400001928E-02 0. -1.
       -1   -1    0    0    0  501  0.00000000000E+00  0.00000000000E+00 -0.66010724679E+03  0.66010724680E+03  0.50400001928E-02 0.  1.
    10030    2    1    2    0    0  0.00000000000E+00  0.00000000000E+00  0.71413132916E+03  0.20343458228E+04  0.19048830335E+04 0.  0.
        1    1    3    3  502    0  0.76953303250E+02  0.20171184943E+03 -0.63363129135E+03  0.66940129555E+03  0.50400001928E-02 0.  1.
       -1    1    3    3    0  502 -0.76953303250E+02 -0.20171184943E+03  0.13477626205E+04  0.13649445272E+04  0.50400001928E-02 0. -1.
</event>
<event>
 5   0  0.1810569E-04  0.1910233E+04  0.7818609E-02  0.8649780E-01
       -2   -1    0    0    0  501  0.00000000000E+00  0.00000000000E+00  0.69431658058E+03  0.69431658059E+03  0.25500000920E-02 0.  1.
        2   -1    0    0  501    0  0.00000000000E+00  0.00000000000E+00 -0.13138777975E+04  0.13138777975E+04  0.25500000920E-02 0. -1.
    10030    2    1    2    0    0  0.00000000000E+00  0.00000000000E+00 -0.61956121687E+03  0.20081943780E+04  0.19102325928E+04 0.  0.
        4    1    3    3  502    0  0.78030922959E+03  0.52465485570E+03 -0.48600868169E+03  0.10584664676E+04  0.12699999809E+01 0. -1.
       -4    1    3    3    0  502 -0.78030922959E+03 -0.52465485570E+03 -0.13355253518E+03  0.94972791048E+03  0.12699999809E+01 0.  1.
</event>
<event>
 5   0  0.8567844E-05  0.1901334E+04  0.7818609E-02  0.8654192E-01
       -1   -1    0    0    0  501  0.00000000000E+00  0.00000000000E+00  0.10054552427E+04  0.10054552427E+04  0.50400001928E-02 0.  1.
        1   -1    0    0  501    0  0.00000000000E+00  0.00000000000E+00 -0.89886468231E+03  0.89886468232E+03  0.50400001928E-02 0. -1.
    10030    2    1    2    0    0  0.00000000000E+00  0.00000000000E+00  0.10659056037E+03  0.19043199250E+04  0.19013344864E+04 0.  0.
        4    1    3    3  502    0 -0.19762400125E+02 -0.23538380723E+02 -0.89836610900E+03  0.89889258898E+03  0.12699999809E+01 0. -1.
       -4    1    3    3    0  502  0.19762400125E+02  0.23538380723E+02  0.10049566694E+04  0.10054273360E+04  0.12699999809E+01 0.  1.
</event>
<event>
 5   0  0.1799738E-04  0.1903552E+04  0.7818609E-02  0.8653090E-01
       -2   -1    0    0    0  501  0.00000000000E+00  0.00000000000E+00  0.49618390276E+03  0.49618390276E+03  0.25500000920E-02 0.  1.
        2   -1    0    0  501    0  0.00000000000E+00  0.00000000000E+00 -0.18256898414E+04  0.18256898414E+04  0.25500000920E-02 0. -1.
    10030    2    1    2    0    0  0.00000000000E+00  0.00000000000E+00 -0.13295059387E+04  0.23218737442E+04  0.19035523746E+04 0.  0.
        1    1    3    3  502    0  0.56593624795E+03 -0.66068057373E+03 -0.19376948440E+03  0.89125151913E+03  0.50400001928E-02 0.  1.
       -1    1    3    3    0  502 -0.56593624795E+03  0.66068057373E+03 -0.11357364543E+04  0.14306222250E+04  0.50400001928E-02 0. -1.
</event>
<event>
 5   0  0.8681396E-05  0.1908850E+04  0.7818609E-02  0.8650464E-01
       -1   -1    0    0    0  501  0.00000000000E+00  0.00000000000E+00  0.45769527780E+03  0.45769527783E+03  0.50400001928E-02 0.  1.
        1   -1    0    0  501    0  0.00000000000E+00  0.00000000000E+00 -0.19902479453E+04  0.19902479453E+04  0.50400001928E-02 0. -1.
    10030    2    1    2    0    0  0.00000000000E+00  0.00000000000E+00 -0.15325526675E+04  0.24479432232E+04  0.19088500059E+04 0.  0.
        3    1    3    3  502    0 -0.36868110548E+02  0.77688487435E+03 -0.14756953372E+04  0.16681085408E+04  0.10100000352E+00 0. -1.
       -3    1    3    3    0  502  0.36868110548E+02 -0.77688487435E+03 -0.56857330342E+02  0.77983468235E+03  0.10100000352E+00 0.  1.
</event>
<event>
 5   0  0.1765328E-04  0.2235818E+04  0.7818609E-02  0.8503666E-01
        2   -1    0    0  501    0  0.00000000000E+00  0.00000000000E+00  0.12941838616E+04  0.12941838616E+04  0.25500000920E-02 0.  1.
       -2   -1    0    0    0  501  0.00000000000E+00  0.00000000000E+00 -0.96564394064E+03  0.96564394064E+03  0.25500000920E-02 0. -1.
    10030    2    1    2    0    0  0.00000000000E+00  0.00000000000E+00  0.32853992097E+03  0.22598278023E+04  0.22358182431E+04 0.  0.
        3    1    3    3  502    0  0.53263003245E+03 -0.98174533933E+03  0.11683916214E+03  0.11230182825E+04  0.10100000352E+00 0.  1.
       -3    1    3    3    0  502 -0.53263003245E+03  0.98174533933E+03  0.21170075883E+03  0.11368095198E+04  0.10100000352E+00 0. -1.
</event>
<event>
 5   0  0.8587082E-05  0.1890457E+04  0.7818609E-02  0.8659621E-01
        1   -1    0    0  501    0  0.00000000000E+00  0.00000000000E+00  0.16942962945E+04  0.16942962945E+04  0.50400001928E-02 0. -1.
       -1   -1    0    0    0  501  0.00000000000E+00  0.00000000000E+00 -0.52733204810E+03  0.52733204813E+03  0.50400001928E-02 0.  1.
    10030    2    1    2    0    0  0.00000000000E+00  0.00000000000E+00  0.11669642464E+04  0.22216283426E+04  0.18904568073E+04 0.  0.
        5    1    3    3  502    0  0.42091963092E+03 -0.84600832413E+03  0.61056805985E+03  0.11250417174E+04  0.46999998093E+01 0.  1.
       -5    1    3    3    0  502 -0.42091963092E+03  0.84600832413E+03  0.55639618651E+03  0.10965866252E+04  0.46999998093E+01 0. -1.
</event>
<event>
 5   0  0.1799738E-04  0.1899792E+04  0.7818609E-02  0.8654960E-01
       -2   -1    0    0    0  501  0.00000000000E+00  0.00000000000E+00  0.58524783453E+03  0.58524783453E+03  0.25500000920E-02 0. -1.
        2   -1    0    0  501    0  0.00000000000E+00  0.00000000000E+00 -0.15417441659E+04  0.15417441659E+04  0.25500000920E-02 0.  1.
    10030    2    1    2    0    0  0.00000000000E+00  0.00000000000E+00 -0.95649633140E+03  0.21269920005E+04  0.18997920249E+04 0.  0.
        1    1    3    3  502    0  0.53738815582E+03  0.32091919762E+03 -0.12782100047E+04  0.14232343369E+04  0.50400001928E-02 0.  1.
       -1    1    3    3    0  502 -0.53738815582E+03 -0.32091919762E+03  0.32171367334E+03  0.70375766359E+03  0.50400001928E-02 0. -1.
</event>
<event>
 5   0  0.1765328E-04  0.1845690E+04  0.7818609E-02  0.8682372E-01
        2   -1    0    0  501    0  0.00000000000E+00  0.00000000000E+00  0.67942933465E+03  0.67942933466E+03  0.25500000920E-02 0.  1.
       -2   -1    0    0    0  501  0.00000000000E+00  0.00000000000E+00 -0.12534685973E+04  0.12534685973E+04  0.25500000920E-02 0. -1.
    10030    2    1    2    0    0  0.00000000000E+00  0.00000000000E+00 -0.57403926265E+03  0.19328979320E+04  0.18456904779E+04 0.  0.
        3    1    3    3  502    0  0.69357056241E+03  0.42088940685E+03 -0.74763706766E+03  0.11032448563E+04  0.10100000352E+00 0. -1.
       -3    1    3    3    0  502 -0.69357056241E+03 -0.42088940685E+03  0.17359780501E+03  0.82965307565E+03  0.10100000352E+00 0.  1.
</event>
<event>
 5   0  0.6375750E-05  0.1859439E+04  0.7818609E-02  0.8675314E-01
       -3   -1    0    0    0  501  0.00000000000E+00  0.00000000000E+00  0.10440960865E+04  0.10440960913E+04  0.10100000352E+00 0. -1.
        3   -1    0    0  501    0  0.00000000000E+00  0.00000000000E+00 -0.82787227926E+03  0.82787228542E+03  0.10100000352E+00 0.  1.
    10030    2    1    2    0    0  0.00000000000E+00  0.00000000000E+00  0.21622380720E+03  0.18719683768E+04  0.18594388586E+04 0.  0.
        2    1    3    3  502    0 -0.21549798920E+03  0.90183597695E+03  0.39604084835E+02  0.92807111593E+03  0.25500000920E-02 0.  1.
       -2    1    3    3    0  502  0.21549798920E+03 -0.90183597695E+03  0.17661972237E+03  0.94389726083E+03  0.25500000920E-02 0. -1.
</event>
<event>
 5   0  0.8567844E-05  0.1899159E+04  0.7818609E-02  0.8655275E-01
       -1   -1    0    0    0  501  0.00000000000E+00  0.00000000000E+00  0.43749231516E+03  0.43749231518E+03  0.50400001928E-02 0.  1.
        1   -1    0    0  501    0  0.00000000000E+00  0.00000000000E+00 -0.20610667146E+04  0.20610667146E+04  0.50400001928E-02 0. -1.
    10030    2    1    2    0    0  0.00000000000E+00  0.00000000000E+00 -0.16235743995E+04  0.24985590298E+04  0.18991586018E+04 0.  0.
        4    1    3    3  502    0  0.70656449170E+03  0.37267634054E+03 -0.13635288080E+03  0.81037939061E+03  0.12699999809E+01 0. -1.
       -4    1    3    3    0  502 -0.70656449170E+03 -0.37267634054E+03 -0.14872215187E+04  0.16881796392E+04  0.12699999809E+01 0.  1.
</event>
<event>
 5   0  0.8602017E-05  0.1718628E+04  0.7818609E-02  0.8750811E-01
       -1   -1    0    0    0  501  0.00000000000E+00  0.00000000000E+00  0.38300416845E+03  0.38300416848E+03  0.50400001928E-02 0. -1.
        1   -1    0    0  501    0  0.00000000000E+00  0.00000000000E+00 -0.19279693021E+04  0.19279693021E+04  0.50400001928E-02 0.  1.
    10030    2    1    2    0    0  0.00000000000E+00  0.00000000000E+00 -0.15449651337E+04  0.23109734706E+04  0.17186276844E+04 0.  0.
        2    1    3    3  502    0 -0.83995340441E+03 -0.12058824276E+03 -0.59029681586E+03  0.10336893038E+04  0.25500000920E-02 0.  1.
       -2    1    3    3    0  502  0.83995340441E+03  0.12058824276E+03 -0.95466831781E+03  0.12772841669E+04  0.25500000920E-02 0. -1.
</event>
<event>
 5   0  0.1810569E-04  0.1955252E+04  0.7818609E-02  0.8627832E-01
        2   -1    0    0  501    0  0.00000000000E+00  0.00000000000E+00  0.14783415609E+04  0.14783415609E+04  0.25500000920E-02 0.  1.
       -2   -1    0    0    0  501  0.00000000000E+00  0.00000000000E+00 -0.64650355724E+03  0.64650355725E+03  0.25500000920E-02 0. -1.
    10030    2    1    2    0    0  0.00000000000E+00  0.00000000000E+00  0.83183800366E+03  0.21248451181E+04  0.19552524931E+04 0.  0.
        4    1    3    3  502    0  0.31279675958E+03  0.62622095145E+03  0.11575777325E+04  0.13527683884E+04  0.12699999809E+01 0.  1.
       -4    1    3    3    0  502 -0.31279675958E+03 -0.62622095145E+03 -0.32573972884E+03  0.77207672980E+03  0.12699999809E+01 0. -1.
</event>
<event>
 5   0  0.1799738E-04  0.1893791E+04  0.7818609E-02  0.8657953E-01
        2   -1    0    0  501    0  0.00000000000E+00  0.00000000000E+00  0.12118961913E+04  0.12118961913E+04  0.25500000920E-02 0.  1.
       -2   -1    0    0    0  501  0.00000000000E+00  0.00000000000E+00 -0.73984162671E+03  0.73984162672E+03  0.25500000920E-02 0. -1.
    10030    2    1    2    0    0  0.00000000000E+00  0.00000000000E+00  0.47205456463E+03  0.19517378181E+04  0.18937911708E+04 0.  0.
        1    1    3    3  502    0  0.46461803038E+03 -0.74756781529E+03  0.59582814416E+03  0.10628916831E+04  0.50400001928E-02 0.  1.
       -1    1    3    3    0  502 -0.46461803038E+03  0.74756781529E+03 -0.12377357953E+03  0.88884613496E+03  0.50400001928E-02 0. -1.
</event>
<event>
 5   0  0.8905646E-05  0.1808548E+04  0.7818609E-02  0.8701767E-01
       -1   -1    0    0    0  501  0.00000000000E+00  0.00000000000E+00  0.99942085352E+03  0.99942085353E+03  0.50400001928E-02 0.  1.
        1   -1    0    0  501    0  0.00000000000E+00  0.00000000000E+00 -0.81818569368E+03  0.81818569370E+03  0.50400001928E-02 0. -1.
    10030    2    1    2    0    0  0.00000000000E+00  0.00000000000E+00  0.18123515984E+03  0.18176065472E+04  0.18085484172E+04 0.  0.
        1    1    3    3  502    0  0.30416553456E+03  0.32897511462E+03  0.88002636315E+03  0.98751592307E+03  0.50400001928E-02 0.  1.
       -1    1    3    3    0  502 -0.30416553456E+03 -0.32897511462E+03 -0.69879120331E+03  0.83009062415E+03  0.50400001928E-02 0. -1.
</event>
<event>
 5   0  0.1790832E-04  0.1899578E+04  0.7818609E-02  0.8655067E-01
        2   -1    0    0  501    0  0.00000000000E+00  0.00000000000E+00  0.12434475187E+04  0.12434475187E+04  0.25500000920E-02 0. -1.
       -2   -1    0    0    0  501  0.00000000000E+00  0.00000000000E+00 -0.72548206946E+03  0.72548206947E+03  0.25500000920E-02 0.  1.
    10030    2    1    2    0    0  0.00000000000E+00  0.00000000000E+00  0.51796544927E+03  0.19689295882E+04  0.18995777206E+04 0.  0.
        5    1    3    3  502    0 -0.49090327779E+03 -0.61229533577E+03 -0.29551107010E+03  0.83859435301E+03  0.46999998093E+01 0.  1.
       -5    1    3    3    0  502  0.49090327779E+03  0.61229533577E+03  0.81347651937E+03  0.11303352352E+04  0.46999998093E+01 0. -1.
</event>
<event>
 5   0  0.8567844E-05  0.1899976E+04  0.7818609E-02  0.8654869E-01
        1   -1    0    0  501    0  0.00000000000E+00  0.00000000000E+00  0.14956809278E+04  0.14956809278E+04  0.50400001928E-02 0. -1.
       -1   -1    0    0    0  501  0.00000000000E+00  0.00000000000E+00 -0.60338855839E+03  0.60338855841E+03  0.50400001928E-02 0.  1.
    10030    2    1    2    0    0  0.00000000000E+00  0.00000000000E+00  0.89229236945E+03  0.20990694863E+04  0.18999755355E+04 0.  0.
        4    1    3    3  502    0 -0.32270789161E+03 -0.74275217873E+03  0.99483089207E+03  0.12827748435E+04  0.12699999809E+01 0. -1.
       -4    1    3    3    0  502  0.32270789161E+03  0.74275217873E+03 -0.10253852262E+03  0.81629464279E+03  0.12699999809E+01 0.  1.
</event>
<event>
 5   0  0.8681396E-05  0.1888178E+04  0.7818609E-02  0.8660764E-01
       -1   -1    0    0    0  501  0.00000000000E+00  0.00000000000E+00  0.48959428652E+03  0.48959428654E+03  0.50400001928E-02 0. -1.
        1   -1    0    0  501    0  0.00000000000E+00  0.00000000000E+00 -0.18204944447E+04  0.18204944447E+04  0.50400001928E-02 0.  1.
    10030    2    1    2    0    0  0.00000000000E+00  0.00000000000E+00 -0.13309001581E+04  0.23100887312E+04  0.18881776175E+04 0.  0.
        3    1    3    3  502    0  0.30418425843E+03  0.88077834986E+03 -0.85101586959E+03  0.12619534798E+04  0.10100000352E+00 0.  1.
       -3    1    3    3    0  502 -0.30418425843E+03 -0.88077834986E+03 -0.47988428854E+03  0.10481352514E+04  0.10100000352E+00 0. -1.
</event>
<event>
 5   0  0.8602017E-05  0.1894592E+04  0.7818609E-02  0.8657553E-01
        1   -1    0    0  501    0  0.00000000000E+00  0.00000000000E+00  0.83039792565E+03  0.83039792567E+03  0.50400001928E-02 0.  1.
       -1   -1    0    0    0  501  0.00000000000E+00  0.00000000000E+00 -0.10806497416E+04  0.10806497416E+04  0.50400001928E-02 0. -1.
    10030    2    1    2    0    0  0.00000000000E+00  0.00000000000E+00 -0.25025181590E+03  0.19110476672E+04  0.18945915695E+04 0.  0.
        2    1    3    3  502    0  0.33659609244E+03 -0.80719193917E+03  0.24206004617E+03  0.90744080912E+03  0.25500000920E-02 0.  1.
       -2    1    3    3    0  502 -0.33659609244E+03  0.80719193917E+03 -0.49231186207E+03  0.10036068581E+04  0.25500000920E-02 0. -1.
</event>
<event>
 5   0  0.1810569E-04  0.1593893E+04  0.7818609E-02  0.8824308E-01
       -2   -1    0    0    0  501  0.00000000000E+00  0.00000000000E+00  0.76979346999E+03  0.76979346999E+03  0.25500000920E-02 0.  1.
        2   -1    0    0  501    0  0.00000000000E+00  0.00000000000E+00 -0.82505754948E+03  0.82505754948E+03  0.25500000920E-02 0. -1.
    10030    2    1    2    0    0  0.00000000000E+00  0.00000000000E+00 -0.55264079492E+02  0.15948510195E+04  0.15938932385E+04 0.  0.
        4    1    3    3  502    0  0.56591742070E+03 -0.51376067172E+03  0.19813542600E+03  0.78960231433E+03  0.12699999809E+01 0.  1.
       -4    1    3    3    0  502 -0.56591742070E+03  0.51376067172E+03 -0.25339950550E+03  0.80524870514E+03  0.12699999809E+01 0. -1.
</event>
<event>
 5   0  0.8905646E-05  0.1975057E+04  0.7818609E-02  0.8618372E-01
       -1   -1    0    0    0  501  0.00000000000E+00  0.00000000000E+00  0.43997115084E+03  0.43997115087E+03  0.50400001928E-02 0. -1.
        1   -1    0    0  501    0  0.00000000000E+00  0.00000000000E+00 -0.22165377418E+04  0.22165377418E+04  0.50400001928E-02 0.  1.
    10030    2    1    2    0    0  0.00000000000E+00  0.00000000000E+00 -0.17765665910E+04  0.26565088927E+04  0.19750571244E+04 0.  0.
        1    1    3    3  502    0  0.15345616293E+02 -0.80847739722E+03 -0.16507396737E+04  0.18381546889E+04  0.50400001928E-02 0.  1.
       -1    1    3    3    0  502 -0.15345616293E+02  0.80847739722E+03 -0.12582691722E+03  0.81835420380E+03  0.50400001928E-02 0. -1.
</event>
<event>
 5   0  0.8681396E-05  0.1879873E+04  0.7818609E-02  0.8664940E-01
       -1   -1    0    0    0  501  0.00000000000E+00  0.00000000000E+00  0.11431849629E+04  0.11431849629E+04  0.50400001928E-02 0.  1.
        1   -1    0    0  501    0  0.00000000000E+00  0.00000000000E+00 -0.77282348095E+03  0.77282348096E+03  0.50400001928E-02 0. -1.
    10030    2    1    2    0    0  0.00000000000E+00  0.00000000000E+00  0.37036148191E+03  0.19160084438E+04  0.18798725301E+04 0.  0.
        3    1    3    3  502    0 -0.40130457838E+03 -0.54899420607E+03 -0.47616838320E+03  0.83016645457E+03  0.10100000352E+00 0. -1.
       -3    1    3    3    0  502  0.40130457838E+03  0.54899420607E+03  0.84652986511E+03  0.10858419893E+04  0.10100000352E+00 0.  1.
</event>
<event>
 5   0  0.1658711E-04  0.1863808E+04  0.7818609E-02  0.8673084E-01
       -2   -1    0    0    0  501  0.00000000000E+00  0.00000000000E+00  0.15638630251E+04  0.15638630251E+04  0.25500000920E-02 0. -1.
        2   -1    0    0  501    0  0.00000000000E+00  0.00000000000E+00 -0.55532042250E+03  0.55532042250E+03  0.25500000920E-02 0.  1.
    10030    2    1    2    0    0  0.00000000000E+00  0.00000000000E+00  0.10085426026E+04  0.21191834476E+04  0.18638080114E+04 0.  0.
        2    1    3    3  502    0 -0.83333380872E+03 -0.15983401523E+03  0.94235970851E+03  0.12680827928E+04  0.25500000920E-02 0. -1.
       -2    1    3    3    0  502  0.83333380872E+03  0.15983401523E+03  0.66182894128E+02  0.85110065484E+03  0.25500000920E-02 0.  1.
</event>
<event>
 5   0  0.1810569E-04  0.1896775E+04  0.7818609E-02  0.8656463E-01
        2   -1    0    0  501    0  0.00000000000E+00  0.00000000000E+00  0.12668782265E+04  0.12668782265E+04  0.25500000920E-02 0.  1.
       -2   -1    0    0    0  501  0.00000000000E+00  0.00000000000E+00 -0.70996484439E+03  0.70996484439E+03  0.25500000920E-02 0. -1.
    10030    2    1    2    0    0  0.00000000000E+00  0.00000000000E+00  0.55691338215E+03  0.19768430709E+04  0.18967751611E+04 0.  0.
        4    1    3    3  502    0  0.23539153165E+03 -0.59324624110E+03  0.10095576229E+04  0.11943862368E+04  0.12699999809E+01 0.  1.
       -4    1    3    3    0  502 -0.23539153165E+03  0.59324624110E+03 -0.45264424074E+03  0.78245683416E+03  0.12699999809E+01 0. -1.
</event>
<event>
 5   0  0.8587082E-05  0.2031399E+04  0.7818609E-02  0.8592080E-01
        1   -1    0    0  501    0  0.00000000000E+00  0.00000000000E+00  0.10738129156E+04  0.10738129156E+04  0.50400001928E-02 0. -1.
       -1   -1    0    0    0  501  0.00000000000E+00  0.00000000000E+00 -0.96073064783E+03  0.96073064785E+03  0.50400001928E-02 0.  1.
    10030    2    1    2    0    0  0.00000000000E+00  0.00000000000E+00  0.11308226778E+03  0.20345435635E+04  0.20313985115E+04 0.  0.
        5    1    3    3  502    0  0.41221675335E+03 -0.23076825629E+03 -0.84398731738E+03  0.96721937622E+03  0.46999998093E+01 0.  1.
       -5    1    3    3    0  502 -0.41221675335E+03  0.23076825629E+03  0.95706958516E+03  0.10673241873E+04  0.46999998093E+01 0. -1.
</event>
<event>
 5   0  0.1810569E-04  0.1905286E+04  0.7818609E-02  0.8652229E-01
        2   -1    0    0  501    0  0.00000000000E+00  0.00000000000E+00  0.83684044114E+03  0.83684044115E+03  0.25500000920E-02 0.  1.
       -2   -1    0    0    0  501  0.00000000000E+00  0.00000000000E+00 -0.10844707972E+04  0.10844707972E+04  0.25500000920E-02 0. -1.
    10030    2    1    2    0    0  0.00000000000E+00  0.00000000000E+00 -0.24763035608E+03  0.19213112384E+04  0.19052863516E+04 0.  0.
        4    1    3    3  502    0 -0.59286854421E+03  0.71836688833E+02 -0.87226643182E+03  0.10571205993E+04  0.12699999809E+01 0. -1.
       -4    1    3    3    0  502  0.59286854421E+03 -0.71836688833E+02  0.62463607574E+03  0.86419063903E+03  0.12699999809E+01 0.  1.
</event>
<event>
 5   0  0.8602017E-05  0.1896613E+04  0.7818609E-02  0.8656544E-01
       -1   -1    0    0    0  501  0.00000000000E+00  0.00000000000E+00  0.41132193726E+03  0.41132193729E+03  0.50400001928E-02 0.  1.
        1   -1    0    0  501    0  0.00000000000E+00  0.00000000000E+00 -0.21863295050E+04  0.21863295051E+04  0.50400001928E-02 0. -1.
    10030    2    1    2    0    0  0.00000000000E+00  0.00000000000E+00 -0.17750075678E+04  0.25976514423E+04  0.18966130734E+04 0.  0.
        2    1    3    3  502    0 -0.40178674334E+03  0.54944674608E+03 -0.17918317121E+04  0.19167642522E+04  0.25500000920E-02 0. -1.
       -2    1    3    3    0  502  0.40178674334E+03 -0.54944674608E+03  0.16824144304E+02  0.68088719018E+03  0.25500000920E-02 0.  1.
</event>
<event>
 5   0  0.1790832E-04  0.1905910E+04  0.7818609E-02  0.8651920E-01
       -2   -1    0    0    0  501  0.00000000000E+00  0.00000000000E+00  0.69456675335E+03  0.69456675335E+03  0.25500000920E-02 0.  1.
        2   -1    0    0  501    0  0.00000000000E+00  0.00000000000E+00 -0.13074677371E+04  0.13074677371E+04  0.25500000920E-02 0. -1.
    10030    2    1    2    0    0  0.00000000000E+00  0.00000000000E+00 -0.61290098379E+03  0.20020344905E+04  0.19059104085E+04 0.  0.
        5    1    3    3  502    0  0.77101657218E+03  0.27574094218E+03 -0.81847887601E+03  0.11577691403E+04  0.46999998093E+01 0. -1.
       -5    1    3    3    0  502 -0.77101657218E+03 -0.27574094218E+03  0.20557789222E+03  0.84426535019E+03  0.46999998093E+01 0.  1.
</event>
<event>
 5   0  0.8567844E-05  0.1967863E+04  0.7818609E-02  0.8621795E-01
       -1   -1    0    0    0  501  0.00000000000E+00  0.00000000000E+00  0.11110747684E+04  0.11110747685E+04  0.50400001928E-02 0.  1.
        1   -1    0    0  501    0  0.00000000000E+00  0.00000000000E+00 -0.87133775636E+03  0.87133775637E+03  0.50400001928E-02 0. -1.
    10030    2    1    2    0    0  0.00000000000E+00  0.00000000000E+00  0.23973701208E+03  0.19824125248E+04  0.19678632025E+04 0.  0.
        4    1    3    3  502    0 -0.39421239629E+03 -0.35353790215E+03  0.95529312072E+03  0.10922357900E+04  0.12699999809E+01 0.  1.
       -4    1    3    3    0  502  0.39421239629E+03  0.35353790215E+03 -0.71555610864E+03  0.89017673479E+03  0.12699999809E+01 0. -1.
</event>
<event>
 5   0  0.1765328E-04  0.1893031E+04  0.7818609E-02  0.8658333E-01
       -2   -1    0    0    0  501  0.00000000000E+00  0.00000000000E+00  0.38646692428E+03  0.38646692429E+03  0.25500000920E-02 0.  1.
        2   -1    0    0  501    0  0.00000000000E+00  0.00000000000E+00 -0.23181589811E+04  0.23181589811E+04  0.25500000920E-02 0. -1.
    10030    2    1    2    0    0  0.00000000000E+00  0.00000000000E+00 -0.19316920568E+04  0.27046259054E+04  0.18930311898E+04 0.  0.
        3    1    3    3  502    0 -0.74872853760E+03 -0.37885137745E+03 -0.34018572052E+03  0.90545520257E+03  0.10100000352E+00 0.  1.
       -3    1    3    3    0  502  0.74872853760E+03  0.37885137745E+03 -0.15915063363E+04  0.17991707028E+04  0.10100000352E+00 0. -1.
</event>
<event>
 5   0  0.6375750E-05  0.1624829E+04  0.7818609E-02  0.8805438E-01
        4   -1    0    0  501    0  0.00000000000E+00  0.00000000000E+00  0.81008974302E+03  0.81009073853E+03  0.12699999809E+01 0. -1.
       -4   -1    0    0    0  501  0.00000000000E+00  0.00000000000E+00 -0.81474443040E+03  0.81474542022E+03  0.12699999809E+01 0.  1.
    10030    2    1    2    0    0  0.00000000000E+00  0.00000000000E+00 -0.46546873774E+01  0.16248361588E+04  0.16248294916E+04 0.  0.
        3    1    3    3  502    0 -0.37719271199E+03 -0.84737487432E+02 -0.71686713630E+03  0.81446502998E+03  0.10100000352E+00 0.  1.
       -3    1    3    3    0  502  0.37719271199E+03  0.84737487432E+02  0.71221244892E+03  0.81037112877E+03  0.10100000352E+00 0. -1.
</event>
<event>
 5   0  0.1658711E-04  0.1898890E+04  0.7818609E-02  0.8655409E-01
        2   -1    0    0  501    0  0.00000000000E+00  0.00000000000E+00  0.12043826376E+04  0.12043826376E+04  0.25500000920E-02 0.  1.
       -2   -1    0    0    0  501  0.00000000000E+00  0.00000000000E+00 -0.74847125129E+03  0.74847125129E+03  0.25500000920E-02 0. -1.
    10030    2    1    2    0    0  0.00000000000E+00  0.00000000000E+00  0.45591138630E+03  0.19528538889E+04  0.18988899703E+04 0.  0.
        2    1    3    3  502    0  0.31833841209E+03 -0.20143625035E+03 -0.66832157125E+03  0.76718291833E+03  0.25500000920E-02 0. -1.
       -2    1    3    3    0  502 -0.31833841209E+03  0.20143625035E+03  0.11242329576E+04  0.11856709706E+04  0.25500000920E-02 0.  1.
</event>
<event>
 5   0  0.6375750E-05  0.1890076E+04  0.7818609E-02  0.8659812E-01
       -3   -1    0    0    0  501  0.00000000000E+00  0.00000000000E+00  0.11883895213E+04  0.11883895256E+04  0.10100000352E+00 0. -1.
        3   -1    0    0  501    0  0.00000000000E+00  0.00000000000E+00 -0.75151844879E+03  0.75151845557E+03  0.10100000352E+00 0.  1.
    10030    2    1    2    0    0  0.00000000000E+00  0.00000000000E+00  0.43687107251E+03  0.19399079812E+04  0.18900758295E+04 0.  0.
        4    1    3    3  502    0  0.76906463954E+03 -0.19318108103E+03  0.74610672218E+03  0.10887865740E+04  0.12699999809E+01 0. -1.
       -4    1    3    3    0  502 -0.76906463954E+03  0.19318108103E+03 -0.30923564967E+03  0.85112140720E+03  0.12699999809E+01 0.  1.
</event>
<event>
 5   0  0.1810569E-04  0.1888868E+04  0.7818609E-02  0.8660417E-01
       -2   -1    0    0    0  501  0.00000000000E+00  0.00000000000E+00  0.41806312413E+03  0.41806312413E+03  0.25500000920E-02 0. -1.
        2   -1    0    0  501    0  0.00000000000E+00  0.00000000000E+00 -0.21335432549E+04  0.21335432549E+04  0.25500000920E-02 0.  1.
    10030    2    1    2    0    0  0.00000000000E+00  0.00000000000E+00 -0.17154801307E+04  0.25516063790E+04  0.18888681887E+04 0.  0.
        4    1    3    3  502    0  0.17079590804E+03  0.46778768235E+02  0.39543385347E+03  0.43327709463E+03  0.12699999809E+01 0. -1.
       -4    1    3    3    0  502 -0.17079590804E+03 -0.46778768235E+02 -0.21109139842E+04  0.21183292844E+04  0.12699999809E+01 0.  1.
</event>
<event>
 5   0  0.1790832E-04  0.1915295E+04  0.7818609E-02  0.8647280E-01
        2   -1    0    0  501    0  0.00000000000E+00  0.00000000000E+00  0.96578786891E+03  0.96578786892E+03  0.25500000920E-02 0.  1.
       -2   -1    0    0    0  501  0.00000000000E+00  0.00000000000E+00 -0.94957610223E+03  0.94957610224E+03  0.25500000920E-02 0. -1.
    10030    2    1    2    0    0  0.00000000000E+00  0.00000000000E+00  0.16211766681E+02  0.19153639712E+04  0.19152953612E+04 0.  0.
        5    1    3    3  502    0  0.40087511110E+03 -0.86515242359E+03  0.96863890218E+02  0.95843323919E+03  0.46999998093E+01 0.  1.
       -5    1    3    3    0  502 -0.40087511110E+03  0.86515242359E+03 -0.80652123536E+02  0.95693073197E+03  0.46999998093E+01 0. -1.
</event>
<event>
 5   0  0.8567844E-05  0.1879798E+04  0.7818609E-02  0.8664978E-01
       -1   -1    0    0    0  501  0.00000000000E+00  0.00000000000E+00  0.67707042349E+03  0.67707042351E+03  0.50400001928E-02 0.  1.
        1   -1    0    0  501    0  0.00000000000E+00  0.00000000000E+00 -0.13047535539E+04  0.13047535539E+04  0.50400001928E-02 0. -1.
    10030    2    1    2    0    0  0.00000000000E+00  0.00000000000E+00 -0.62768313037E+03  0.19818239774E+04  0.18797979054E+04 0.  0.
        4    1    3    3  502    0  0.71457386324E+03  0.61037708016E+03 -0.29776802351E+03  0.98582117787E+03  0.12699999809E+01 0. -1.
       -4    1    3    3    0  502 -0.71457386324E+03 -0.61037708016E+03 -0.32991510686E+03  0.99600279952E+03  0.12699999809E+01 0.  1.
</event>
<event>
 5   0  0.8602017E-05  0.1892194E+04  0.7818609E-02  0.8658752E-01
       -1   -1    0    0    0  501  0.00000000000E+00  0.00000000000E+00  0.91330857295E+03  0.91330857297E+03  0.50400001928E-02 0. -1.
        1   -1    0    0  501    0  0.00000000000E+00  0.00000000000E+00 -0.98006295019E+03  0.98006295021E+03  0.50400001928E-02 0.  1.
    10030    2    1    2    0    0  0.00000000000E+00  0.00000000000E+00 -0.66754377243E+02  0.18933715232E+04  0.18921943816E+04 0.  0.
        2    1    3    3  502    0 -0.41684847814E+03 -0.77479727062E+03 -0.38148214270E+03  0.95895885704E+03  0.25500000920E-02 0. -1.
       -2    1    3    3    0  502  0.41684847814E+03  0.77479727062E+03  0.31472776546E+03  0.93441266614E+03  0.25500000920E-02 0.  1.
</event>
<event>
 5   0  0.1790832E-04  0.1922511E+04  0.7818609E-02  0.8643732E-01
       -2   -1    0    0    0  501  0.00000000000E+00  0.00000000000E+00  0.12489600528E+04  0.12489600528E+04  0.25500000920E-02 0. -1.
        2   -1    0    0  501    0  0.00000000000E+00  0.00000000000E+00 -0.73982508975E+03  0.73982508975E+03  0.25500000920E-02 0.  1.
    10030    2    1    2    0    0  0.00000000000E+00  0.00000000000E+00  0.50913496301E+03  0.19887851425E+04  0.19225108407E+04 0.  0.
        5    1    3    3  502    0  0.95661983101E+03 -0.42834869443E+02  0.16781001656E+03  0.97218239995E+03  0.46999998093E+01 0.  1.
       -5    1    3    3    0  502 -0.95661983101E+03  0.42834869443E+02  0.34132494645E+03  0.10166027426E+04  0.46999998093E+01 0. -1.
</event>
<event>
 5   0  0.8681396E-05  0.1924723E+04  0.7818609E-02  0.8642647E-01
       -1   -1    0    0    0  501  0.00000000000E+00  0.00000000000E+00  0.52641994317E+03  0.52641994320E+03  0.50400001928E-02 0.  1.
        1   -1    0    0  501    0  0.00000000000E+00  0.00000000000E+00 -0.17593166793E+04  0.17593166793E+04  0.50400001928E-02 0. -1.
    10030    2    1    2    0    0  0.00000000000E+00  0.00000000000E+00 -0.12328967361E+04  0.22857366225E+04  0.19247227191E+04 0.  0.
        3    1    3    3  502    0 -0.42022591180E+03 -0.82079288490E+03 -0.94351165470E+03  0.13192820129E+04  0.10100000352E+00 0.  1.
       -3    1    3    3    0  502  0.42022591180E+03  0.82079288490E+03 -0.28938508145E+03  0.96645460960E+03  0.10100000352E+00 0. -1.
</event>
<event>
 5   0  0.1799738E-04  0.1935802E+04  0.7818609E-02  0.8637238E-01
        2   -1    0    0  501    0  0.00000000000E+00  0.00000000000E+00  0.10490092572E+04  0.10490092572E+04  0.25500000920E-02 0. -1.
       -2   -1    0    0    0  501  0.00000000000E+00  0.00000000000E+00 -0.89306377213E+03  0.89306377214E+03  0.25500000920E-02 0.  1.
    10030    2    1    2    0    0  0.00000000000E+00  0.00000000000E+00  0.15594548506E+03  0.19420730293E+04  0.19358018124E+04 0.  0.
        1    1    3    3  502    0  0.23075141124E+01  0.95240383449E+03  0.25102437752E+03  0.98493229549E+03  0.50400001928E-02 0.  1.
       -1    1    3    3    0  502 -0.23075141124E+01 -0.95240383449E+03 -0.95078892454E+02  0.95714073384E+03  0.50400001928E-02 0. -1.
</event>
<event>
 5   0  0.8905646E-05  0.1978092E+04  0.7818609E-02  0.8616933E-01
       -1   -1    0    0    0  501  0.00000000000E+00  0.00000000000E+00  0.73337878116E+03  0.73337878118E+03  0.50400001928E-02 0. -1.
        1   -1    0    0  501    0  0.00000000000E+00  0.00000000000E+00 -0.13338423680E+04  0.13338423680E+04  0.50400001928E-02 0.  1.
    10030    2    1    2    0    0  0.00000000000E+00  0.00000000000E+00 -0.60046358683E+03  0.20672211492E+04  0.19780916967E+04 0.  0.
        1    1    3    3  502    0  0.19587935424E+03  0.26368643393E+03  0.67470871038E+03  0.75042061589E+03  0.50400001928E-02 0. -1.
       -1    1    3    3    0  502 -0.19587935424E+03 -0.26368643393E+03 -0.12751722972E+04  0.13168005333E+04  0.50400001928E-02 0.  1.
</event>
<event>
 5   0  0.1799738E-04  0.1930930E+04  0.7818609E-02  0.8639612E-01
        2   -1    0    0  501    0  0.00000000000E+00  0.00000000000E+00  0.21483475893E+04  0.21483475893E+04  0.25500000920E-02 0.  1.
       -2   -1    0    0    0  501  0.00000000000E+00  0.00000000000E+00 -0.43387892369E+03  0.43387892369E+03  0.25500000920E-02 0. -1.
    10030    2    1    2    0    0  0.00000000000E+00  0.00000000000E+00  0.17144686656E+04  0.25822265130E+04  0.19309300762E+04 0.  0.
        1    1    3    3  502    0  0.88660551049E+03  0.11278932236E+03  0.13455435798E+04  0.16153260624E+04  0.50400001928E-02 0.  1.
       -1    1    3    3    0  502 -0.88660551049E+03 -0.11278932236E+03  0.36892508576E+03  0.96690045062E+03  0.50400001928E-02 0. -1.
</event>
<event>
 5   0  0.1799738E-04  0.1673888E+04  0.7818609E-02  0.8776399E-01
        2   -1    0    0  501    0  0.00000000000E+00  0.00000000000E+00  0.19624945874E+04  0.19624945874E+04  0.25500000920E-02 0. -1.
       -2   -1    0    0    0  501  0.00000000000E+00  0.00000000000E+00 -0.35693118907E+03  0.35693118908E+03  0.25500000920E-02 0.  1.
    10030    2    1    2    0    0  0.00000000000E+00  0.00000000000E+00  0.16055633983E+04  0.23194257765E+04  0.16738883196E+04 0.  0.
        1    1    3    3  502    0  0.34499907010E+03  0.37147810051E+03  0.17255206871E+04  0.17984554427E+04  0.50400001928E-02 0. -1.
       -1    1    3    3    0  502 -0.34499907010E+03 -0.37147810051E+03 -0.11995728882E+03  0.52097033380E+03  0.50400001928E-02 0.  1.
</event>
<event>
 5   0  0.1790832E-04  0.1902746E+04  0.7818609E-02  0.8653491E-01
        2   -1    0    0  501    0  0.00000000000E+00  0.00000000000E+00  0.10514862193E+04  0.10514862193E+04  0.25500000920E-02 0.  1.
       -2   -1    0    0    0  501  0.00000000000E+00  0.00000000000E+00 -0.86079189220E+03  0.86079189220E+03  0.25500000920E-02 0. -1.
    10030    2    1    2    0    0  0.00000000000E+00  0.00000000000E+00  0.19069432713E+03  0.19122781115E+04  0.19027462388E+04 0.  0.
        5    1    3    3  502    0  0.50716258849E+03 -0.40591372439E+03 -0.60319510749E+03  0.88647970677E+03  0.46999998093E+01 0. -1.
       -5    1    3    3    0  502 -0.50716258849E+03  0.40591372439E+03  0.79388943462E+03  0.10257984048E+04  0.46999998093E+01 0.  1.
</event>
<event>
 5   0  0.1765328E-04  0.1840221E+04  0.7818609E-02  0.8685198E-01
        2   -1    0    0  501    0  0.00000000000E+00  0.00000000000E+00  0.69301189414E+03  0.69301189414E+03  0.25500000920E-02 0.  1.
       -2   -1    0    0    0  501  0.00000000000E+00  0.00000000000E+00 -0.12216293977E+04  0.12216293977E+04  0.25500000920E-02 0. -1.
    10030    2    1    2    0    0  0.00000000000E+00  0.00000000000E+00 -0.52861750358E+03  0.19146412919E+04  0.18402214028E+04 0.  0.
        3    1    3    3  502    0  0.57494953263E+02 -0.23040723359E+03 -0.11891959103E+04  0.12126747652E+04  0.10100000352E+00 0. -1.
       -3    1    3    3    0  502 -0.57494953263E+02  0.23040723359E+03  0.66057840670E+03  0.70196652665E+03  0.10100000352E+00 0.  1.
</event>
<event>
 5   0  0.8602017E-05  0.1886643E+04  0.7818609E-02  0.8661534E-01
       -1   -1    0    0    0  501  0.00000000000E+00  0.00000000000E+00  0.14323985109E+04  0.14323985109E+04  0.50400001928E-02 0.  1.
        1   -1    0    0  501    0  0.00000000000E+00  0.00000000000E+00 -0.62123423831E+03  0.62123423833E+03  0.50400001928E-02 0. -1.
    10030    2    1    2    0    0  0.00000000000E+00  0.00000000000E+00  0.81116427258E+03  0.20536327492E+04  0.18866425182E+04 0.  0.
        2    1    3    3  502    0  0.18053310758E+03  0.11213324736E+03 -0.59483601994E+03  0.63166126897E+03  0.25500000920E-02 0. -1.
       -2    1    3    3    0  502 -0.18053310758E+03 -0.11213324736E+03  0.14060002925E+04  0.14219714803E+04  0.25500000920E-02 0.  1.
</event>
<event>
 5   0  0.8681396E-05  0.1873671E+04  0.7818609E-02  0.8668074E-01
        1   -1    0    0  501    0  0.00000000000E+00  0.00000000000E+00  0.14852051920E+04  0.14852051920E+04  0.50400001928E-02 0.  1.
       -1   -1    0    0    0  501  0.00000000000E+00  0.00000000000E+00 -0.59093551629E+03  0.59093551631E+03  0.50400001928E-02 0. -1.
    10030    2    1    2    0    0  0.00000000000E+00  0.00000000000E+00  0.89426967569E+03  0.20761407083E+04  0.18736707256E+04 0.  0.
        3    1    3    3  502    0 -0.84709577142E+03 -0.29856878798E+03  0.15199541479E+03  0.91094301876E+03  0.10100000352E+00 0. -1.
       -3    1    3    3    0  502  0.84709577142E+03  0.29856878798E+03  0.74227426091E+03  0.11651976895E+04  0.10100000352E+00 0.  1.
</event>
<event>
 5   0  0.6375750E-05  0.1902273E+04  0.7818609E-02  0.8653726E-01
       -3   -1    0    0    0  501  0.00000000000E+00  0.00000000000E+00  0.13761628136E+04  0.13761628173E+04  0.10100000352E+00 0.  1.
        3   -1    0    0  501    0  0.00000000000E+00  0.00000000000E+00 -0.65737903404E+03  0.65737904180E+03  0.10100000352E+00 0. -1.
    10030    2    1    2    0    0  0.00000000000E+00  0.00000000000E+00  0.71878377959E+03  0.20335418591E+04  0.19022729486E+04 0.  0.
        3    1    3    3  502    0  0.62982781244E+03  0.59005561846E+03  0.78674297364E+03  0.11678241404E+04  0.10100000352E+00 0.  1.
       -3    1    3    3    0  502 -0.62982781244E+03 -0.59005561846E+03 -0.67959194048E+02  0.86571771870E+03  0.10100000352E+00 0. -1.
</event>
<event>
 5   0  0.8602017E-05  0.1840578E+04  0.7818609E-02  0.8685013E-01
        1   -1    0    0  501    0  0.00000000000E+00  0.00000000000E+00  0.63228514160E+03  0.63228514162E+03  0.50400001928E-02 0.  1.
       -1   -1    0    0    0  501  0.00000000000E+00  0.00000000000E+00 -0.13394777211E+04  0.13394777211E+04  0.50400001928E-02 0. -1.
    10030    2    1    2    0    0  0.00000000000E+00  0.00000000000E+00 -0.70719257947E+03  0.19717628627E+04  0.18405780185E+04 0.  0.
        2    1    3    3  502    0  0.67406510586E+02  0.57437515221E+03 -0.11204976508E+04  0.12609383167E+04  0.25500000920E-02 0. -1.
       -2    1    3    3    0  502 -0.67406510586E+02 -0.57437515221E+03  0.41330507134E+03  0.71082454597E+03  0.25500000920E-02 0.  1.
</event>
<event>
 5   0  0.8905646E-05  0.1894944E+04  0.7818609E-02  0.8657377E-01
       -1   -1    0    0    0  501  0.00000000000E+00  0.00000000000E+00  0.10461210677E+04  0.10461210677E+04  0.50400001928E-02 0.  1.
        1   -1    0    0  501    0  0.00000000000E+00  0.00000000000E+00 -0.85812553167E+03  0.85812553169E+03  0.50400001928E-02 0. -1.
    10030    2    1    2    0    0  0.00000000000E+00  0.00000000000E+00  0.18799553605E+03  0.19042465994E+04  0.18949440071E+04 0.  0.
        1    1    3    3  502    0 -0.46288260219E+03  0.26035962095E+03  0.88248702618E+03  0.10299664009E+04  0.50400001928E-02 0.  1.
       -1    1    3    3    0  502  0.46288260219E+03 -0.26035962095E+03 -0.69449149012E+03  0.87428019851E+03  0.50400001928E-02 0. -1.
</event>
<event>
 5   0  0.1810569E-04  0.1909708E+04  0.7818609E-02  0.8650039E-01
        2   -1    0    0  501    0  0.00000000000E+00  0.00000000000E+00  0.23764500239E+04  0.23764500239E+04  0.25500000920E-02 0. -1.
       -2   -1    0    0    0  501  0.00000000000E+00  0.00000000000E+00 -0.38365881437E+03  0.38365881438E+03  0.25500000920E-02 0.  1.
    10030    2    1    2    0    0  0.00000000000E+00  0.00000000000E+00  0.19927912095E+04  0.27601088382E+04  0.19097078296E+04 0.  0.
        4    1    3    3  502    0  0.79526905310E+03  0.35724055617E+03  0.15592682333E+04  0.17864469536E+04  0.12699999809E+01 0. -1.
       -4    1    3    3    0  502 -0.79526905310E+03 -0.35724055617E+03  0.43352297620E+03  0.97366188463E+03  0.12699999809E+01 0.  1.
</event>
<event>
 5   0  0.8681396E-05  0.1894600E+04  0.7818609E-02  0.8657549E-01
        1   -1    0    0  501    0  0.00000000000E+00  0.00000000000E+00  0.93314509493E+03  0.93314509494E+03  0.50400001928E-02 0.  1.
       -1   -1    0    0    0  501  0.00000000000E+00  0.00000000000E+00 -0.96166983260E+03  0.96166983261E+03  0.50400001928E-02 0. -1.
    10030    2    1    2    0    0  0.00000000000E+00  0.00000000000E+00 -0.28524737672E+02  0.18948149275E+04  0.18946002082E+04 0.  0.
        3    1    3    3  502    0  0.58659499354E+03 -0.35920512105E+03 -0.66568515070E+03  0.95721404894E+03  0.10100000352E+00 0. -1.
       -3    1    3    3    0  502 -0.58659499354E+03  0.35920512105E+03  0.63716041303E+03  0.93760087861E+03  0.10100000352E+00 0.  1.
</event>
<event>
 5   0  0.1658711E-04  0.1909548E+04  0.7818609E-02  0.8650118E-01
        2   -1    0    0  501    0  0.00000000000E+00  0.00000000000E+00  0.24614837566E+04  0.24614837566E+04  0.25500000920E-02 0. -1.
       -2   -1    0    0    0  501  0.00000000000E+00  0.00000000000E+00 -0.37034313895E+03  0.37034313896E+03  0.25500000920E-02 0.  1.
    10030    2    1    2    0    0  0.00000000000E+00  0.00000000000E+00  0.20911406176E+04  0.28318268955E+04  0.19095482407E+04 0.  0.
        2    1    3    3  502    0 -0.76847736943E+03 -0.20324321107E+03  0.18299102119E+04  0.19951031687E+04  0.25500000920E-02 0. -1.
       -2    1    3    3    0  502  0.76847736943E+03  0.20324321107E+03  0.26123040575E+03  0.83672372684E+03  0.25500000920E-02 0.  1.
</event>
<event>
 5   0  0.8587082E-05  0.1898854E+04  0.7818609E-02  0.8655427E-01
        1   -1    0    0  501    0  0.00000000000E+00  0.00000000000E+00  0.12805215908E+04  0.12805215908E+04  0.50400001928E-02 0. -1.
       -1   -1    0    0    0  501  0.00000000000E+00  0.00000000000E+00 -0.70394119117E+03  0.70394119118E+03  0.50400001928E-02 0.  1.
    10030    2    1    2    0    0  0.00000000000E+00  0.00000000000E+00  0.57658039965E+03  0.19844627820E+04  0.18988542798E+04 0.  0.
        5    1    3    3  502    0  0.32783809316E+03  0.74865653476E+03 -0.21663303889E+03  0.84552728277E+03  0.46999998093E+01 0.  1.
       -5    1    3    3    0  502 -0.32783809316E+03 -0.74865653476E+03  0.79321343854E+03  0.11389354992E+04  0.46999998093E+01 0. -1.
</event>
<event>
 5   0  0.1810569E-04  0.1913345E+04  0.7818609E-02  0.8648242E-01
        2   -1    0    0  501    0  0.00000000000E+00  0.00000000000E+00  0.99195140789E+03  0.99195140789E+03  0.25500000920E-02 0. -1.
       -2   -1    0    0    0  501  0.00000000000E+00  0.00000000000E+00 -0.92264805462E+03  0.92264805462E+03  0.25500000920E-02 0.  1.
    10030    2    1    2    0    0  0.00000000000E+00  0.00000000000E+00  0.69303353275E+02  0.19145994625E+04  0.19133447538E+04 0.  0.
        4    1    3    3  502    0  0.83223767532E+03  0.16078764125E+03  0.47850563540E+03  0.97336605129E+03  0.12699999809E+01 0. -1.
       -4    1    3    3    0  502 -0.83223767532E+03 -0.16078764125E+03 -0.40920228212E+03  0.94123341122E+03  0.12699999809E+01 0.  1.
</event>
<event>
 5   0  0.1799738E-04  0.1949686E+04  0.7818609E-02  0.8630512E-01
       -2   -1    0    0    0  501  0.00000000000E+00  0.00000000000E+00  0.14471726681E+04  0.14471726681E+04  0.25500000920E-02 0.  1.
        2   -1    0    0  501    0  0.00000000000E+00  0.00000000000E+00 -0.65667266555E+03  0.65667266556E+03  0.25500000920E-02 0. -1.
    10030    2    1    2    0    0  0.00000000000E+00  0.00000000000E+00  0.79050000250E+03  0.21038453336E+04  0.19496858552E+04 0.  0.
        1    1    3    3  502    0 -0.85063675007E+03 -0.42302867054E+03  0.15937384498E+03  0.96329443015E+03  0.50400001928E-02 0. -1.
       -1    1    3    3    0  502  0.85063675007E+03  0.42302867054E+03  0.63112615752E+03  0.11405509035E+04  0.50400001928E-02 0.  1.
</event>
<event>
 5   0  0.1799738E-04  0.1959645E+04  0.7818609E-02  0.8625724E-01
        2   -1    0    0  501    0  0.00000000000E+00  0.00000000000E+00  0.17880133679E+04  0.17880133679E+04  0.25500000920E-02 0. -1.
       -2   -1    0    0    0  501  0.00000000000E+00  0.00000000000E+00 -0.53693793822E+03  0.53693793822E+03  0.25500000920E-02 0.  1.
    10030    2    1    2    0    0  0.00000000000E+00  0.00000000000E+00  0.12510754297E+04  0.23249513062E+04  0.19596450814E+04 0.  0.
        1    1    3    3  502    0 -0.38029243111E+03 -0.71438091848E+03 -0.29777528936E+02  0.80984512785E+03  0.50400001928E-02 0.  1.
       -1    1    3    3    0  502  0.38029243111E+03  0.71438091848E+03  0.12808529587E+04  0.15151061783E+04  0.50400001928E-02 0. -1.
</event>
<event>
 5   0  0.8567844E-05  0.1879419E+04  0.7818609E-02  0.8665169E-01
        1   -1    0    0  501    0  0.00000000000E+00  0.00000000000E+00  0.11709066473E+04  0.11709066473E+04  0.50400001928E-02 0. -1.
       -1   -1    0    0    0  501  0.00000000000E+00  0.00000000000E+00 -0.75416276586E+03  0.75416276588E+03  0.50400001928E-02 0.  1.
    10030    2    1    2    0    0  0.00000000000E+00  0.00000000000E+00  0.41674388139E+03  0.19250694131E+04  0.18794192674E+04 0.  0.
        4    1    3    3  502    0 -0.47189889862E+03  0.53947953508E+03  0.83085504488E+03  0.10972914188E+04  0.12699999809E+01 0. -1.
       -4    1    3    3    0  502  0.47189889862E+03 -0.53947953508E+03 -0.41411116348E+03  0.82777799434E+03  0.12699999809E+01 0.  1.
</event>
<event>
 5   0  0.1810569E-04  0.1908711E+04  0.7818609E-02  0.8650532E-01
       -2   -1    0    0    0  501  0.00000000000E+00  0.00000000000E+00  0.76647348396E+03  0.76647348396E+03  0.25500000920E-02 0. -1.
        2   -1    0    0  501    0  0.00000000000E+00  0.00000000000E+00 -0.11882920901E+04  0.11882920901E+04  0.25500000920E-02 0.  1.
    10030    2    1    2    0    0  0.00000000000E+00  0.00000000000E+00 -0.42181860614E+03  0.19547655741E+04  0.19087109559E+04 0.  0.
        4    1    3    3  502    0 -0.45461616053E+03 -0.31319795392E+03 -0.10081682668E+04  0.11494231940E+04  0.12699999809E+01 0.  1.
       -4    1    3    3    0  502  0.45461616053E+03  0.31319795392E+03  0.58634966064E+03  0.80534238010E+03  0.12699999809E+01 0. -1.
</event>
<event>
 5   0  0.1810569E-04  0.1876076E+04  0.7818609E-02  0.8666858E-01
       -2   -1    0    0    0  501  0.00000000000E+00  0.00000000000E+00  0.12703879710E+04  0.12703879710E+04  0.25500000920E-02 0. -1.
        2   -1    0    0  501    0  0.00000000000E+00  0.00000000000E+00 -0.69263475237E+03  0.69263475237E+03  0.25500000920E-02 0.  1.
    10030    2    1    2    0    0  0.00000000000E+00  0.00000000000E+00  0.57775321862E+03  0.19630227234E+04  0.18760755397E+04 0.  0.
        4    1    3    3  502    0  0.81402467067E+03 -0.25963380563E+03 -0.11619195888E+03  0.86229232960E+03  0.12699999809E+01 0.  1.
       -4    1    3    3    0  502 -0.81402467067E+03  0.25963380563E+03  0.69394517750E+03  0.11007303938E+04  0.12699999809E+01 0. -1.
</event>
<event>
 5   0  0.8602017E-05  0.1885904E+04  0.7818609E-02  0.8661905E-01
        1   -1    0    0  501    0  0.00000000000E+00  0.00000000000E+00  0.74863549082E+03  0.74863549083E+03  0.50400001928E-02 0.  1.
       -1   -1    0    0    0  501  0.00000000000E+00  0.00000000000E+00 -0.11877053041E+04  0.11877053041E+04  0.50400001928E-02 0. -1.
    10030    2    1    2    0    0  0.00000000000E+00  0.00000000000E+00 -0.43906981330E+03  0.19363407950E+04  0.18859038611E+04 0.  0.
        2    1    3    3  502    0 -0.83993916164E+03  0.14401015183E+02  0.22023432694E+03  0.86845169311E+03  0.25500000920E-02 0.  1.
       -2    1    3    3    0  502  0.83993916164E+03 -0.14401015183E+02 -0.65930414023E+03  0.10678891018E+04  0.25500000920E-02 0. -1.
</event>
<event>
 5   0  0.1810569E-04  0.1896766E+04  0.7818609E-02  0.8656468E-01
        2   -1    0    0  501    0  0.00000000000E+00  0.00000000000E+00  0.11063497927E+04  0.11063497927E+04  0.25500000920E-02 0. -1.
       -2   -1    0    0    0  501  0.00000000000E+00  0.00000000000E+00 -0.81297072459E+03  0.81297072459E+03  0.25500000920E-02 0.  1.
    10030    2    1    2    0    0  0.00000000000E+00  0.00000000000E+00  0.29337906807E+03  0.19193205172E+04  0.18967656604E+04 0.  0.
        4    1    3    3  502    0 -0.58265651984E+03  0.27097061713E+03 -0.55911070950E+03  0.85177467316E+03  0.12699999809E+01 0.  1.
       -4    1    3    3    0  502  0.58265651984E+03 -0.27097061713E+03  0.85248977757E+03  0.10675458441E+04  0.12699999809E+01 0. -1.
</event>
<event>
 5   0  0.8587082E-05  0.1859738E+04  0.7818609E-02  0.8675161E-01
        1   -1    0    0  501    0  0.00000000000E+00  0.00000000000E+00  0.11796452448E+04  0.11796452448E+04  0.50400001928E-02 0. -1.
       -1   -1    0    0    0  501  0.00000000000E+00  0.00000000000E+00 -0.73297963287E+03  0.73297963289E+03  0.50400001928E-02 0.  1.
    10030    2    1    2    0    0  0.00000000000E+00  0.00000000000E+00  0.44666561193E+03  0.19126248777E+04  0.18597375497E+04 0.  0.
        5    1    3    3  502    0 -0.40145169567E+03  0.82074818829E+03  0.40099617572E+03  0.99780312461E+03  0.46999998093E+01 0. -1.
       -5    1    3    3    0  502  0.40145169567E+03 -0.82074818829E+03  0.45669436206E+02  0.91482175309E+03  0.46999998093E+01 0.  1.
</event>
<event>
 5   0  0.8587082E-05  0.1910288E+04  0.7818609E-02  0.8649752E-01
        1   -1    0    0  501    0  0.00000000000E+00  0.00000000000E+00  0.66751329908E+03  0.66751329910E+03  0.50400001928E-02 0. -1.
       -1   -1    0    0    0  501  0.00000000000E+00  0.00000000000E+00 -0.13667138102E+04  0.13667138102E+04  0.50400001928E-02 0.  1.
    10030    2    1    2    0    0  0.00000000000E+00  0.00000000000E+00 -0.69920051112E+03  0.20342271093E+04  0.19102875641E+04 0.  0.
        5    1    3    3  502    0 -0.10141165308E+03 -0.92098275892E+03 -0.59656058343E+03  0.11019982692E+04  0.46999998093E+01 0.  1.
       -5    1    3    3    0  502  0.10141165308E+03  0.92098275892E+03 -0.10263992769E+03  0.93222884012E+03  0.46999998093E+01 0. -1.
</event>
<event>
 5   0  0.8587082E-05  0.1868614E+04  0.7818609E-02  0.8670639E-01
        1   -1    0    0  501    0  0.00000000000E+00  0.00000000000E+00  0.17998293408E+04  0.17998293408E+04  0.50400001928E-02 0. -1.
       -1   -1    0    0    0  501  0.00000000000E+00  0.00000000000E+00 -0.48500664653E+03  0.48500664655E+03  0.50400001928E-02 0.  1.
    10030    2    1    2    0    0  0.00000000000E+00  0.00000000000E+00  0.13148226942E+04  0.22848359873E+04  0.18686135962E+04 0.  0.
        5    1    3    3  502    0  0.53092437773E+03  0.61778138921E+03  0.97917376184E+02  0.82045380264E+03  0.46999998093E+01 0.  1.
       -5    1    3    3    0  502 -0.53092437773E+03 -0.61778138921E+03  0.12169053181E+04  0.14643821847E+04  0.46999998093E+01 0. -1.
</event>
<event>
 5   0  0.8602017E-05  0.1901971E+04  0.7818609E-02  0.8653876E-01
        1   -1    0    0  501    0  0.00000000000E+00  0.00000000000E+00  0.13659776983E+04  0.13659776983E+04  0.50400001928E-02 0.  1.
       -1   -1    0    0    0  501  0.00000000000E+00  0.00000000000E+00 -0.66207014758E+03  0.66207014760E+03  0.50400001928E-02 0. -1.
    10030    2    1    2    0    0  0.00000000000E+00  0.00000000000E+00  0.70390755069E+03  0.20280478459E+04  0.19019706163E+04 0.  0.
        2    1    3    3  502    0  0.55565614139E+03 -0.77128579924E+03  0.32299616700E+03  0.10039731348E+04  0.25500000920E-02 0. -1.
       -2    1    3    3    0  502 -0.55565614139E+03  0.77128579924E+03  0.38091138369E+03  0.10240747110E+04  0.25500000920E-02 0.  1.
</event>
<event>
 5   0  0.1765328E-04  0.1901969E+04  0.7818609E-02  0.8653877E-01
        2   -1    0    0  501    0  0.00000000000E+00  0.00000000000E+00  0.13392979714E+04  0.13392979714E+04  0.25500000920E-02 0. -1.
       -2   -1    0    0    0  501  0.00000000000E+00  0.00000000000E+00 -0.67525812729E+03  0.67525812729E+03  0.25500000920E-02 0.  1.
    10030    2    1    2    0    0  0.00000000000E+00  0.00000000000E+00  0.66403984413E+03  0.20145560987E+04  0.19019693374E+04 0.  0.
        3    1    3    3  502    0  0.65543310970E+03 -0.23564444502E+02 -0.39738319088E+03  0.76685152078E+03  0.10100000352E+00 0.  1.
       -3    1    3    3    0  502 -0.65543310970E+03  0.23564444502E+02  0.10614230350E+04  0.12477045779E+04  0.10100000352E+00 0. -1.
</event>
<event>
 5   0  0.1790832E-04  0.1634737E+04  0.7818609E-02  0.8799487E-01
        2   -1    0    0  501    0  0.00000000000E+00  0.00000000000E+00  0.12880661061E+04  0.12880661061E+04  0.25500000920E-02 0.  1.
       -2   -1    0    0    0  501  0.00000000000E+00  0.00000000000E+00 -0.51867789307E+03  0.51867789308E+03  0.25500000920E-02 0. -1.
    10030    2    1    2    0    0  0.00000000000E+00  0.00000000000E+00  0.76938821303E+03  0.18067439992E+04  0.16347371826E+04 0.  0.
        5    1    3    3  502    0 -0.56234744756E+03  0.50926045515E+03  0.48575575563E+02  0.76023847541E+03  0.46999998093E+01 0. -1.
       -5    1    3    3    0  502  0.56234744756E+03 -0.50926045515E+03  0.72081263747E+03  0.10465055238E+04  0.46999998093E+01 0.  1.
</event>
<event>
 5   0  0.1658711E-04  0.1924360E+04  0.7818609E-02  0.8642825E-01
       -2   -1    0    0    0  501  0.00000000000E+00  0.00000000000E+00  0.77770862172E+03  0.77770862173E+03  0.25500000920E-02 0. -1.
        2   -1    0    0  501    0  0.00000000000E+00  0.00000000000E+00 -0.11904078563E+04  0.11904078563E+04  0.25500000920E-02 0.  1.
    10030    2    1    2    0    0  0.00000000000E+00  0.00000000000E+00 -0.41269923454E+03  0.19681164780E+04  0.19243601048E+04 0.  0.
        2    1    3    3  502    0 -0.40541764521E+03 -0.23970278193E+03  0.65175728207E+03  0.80411967110E+03  0.25500000920E-02 0. -1.
       -2    1    3    3    0  502  0.40541764521E+03  0.23970278193E+03 -0.10644565166E+04  0.11639968069E+04  0.25500000920E-02 0.  1.
</event>
<event>
 5   0  0.8602017E-05  0.1840454E+04  0.7818609E-02  0.8685077E-01
       -1   -1    0    0    0  501  0.00000000000E+00  0.00000000000E+00  0.64343133664E+03  0.64343133666E+03  0.50400001928E-02 0. -1.
        1   -1    0    0  501    0  0.00000000000E+00  0.00000000000E+00 -0.13160967796E+04  0.13160967797E+04  0.50400001928E-02 0.  1.
    10030    2    1    2    0    0  0.00000000000E+00  0.00000000000E+00 -0.67266544300E+03  0.19595281163E+04  0.18404541941E+04 0.  0.
        2    1    3    3  502    0  0.64455173028E+03  0.12287274121E+03  0.35060244007E+03  0.74395343573E+03  0.25500000920E-02 0. -1.
       -2    1    3    3    0  502 -0.64455173028E+03 -0.12287274121E+03 -0.10232678831E+04  0.12155746806E+04  0.25500000920E-02 0.  1.
</event>
<event>
 5   0  0.1799738E-04  0.1894142E+04  0.7818609E-02  0.8657778E-01
        2   -1    0    0  501    0  0.00000000000E+00  0.00000000000E+00  0.88512859542E+03  0.88512859542E+03  0.25500000920E-02 0.  1.
       -2   -1    0    0    0  501  0.00000000000E+00  0.00000000000E+00 -0.10133483368E+04  0.10133483368E+04  0.25500000920E-02 0. -1.
    10030    2    1    2    0    0  0.00000000000E+00  0.00000000000E+00 -0.12821974141E+03  0.18984769323E+04  0.18941421172E+04 0.  0.
        1    1    3    3  502    0  0.13336669443E+03  0.68871353370E+03 -0.70182896518E+03  0.99230887483E+03  0.50400001928E-02 0. -1.
       -1    1    3    3    0  502 -0.13336669443E+03 -0.68871353370E+03  0.57360922376E+03  0.90616805743E+03  0.50400001928E-02 0.  1.
</event>
<event>
 5   0  0.6375750E-05  0.1923975E+04  0.7818609E-02  0.8643014E-01
       -3   -1    0    0    0  501  0.00000000000E+00  0.00000000000E+00  0.10094535808E+04  0.10094535858E+04  0.10100000352E+00 0. -1.
        3   -1    0    0  501    0  0.00000000000E+00  0.00000000000E+00 -0.91675299105E+03  0.91675299662E+03  0.10100000352E+00 0.  1.
    10030    2    1    2    0    0  0.00000000000E+00  0.00000000000E+00  0.92700589709E+02  0.19262065824E+04  0.19239746357E+04 0.  0.
        5    1    3    3  502    0 -0.72799018245E+03 -0.60769161519E+03 -0.11551194742E+03  0.95531351132E+03  0.46999998093E+01 0. -1.
       -5    1    3    3    0  502  0.72799018245E+03  0.60769161519E+03  0.20821253713E+03  0.97089307111E+03  0.46999998093E+01 0.  1.
</event>
<event>
 5   0  0.6375750E-05  0.1891283E+04  0.7818609E-02  0.8659208E-01
        4   -1    0    0  501    0  0.00000000000E+00  0.00000000000E+00  0.91566222035E+03  0.91566310108E+03  0.12699999809E+01 0.  1.
       -4   -1    0    0    0  501  0.00000000000E+00  0.00000000000E+00 -0.97660054185E+03  0.97660136762E+03  0.12699999809E+01 0. -1.
    10030    2    1    2    0    0  0.00000000000E+00  0.00000000000E+00 -0.60938321504E+02  0.18922644687E+04  0.18912829879E+04 0.  0.
        5    1    3    3  502    0 -0.54666574998E+03 -0.48201538047E+03 -0.63330443337E+03  0.96554588940E+03  0.46999998093E+01 0. -1.
       -5    1    3    3    0  502  0.54666574998E+03  0.48201538047E+03  0.57236611187E+03  0.92671857930E+03  0.46999998093E+01 0.  1.
</event>
<event>
 5   0  0.8905646E-05  0.1872968E+04  0.7818609E-02  0.8668430E-01
        1   -1    0    0  501    0  0.00000000000E+00  0.00000000000E+00  0.17416611474E+04  0.17416611474E+04  0.50400001928E-02 0. -1.
       -1   -1    0    0    0  501  0.00000000000E+00  0.00000000000E+00 -0.50354361050E+03  0.50354361053E+03  0.50400001928E-02 0.  1.
    10030    2    1    2    0    0  0.00000000000E+00  0.00000000000E+00  0.12381175369E+04  0.22452047579E+04  0.18729680643E+04 0.  0.
        1    1    3    3  502    0 -0.35771605474E+03 -0.41591343088E+03  0.15288851615E+04  0.16243258894E+04  0.50400001928E-02 0. -1.
       -1    1    3    3    0  502  0.35771605474E+03  0.41591343088E+03 -0.29076762465E+03  0.62087886852E+03  0.50400001928E-02 0.  1.
</event>
<event>
 5   0  0.8681396E-05  0.1877407E+04  0.7818609E-02  0.8666185E-01
        1   -1    0    0  501    0  0.00000000000E+00  0.00000000000E+00  0.12027609503E+04  0.12027609503E+04  0.50400001928E-02 0.  1.
       -1   -1    0    0    0  501  0.00000000000E+00  0.00000000000E+00 -0.73261774775E+03  0.73261774776E+03  0.50400001928E-02 0. -1.
    10030    2    1    2    0    0  0.00000000000E+00  0.00000000000E+00  0.47014320251E+03  0.19353786980E+04  0.18774067417E+04 0.  0.
        3    1    3    3  502    0  0.26953411622E+03 -0.45960135169E+03 -0.56163292519E+03  0.77415347002E+03  0.10100000352E+00 0. -1.
       -3    1    3    3    0  502 -0.26953411622E+03  0.45960135169E+03  0.10317761277E+04  0.11612252280E+04  0.10100000352E+00 0.  1.
</event>
<event>
 5   0  0.8602017E-05  0.1945786E+04  0.7818609E-02  0.8632395E-01
        1   -1    0    0  501    0  0.00000000000E+00  0.00000000000E+00  0.13369454013E+04  0.13369454013E+04  0.50400001928E-02 0. -1.
       -1   -1    0    0    0  501  0.00000000000E+00  0.00000000000E+00 -0.70797292646E+03  0.70797292647E+03  0.50400001928E-02 0.  1.
    10030    2    1    2    0    0  0.00000000000E+00  0.00000000000E+00  0.62897247482E+03  0.20449183278E+04  0.19457863688E+04 0.  0.
        2    1    3    3  502    0 -0.40224967449E+03  0.87261573817E+03  0.47476210074E+03  0.10717565393E+04  0.25500000920E-02 0. -1.
       -2    1    3    3    0  502  0.40224967449E+03 -0.87261573817E+03  0.15421037408E+03  0.97316178851E+03  0.25500000920E-02 0.  1.
</event>
<event>
 5   0  0.8681396E-05  0.1879116E+04  0.7818609E-02  0.8665322E-01
       -1   -1    0    0    0  501  0.00000000000E+00  0.00000000000E+00  0.89298079127E+03  0.89298079128E+03  0.50400001928E-02 0.  1.
        1   -1    0    0  501    0  0.00000000000E+00  0.00000000000E+00 -0.98856506831E+03  0.98856506832E+03  0.50400001928E-02 0. -1.
    10030    2    1    2    0    0  0.00000000000E+00  0.00000000000E+00 -0.95584277036E+02  0.18815458596E+04  0.18791164061E+04 0.  0.
        3    1    3    3  502    0  0.62751700737E+03  0.69182732906E+03 -0.14974204072E+03  0.94595207951E+03  0.10100000352E+00 0.  1.
       -3    1    3    3    0  502 -0.62751700737E+03 -0.69182732906E+03  0.54157763686E+02  0.93559378009E+03  0.10100000352E+00 0. -1.
</event>
<event>
 5   0  0.8567844E-05  0.1868486E+04  0.7818609E-02  0.8670704E-01
        1   -1    0    0  501    0  0.00000000000E+00  0.00000000000E+00  0.18962324181E+04  0.18962324182E+04  0.50400001928E-02 0.  1.
       -1   -1    0    0    0  501  0.00000000000E+00  0.00000000000E+00 -0.46028654070E+03  0.46028654073E+03  0.50400001928E-02 0. -1.
    10030    2    1    2    0    0  0.00000000000E+00  0.00000000000E+00  0.14359458774E+04  0.23565189589E+04  0.18684862966E+04 0.  0.
        4    1    3    3  502    0 -0.58346647565E+03 -0.68833119316E+02  0.16340855391E+04  0.17364931006E+04  0.12699999809E+01 0.  1.
       -4    1    3    3    0  502  0.58346647565E+03  0.68833119316E+02 -0.19813966163E+03  0.62002585828E+03  0.12699999809E+01 0. -1.
</event>
<event>
 5   0  0.8602017E-05  0.1909720E+04  0.7818609E-02  0.8650033E-01
        1   -1    0    0  501    0  0.00000000000E+00  0.00000000000E+00  0.13500766566E+04  0.13500766566E+04  0.50400001928E-02 0. -1.
       -1   -1    0    0    0  501  0.00000000000E+00  0.00000000000E+00 -0.67533749573E+03  0.67533749575E+03  0.50400001928E-02 0.  1.
    10030    2    1    2    0    0  0.00000000000E+00  0.00000000000E+00  0.67473916082E+03  0.20254141523E+04  0.19097197578E+04 0.  0.
        2    1    3    3  502    0  0.72492343517E+03 -0.53779614544E+03  0.66771777752E+03  0.11227580823E+04  0.25500000920E-02 0.  1.
       -2    1    3    3    0  502 -0.72492343517E+03  0.53779614544E+03  0.70213832974E+01  0.90265607002E+03  0.25500000920E-02 0. -1.
</event>
<event>
 5   0  0.1658711E-04  0.1923807E+04  0.7818609E-02  0.8643096E-01
        2   -1    0    0  501    0  0.00000000000E+00  0.00000000000E+00  0.19985421975E+04  0.19985421975E+04  0.25500000920E-02 0.  1.
       -2   -1    0    0    0  501  0.00000000000E+00  0.00000000000E+00 -0.46296676542E+03  0.46296676542E+03  0.25500000920E-02 0. -1.
    10030    2    1    2    0    0  0.00000000000E+00  0.00000000000E+00  0.15355754321E+04  0.24615089629E+04  0.19238072842E+04 0.  0.
        2    1    3    3  502    0 -0.43342858350E+03 -0.18396806599E+03  0.18410072884E+04  0.19002664082E+04  0.25500000920E-02 0.  1.
       -2    1    3    3    0  502  0.43342858350E+03  0.18396806599E+03 -0.30543185634E+03  0.56124255467E+03  0.25500000920E-02 0. -1.
</event>
<event>
 5   0  0.8602017E-05  0.1904514E+04  0.7818609E-02  0.8652613E-01
        1   -1    0    0  501    0  0.00000000000E+00  0.00000000000E+00  0.11402439555E+04  0.11402439555E+04  0.50400001928E-02 0.  1.
       -1   -1    0    0    0  501  0.00000000000E+00  0.00000000000E+00 -0.79526278100E+03  0.79526278102E+03  0.50400001928E-02 0. -1.
    10030    2    1    2    0    0  0.00000000000E+00  0.00000000000E+00  0.34498117450E+03  0.19355067365E+04  0.19045141943E+04 0.  0.
        2    1    3    3  502    0 -0.87500890714E+03  0.34488480033E+03  0.32393734375E+03  0.99474696067E+03  0.25500000920E-02 0.  1.
       -2    1    3    3    0  502  0.87500890714E+03 -0.34488480033E+03  0.21043830748E+02  0.94075977587E+03  0.25500000920E-02 0. -1.
</event>
<event>
 5   0  0.8587082E-05  0.1904268E+04  0.7818609E-02  0.8652735E-01
        1   -1    0    0  501    0  0.00000000000E+00  0.00000000000E+00  0.14953738645E+04  0.14953738645E+04  0.50400001928E-02 0. -1.
       -1   -1    0    0    0  501  0.00000000000E+00  0.00000000000E+00 -0.60624224411E+03  0.60624224413E+03  0.50400001928E-02 0.  1.
    10030    2    1    2    0    0  0.00000000000E+00  0.00000000000E+00  0.88913162038E+03  0.21016161086E+04  0.19042676360E+04 0.  0.
        5    1    3    3  502    0  0.30447006634E+03  0.69838266530E+03  0.10747947913E+04  0.13174392972E+04  0.46999998093E+01 0. -1.
       -5    1    3    3    0  502 -0.30447006634E+03 -0.69838266530E+03 -0.18566317094E+03  0.78417681139E+03  0.46999998093E+01 0.  1.
</event>
<event>
 5   0  0.6375750E-05  0.1894473E+04  0.7818609E-02  0.8657612E-01
       -3   -1    0    0    0  501  0.00000000000E+00  0.00000000000E+00  0.66775740036E+03  0.66775740800E+03  0.10100000352E+00 0.  1.
        3   -1    0    0  501    0  0.00000000000E+00  0.00000000000E+00 -0.13436875494E+04  0.13436875532E+04  0.10100000352E+00 0. -1.
    10030    2    1    2    0    0  0.00000000000E+00  0.00000000000E+00 -0.67593014908E+03  0.20114449612E+04  0.18944733478E+04 0.  0.
        1    1    3    3  502    0  0.70111795693E+02 -0.78440603430E+03  0.22088821378E+03  0.81792425906E+03  0.50400001928E-02 0. -1.
       -1    1    3    3    0  502 -0.70111795693E+02  0.78440603430E+03 -0.89681836285E+03  0.11935207022E+04  0.50400001928E-02 0.  1.
</event>
<event>
 5   0  0.1765328E-04  0.1908306E+04  0.7818609E-02  0.8650733E-01
        2   -1    0    0  501    0  0.00000000000E+00  0.00000000000E+00  0.14340736679E+04  0.14340736679E+04  0.25500000920E-02 0. -1.
       -2   -1    0    0    0  501  0.00000000000E+00  0.00000000000E+00 -0.63484076052E+03  0.63484076052E+03  0.25500000920E-02 0.  1.
    10030    2    1    2    0    0  0.00000000000E+00  0.00000000000E+00  0.79923290736E+03  0.20689144284E+04  0.19083064932E+04 0.  0.
        3    1    3    3  502    0  0.56108006385E+03  0.19448417748E+03 -0.41008203535E+03  0.72166627970E+03  0.10100000352E+00 0.  1.
       -3    1    3    3    0  502 -0.56108006385E+03 -0.19448417748E+03  0.12093149427E+04  0.13472481487E+04  0.10100000352E+00 0. -1.
</event>
<event>
 5   0  0.1765328E-04  0.1904504E+04  0.7818609E-02  0.8652617E-01
        2   -1    0    0  501    0  0.00000000000E+00  0.00000000000E+00  0.18349058684E+04  0.18349058684E+04  0.25500000920E-02 0.  1.
       -2   -1    0    0    0  501  0.00000000000E+00  0.00000000000E+00 -0.49418572703E+03  0.49418572703E+03  0.25500000920E-02 0. -1.
    10030    2    1    2    0    0  0.00000000000E+00  0.00000000000E+00  0.13407201414E+04  0.23290915954E+04  0.19045044401E+04 0.  0.
        3    1    3    3  502    0 -0.52692406112E+03  0.28282626948E+03  0.15766099120E+04  0.16862201783E+04  0.10100000352E+00 0.  1.
       -3    1    3    3    0  502  0.52692406112E+03 -0.28282626948E+03 -0.23588977062E+03  0.64287141714E+03  0.10100000352E+00 0. -1.
</event>
<event>
 5   0  0.1810569E-04  0.1711353E+04  0.7818609E-02  0.8754916E-01
        2   -1    0    0  501    0  0.00000000000E+00  0.00000000000E+00  0.10074140888E+04  0.10074140888E+04  0.25500000920E-02 0.  1.
       -2   -1    0    0    0  501  0.00000000000E+00  0.00000000000E+00 -0.72679371178E+03  0.72679371179E+03  0.25500000920E-02 0. -1.
    10030    2    1    2    0    0  0.00000000000E+00  0.00000000000E+00  0.28062037704E+03  0.17342078006E+04  0.17113529442E+04 0.  0.
        4    1    3    3  502    0  0.25537238539E+03  0.65960177533E+03  0.62829190131E+03  0.94606653222E+03  0.12699999809E+01 0.  1.
       -4    1    3    3    0  502 -0.25537238539E+03 -0.65960177533E+03 -0.34767152428E+03  0.78814126838E+03  0.12699999809E+01 0. -1.
</event>
<event>
 5   0  0.1765328E-04  0.1949996E+04  0.7818609E-02  0.8630363E-01
       -2   -1    0    0    0  501  0.00000000000E+00  0.00000000000E+00  0.10020804764E+04  0.10020804764E+04  0.25500000920E-02 0. -1.
        2   -1    0    0  501    0  0.00000000000E+00  0.00000000000E+00 -0.94864756185E+03  0.94864756186E+03  0.25500000920E-02 0.  1.
    10030    2    1    2    0    0  0.00000000000E+00  0.00000000000E+00  0.53432914587E+02  0.19507280383E+04  0.19499961033E+04 0.  0.
        3    1    3    3  502    0 -0.32683115008E+03 -0.15132425054E+03  0.93309382481E+03  0.10001908446E+04  0.10100000352E+00 0. -1.
       -3    1    3    3    0  502  0.32683115008E+03  0.15132425054E+03 -0.87966091023E+03  0.95053719372E+03  0.10100000352E+00 0.  1.
</event>
<event>
 5   0  0.1799738E-04  0.1789434E+04  0.7818609E-02  0.8711938E-01
        2   -1    0    0  501    0  0.00000000000E+00  0.00000000000E+00  0.69034445191E+03  0.69034445192E+03  0.25500000920E-02 0.  1.
       -2   -1    0    0    0  501  0.00000000000E+00  0.00000000000E+00 -0.11595932055E+04  0.11595932055E+04  0.25500000920E-02 0. -1.
    10030    2    1    2    0    0  0.00000000000E+00  0.00000000000E+00 -0.46924875358E+03  0.18499376574E+04  0.17894342524E+04 0.  0.
        1    1    3    3  502    0  0.87883460951E+03 -0.32284922254E+02 -0.40489331061E+03  0.96815865440E+03  0.50400001928E-02 0. -1.
       -1    1    3    3    0  502 -0.87883460951E+03  0.32284922254E+02 -0.64355442967E+02  0.88177900301E+03  0.50400001928E-02 0.  1.
</event>
<event>
 5   0  0.1765328E-04  0.1893363E+04  0.7818609E-02  0.8658167E-01
        2   -1    0    0  501    0  0.00000000000E+00  0.00000000000E+00  0.12034936814E+04  0.12034936814E+04  0.25500000920E-02 0. -1.
       -2   -1    0    0    0  501  0.00000000000E+00  0.00000000000E+00 -0.74467042470E+03  0.74467042470E+03  0.25500000920E-02 0.  1.
    10030    2    1    2    0    0  0.00000000000E+00  0.00000000000E+00  0.45882325671E+03  0.19481641061E+04  0.18933633047E+04 0.  0.
        3    1    3    3  502    0  0.83893946932E+03 -0.30897600492E+03 -0.90919751850E+02  0.89863897995E+03  0.10100000352E+00 0.  1.
       -3    1    3    3    0  502 -0.83893946932E+03  0.30897600492E+03  0.54974300856E+03  0.10495251262E+04  0.10100000352E+00 0. -1.
</event>
<event>
 5   0  0.1790832E-04  0.1909938E+04  0.7818609E-02  0.8649925E-01
        2   -1    0    0  501    0  0.00000000000E+00  0.00000000000E+00  0.10945366652E+04  0.10945366652E+04  0.25500000920E-02 0.  1.
       -2   -1    0    0    0  501  0.00000000000E+00  0.00000000000E+00 -0.83319811116E+03  0.83319811116E+03  0.25500000920E-02 0. -1.
    10030    2    1    2    0    0  0.00000000000E+00  0.00000000000E+00  0.26133855403E+03  0.19277347764E+04  0.19099380954E+04 0.  0.
        5    1    3    3  502    0 -0.92229582499E+03 -0.23707253600E+03  0.58513167247E+02  0.95408535093E+03  0.46999998093E+01 0. -1.
       -5    1    3    3    0  502  0.92229582499E+03  0.23707253600E+03  0.20282538678E+03  0.97364942543E+03  0.46999998093E+01 0.  1.
</event>
<event>
 5   0  0.8681396E-05  0.1931180E+04  0.7818609E-02  0.8639490E-01
        1   -1    0    0  501    0  0.00000000000E+00  0.00000000000E+00  0.11646801068E+04  0.11646801068E+04  0.50400001928E-02 0.  1.
       -1   -1    0    0    0  501  0.00000000000E+00  0.00000000000E+00 -0.80053271019E+03  0.80053271021E+03  0.50400001928E-02 0. -1.
    10030    2    1    2    0    0  0.00000000000E+00  0.00000000000E+00  0.36414739658E+03  0.19652128170E+04  0.19311804912E+04 0.  0.
        3    1    3    3  502    0  0.29653296317E+03  0.57646126795E+03 -0.54616669114E+03  0.84766588725E+03  0.10100000352E+00 0. -1.
       -3    1    3    3    0  502 -0.29653296317E+03 -0.57646126795E+03  0.91031408771E+03  0.11175469297E+04  0.10100000352E+00 0.  1.
</event>
<event>
 5   0  0.8905646E-05  0.1890815E+04  0.7818609E-02  0.8659442E-01
       -1   -1    0    0    0  501  0.00000000000E+00  0.00000000000E+00  0.10630130553E+04  0.10630130553E+04  0.50400001928E-02 0.  1.
        1   -1    0    0  501    0  0.00000000000E+00  0.00000000000E+00 -0.84081354562E+03  0.84081354563E+03  0.50400001928E-02 0. -1.
    10030    2    1    2    0    0  0.00000000000E+00  0.00000000000E+00  0.22219950970E+03  0.19038266010E+04  0.18908154602E+04 0.  0.
        1    1    3    3  502    0  0.52372062982E+02  0.60034910295E+03 -0.62235907451E+03  0.86630981528E+03  0.50400001928E-02 0. -1.
       -1    1    3    3    0  502 -0.52372062982E+02 -0.60034910295E+03  0.84455858422E+03  0.10375167857E+04  0.50400001928E-02 0.  1.
</event>
<event>
 5   0  0.8681396E-05  0.1966636E+04  0.7818609E-02  0.8622380E-01
        1   -1    0    0  501    0  0.00000000000E+00  0.00000000000E+00  0.40842941999E+03  0.40842942002E+03  0.50400001928E-02 0.  1.
       -1   -1    0    0    0  501  0.00000000000E+00  0.00000000000E+00 -0.23673969293E+04  0.23673969293E+04  0.50400001928E-02 0. -1.
    10030    2    1    2    0    0  0.00000000000E+00  0.00000000000E+00 -0.19589675093E+04  0.27758263494E+04  0.19666362702E+04 0.  0.
        3    1    3    3  502    0 -0.31697464350E+03 -0.14733272353E+03 -0.22767478966E+04  0.23034237237E+04  0.10100000352E+00 0. -1.
       -3    1    3    3    0  502  0.31697464350E+03  0.14733272353E+03  0.31778038723E+03  0.47240262568E+03  0.10100000352E+00 0.  1.
</event>
<event>
 5   0  0.8905646E-05  0.1862182E+04  0.7818609E-02  0.8673913E-01
       -1   -1    0    0    0  501  0.00000000000E+00  0.00000000000E+00  0.90091933483E+03  0.90091933484E+03  0.50400001928E-02 0. -1.
        1   -1    0    0  501    0  0.00000000000E+00  0.00000000000E+00 -0.96227275059E+03  0.96227275060E+03  0.50400001928E-02 0.  1.
    10030    2    1    2    0    0  0.00000000000E+00  0.00000000000E+00 -0.61353415759E+02  0.18631920854E+04  0.18621816522E+04 0.  0.
        1    1    3    3  502    0 -0.35544893288E+03 -0.23804208474E+03 -0.85812129938E+03  0.95884312714E+03  0.50400001928E-02 0.  1.
       -1    1    3    3    0  502  0.35544893288E+03  0.23804208474E+03  0.79676788362E+03  0.90434895830E+03  0.50400001928E-02 0. -1.
</event>
<event>
 5   0  0.8567844E-05  0.1845352E+04  0.7818609E-02  0.8682547E-01
        1   -1    0    0  501    0  0.00000000000E+00  0.00000000000E+00  0.91938519954E+03  0.91938519955E+03  0.50400001928E-02 0. -1.
       -1   -1    0    0    0  501  0.00000000000E+00  0.00000000000E+00 -0.92597813408E+03  0.92597813409E+03  0.50400001928E-02 0.  1.
    10030    2    1    2    0    0  0.00000000000E+00  0.00000000000E+00 -0.65929345393E+01  0.18453633336E+04  0.18453515563E+04 0.  0.
        4    1    3    3  502    0 -0.69261797443E+03  0.49868124838E+03 -0.35390722264E+03  0.92393429481E+03  0.12699999809E+01 0.  1.
       -4    1    3    3    0  502  0.69261797443E+03 -0.49868124838E+03  0.34731428810E+03  0.92142903884E+03  0.12699999809E+01 0. -1.
</event>
<event>
 5   0  0.1810569E-04  0.1899905E+04  0.7818609E-02  0.8654904E-01
        2   -1    0    0  501    0  0.00000000000E+00  0.00000000000E+00  0.67195005143E+03  0.67195005143E+03  0.25500000920E-02 0.  1.
       -2   -1    0    0    0  501  0.00000000000E+00  0.00000000000E+00 -0.13429713415E+04  0.13429713415E+04  0.25500000920E-02 0. -1.
    10030    2    1    2    0    0  0.00000000000E+00  0.00000000000E+00 -0.67102129005E+03  0.20149213929E+04  0.18999049050E+04 0.  0.
        4    1    3    3  502    0 -0.62995395949E+03  0.29583776532E+03 -0.10212172280E+04  0.12358188436E+04  0.12699999809E+01 0. -1.
       -4    1    3    3    0  502  0.62995395949E+03 -0.29583776532E+03  0.35019593799E+03  0.77910254931E+03  0.12699999809E+01 0.  1.
</event>
<event>
 5   0  0.1790832E-04  0.1887513E+04  0.7818609E-02  0.8661097E-01
       -2   -1    0    0    0  501  0.00000000000E+00  0.00000000000E+00  0.69603688262E+03  0.69603688262E+03  0.25500000920E-02 0. -1.
        2   -1    0    0  501    0  0.00000000000E+00  0.00000000000E+00 -0.12796401073E+04  0.12796401073E+04  0.25500000920E-02 0.  1.
    10030    2    1    2    0    0  0.00000000000E+00  0.00000000000E+00 -0.58360322470E+03  0.19756769899E+04  0.18875134025E+04 0.  0.
        5    1    3    3  502    0 -0.68951323325E+03 -0.58317061913E+03 -0.57871852602E+03  0.10725920437E+04  0.46999998093E+01 0.  1.
       -5    1    3    3    0  502  0.68951323325E+03  0.58317061913E+03 -0.48846986825E+01  0.90308494624E+03  0.46999998093E+01 0. -1.
</event>
<event>
 5   0  0.8905646E-05  0.1824133E+04  0.7818609E-02  0.8693570E-01
       -1   -1    0    0    0  501  0.00000000000E+00  0.00000000000E+00  0.48863618697E+03  0.48863618700E+03  0.50400001928E-02 0. -1.
        1   -1    0    0  501    0  0.00000000000E+00  0.00000000000E+00 -0.17024226643E+04  0.17024226643E+04  0.50400001928E-02 0.  1.
    10030    2    1    2    0    0  0.00000000000E+00  0.00000000000E+00 -0.12137864773E+04  0.21910588513E+04  0.18241330207E+04 0.  0.
        1    1    3    3  502    0  0.54089509482E+03 -0.67312244242E+03 -0.95955732040E+03  0.12908956492E+04  0.50400001928E-02 0.  1.
       -1    1    3    3    0  502 -0.54089509482E+03  0.67312244242E+03 -0.25422915695E+03  0.90016320207E+03  0.50400001928E-02 0. -1.
</event>
<event>
 5   0  0.1765328E-04  0.1908056E+04  0.7818609E-02  0.8650857E-01
        2   -1    0    0  501    0  0.00000000000E+00  0.00000000000E+00  0.12660556993E+04  0.12660556993E+04  0.25500000920E-02 0. -1.
       -2   -1    0    0    0  501  0.00000000000E+00  0.00000000000E+00 -0.71890145373E+03  0.71890145373E+03  0.25500000920E-02 0.  1.
    10030    2    1    2    0    0  0.00000000000E+00  0.00000000000E+00  0.54715424561E+03  0.19849571531E+04  0.19080558511E+04 0.  0.
        3    1    3    3  502    0 -0.40951264932E+03 -0.42414711341E+03  0.10538518190E+04  0.12075616135E+04  0.10100000352E+00 0. -1.
       -3    1    3    3    0  502  0.40951264932E+03  0.42414711341E+03 -0.50669757343E+03  0.77739553954E+03  0.10100000352E+00 0.  1.
</event>
<event>
 5   0  0.1799738E-04  0.1846947E+04  0.7818609E-02  0.8681724E-01
        2   -1    0    0  501    0  0.00000000000E+00  0.00000000000E+00  0.10485588390E+04  0.10485588390E+04  0.25500000920E-02 0.  1.
       -2   -1    0    0    0  501  0.00000000000E+00  0.00000000000E+00 -0.81331015114E+03  0.81331015114E+03  0.25500000920E-02 0. -1.
    10030    2    1    2    0    0  0.00000000000E+00  0.00000000000E+00  0.23524868785E+03  0.18618689901E+04  0.18469472627E+04 0.  0.
        1    1    3    3  502    0 -0.50062319312E+03 -0.23992288576E+03 -0.62631959652E+03  0.83693656248E+03  0.50400001928E-02 0. -1.
       -1    1    3    3    0  502  0.50062319312E+03  0.23992288576E+03  0.86156828437E+03  0.10249324277E+04  0.50400001928E-02 0.  1.
</event>
<event>
 5   0  0.1658711E-04  0.1875588E+04  0.7818609E-02  0.8667104E-01
        2   -1    0    0  501    0  0.00000000000E+00  0.00000000000E+00  0.19945587042E+04  0.19945587042E+04  0.25500000920E-02 0. -1.
       -2   -1    0    0    0  501  0.00000000000E+00  0.00000000000E+00 -0.44092836489E+03  0.44092836489E+03  0.25500000920E-02 0.  1.
    10030    2    1    2    0    0  0.00000000000E+00  0.00000000000E+00  0.15536303394E+04  0.24354870691E+04  0.18755879165E+04 0.  0.
        2    1    3    3  502    0 -0.12778126304E+03  0.35346653030E+03 -0.33884707526E+03  0.50604740850E+03  0.25500000920E-02 0.  1.
       -2    1    3    3    0  502  0.12778126304E+03 -0.35346653030E+03  0.18924774146E+04  0.19294396606E+04  0.25500000920E-02 0. -1.
</event>
<event>
 5   0  0.8602017E-05  0.1882768E+04  0.7818609E-02  0.8663482E-01
        1   -1    0    0  501    0  0.00000000000E+00  0.00000000000E+00  0.11186337579E+04  0.11186337579E+04  0.50400001928E-02 0.  1.
       -1   -1    0    0    0  501  0.00000000000E+00  0.00000000000E+00 -0.79222008040E+03  0.79222008041E+03  0.50400001928E-02 0. -1.
    10030    2    1    2    0    0  0.00000000000E+00  0.00000000000E+00  0.32641367753E+03  0.19108538384E+04  0.18827683083E+04 0.  0.
        2    1    3    3  502    0 -0.33501006562E+03  0.58527939087E+03  0.82983082518E+03  0.10693001954E+04  0.25500000920E-02 0.  1.
       -2    1    3    3    0  502  0.33501006562E+03 -0.58527939087E+03 -0.50341714764E+03  0.84155364296E+03  0.25500000920E-02 0. -1.
</event>
<event>
 5   0  0.8567844E-05  0.1870859E+04  0.7818609E-02  0.8669499E-01
        1   -1    0    0  501    0  0.00000000000E+00  0.00000000000E+00  0.74711244421E+03  0.74711244422E+03  0.50400001928E-02 0. -1.
       -1   -1    0    0    0  501  0.00000000000E+00  0.00000000000E+00 -0.11712136534E+04  0.11712136534E+04  0.50400001928E-02 0.  1.
    10030    2    1    2    0    0  0.00000000000E+00  0.00000000000E+00 -0.42410120916E+03  0.19183260976E+04  0.18708589421E+04 0.  0.
        4    1    3    3  502    0  0.40021958344E+03 -0.49031124856E+03 -0.91832703889E+03  0.11153057871E+04  0.12699999809E+01 0.  1.
       -4    1    3    3    0  502 -0.40021958344E+03  0.49031124856E+03  0.49422582973E+03  0.80302031052E+03  0.12699999809E+01 0. -1.
</event>
<event>
 5   0  0.1790832E-04  0.1899869E+04  0.7818609E-02  0.8654922E-01
        2   -1    0    0  501    0  0.00000000000E+00  0.00000000000E+00  0.23946365230E+04  0.23946365230E+04  0.25500000920E-02 0. -1.
       -2   -1    0    0    0  501  0.00000000000E+00  0.00000000000E+00 -0.37683192044E+03  0.37683192045E+03  0.25500000920E-02 0.  1.
    10030    2    1    2    0    0  0.00000000000E+00  0.00000000000E+00  0.20178046025E+04  0.27714684434E+04  0.18998689215E+04 0.  0.
        5    1    3    3  502    0 -0.97002531161E+02 -0.36610858045E+03  0.22797133473E+04  0.23109651706E+04  0.46999998093E+01 0. -1.
       -5    1    3    3    0  502  0.97002531161E+02  0.36610858045E+03 -0.26190874476E+03  0.46050327285E+03  0.46999998093E+01 0.  1.
</event>
<event>
 5   0  0.6375750E-05  0.1918267E+04  0.7818609E-02  0.8645817E-01
        4   -1    0    0  501    0  0.00000000000E+00  0.00000000000E+00  0.63528678344E+03  0.63528805287E+03  0.12699999809E+01 0. -1.
       -4   -1    0    0    0  501  0.00000000000E+00  0.00000000000E+00 -0.14480627319E+04  0.14480632889E+04  0.12699999809E+01 0.  1.
    10030    2    1    2    0    0  0.00000000000E+00  0.00000000000E+00 -0.81277594850E+03  0.20833513417E+04  0.19182669446E+04 0.  0.
        3    1    3    3  502    0 -0.17453222691E+03 -0.21531526368E+03  0.59084548596E+03  0.65262589550E+03  0.10100000352E+00 0. -1.
       -3    1    3    3    0  502  0.17453222691E+03  0.21531526368E+03 -0.14036214345E+04  0.14307254462E+04  0.10100000352E+00 0.  1.
</event>
<event>
 5   0  0.8587082E-05  0.1894271E+04  0.7818609E-02  0.8657713E-01
       -1   -1    0    0    0  501  0.00000000000E+00  0.00000000000E+00  0.71775283703E+03  0.71775283704E+03  0.50400001928E-02 0.  1.
        1   -1    0    0  501    0  0.00000000000E+00  0.00000000000E+00 -0.12498253923E+04  0.12498253923E+04  0.50400001928E-02 0. -1.
    10030    2    1    2    0    0  0.00000000000E+00  0.00000000000E+00 -0.53207255529E+03  0.19675782294E+04  0.18942710695E+04 0.  0.
        5    1    3    3  502    0  0.17473375404E+03 -0.31838352189E+02 -0.12323606490E+04  0.12451025760E+04  0.46999998093E+01 0. -1.
       -5    1    3    3    0  502 -0.17473375404E+03  0.31838352189E+02  0.70028809375E+03  0.72247565337E+03  0.46999998093E+01 0.  1.
</event>
<event>
 5   0  0.8567844E-05  0.1900696E+04  0.7818609E-02  0.8654510E-01
        1   -1    0    0  501    0  0.00000000000E+00  0.00000000000E+00  0.51118542472E+03  0.51118542475E+03  0.50400001928E-02 0. -1.
       -1   -1    0    0    0  501  0.00000000000E+00  0.00000000000E+00 -0.17667972797E+04  0.17667972797E+04  0.50400001928E-02 0.  1.
    10030    2    1    2    0    0  0.00000000000E+00  0.00000000000E+00 -0.12556118550E+04  0.22779827045E+04  0.19006956809E+04 0.  0.
        4    1    3    3  502    0 -0.43254455955E+03  0.79068725870E+03 -0.98910583891E+03  0.13381379266E+04  0.12699999809E+01 0. -1.
       -4    1    3    3    0  502  0.43254455955E+03 -0.79068725870E+03 -0.26650601611E+03  0.93984477792E+03  0.12699999809E+01 0.  1.
</event>
<event>
 5   0  0.8681396E-05  0.1899182E+04  0.7818609E-02  0.8655264E-01
       -1   -1    0    0    0  501  0.00000000000E+00  0.00000000000E+00  0.52269449283E+03  0.52269449285E+03  0.50400001928E-02 0.  1.
        1   -1    0    0  501    0  0.00000000000E+00  0.00000000000E+00 -0.17251430253E+04  0.17251430253E+04  0.50400001928E-02 0. -1.
    10030    2    1    2    0    0  0.00000000000E+00  0.00000000000E+00 -0.12024485325E+04  0.22478375182E+04  0.18991816750E+04 0.  0.
        3    1    3    3  502    0  0.23521056169E+03  0.66844499905E+03  0.14694573123E+03  0.72369591903E+03  0.10100000352E+00 0.  1.
       -3    1    3    3    0  502 -0.23521056169E+03 -0.66844499905E+03 -0.13493942637E+04  0.15241415992E+04  0.10100000352E+00 0. -1.
</event>
<event>
 5   0  0.8587082E-05  0.1907168E+04  0.7818609E-02  0.8651297E-01
       -1   -1    0    0    0  501  0.00000000000E+00  0.00000000000E+00  0.99772030527E+03  0.99772030528E+03  0.50400001928E-02 0. -1.
        1   -1    0    0  501    0  0.00000000000E+00  0.00000000000E+00 -0.91140036586E+03  0.91140036587E+03  0.50400001928E-02 0.  1.
    10030    2    1    2    0    0  0.00000000000E+00  0.00000000000E+00  0.86319939406E+02  0.19091206712E+04  0.19071682163E+04 0.  0.
        5    1    3    3  502    0 -0.20446940487E+01  0.99430561836E+02  0.99250312172E+03  0.99748441293E+03  0.46999998093E+01 0. -1.
       -5    1    3    3    0  502  0.20446940487E+01 -0.99430561836E+02 -0.90618318232E+03  0.91163625823E+03  0.46999998093E+01 0.  1.
</event>
<event>
 5   0  0.8905646E-05  0.1858040E+04  0.7818609E-02  0.8676029E-01
       -1   -1    0    0    0  501  0.00000000000E+00  0.00000000000E+00  0.18495191211E+04  0.18495191211E+04  0.50400001928E-02 0. -1.
        1   -1    0    0  501    0  0.00000000000E+00  0.00000000000E+00 -0.46664983657E+03  0.46664983660E+03  0.50400001928E-02 0.  1.
    10030    2    1    2    0    0  0.00000000000E+00  0.00000000000E+00  0.13828692845E+04  0.23161689577E+04  0.18580396074E+04 0.  0.
        1    1    3    3  502    0  0.90937712173E+03 -0.18160278997E+03  0.76119193034E+03  0.11997330860E+04  0.50400001928E-02 0. -1.
       -1    1    3    3    0  502 -0.90937712173E+03  0.18160278997E+03  0.62167735420E+03  0.11164358717E+04  0.50400001928E-02 0.  1.
</event>
<event>
 5   0  0.6375750E-05  0.1903390E+04  0.7818609E-02  0.8653171E-01
        3   -1    0    0  501    0  0.00000000000E+00  0.00000000000E+00  0.11046907888E+04  0.11046907934E+04  0.10100000352E+00 0.  1.
       -3   -1    0    0    0  501  0.00000000000E+00  0.00000000000E+00 -0.81988889340E+03  0.81988889963E+03  0.10100000352E+00 0. -1.
    10030    2    1    2    0    0  0.00000000000E+00  0.00000000000E+00  0.28480189540E+03  0.19245796930E+04  0.19033903633E+04 0.  0.
        3    1    3    3  502    0  0.20707360142E+03  0.68594146498E+03  0.77573521004E+03  0.10560115038E+04  0.10100000352E+00 0.  1.
       -3    1    3    3    0  502 -0.20707360142E+03 -0.68594146498E+03 -0.49093331465E+03  0.86856818927E+03  0.10100000352E+00 0. -1.
</event>
<event>
 5   0  0.1799738E-04  0.1923715E+04  0.7818609E-02  0.8643141E-01
       -2   -1    0    0    0  501  0.00000000000E+00  0.00000000000E+00  0.59138479600E+03  0.59138479600E+03  0.25500000920E-02 0.  1.
        2   -1    0    0  501    0  0.00000000000E+00  0.00000000000E+00 -0.15644119337E+04  0.15644119337E+04  0.25500000920E-02 0. -1.
    10030    2    1    2    0    0  0.00000000000E+00  0.00000000000E+00 -0.97302713774E+03  0.21557967297E+04  0.19237145654E+04 0.  0.
        1    1    3    3  502    0 -0.45617736633E+03 -0.66736173214E+03 -0.10706468671E+04  0.13415491736E+04  0.50400001928E-02 0. -1.
       -1    1    3    3    0  502  0.45617736633E+03  0.66736173214E+03  0.97619729393E+02  0.81424755613E+03  0.50400001928E-02 0.  1.
</event>
<event>
 5   0  0.8905646E-05  0.1911852E+04  0.7818609E-02  0.8648979E-01
       -1   -1    0    0    0  501  0.00000000000E+00  0.00000000000E+00  0.70408951107E+03  0.70408951109E+03  0.50400001928E-02 0. -1.
        1   -1    0    0  501    0  0.00000000000E+00  0.00000000000E+00 -0.12978389709E+04  0.12978389709E+04  0.50400001928E-02 0.  1.
    10030    2    1    2    0    0  0.00000000000E+00  0.00000000000E+00 -0.59374945979E+03  0.20019284820E+04  0.19118523023E+04 0.  0.
        1    1    3    3  502    0 -0.36030622644E+02  0.83208189843E+03  0.19441769303E+03  0.85525243692E+03  0.50400001928E-02 0. -1.
       -1    1    3    3    0  502  0.36030622644E+02 -0.83208189843E+03 -0.78816715282E+03  0.11466760450E+04  0.50400001928E-02 0.  1.
</event>
<event>
 5   0  0.1810569E-04  0.1798603E+04  0.7818609E-02  0.8707043E-01
       -2   -1    0    0    0  501  0.00000000000E+00  0.00000000000E+00  0.10047160892E+04  0.10047160892E+04  0.25500000920E-02 0. -1.
        2   -1    0    0  501    0  0.00000000000E+00  0.00000000000E+00 -0.80494729509E+03  0.80494729509E+03  0.25500000920E-02 0.  1.
    10030    2    1    2    0    0  0.00000000000E+00  0.00000000000E+00  0.19976879407E+03  0.18096633843E+04  0.17986033452E+04 0.  0.
        4    1    3    3  502    0  0.33015077191E+03  0.30959414335E+03  0.88176906100E+03  0.99114396312E+03  0.12699999809E+01 0. -1.
       -4    1    3    3    0  502 -0.33015077191E+03 -0.30959414335E+03 -0.68200026693E+03  0.81851942114E+03  0.12699999809E+01 0.  1.
</event>
<event>
 5   0  0.1790832E-04  0.1897469E+04  0.7818609E-02  0.8656117E-01
       -2   -1    0    0    0  501  0.00000000000E+00  0.00000000000E+00  0.81448097813E+03  0.81448097814E+03  0.25500000920E-02 0. -1.
        2   -1    0    0  501    0  0.00000000000E+00  0.00000000000E+00 -0.11051177017E+04  0.11051177017E+04  0.25500000920E-02 0.  1.
    10030    2    1    2    0    0  0.00000000000E+00  0.00000000000E+00 -0.29063672358E+03  0.19195986798E+04  0.18974692057E+04 0.  0.
        5    1    3    3  502    0  0.44301665461E+02 -0.92911937255E+02  0.80880339178E+03  0.81534059276E+03  0.46999998093E+01 0. -1.
       -5    1    3    3    0  502 -0.44301665461E+02  0.92911937255E+02 -0.10994401154E+04  0.11042580871E+04  0.46999998093E+01 0.  1.
</event>
<event>
 5   0  0.8602017E-05  0.1855248E+04  0.7818609E-02  0.8677459E-01
        1   -1    0    0  501    0  0.00000000000E+00  0.00000000000E+00  0.16861365018E+04  0.16861365018E+04  0.50400001928E-02 0. -1.
       -1   -1    0    0    0  501  0.00000000000E+00  0.00000000000E+00 -0.51033002040E+03  0.51033002043E+03  0.50400001928E-02 0.  1.
    10030    2    1    2    0    0  0.00000000000E+00  0.00000000000E+00  0.11758064814E+04  0.21964665222E+04  0.18552477736E+04 0.  0.
        2    1    3    3  502    0 -0.62478153403E+03 -0.67138140196E+03  0.42308239413E+03  0.10100018141E+04  0.25500000920E-02 0.  1.
       -2    1    3    3    0  502  0.62478153403E+03  0.67138140196E+03  0.75272408724E+03  0.11864647082E+04  0.25500000920E-02 0. -1.
</event>
<event>
 5   0  0.8905646E-05  0.1887040E+04  0.7818609E-02  0.8661334E-01
        1   -1    0    0  501    0  0.00000000000E+00  0.00000000000E+00  0.16557326340E+04  0.16557326340E+04  0.50400001928E-02 0.  1.
       -1   -1    0    0    0  501  0.00000000000E+00  0.00000000000E+00 -0.53766556752E+03  0.53766556754E+03  0.50400001928E-02 0. -1.
    10030    2    1    2    0    0  0.00000000000E+00  0.00000000000E+00  0.11180670665E+04  0.21933982016E+04  0.18870404621E+04 0.  0.
        1    1    3    3  502    0 -0.33055697105E+03 -0.59127005466E+03  0.13224426329E+04  0.14858407404E+04  0.50400001928E-02 0.  1.
       -1    1    3    3    0  502  0.33055697105E+03  0.59127005466E+03 -0.20437556638E+03  0.70755746114E+03  0.50400001928E-02 0. -1.
</event>
<event>
 5   0  0.1658711E-04  0.1717648E+04  0.7818609E-02  0.8751363E-01
       -2   -1    0    0    0  501  0.00000000000E+00  0.00000000000E+00  0.47957718256E+03  0.47957718257E+03  0.25500000920E-02 0.  1.
        2   -1    0    0  501    0  0.00000000000E+00  0.00000000000E+00 -0.15379768146E+04  0.15379768146E+04  0.25500000920E-02 0. -1.
    10030    2    1    2    0    0  0.00000000000E+00  0.00000000000E+00 -0.10583996321E+04  0.20175539972E+04  0.17176479122E+04 0.  0.
        2    1    3    3  502    0 -0.54588632292E+03 -0.45169383510E+03 -0.10992869385E+04  0.13078421049E+04  0.25500000920E-02 0. -1.
       -2    1    3    3    0  502  0.54588632292E+03  0.45169383510E+03  0.40887306435E+02  0.70971189229E+03  0.25500000920E-02 0.  1.
</event>
<event>
 5   0  0.8681396E-05  0.1929564E+04  0.7818609E-02  0.8640279E-01
       -1   -1    0    0    0  501  0.00000000000E+00  0.00000000000E+00  0.88026821278E+03  0.88026821279E+03  0.50400001928E-02 0.  1.
        1   -1    0    0  501    0  0.00000000000E+00  0.00000000000E+00 -0.10574102147E+04  0.10574102148E+04  0.50400001928E-02 0. -1.
    10030    2    1    2    0    0  0.00000000000E+00  0.00000000000E+00 -0.17714200196E+03  0.19376784275E+04  0.19295643031E+04 0.  0.
        3    1    3    3  502    0 -0.58038149977E+03  0.41455687745E+03 -0.74099877247E+03  0.10284839721E+04  0.10100000352E+00 0. -1.
       -3    1    3    3    0  502  0.58038149977E+03 -0.41455687745E+03  0.56385677050E+03  0.90919445542E+03  0.10100000352E+00 0.  1.
</event>
<event>
 5   0  0.8681396E-05  0.1910035E+04  0.7818609E-02  0.8649878E-01
        1   -1    0    0  501    0  0.00000000000E+00  0.00000000000E+00  0.18778738067E+04  0.18778738067E+04  0.50400001928E-02 0. -1.
       -1   -1    0    0    0  501  0.00000000000E+00  0.00000000000E+00 -0.48568662181E+03  0.48568662184E+03  0.50400001928E-02 0.  1.
    10030    2    1    2    0    0  0.00000000000E+00  0.00000000000E+00  0.13921871849E+04  0.23635604286E+04  0.19100347488E+04 0.  0.
        3    1    3    3  502    0 -0.13164738416E+03 -0.86905470434E+03  0.11582271401E+04  0.14539866681E+04  0.10100000352E+00 0. -1.
       -3    1    3    3    0  502  0.13164738416E+03  0.86905470434E+03  0.23396004483E+03  0.90957376043E+03  0.10100000352E+00 0.  1.
</event>
<event>
 5   0  0.1658711E-04  0.1901174E+04  0.7818609E-02  0.8654272E-01
        2   -1    0    0  501    0  0.00000000000E+00  0.00000000000E+00  0.11160081345E+04  0.11160081345E+04  0.25500000920E-02 0. -1.
       -2   -1    0    0    0  501  0.00000000000E+00  0.00000000000E+00 -0.80968592757E+03  0.80968592757E+03  0.25500000920E-02 0.  1.
    10030    2    1    2    0    0  0.00000000000E+00  0.00000000000E+00  0.30632220691E+03  0.19256940620E+04  0.19011744597E+04 0.  0.
        2    1    3    3  502    0 -0.76350431350E+03  0.56623959465E+03  0.14600125714E+03  0.96170810664E+03  0.25500000920E-02 0. -1.
       -2    1    3    3    0  502  0.76350431350E+03 -0.56623959465E+03  0.16032094977E+03  0.96398595541E+03  0.25500000920E-02 0.  1.
</event>
<event>
 5   0  0.8587082E-05  0.1908584E+04  0.7818609E-02  0.8650595E-01
        1   -1    0    0  501    0  0.00000000000E+00  0.00000000000E+00  0.12165695736E+04  0.12165695736E+04  0.50400001928E-02 0. -1.
       -1   -1    0    0    0  501  0.00000000000E+00  0.00000000000E+00 -0.74855842224E+03  0.74855842226E+03  0.50400001928E-02 0.  1.
    10030    2    1    2    0    0  0.00000000000E+00  0.00000000000E+00  0.46801115138E+03  0.19651279959E+04  0.19085841879E+04 0.  0.
        5    1    3    3  502    0 -0.44842758359E+03  0.64375757134E+03  0.79336853797E+03  0.11157808187E+04  0.46999998093E+01 0. -1.
       -5    1    3    3    0  502  0.44842758359E+03 -0.64375757134E+03 -0.32535738659E+03  0.84934717718E+03  0.46999998093E+01 0.  1.
</event>
<event>
 5   0  0.1765328E-04  0.1902407E+04  0.7818609E-02  0.8653659E-01
        2   -1    0    0  501    0  0.00000000000E+00  0.00000000000E+00  0.64275341142E+03  0.64275341143E+03  0.25500000920E-02 0.  1.
       -2   -1    0    0    0  501  0.00000000000E+00  0.00000000000E+00 -0.14076758291E+04  0.14076758291E+04  0.25500000920E-02 0. -1.
    10030    2    1    2    0    0  0.00000000000E+00  0.00000000000E+00 -0.76492241770E+03  0.20504292405E+04  0.19024073605E+04 0.  0.
        3    1    3    3  502    0  0.91085377140E+03 -0.77457260382E+02 -0.66585333181E+03  0.11309354048E+04  0.10100000352E+00 0.  1.
       -3    1    3    3    0  502 -0.91085377140E+03  0.77457260382E+02 -0.99069085889E+02  0.91949383578E+03  0.10100000352E+00 0. -1.
</event>
<event>
 5   0  0.1765328E-04  0.1867520E+04  0.7818609E-02  0.8671195E-01
       -2   -1    0    0    0  501  0.00000000000E+00  0.00000000000E+00  0.73600108146E+03  0.73600108146E+03  0.25500000920E-02 0. -1.
        2   -1    0    0  501    0  0.00000000000E+00  0.00000000000E+00 -0.11846558114E+04  0.11846558114E+04  0.25500000920E-02 0.  1.
    10030    2    1    2    0    0  0.00000000000E+00  0.00000000000E+00 -0.44865472996E+03  0.19206568929E+04  0.18675202364E+04 0.  0.
        3    1    3    3  502    0  0.68986554081E+03 -0.62593093886E+03 -0.29101002416E+03  0.97590514343E+03  0.10100000352E+00 0. -1.
       -3    1    3    3    0  502 -0.68986554081E+03  0.62593093886E+03 -0.15764470579E+03  0.94475174945E+03  0.10100000352E+00 0.  1.
</event>
<event>
 5   0  0.1658711E-04  0.1866742E+04  0.7818609E-02  0.8671590E-01
       -2   -1    0    0    0  501  0.00000000000E+00  0.00000000000E+00  0.63079410513E+03  0.63079410514E+03  0.25500000920E-02 0.  1.
        2   -1    0    0  501    0  0.00000000000E+00  0.00000000000E+00 -0.13810868300E+04  0.13810868300E+04  0.25500000920E-02 0. -1.
    10030    2    1    2    0    0  0.00000000000E+00  0.00000000000E+00 -0.75029272487E+03  0.20118809351E+04  0.18667420079E+04 0.  0.
        2    1    3    3  502    0 -0.15948623557E+03  0.32572492092E+03 -0.13020418482E+04  0.13516085076E+04  0.25500000920E-02 0. -1.
       -2    1    3    3    0  502  0.15948623557E+03 -0.32572492092E+03  0.55174912332E+03  0.66027242752E+03  0.25500000920E-02 0.  1.
</event>
<event>
 5   0  0.8567844E-05  0.1920870E+04  0.7818609E-02  0.8644537E-01
       -1   -1    0    0    0  501  0.00000000000E+00  0.00000000000E+00  0.15588446548E+04  0.15588446548E+04  0.50400001928E-02 0. -1.
        1   -1    0    0  501    0  0.00000000000E+00  0.00000000000E+00 -0.59174276291E+03  0.59174276293E+03  0.50400001928E-02 0.  1.
    10030    2    1    2    0    0  0.00000000000E+00  0.00000000000E+00  0.96710189193E+03  0.21505874178E+04  0.19208696395E+04 0.  0.
        4    1    3    3  502    0  0.61659023499E+03  0.14215190218E+03 -0.32538147591E+03  0.71152329473E+03  0.12699999809E+01 0.  1.
       -4    1    3    3    0  502 -0.61659023499E+03 -0.14215190218E+03  0.12924833678E+04  0.14390641230E+04  0.12699999809E+01 0. -1.
</event>
<event>
 5   0  0.1799738E-04  0.1893044E+04  0.7818609E-02  0.8658326E-01
       -2   -1    0    0    0  501  0.00000000000E+00  0.00000000000E+00  0.73619633646E+03  0.73619633646E+03  0.25500000920E-02 0. -1.
        2   -1    0    0  501    0  0.00000000000E+00  0.00000000000E+00 -0.12169364285E+04  0.12169364285E+04  0.25500000920E-02 0.  1.
    10030    2    1    2    0    0  0.00000000000E+00  0.00000000000E+00 -0.48074009205E+03  0.19531327650E+04  0.18930442577E+04 0.  0.
        1    1    3    3  502    0  0.35178227390E+03  0.53731270584E+03  0.47700468424E+03  0.79999323803E+03  0.50400001928E-02 0. -1.
       -1    1    3    3    0  502 -0.35178227390E+03 -0.53731270584E+03 -0.95774477629E+03  0.11531395270E+04  0.50400001928E-02 0.  1.
</event>
<event>
 5   0  0.1658711E-04  0.1887632E+04  0.7818609E-02  0.8661038E-01
        2   -1    0    0  501    0  0.00000000000E+00  0.00000000000E+00  0.85684749384E+03  0.85684749385E+03  0.25500000920E-02 0. -1.
       -2   -1    0    0    0  501  0.00000000000E+00  0.00000000000E+00 -0.10396111146E+04  0.10396111146E+04  0.25500000920E-02 0.  1.
    10030    2    1    2    0    0  0.00000000000E+00  0.00000000000E+00 -0.18276362079E+03  0.18964586085E+04  0.18876315087E+04 0.  0.
        2    1    3    3  502    0  0.89193668693E+03  0.44159924106E+02 -0.39823933245E+03  0.97780147183E+03  0.25500000920E-02 0.  1.
       -2    1    3    3    0  502 -0.89193668693E+03 -0.44159924106E+02  0.21547571167E+03  0.91865713665E+03  0.25500000920E-02 0. -1.
</event>
<event>
 5   0  0.1799738E-04  0.1894387E+04  0.7818609E-02  0.8657655E-01
       -2   -1    0    0    0  501  0.00000000000E+00  0.00000000000E+00  0.47202655754E+03  0.47202655755E+03  0.25500000920E-02 0.  1.
        2   -1    0    0  501    0  0.00000000000E+00  0.00000000000E+00 -0.19006887844E+04  0.19006887844E+04  0.25500000920E-02 0. -1.
    10030    2    1    2    0    0  0.00000000000E+00  0.00000000000E+00 -0.14286622269E+04  0.23727153420E+04  0.18943870606E+04 0.  0.
        1    1    3    3  502    0 -0.14474830103E+03 -0.86706082205E+03 -0.11561434131E+04  0.14523822264E+04  0.50400001928E-02 0. -1.
       -1    1    3    3    0  502  0.14474830103E+03  0.86706082205E+03 -0.27251881378E+03  0.92033311560E+03  0.50400001928E-02 0.  1.
</event>
<event>
 5   0  0.1765328E-04  0.1903439E+04  0.7818609E-02  0.8653147E-01
        2   -1    0    0  501    0  0.00000000000E+00  0.00000000000E+00  0.28514377111E+04  0.28514377111E+04  0.25500000920E-02 0.  1.
       -2   -1    0    0    0  501  0.00000000000E+00  0.00000000000E+00 -0.31765366150E+03  0.31765366151E+03  0.25500000920E-02 0. -1.
    10030    2    1    2    0    0  0.00000000000E+00  0.00000000000E+00  0.25337840496E+04  0.31690913727E+04  0.19034386037E+04 0.  0.
        3    1    3    3  502    0  0.92280829400E+03  0.20593081352E+03  0.14476498100E+04  0.17290669825E+04  0.10100000352E+00 0. -1.
       -3    1    3    3    0  502 -0.92280829400E+03 -0.20593081352E+03  0.10861342397E+04  0.14400243901E+04  0.10100000352E+00 0.  1.
</event>
<event>
 5   0  0.8602017E-05  0.1896171E+04  0.7818609E-02  0.8656765E-01
       -1   -1    0    0    0  501  0.00000000000E+00  0.00000000000E+00  0.73214749625E+03  0.73214749627E+03  0.50400001928E-02 0. -1.
        1   -1    0    0  501    0  0.00000000000E+00  0.00000000000E+00 -0.12277115873E+04  0.12277115874E+04  0.50400001928E-02 0.  1.
    10030    2    1    2    0    0  0.00000000000E+00  0.00000000000E+00 -0.49556409109E+03  0.19598590836E+04  0.18961708413E+04 0.  0.
        2    1    3    3  502    0  0.23871805295E+03  0.57376452094E+03  0.49227977438E+03  0.79279972916E+03  0.25500000920E-02 0. -1.
       -2    1    3    3    0  502 -0.23871805295E+03 -0.57376452094E+03 -0.98784386546E+03  0.11670593545E+04  0.25500000920E-02 0.  1.
</event>
<event>
 5   0  0.1799738E-04  0.1876226E+04  0.7818609E-02  0.8666782E-01
       -2   -1    0    0    0  501  0.00000000000E+00  0.00000000000E+00  0.36386240035E+03  0.36386240036E+03  0.25500000920E-02 0.  1.
        2   -1    0    0  501    0  0.00000000000E+00  0.00000000000E+00 -0.24186502731E+04  0.24186502731E+04  0.25500000920E-02 0. -1.
    10030    2    1    2    0    0  0.00000000000E+00  0.00000000000E+00 -0.20547878728E+04  0.27825126735E+04  0.18762258862E+04 0.  0.
        1    1    3    3  502    0  0.93009560158E+03 -0.11535419946E+03 -0.96676193336E+03  0.13464817322E+04  0.50400001928E-02 0.  1.
       -1    1    3    3    0  502 -0.93009560158E+03  0.11535419946E+03 -0.10880259394E+04  0.14360309413E+04  0.50400001928E-02 0. -1.
</event>
<event>
 5   0  0.1810569E-04  0.1889860E+04  0.7818609E-02  0.8659920E-01
        2   -1    0    0  501    0  0.00000000000E+00  0.00000000000E+00  0.95270571209E+03  0.95270571210E+03  0.25500000920E-02 0. -1.
       -2   -1    0    0    0  501  0.00000000000E+00  0.00000000000E+00 -0.93721741291E+03  0.93721741292E+03  0.25500000920E-02 0.  1.
    10030    2    1    2    0    0  0.00000000000E+00  0.00000000000E+00  0.15488299178E+02  0.18899231250E+04  0.18898596591E+04 0.  0.
        4    1    3    3  502    0  0.52573443059E+02 -0.55524681534E+03 -0.75505782730E+03  0.93871024727E+03  0.12699999809E+01 0.  1.
       -4    1    3    3    0  502 -0.52573443059E+02  0.55524681534E+03  0.77054612648E+03  0.95121287775E+03  0.12699999809E+01 0. -1.
</event>
<event>
 5   0  0.8905646E-05  0.1912921E+04  0.7818609E-02  0.8648451E-01
        1   -1    0    0  501    0  0.00000000000E+00  0.00000000000E+00  0.15873882462E+04  0.15873882462E+04  0.50400001928E-02 0.  1.
       -1   -1    0    0    0  501  0.00000000000E+00  0.00000000000E+00 -0.57630296540E+03  0.57630296542E+03  0.50400001928E-02 0. -1.
    10030    2    1    2    0    0  0.00000000000E+00  0.00000000000E+00  0.10110852808E+04  0.21636912116E+04  0.19129208594E+04 0.  0.
        1    1    3    3  502    0  0.80997109143E+03 -0.22032400208E+03  0.10241468484E+04  0.13241875252E+04  0.50400001928E-02 0.  1.
       -1    1    3    3    0  502 -0.80997109143E+03  0.22032400208E+03 -0.13061567652E+02  0.83950368636E+03  0.50400001928E-02 0. -1.
</event>
<event>
 5   0  0.8602017E-05  0.1923903E+04  0.7818609E-02  0.8643049E-01
       -1   -1    0    0    0  501  0.00000000000E+00  0.00000000000E+00  0.13235653586E+04  0.13235653586E+04  0.50400001928E-02 0.  1.
        1   -1    0    0  501    0  0.00000000000E+00  0.00000000000E+00 -0.69913481484E+03  0.69913481486E+03  0.50400001928E-02 0. -1.
    10030    2    1    2    0    0  0.00000000000E+00  0.00000000000E+00  0.62443054372E+03  0.20227001734E+04  0.19239029309E+04 0.  0.
        2    1    3    3  502    0  0.44385925044E+03 -0.51865173517E+03 -0.40033493760E+03  0.79137773463E+03  0.25500000920E-02 0. -1.
       -2    1    3    3    0  502 -0.44385925044E+03  0.51865173517E+03  0.10247654813E+04  0.12313224388E+04  0.25500000920E-02 0.  1.
</event>
<event>
 5   0  0.8587082E-05  0.1826572E+04  0.7818609E-02  0.8692295E-01
        1   -1    0    0  501    0  0.00000000000E+00  0.00000000000E+00  0.84523764457E+03  0.84523764459E+03  0.50400001928E-02 0. -1.
       -1   -1    0    0    0  501  0.00000000000E+00  0.00000000000E+00 -0.98681237933E+03  0.98681237934E+03  0.50400001928E-02 0.  1.
    10030    2    1    2    0    0  0.00000000000E+00  0.00000000000E+00 -0.14157473476E+03  0.18320500239E+04  0.18265716205E+04 0.  0.
        5    1    3    3  502    0  0.75378063626E+03  0.81342977576E+02  0.43992244777E+03  0.87655905543E+03  0.46999998093E+01 0. -1.
       -5    1    3    3    0  502 -0.75378063626E+03 -0.81342977576E+02 -0.58149718252E+03  0.95549096850E+03  0.46999998093E+01 0.  1.
</event>
<event>
 5   0  0.6375750E-05  0.1882914E+04  0.7818609E-02  0.8663408E-01
        3   -1    0    0  501    0  0.00000000000E+00  0.00000000000E+00  0.10251120907E+04  0.10251120957E+04  0.10100000352E+00 0.  1.
       -3   -1    0    0    0  501  0.00000000000E+00  0.00000000000E+00 -0.86462888937E+03  0.86462889527E+03  0.10100000352E+00 0. -1.
    10030    2    1    2    0    0  0.00000000000E+00  0.00000000000E+00  0.16048320137E+03  0.18897409910E+04  0.18829142718E+04 0.  0.
        1    1    3    3  502    0 -0.64428431702E+03  0.53784246758E+03  0.50836144043E+03  0.98122788139E+03  0.50400001928E-02 0.  1.
       -1    1    3    3    0  502  0.64428431702E+03 -0.53784246758E+03 -0.34787823905E+03  0.90851310960E+03  0.50400001928E-02 0. -1.
</event>
<event>
 5   0  0.8681396E-05  0.1891151E+04  0.7818609E-02  0.8659274E-01
        1   -1    0    0  501    0  0.00000000000E+00  0.00000000000E+00  0.17260064657E+04  0.17260064657E+04  0.50400001928E-02 0. -1.
       -1   -1    0    0    0  501  0.00000000000E+00  0.00000000000E+00 -0.51802418228E+03  0.51802418230E+03  0.50400001928E-02 0.  1.
    10030    2    1    2    0    0  0.00000000000E+00  0.00000000000E+00  0.12079822834E+04  0.22440306480E+04  0.18911510654E+04 0.  0.
        3    1    3    3  502    0 -0.94048662279E+02 -0.84642647835E+03  0.10915505680E+04  0.13844730358E+04  0.10100000352E+00 0. -1.
       -3    1    3    3    0  502  0.94048662279E+02  0.84642647835E+03  0.11643171540E+03  0.85955761220E+03  0.10100000352E+00 0.  1.
</event>
<event>
 5   0  0.1810569E-04  0.1894221E+04  0.7818609E-02  0.8657738E-01
        2   -1    0    0  501    0  0.00000000000E+00  0.00000000000E+00  0.89647162030E+03  0.89647162030E+03  0.25500000920E-02 0. -1.
       -2   -1    0    0    0  501  0.00000000000E+00  0.00000000000E+00 -0.10006095977E+04  0.10006095977E+04  0.25500000920E-02 0.  1.
    10030    2    1    2    0    0  0.00000000000E+00  0.00000000000E+00 -0.10413797742E+03  0.18970812180E+04  0.18942207974E+04 0.  0.
        4    1    3    3  502    0  0.46880976549E+03 -0.36605352850E+02  0.77130018268E+03  0.90334275487E+03  0.12699999809E+01 0. -1.
       -4    1    3    3    0  502 -0.46880976549E+03  0.36605352850E+02 -0.87543816011E+03  0.99373846315E+03  0.12699999809E+01 0.  1.
</event>
<event>
 5   0  0.8905646E-05  0.1920213E+04  0.7818609E-02  0.8644860E-01
        1   -1    0    0  501    0  0.00000000000E+00  0.00000000000E+00  0.10916526821E+04  0.10916526822E+04  0.50400001928E-02 0. -1.
       -1   -1    0    0    0  501  0.00000000000E+00  0.00000000000E+00 -0.84441154101E+03  0.84441154102E+03  0.50400001928E-02 0.  1.
    10030    2    1    2    0    0  0.00000000000E+00  0.00000000000E+00  0.24724114114E+03  0.19360642232E+04  0.19202126170E+04 0.  0.
        1    1    3    3  502    0 -0.15350294277E+03 -0.52084389990E+03  0.92196676384E+03  0.10699832873E+04  0.50400001928E-02 0. -1.
       -1    1    3    3    0  502  0.15350294277E+03  0.52084389990E+03 -0.67472562270E+03  0.86608093586E+03  0.50400001928E-02 0.  1.
</event>
<event>
 5   0  0.1790832E-04  0.1903846E+04  0.7818609E-02  0.8652945E-01
       -2   -1    0    0    0  501  0.00000000000E+00  0.00000000000E+00  0.64635853171E+03  0.64635853172E+03  0.25500000920E-02 0.  1.
        2   -1    0    0  501    0  0.00000000000E+00  0.00000000000E+00 -0.14019418283E+04  0.14019418283E+04  0.25500000920E-02 0. -1.
    10030    2    1    2    0    0  0.00000000000E+00  0.00000000000E+00 -0.75558329663E+03  0.20483003601E+04  0.19038456468E+04 0.  0.
        5    1    3    3  502    0  0.65432333830E+03  0.22561852675E+03  0.32531748067E+03  0.76478513576E+03  0.46999998093E+01 0. -1.
       -5    1    3    3    0  502 -0.65432333830E+03 -0.22561852675E+03 -0.10809007773E+04  0.12835152243E+04  0.46999998093E+01 0.  1.
</event>
<event>
 5   0  0.1790832E-04  0.1891157E+04  0.7818609E-02  0.8659270E-01
        2   -1    0    0  501    0  0.00000000000E+00  0.00000000000E+00  0.77377375945E+03  0.77377375945E+03  0.25500000920E-02 0.  1.
       -2   -1    0    0    0  501  0.00000000000E+00  0.00000000000E+00 -0.11555303890E+04  0.11555303890E+04  0.25500000920E-02 0. -1.
    10030    2    1    2    0    0  0.00000000000E+00  0.00000000000E+00 -0.38175662957E+03  0.19293041485E+04  0.18911574163E+04 0.  0.
        5    1    3    3  502    0 -0.72359131031E+03 -0.24871619504E+03 -0.75765004492E+03  0.10768007293E+04  0.46999998093E+01 0. -1.
       -5    1    3    3    0  502  0.72359131031E+03  0.24871619504E+03  0.37589341535E+03  0.85250341919E+03  0.46999998093E+01 0.  1.
</event>
<event>
 5   0  0.1790832E-04  0.1839318E+04  0.7818609E-02  0.8685666E-01
        2   -1    0    0  501    0  0.00000000000E+00  0.00000000000E+00  0.13615154105E+04  0.13615154105E+04  0.25500000920E-02 0.  1.
       -2   -1    0    0    0  501  0.00000000000E+00  0.00000000000E+00 -0.62119916487E+03  0.62119916487E+03  0.25500000920E-02 0. -1.
    10030    2    1    2    0    0  0.00000000000E+00  0.00000000000E+00  0.74031624562E+03  0.19827145754E+04  0.18393175212E+04 0.  0.
        5    1    3    3  502    0 -0.52983643168E+03 -0.36994486280E+03  0.10755146962E+04  0.12547269813E+04  0.46999998093E+01 0.  1.
       -5    1    3    3    0  502  0.52983643168E+03  0.36994486280E+03 -0.33519845058E+03  0.72798759407E+03  0.46999998093E+01 0. -1.
</event>
<event>
 5   0  0.1658711E-04  0.1905657E+04  0.7818609E-02  0.8652046E-01
        2   -1    0    0  501    0  0.00000000000E+00  0.00000000000E+00  0.65234062330E+03  0.65234062331E+03  0.25500000920E-02 0. -1.
       -2   -1    0    0    0  501  0.00000000000E+00  0.00000000000E+00 -0.13917297694E+04  0.13917297694E+04  0.25500000920E-02 0.  1.
    10030    2    1    2    0    0  0.00000000000E+00  0.00000000000E+00 -0.73938914605E+03  0.20440703927E+04  0.19056567007E+04 0.  0.
        2    1    3    3  502    0 -0.12554447532E+03  0.23770983897E+03 -0.13502093894E+04  0.13767108550E+04  0.25500000920E-02 0.  1.
       -2    1    3    3    0  502  0.12554447532E+03 -0.23770983897E+03  0.61082024339E+03  0.66735953770E+03  0.25500000920E-02 0. -1.
</event>
<event>
 5   0  0.8567844E-05  0.1867024E+04  0.7818609E-02  0.8671447E-01
        1   -1    0    0  501    0  0.00000000000E+00  0.00000000000E+00  0.71709722124E+03  0.71709722126E+03  0.50400001928E-02 0.  1.
       -1   -1    0    0    0  501  0.00000000000E+00  0.00000000000E+00 -0.12152393400E+04  0.12152393400E+04  0.50400001928E-02 0. -1.
    10030    2    1    2    0    0  0.00000000000E+00  0.00000000000E+00 -0.49814211876E+03  0.19323365613E+04  0.18670241069E+04 0.  0.
        4    1    3    3  502    0  0.18256626402E+03  0.38180244942E+03  0.61210595346E+03  0.74416319601E+03  0.12699999809E+01 0.  1.
       -4    1    3    3    0  502 -0.18256626402E+03 -0.38180244942E+03 -0.11102480722E+04  0.11881733653E+04  0.12699999809E+01 0. -1.
</event>
<event>
 5   0  0.1799738E-04  0.1900073E+04  0.7818609E-02  0.8654820E-01
       -2   -1    0    0    0  501  0.00000000000E+00  0.00000000000E+00  0.91958405523E+03  0.91958405523E+03  0.25500000920E-02 0. -1.
        2   -1    0    0  501    0  0.00000000000E+00  0.00000000000E+00 -0.98149751412E+03  0.98149751413E+03  0.25500000920E-02 0.  1.
    10030    2    1    2    0    0  0.00000000000E+00  0.00000000000E+00 -0.61913458895E+02  0.19010815694E+04  0.19000731188E+04 0.  0.
        1    1    3    3  502    0 -0.41655142578E+03 -0.62853787365E+03  0.54727258481E+03  0.93170930609E+03  0.50400001928E-02 0. -1.
       -1    1    3    3    0  502  0.41655142578E+03  0.62853787365E+03 -0.60918604371E+03  0.96937226328E+03  0.50400001928E-02 0.  1.
</event>
<event>
 5   0  0.1790832E-04  0.1865531E+04  0.7818609E-02  0.8672207E-01
       -2   -1    0    0    0  501  0.00000000000E+00  0.00000000000E+00  0.51391625065E+03  0.51391625065E+03  0.25500000920E-02 0. -1.
        2   -1    0    0  501    0  0.00000000000E+00  0.00000000000E+00 -0.16929829614E+04  0.16929829614E+04  0.25500000920E-02 0.  1.
    10030    2    1    2    0    0  0.00000000000E+00  0.00000000000E+00 -0.11790667108E+04  0.22068992121E+04  0.18655309764E+04 0.  0.
        5    1    3    3  502    0 -0.92965550416E+03 -0.18764286322E+02 -0.67660885453E+03  0.11499709070E+04  0.46999998093E+01 0. -1.
       -5    1    3    3    0  502  0.92965550416E+03  0.18764286322E+02 -0.50245785627E+03  0.10569283051E+04  0.46999998093E+01 0.  1.
</event>
<event>
 5   0  0.1810569E-04  0.1895145E+04  0.7818609E-02  0.8657277E-01
        2   -1    0    0  501    0  0.00000000000E+00  0.00000000000E+00  0.66993725628E+03  0.66993725628E+03  0.25500000920E-02 0.  1.
       -2   -1    0    0    0  501  0.00000000000E+00  0.00000000000E+00 -0.13402646871E+04  0.13402646871E+04  0.25500000920E-02 0. -1.
    10030    2    1    2    0    0  0.00000000000E+00  0.00000000000E+00 -0.67032743085E+03  0.20102019434E+04  0.18951445825E+04 0.  0.
        4    1    3    3  502    0 -0.24078512436E+03  0.86514722688E+03 -0.14424375872E+02  0.89814635545E+03  0.12699999809E+01 0.  1.
       -4    1    3    3    0  502  0.24078512436E+03 -0.86514722688E+03 -0.65590305498E+03  0.11120555880E+04  0.12699999809E+01 0. -1.
</event>
<event>
 5   0  0.1765328E-04  0.1879102E+04  0.7818609E-02  0.8665329E-01
        2   -1    0    0  501    0  0.00000000000E+00  0.00000000000E+00  0.14852660899E+04  0.14852660899E+04  0.25500000920E-02 0.  1.
       -2   -1    0    0    0  501  0.00000000000E+00  0.00000000000E+00 -0.59434196466E+03  0.59434196467E+03  0.25500000920E-02 0. -1.
    10030    2    1    2    0    0  0.00000000000E+00  0.00000000000E+00  0.89092412526E+03  0.20796080546E+04  0.18791018769E+04 0.  0.
        3    1    3    3  502    0  0.20380742523E+03 -0.25100287363E+03 -0.53083336490E+03  0.62154966064E+03  0.10100000352E+00 0. -1.
       -3    1    3    3    0  502 -0.20380742523E+03  0.25100287363E+03  0.14217574902E+04  0.14580583940E+04  0.10100000352E+00 0.  1.
</event>
<event>
 5   0  0.1790832E-04  0.1896465E+04  0.7818609E-02  0.8656618E-01
       -2   -1    0    0    0  501  0.00000000000E+00  0.00000000000E+00  0.87080129660E+03  0.87080129660E+03  0.25500000920E-02 0. -1.
        2   -1    0    0  501    0  0.00000000000E+00  0.00000000000E+00 -0.10325483079E+04  0.10325483079E+04  0.25500000920E-02 0.  1.
    10030    2    1    2    0    0  0.00000000000E+00  0.00000000000E+00 -0.16174701133E+03  0.19033496045E+04  0.18964645057E+04 0.  0.
        5    1    3    3  502    0  0.59345152045E+03 -0.54013584264E+03 -0.58787171083E+03  0.99475960615E+03  0.46999998093E+01 0.  1.
       -5    1    3    3    0  502 -0.59345152045E+03  0.54013584264E+03  0.42612469950E+03  0.90858999838E+03  0.46999998093E+01 0. -1.
</event>
<event>
 5   0  0.8567844E-05  0.1899844E+04  0.7818609E-02  0.8654934E-01
       -1   -1    0    0    0  501  0.00000000000E+00  0.00000000000E+00  0.54374164772E+03  0.54374164774E+03  0.50400001928E-02 0.  1.
        1   -1    0    0  501    0  0.00000000000E+00  0.00000000000E+00 -0.16595227369E+04  0.16595227369E+04  0.50400001928E-02 0. -1.
    10030    2    1    2    0    0  0.00000000000E+00  0.00000000000E+00 -0.11157810892E+04  0.22032643846E+04  0.18998438119E+04 0.  0.
        4    1    3    3  502    0  0.94929283902E+03  0.17922246711E+02 -0.59213461545E+03  0.11189741359E+04  0.12699999809E+01 0.  1.
       -4    1    3    3    0  502 -0.94929283902E+03 -0.17922246711E+02 -0.52364647374E+03  0.10842902487E+04  0.12699999809E+01 0. -1.
</event>
<event>
 5   0  0.8681396E-05  0.1904839E+04  0.7818609E-02  0.8652452E-01
       -1   -1    0    0    0  501  0.00000000000E+00  0.00000000000E+00  0.88116781703E+03  0.88116781704E+03  0.50400001928E-02 0. -1.
        1   -1    0    0  501    0  0.00000000000E+00  0.00000000000E+00 -0.10294323855E+04  0.10294323856E+04  0.50400001928E-02 0.  1.
    10030    2    1    2    0    0  0.00000000000E+00  0.00000000000E+00 -0.14826456851E+03  0.19106002026E+04  0.19048387732E+04 0.  0.
        3    1    3    3  502    0  0.34013218098E+03  0.87917777578E+03 -0.21040792116E+03  0.96587523286E+03  0.10100000352E+00 0.  1.
       -3    1    3    3    0  502 -0.34013218098E+03 -0.87917777578E+03  0.62143352645E+02  0.94472496973E+03  0.10100000352E+00 0. -1.
</event>
<event>
 5   0  0.8587082E-05  0.1912465E+04  0.7818609E-02  0.8648677E-01
       -1   -1    0    0    0  501  0.00000000000E+00  0.00000000000E+00  0.94175150995E+03  0.94175150996E+03  0.50400001928E-02 0. -1.
        1   -1    0    0  501    0  0.00000000000E+00  0.00000000000E+00 -0.97093591927E+03  0.97093591928E+03  0.50400001928E-02 0.  1.
    10030    2    1    2    0    0  0.00000000000E+00  0.00000000000E+00 -0.29184409321E+02  0.19126874292E+04  0.19124647637E+04 0.  0.
        5    1    3    3  502    0 -0.34602548846E+03 -0.81041751612E+03 -0.38591442287E+03  0.96200947027E+03  0.46999998093E+01 0.  1.
       -5    1    3    3    0  502  0.34602548846E+03  0.81041751612E+03  0.35673001355E+03  0.95067795897E+03  0.46999998093E+01 0. -1.
</event>
<event>
 5   0  0.1799738E-04  0.1904309E+04  0.7818609E-02  0.8652715E-01
        2   -1    0    0  501    0  0.00000000000E+00  0.00000000000E+00  0.21442265960E+04  0.21442265960E+04  0.25500000920E-02 0. -1.
       -2   -1    0    0    0  501  0.00000000000E+00  0.00000000000E+00 -0.42280890515E+03  0.42280890516E+03  0.25500000920E-02 0.  1.
    10030    2    1    2    0    0  0.00000000000E+00  0.00000000000E+00  0.17214176909E+04  0.25670355012E+04  0.19043089030E+04 0.  0.
        1    1    3    3  502    0  0.69906305469E+03 -0.64024031448E+03  0.74012910640E+03  0.12026586835E+04  0.50400001928E-02 0.  1.
       -1    1    3    3    0  502 -0.69906305469E+03  0.64024031448E+03  0.98128858447E+03  0.13643768177E+04  0.50400001928E-02 0. -1.
</event>
<event>
 5   0  0.1790832E-04  0.1908048E+04  0.7818609E-02  0.8650861E-01
        2   -1    0    0  501    0  0.00000000000E+00  0.00000000000E+00  0.18670677218E+04  0.18670677218E+04  0.25500000920E-02 0. -1.
       -2   -1    0    0    0  501  0.00000000000E+00  0.00000000000E+00 -0.48748211505E+03  0.48748211505E+03  0.25500000920E-02 0.  1.
    10030    2    1    2    0    0  0.00000000000E+00  0.00000000000E+00  0.13795856067E+04  0.23545498368E+04  0.19080483452E+04 0.  0.
        5    1    3    3  502    0 -0.90937348877E+03  0.27210738412E+03  0.57183374693E+03  0.11081599590E+04  0.46999998093E+01 0.  1.
       -5    1    3    3    0  502  0.90937348877E+03 -0.27210738412E+03  0.80775185979E+03  0.12463898778E+04  0.46999998093E+01 0. -1.
</event>
<event>
 5   0  0.8587082E-05  0.1903255E+04  0.7818609E-02  0.8653238E-01
       -1   -1    0    0    0  501  0.00000000000E+00  0.00000000000E+00  0.72988097082E+03  0.72988097083E+03  0.50400001928E-02 0.  1.
        1   -1    0    0  501    0  0.00000000000E+00  0.00000000000E+00 -0.12407428115E+04  0.12407428115E+04  0.50400001928E-02 0. -1.
    10030    2    1    2    0    0  0.00000000000E+00  0.00000000000E+00 -0.51086184064E+03  0.19706237823E+04  0.19032546522E+04 0.  0.
        5    1    3    3  502    0 -0.16034652531E+03  0.34345307095E+03  0.64833554362E+03  0.75102069695E+03  0.46999998093E+01 0.  1.
       -5    1    3    3    0  502  0.16034652531E+03 -0.34345307095E+03 -0.11591973843E+04  0.12196030853E+04  0.46999998093E+01 0. -1.
</event>
<event>
 5   0  0.8905646E-05  0.1894866E+04  0.7818609E-02  0.8657416E-01
       -1   -1    0    0    0  501  0.00000000000E+00  0.00000000000E+00  0.84867190729E+03  0.84867190731E+03  0.50400001928E-02 0.  1.
        1   -1    0    0  501    0  0.00000000000E+00  0.00000000000E+00 -0.10576869893E+04  0.10576869893E+04  0.50400001928E-02 0. -1.
    10030    2    1    2    0    0  0.00000000000E+00  0.00000000000E+00 -0.20901508199E+03  0.19063588966E+04  0.18948659420E+04 0.  0.
        1    1    3    3  502    0  0.76965371026E+03 -0.50288905211E+03  0.12571441432E+03  0.92793768457E+03  0.50400001928E-02 0.  1.
       -1    1    3    3    0  502 -0.76965371026E+03  0.50288905211E+03 -0.33472949632E+03  0.97842121204E+03  0.50400001928E-02 0. -1.
</event>
<event>
 5   0  0.1658711E-04  0.1900431E+04  0.7818609E-02  0.8654642E-01
        2   -1    0    0  501    0  0.00000000000E+00  0.00000000000E+00  0.12569066950E+04  0.12569066950E+04  0.25500000920E-02 0. -1.
       -2   -1    0    0    0  501  0.00000000000E+00  0.00000000000E+00 -0.71835844283E+03  0.71835844283E+03  0.25500000920E-02 0.  1.
    10030    2    1    2    0    0  0.00000000000E+00  0.00000000000E+00  0.53854825213E+03  0.19752651378E+04  0.19004310418E+04 0.  0.
        2    1    3    3  502    0  0.40846921515E+02  0.46129877614E+03 -0.59312389618E+03  0.75250314823E+03  0.25500000920E-02 0.  1.
       -2    1    3    3    0  502 -0.40846921515E+02 -0.46129877614E+03  0.11316721483E+04  0.12227619896E+04  0.25500000920E-02 0. -1.
</event>
<event>
 5   0  0.8905646E-05  0.1898350E+04  0.7818609E-02  0.8655678E-01
       -1   -1    0    0    0  501  0.00000000000E+00  0.00000000000E+00  0.65250495848E+03  0.65250495850E+03  0.50400001928E-02 0. -1.
        1   -1    0    0  501    0  0.00000000000E+00  0.00000000000E+00 -0.13807306720E+04  0.13807306720E+04  0.50400001928E-02 0.  1.
    10030    2    1    2    0    0  0.00000000000E+00  0.00000000000E+00 -0.72822571347E+03  0.20332356305E+04  0.18983504522E+04 0.  0.
        1    1    3    3  502    0 -0.78978436457E+02 -0.14252822734E+03  0.63741228626E+03  0.65791056513E+03  0.50400001928E-02 0. -1.
       -1    1    3    3    0  502  0.78978436457E+02  0.14252822734E+03 -0.13656379997E+04  0.13753250653E+04  0.50400001928E-02 0.  1.
</event>
<event>
 5   0  0.1810569E-04  0.1796862E+04  0.7818609E-02  0.8707970E-01
        2   -1    0    0  501    0  0.00000000000E+00  0.00000000000E+00  0.22258111578E+04  0.22258111578E+04  0.25500000920E-02 0.  1.
       -2   -1    0    0    0  501  0.00000000000E+00  0.00000000000E+00 -0.36264445416E+03  0.36264445417E+03  0.25500000920E-02 0. -1.
    10030    2    1    2    0    0  0.00000000000E+00  0.00000000000E+00  0.18631667037E+04  0.25884556120E+04  0.17968617892E+04 0.  0.
        4    1    3    3  502    0 -0.74943508025E+03  0.23879965898E+03  0.15570147810E+04  0.17444124678E+04  0.12699999809E+01 0.  1.
       -4    1    3    3    0  502  0.74943508025E+03 -0.23879965898E+03  0.30615192268E+03  0.84404314422E+03  0.12699999809E+01 0. -1.
</event>
<event>
 5   0  0.1799738E-04  0.1904551E+04  0.7818609E-02  0.8652595E-01
       -2   -1    0    0    0  501  0.00000000000E+00  0.00000000000E+00  0.10735757407E+04  0.10735757407E+04  0.25500000920E-02 0. -1.
        2   -1    0    0  501    0  0.00000000000E+00  0.00000000000E+00 -0.84468030768E+03  0.84468030768E+03  0.25500000920E-02 0.  1.
    10030    2    1    2    0    0  0.00000000000E+00  0.00000000000E+00  0.22889543297E+03  0.19182560483E+04  0.19045506419E+04 0.  0.
        1    1    3    3  502    0 -0.58238279721E+03 -0.66327307435E+03  0.47440923535E+03  0.10020803442E+04  0.50400001928E-02 0. -1.
       -1    1    3    3    0  502  0.58238279721E+03  0.66327307435E+03 -0.24551380237E+03  0.91617570413E+03  0.50400001928E-02 0.  1.
</event>
<event>
 5   0  0.6375750E-05  0.1848889E+04  0.7818609E-02  0.8680724E-01
       -4   -1    0    0    0  501  0.00000000000E+00  0.00000000000E+00  0.56548503400E+03  0.56548646012E+03  0.12699999809E+01 0. -1.
        4   -1    0    0  501    0  0.00000000000E+00  0.00000000000E+00 -0.15112619093E+04  0.15112624429E+04  0.12699999809E+01 0.  1.
    10030    2    1    2    0    0  0.00000000000E+00  0.00000000000E+00 -0.94577687527E+03  0.20767489030E+04  0.18488894257E+04 0.  0.
        4    1    3    3  502    0 -0.67941052900E+03 -0.78820473313E+02 -0.11714551833E+04  0.13565102998E+04  0.12699999809E+01 0.  1.
       -4    1    3    3    0  502  0.67941052900E+03  0.78820473313E+02  0.22567830808E+03  0.72023860322E+03  0.12699999809E+01 0. -1.
</event>
<event>
 5   0  0.8905646E-05  0.1905565E+04  0.7818609E-02  0.8652091E-01
        1   -1    0    0  501    0  0.00000000000E+00  0.00000000000E+00  0.97811443263E+03  0.97811443265E+03  0.50400001928E-02 0. -1.
       -1   -1    0    0    0  501  0.00000000000E+00  0.00000000000E+00 -0.92810653001E+03  0.92810653003E+03  0.50400001928E-02 0.  1.
    10030    2    1    2    0    0  0.00000000000E+00  0.00000000000E+00  0.50007902621E+02  0.19062209627E+04  0.19055648948E+04 0.  0.
        1    1    3    3  502    0 -0.39161906810E+03  0.37900357425E+03 -0.75679259237E+03  0.93260078902E+03  0.50400001928E-02 0.  1.
       -1    1    3    3    0  502  0.39161906810E+03 -0.37900357425E+03  0.80680049499E+03  0.97362017365E+03  0.50400001928E-02 0. -1.
</event>
<event>
 5   0  0.6375750E-05  0.1912641E+04  0.7818609E-02  0.8648590E-01
       -3   -1    0    0    0  501  0.00000000000E+00  0.00000000000E+00  0.11805059881E+04  0.11805059924E+04  0.10100000352E+00 0.  1.
        3   -1    0    0  501    0  0.00000000000E+00  0.00000000000E+00 -0.77470904576E+03  0.77470905234E+03  0.10100000352E+00 0. -1.
    10030    2    1    2    0    0  0.00000000000E+00  0.00000000000E+00  0.40579694234E+03  0.19552150448E+04  0.19126407694E+04 0.  0.
        4    1    3    3  502    0 -0.10309083863E+03 -0.15036530061E+03 -0.75677917085E+03  0.77843032506E+03  0.12699999809E+01 0. -1.
       -4    1    3    3    0  502  0.10309083863E+03  0.15036530061E+03  0.11625761132E+04  0.11767847197E+04  0.12699999809E+01 0.  1.
</event>
<event>
 5   0  0.1810569E-04  0.2015768E+04  0.7818609E-02  0.8599284E-01
        2   -1    0    0  501    0  0.00000000000E+00  0.00000000000E+00  0.15526566096E+04  0.15526566096E+04  0.25500000920E-02 0.  1.
       -2   -1    0    0    0  501  0.00000000000E+00  0.00000000000E+00 -0.65425289708E+03  0.65425289708E+03  0.25500000920E-02 0. -1.
    10030    2    1    2    0    0  0.00000000000E+00  0.00000000000E+00  0.89840371254E+03  0.22069095067E+04  0.20157679281E+04 0.  0.
        4    1    3    3  502    0  0.21655813106E+03 -0.11495711160E+03  0.15195089466E+04  0.15391626338E+04  0.12699999809E+01 0.  1.
       -4    1    3    3    0  502 -0.21655813106E+03  0.11495711160E+03 -0.62110523404E+03  0.66774687291E+03  0.12699999809E+01 0. -1.
</event>
<event>
 5   0  0.8567844E-05  0.1867616E+04  0.7818609E-02  0.8671146E-01
       -1   -1    0    0    0  501  0.00000000000E+00  0.00000000000E+00  0.74791303526E+03  0.74791303527E+03  0.50400001928E-02 0.  1.
        1   -1    0    0  501    0  0.00000000000E+00  0.00000000000E+00 -0.11659069304E+04  0.11659069304E+04  0.50400001928E-02 0. -1.
    10030    2    1    2    0    0  0.00000000000E+00  0.00000000000E+00 -0.41799389515E+03  0.19138199657E+04  0.18676155827E+04 0.  0.
        4    1    3    3  502    0  0.50415852902E+03 -0.17862003493E+03  0.57539060361E+03  0.78559334194E+03  0.12699999809E+01 0.  1.
       -4    1    3    3    0  502 -0.50415852902E+03  0.17862003493E+03 -0.99338449876E+03  0.11282266238E+04  0.12699999809E+01 0. -1.
</event>
<event>
 5   0  0.1810569E-04  0.1872495E+04  0.7818609E-02  0.8668670E-01
       -2   -1    0    0    0  501  0.00000000000E+00  0.00000000000E+00  0.28024111088E+03  0.28024111089E+03  0.25500000920E-02 0. -1.
        2   -1    0    0  501    0  0.00000000000E+00  0.00000000000E+00 -0.31278758300E+04  0.31278758300E+04  0.25500000920E-02 0.  1.
    10030    2    1    2    0    0  0.00000000000E+00  0.00000000000E+00 -0.28476347191E+04  0.34081169409E+04  0.18724950171E+04 0.  0.
        4    1    3    3  502    0  0.77960093409E+03  0.44906902691E+03 -0.95228591626E+03  0.13100727791E+04  0.12699999809E+01 0. -1.
       -4    1    3    3    0  502 -0.77960093409E+03 -0.44906902691E+03 -0.18953488029E+04  0.20980441618E+04  0.12699999809E+01 0.  1.
</event>
<event>
 5   0  0.8602017E-05  0.1886655E+04  0.7818609E-02  0.8661528E-01
       -1   -1    0    0    0  501  0.00000000000E+00  0.00000000000E+00  0.78494644270E+03  0.78494644271E+03  0.50400001928E-02 0. -1.
        1   -1    0    0  501    0  0.00000000000E+00  0.00000000000E+00 -0.11336653260E+04  0.11336653260E+04  0.50400001928E-02 0.  1.
    10030    2    1    2    0    0  0.00000000000E+00  0.00000000000E+00 -0.34871888332E+03  0.19186117687E+04  0.18866547802E+04 0.  0.
        2    1    3    3  502    0 -0.68834861630E+02 -0.61283004010E+03  0.55157198192E+03  0.82736361261E+03  0.25500000920E-02 0. -1.
       -2    1    3    3    0  502  0.68834861630E+02  0.61283004010E+03 -0.90029086525E+03  0.10912481561E+04  0.25500000920E-02 0.  1.
</event>
<event>
 5   0  0.1799738E-04  0.1884139E+04  0.7818609E-02  0.8662792E-01
       -2   -1    0    0    0  501  0.00000000000E+00  0.00000000000E+00  0.12184204691E+04  0.12184204691E+04  0.25500000920E-02 0.  1.
        2   -1    0    0  501    0  0.00000000000E+00  0.00000000000E+00 -0.72839806052E+03  0.72839806053E+03  0.25500000920E-02 0. -1.
    10030    2    1    2    0    0  0.00000000000E+00  0.00000000000E+00  0.49002240861E+03  0.19468185297E+04  0.18841391739E+04 0.  0.
        1    1    3    3  502    0 -0.67892985188E+03  0.33229231643E+03  0.82597110538E+03  0.11196393144E+04  0.50400001928E-02 0.  1.
       -1    1    3    3    0  502  0.67892985188E+03 -0.33229231643E+03 -0.33594869677E+03  0.82717921530E+03  0.50400001928E-02 0. -1.
</event>
<event>
 5   0  0.8681396E-05  0.1977876E+04  0.7818609E-02  0.8617035E-01
       -1   -1    0    0    0  501  0.00000000000E+00  0.00000000000E+00  0.63533289930E+03  0.63533289932E+03  0.50400001928E-02 0.  1.
        1   -1    0    0  501    0  0.00000000000E+00  0.00000000000E+00 -0.15393483731E+04  0.15393483731E+04  0.50400001928E-02 0. -1.
    10030    2    1    2    0    0  0.00000000000E+00  0.00000000000E+00 -0.90401547382E+03  0.21746812725E+04  0.19778763004E+04 0.  0.
        3    1    3    3  502    0  0.74845141932E+02  0.31517562720E+03  0.57534321526E+03  0.66027062391E+03  0.10100000352E+00 0.  1.
       -3    1    3    3    0  502 -0.74845141932E+02 -0.31517562720E+03 -0.14793586891E+04  0.15144106485E+04  0.10100000352E+00 0. -1.
</event>
<event>
 5   0  0.8905646E-05  0.1894753E+04  0.7818609E-02  0.8657473E-01
       -1   -1    0    0    0  501  0.00000000000E+00  0.00000000000E+00  0.92589736482E+03  0.92589736483E+03  0.50400001928E-02 0. -1.
        1   -1    0    0  501    0  0.00000000000E+00  0.00000000000E+00 -0.96935369889E+03  0.96935369890E+03  0.50400001928E-02 0.  1.
    10030    2    1    2    0    0  0.00000000000E+00  0.00000000000E+00 -0.43456334067E+02  0.18952510637E+04  0.18947527917E+04 0.  0.
        1    1    3    3  502    0  0.26937494294E+03 -0.84184451202E+03 -0.36278262956E+03  0.95544559167E+03  0.50400001928E-02 0.  1.
       -1    1    3    3    0  502 -0.26937494294E+03  0.84184451202E+03  0.31932629549E+03  0.93980547206E+03  0.50400001928E-02 0. -1.
</event>
<event>
 5   0  0.8681396E-05  0.1900738E+04  0.7818609E-02  0.8654489E-01
       -1   -1    0    0    0  501  0.00000000000E+00  0.00000000000E+00  0.11924880157E+04  0.11924880157E+04  0.50400001928E-02 0.  1.
        1   -1    0    0  501    0  0.00000000000E+00  0.00000000000E+00 -0.75740876487E+03  0.75740876488E+03  0.50400001928E-02 0. -1.
    10030    2    1    2    0    0  0.00000000000E+00  0.00000000000E+00  0.43507925081E+03  0.19498967806E+04  0.19007376201E+04 0.  0.
        3    1    3    3  502    0  0.44227569767E+03 -0.46380661871E+03  0.93745625281E+03  0.11355829377E+04  0.10100000352E+00 0.  1.
       -3    1    3    3    0  502 -0.44227569767E+03  0.46380661871E+03 -0.50237700200E+03  0.81431384285E+03  0.10100000352E+00 0. -1.
</event>
<event>
 5   0  0.1765328E-04  0.1907876E+04  0.7818609E-02  0.8650946E-01
       -2   -1    0    0    0  501  0.00000000000E+00  0.00000000000E+00  0.10330317160E+04  0.10330317160E+04  0.25500000920E-02 0.  1.
        2   -1    0    0  501    0  0.00000000000E+00  0.00000000000E+00 -0.88089960708E+03  0.88089960709E+03  0.25500000920E-02 0. -1.
    10030    2    1    2    0    0  0.00000000000E+00  0.00000000000E+00  0.15213210890E+03  0.19139313231E+04  0.19078755019E+04 0.  0.
        3    1    3    3  502    0  0.62825414992E+03 -0.71807526149E+02 -0.64044021771E+03  0.90001293345E+03  0.10100000352E+00 0. -1.
       -3    1    3    3    0  502 -0.62825414992E+03  0.71807526149E+02  0.79257232661E+03  0.10139183896E+04  0.10100000352E+00 0.  1.
</event>
<event>
 5   0  0.1658711E-04  0.1895761E+04  0.7818609E-02  0.8656969E-01
       -2   -1    0    0    0  501  0.00000000000E+00  0.00000000000E+00  0.58716189703E+03  0.58716189704E+03  0.25500000920E-02 0.  1.
        2   -1    0    0  501    0  0.00000000000E+00  0.00000000000E+00 -0.15302044720E+04  0.15302044720E+04  0.25500000920E-02 0. -1.
    10030    2    1    2    0    0  0.00000000000E+00  0.00000000000E+00 -0.94304257492E+03  0.21173663690E+04  0.18957613358E+04 0.  0.
        2    1    3    3  502    0  0.44893682526E+03  0.81765301778E+03 -0.65966764681E+03  0.11424806934E+04  0.25500000920E-02 0.  1.
       -2    1    3    3    0  502 -0.44893682526E+03 -0.81765301778E+03 -0.28337492811E+03  0.97488567558E+03  0.25500000920E-02 0. -1.
</event>
<event>
 5   0  0.8567844E-05  0.1910356E+04  0.7818609E-02  0.8649719E-01
       -1   -1    0    0    0  501  0.00000000000E+00  0.00000000000E+00  0.52935856199E+03  0.52935856201E+03  0.50400001928E-02 0.  1.
        1   -1    0    0  501    0  0.00000000000E+00  0.00000000000E+00 -0.17235294026E+04  0.17235294026E+04  0.50400001928E-02 0. -1.
    10030    2    1    2    0    0  0.00000000000E+00  0.00000000000E+00 -0.11941708406E+04  0.22528879646E+04  0.19103560361E+04 0.  0.
        4    1    3    3  502    0 -0.25519255811E+03  0.52740919570E+03  0.29254953567E+03  0.65488208491E+03  0.12699999809E+01 0.  1.
       -4    1    3    3    0  502  0.25519255811E+03 -0.52740919570E+03 -0.14867203763E+04  0.15980058797E+04  0.12699999809E+01 0. -1.
</event>
<event>
 5   0  0.1810569E-04  0.1900196E+04  0.7818609E-02  0.8654759E-01
        2   -1    0    0  501    0  0.00000000000E+00  0.00000000000E+00  0.17820320456E+04  0.17820320456E+04  0.25500000920E-02 0.  1.
       -2   -1    0    0    0  501  0.00000000000E+00  0.00000000000E+00 -0.50654895638E+03  0.50654895639E+03  0.25500000920E-02 0. -1.
    10030    2    1    2    0    0  0.00000000000E+00  0.00000000000E+00  0.12754830892E+04  0.22885810020E+04  0.19001962772E+04 0.  0.
        4    1    3    3  502    0  0.84234443448E+03 -0.42561478294E+03  0.50584677208E+03  0.10707822652E+04  0.12699999809E+01 0. -1.
       -4    1    3    3    0  502 -0.84234443448E+03  0.42561478294E+03  0.76963631716E+03  0.12177987368E+04  0.12699999809E+01 0.  1.
</event>
<event>
 5   0  0.1790832E-04  0.1885733E+04  0.7818609E-02  0.8661991E-01
       -2   -1    0    0    0  501  0.00000000000E+00  0.00000000000E+00  0.42905543103E+03  0.42905543104E+03  0.25500000920E-02 0.  1.
        2   -1    0    0  501    0  0.00000000000E+00  0.00000000000E+00 -0.20719865601E+04  0.20719865601E+04  0.25500000920E-02 0. -1.
    10030    2    1    2    0    0  0.00000000000E+00  0.00000000000E+00 -0.16429311291E+04  0.25010419911E+04  0.18857328407E+04 0.  0.
        5    1    3    3  502    0 -0.66310885266E+03 -0.49566913167E+03 -0.22305160521E+03  0.85742366841E+03  0.46999998093E+01 0.  1.
       -5    1    3    3    0  502  0.66310885266E+03  0.49566913167E+03 -0.14198795239E+04  0.16436183227E+04  0.46999998093E+01 0. -1.
</event>
<event>
 5   0  0.8567844E-05  0.1896208E+04  0.7818609E-02  0.8656746E-01
       -1   -1    0    0    0  501  0.00000000000E+00  0.00000000000E+00  0.72649496325E+03  0.72649496327E+03  0.50400001928E-02 0.  1.
        1   -1    0    0  501    0  0.00000000000E+00  0.00000000000E+00 -0.12373126197E+04  0.12373126197E+04  0.50400001928E-02 0. -1.
    10030    2    1    2    0    0  0.00000000000E+00  0.00000000000E+00 -0.51081765646E+03  0.19638075830E+04  0.18962082019E+04 0.  0.
        4    1    3    3  502    0 -0.77883407608E+03  0.52958352689E+03 -0.36818791773E+03  0.10112394304E+04  0.12699999809E+01 0. -1.
       -4    1    3    3    0  502  0.77883407608E+03 -0.52958352689E+03 -0.14262973873E+03  0.95256815256E+03  0.12699999809E+01 0.  1.
</event>
<event>
 5   0  0.1799738E-04  0.1900235E+04  0.7818609E-02  0.8654740E-01
        2   -1    0    0  501    0  0.00000000000E+00  0.00000000000E+00  0.22108128126E+04  0.22108128126E+04  0.25500000920E-02 0. -1.
       -2   -1    0    0    0  501  0.00000000000E+00  0.00000000000E+00 -0.40832173070E+03  0.40832173070E+03  0.25500000920E-02 0.  1.
    10030    2    1    2    0    0  0.00000000000E+00  0.00000000000E+00  0.18024910819E+04  0.26191345433E+04  0.19002346317E+04 0.  0.
        1    1    3    3  502    0 -0.21503779218E+03 -0.16298550053E+03  0.21568938369E+04  0.21737057182E+04  0.50400001928E-02 0. -1.
       -1    1    3    3    0  502  0.21503779218E+03  0.16298550053E+03 -0.35440275503E+03  0.44542882512E+03  0.50400001928E-02 0.  1.
</event>
<event>
 5   0  0.8905646E-05  0.1902101E+04  0.7818609E-02  0.8653811E-01
       -1   -1    0    0    0  501  0.00000000000E+00  0.00000000000E+00  0.49397352859E+03  0.49397352862E+03  0.50400001928E-02 0.  1.
        1   -1    0    0  501    0  0.00000000000E+00  0.00000000000E+00 -0.18310637719E+04  0.18310637719E+04  0.50400001928E-02 0. -1.
    10030    2    1    2    0    0  0.00000000000E+00  0.00000000000E+00 -0.13370902433E+04  0.23250373006E+04  0.19021009779E+04 0.  0.
        1    1    3    3  502    0 -0.62403321078E+03 -0.54080614079E+03 -0.12452678071E+04  0.14941822651E+04  0.50400001928E-02 0. -1.
       -1    1    3    3    0  502  0.62403321078E+03  0.54080614079E+03 -0.91822436270E+02  0.83085503543E+03  0.50400001928E-02 0.  1.
</event>
<event>
 5   0  0.1799738E-04  0.1915029E+04  0.7818609E-02  0.8647412E-01
       -2   -1    0    0    0  501  0.00000000000E+00  0.00000000000E+00  0.44100923064E+03  0.44100923064E+03  0.25500000920E-02 0.  1.
        2   -1    0    0  501    0  0.00000000000E+00  0.00000000000E+00 -0.20789444913E+04  0.20789444913E+04  0.25500000920E-02 0. -1.
    10030    2    1    2    0    0  0.00000000000E+00  0.00000000000E+00 -0.16379352607E+04  0.25199537220E+04  0.19150286793E+04 0.  0.
        1    1    3    3  502    0  0.74047021009E+03 -0.53588882967E+03 -0.11943075271E+04  0.15039426316E+04  0.50400001928E-02 0. -1.
       -1    1    3    3    0  502 -0.74047021009E+03  0.53588882967E+03 -0.44362773364E+03  0.10160110904E+04  0.50400001928E-02 0.  1.
</event>
<event>
 5   0  0.8567844E-05  0.1910138E+04  0.7818609E-02  0.8649826E-01
        1   -1    0    0  501    0  0.00000000000E+00  0.00000000000E+00  0.72739384885E+03  0.72739384886E+03  0.50400001928E-02 0. -1.
       -1   -1    0    0    0  501  0.00000000000E+00  0.00000000000E+00 -0.12540072349E+04  0.12540072349E+04  0.50400001928E-02 0.  1.
    10030    2    1    2    0    0  0.00000000000E+00  0.00000000000E+00 -0.52661338608E+03  0.19814010838E+04  0.19101383710E+04 0.  0.
        4    1    3    3  502    0  0.53863295829E+03  0.59958920580E+03 -0.79479183519E+03  0.11319577526E+04  0.12699999809E+01 0.  1.
       -4    1    3    3    0  502 -0.53863295829E+03 -0.59958920580E+03  0.26817844911E+03  0.84944333121E+03  0.12699999809E+01 0. -1.
</event>
<event>
 5   0  0.1658711E-04  0.1874104E+04  0.7818609E-02  0.8667855E-01
        2   -1    0    0  501    0  0.00000000000E+00  0.00000000000E+00  0.12846672618E+04  0.12846672618E+04  0.25500000920E-02 0. -1.
       -2   -1    0    0    0  501  0.00000000000E+00  0.00000000000E+00 -0.68349709018E+03  0.68349709018E+03  0.25500000920E-02 0.  1.
    10030    2    1    2    0    0  0.00000000000E+00  0.00000000000E+00  0.60117017159E+03  0.19681643519E+04  0.18741038768E+04 0.  0.
        2    1    3    3  502    0  0.49170518363E+03 -0.70642382128E+03  0.68966258183E+03  0.11029247842E+04  0.25500000920E-02 0. -1.
       -2    1    3    3    0  502 -0.49170518363E+03  0.70642382128E+03 -0.88492410248E+02  0.86523956772E+03  0.25500000920E-02 0.  1.
</event>
<event>
 5   0  0.1658711E-04  0.1918824E+04  0.7818609E-02  0.8645543E-01
        2   -1    0    0  501    0  0.00000000000E+00  0.00000000000E+00  0.62454848806E+03  0.62454848807E+03  0.25500000920E-02 0.  1.
       -2   -1    0    0    0  501  0.00000000000E+00  0.00000000000E+00 -0.14738191850E+04  0.14738191850E+04  0.25500000920E-02 0. -1.
    10030    2    1    2    0    0  0.00000000000E+00  0.00000000000E+00 -0.84927069697E+03  0.20983676731E+04  0.19188241646E+04 0.  0.
        2    1    3    3  502    0  0.72114902749E+03 -0.27989017356E+02 -0.11159514400E+04  0.13289796542E+04  0.25500000920E-02 0. -1.
       -2    1    3    3    0  502 -0.72114902749E+03  0.27989017356E+02  0.26668074299E+03  0.76938801890E+03  0.25500000920E-02 0.  1.
</event>
<event>
 5   0  0.8567844E-05  0.1828114E+04  0.7818609E-02  0.8691490E-01
       -1   -1    0    0    0  501  0.00000000000E+00  0.00000000000E+00  0.89994887940E+03  0.89994887942E+03  0.50400001928E-02 0. -1.
        1   -1    0    0  501    0  0.00000000000E+00  0.00000000000E+00 -0.92838612803E+03  0.92838612805E+03  0.50400001928E-02 0.  1.
    10030    2    1    2    0    0  0.00000000000E+00  0.00000000000E+00 -0.28437248630E+02  0.18283350075E+04  0.18281138428E+04 0.  0.
        4    1    3    3  502    0  0.30318872645E+03 -0.85794685047E+03  0.72407330028E+02  0.91282015558E+03  0.12699999809E+01 0. -1.
       -4    1    3    3    0  502 -0.30318872645E+03  0.85794685047E+03 -0.10084457866E+03  0.91551485189E+03  0.12699999809E+01 0.  1.
</event>
<event>
 5   0  0.8587082E-05  0.1898822E+04  0.7818609E-02  0.8655443E-01
        1   -1    0    0  501    0  0.00000000000E+00  0.00000000000E+00  0.15975984123E+04  0.15975984123E+04  0.50400001928E-02 0. -1.
       -1   -1    0    0    0  501  0.00000000000E+00  0.00000000000E+00 -0.56421000062E+03  0.56421000064E+03  0.50400001928E-02 0.  1.
    10030    2    1    2    0    0  0.00000000000E+00  0.00000000000E+00  0.10333884117E+04  0.21618084130E+04  0.18988217412E+04 0.  0.
        5    1    3    3  502    0  0.45429217278E+03 -0.44434468892E+03  0.13197486130E+04  0.14647805543E+04  0.46999998093E+01 0. -1.
       -5    1    3    3    0  502 -0.45429217278E+03  0.44434468892E+03 -0.28636020131E+03  0.69702785864E+03  0.46999998093E+01 0.  1.
</event>
<event>
 5   0  0.8602017E-05  0.1900176E+04  0.7818609E-02  0.8654769E-01
        1   -1    0    0  501    0  0.00000000000E+00  0.00000000000E+00  0.21389124734E+04  0.21389124734E+04  0.50400001928E-02 0. -1.
       -1   -1    0    0    0  501  0.00000000000E+00  0.00000000000E+00 -0.42202145589E+03  0.42202145592E+03  0.50400001928E-02 0.  1.
    10030    2    1    2    0    0  0.00000000000E+00  0.00000000000E+00  0.17168910175E+04  0.25609339294E+04  0.19001757351E+04 0.  0.
        2    1    3    3  502    0  0.13841613346E+03  0.92930768183E+03  0.66834715653E+03  0.11530219925E+04  0.25500000920E-02 0.  1.
       -2    1    3    3    0  502 -0.13841613346E+03 -0.92930768183E+03  0.10485438610E+04  0.14079119369E+04  0.25500000920E-02 0. -1.
</event>
<event>
 5   0  0.1765328E-04  0.1871684E+04  0.7818609E-02  0.8669081E-01
        2   -1    0    0  501    0  0.00000000000E+00  0.00000000000E+00  0.21088056706E+04  0.21088056706E+04  0.25500000920E-02 0.  1.
       -2   -1    0    0    0  501  0.00000000000E+00  0.00000000000E+00 -0.41530627742E+03  0.41530627742E+03  0.25500000920E-02 0. -1.
    10030    2    1    2    0    0  0.00000000000E+00  0.00000000000E+00  0.16934993932E+04  0.25241119480E+04  0.18716839828E+04 0.  0.
        3    1    3    3  502    0  0.22266066178E+03 -0.16990393429E+03  0.20509590009E+04  0.20699946740E+04  0.10100000352E+00 0.  1.
       -3    1    3    3    0  502 -0.22266066178E+03  0.16990393429E+03 -0.35745960768E+03  0.45411727397E+03  0.10100000352E+00 0. -1.
</event>
<event>
 5   0  0.8602017E-05  0.1893498E+04  0.7818609E-02  0.8658100E-01
       -1   -1    0    0    0  501  0.00000000000E+00  0.00000000000E+00  0.10945416844E+04  0.10945416844E+04  0.50400001928E-02 0. -1.
        1   -1    0    0  501    0  0.00000000000E+00  0.00000000000E+00 -0.81891189242E+03  0.81891189243E+03  0.50400001928E-02 0.  1.
    10030    2    1    2    0    0  0.00000000000E+00  0.00000000000E+00  0.27562979196E+03  0.19134535768E+04  0.18934975069E+04 0.  0.
        2    1    3    3  502    0  0.59907867721E+02 -0.81406511180E+03 -0.34686721352E+03  0.88690914004E+03  0.25500000920E-02 0.  1.
       -2    1    3    3    0  502 -0.59907867721E+02  0.81406511180E+03  0.62249700548E+03  0.10265444368E+04  0.25500000920E-02 0. -1.
</event>
<event>
 5   0  0.8905646E-05  0.1821653E+04  0.7818609E-02  0.8694869E-01
       -1   -1    0    0    0  501  0.00000000000E+00  0.00000000000E+00  0.74361901612E+03  0.74361901614E+03  0.50400001928E-02 0. -1.
        1   -1    0    0  501    0  0.00000000000E+00  0.00000000000E+00 -0.11156320496E+04  0.11156320496E+04  0.50400001928E-02 0.  1.
    10030    2    1    2    0    0  0.00000000000E+00  0.00000000000E+00 -0.37201303351E+03  0.18592510658E+04  0.18216533228E+04 0.  0.
        1    1    3    3  502    0  0.74174466402E+03  0.26134102252E+03 -0.65496884197E+03  0.10234590664E+04  0.50400001928E-02 0.  1.
       -1    1    3    3    0  502 -0.74174466402E+03 -0.26134102252E+03  0.28295580846E+03  0.83579199937E+03  0.50400001928E-02 0. -1.
</event>
<event>
 5   0  0.1799738E-04  0.1891519E+04  0.7818609E-02  0.8659090E-01
        2   -1    0    0  501    0  0.00000000000E+00  0.00000000000E+00  0.16250295272E+04  0.16250295272E+04  0.25500000920E-02 0. -1.
       -2   -1    0    0    0  501  0.00000000000E+00  0.00000000000E+00 -0.55042731772E+03  0.55042731773E+03  0.25500000920E-02 0.  1.
    10030    2    1    2    0    0  0.00000000000E+00  0.00000000000E+00  0.10746022095E+04  0.21754568450E+04  0.18915185898E+04 0.  0.
        1    1    3    3  502    0  0.73903595744E+03  0.29039398311E+03  0.11281917780E+04  0.13796084588E+04  0.50400001928E-02 0. -1.
       -1    1    3    3    0  502 -0.73903595744E+03 -0.29039398311E+03 -0.53589568461E+02  0.79584838612E+03  0.50400001928E-02 0.  1.
</event>
<event>
 5   0  0.8587082E-05  0.1951889E+04  0.7818609E-02  0.8629451E-01
        1   -1    0    0  501    0  0.00000000000E+00  0.00000000000E+00  0.23281780714E+04  0.23281780715E+04  0.50400001928E-02 0.  1.
       -1   -1    0    0    0  501  0.00000000000E+00  0.00000000000E+00 -0.40910418676E+03  0.40910418679E+03  0.50400001928E-02 0. -1.
    10030    2    1    2    0    0  0.00000000000E+00  0.00000000000E+00  0.19190738847E+04  0.27372822582E+04  0.19518887229E+04 0.  0.
        5    1    3    3  502    0 -0.31139836356E+02  0.56500374094E+03 -0.15554737200E+03  0.58686965471E+03  0.46999998093E+01 0. -1.
       -5    1    3    3    0  502  0.31139836356E+02 -0.56500374094E+03  0.20746212567E+04  0.21504126035E+04  0.46999998093E+01 0.  1.
</event>
<event>
 5   0  0.8587082E-05  0.1887994E+04  0.7818609E-02  0.8660856E-01
       -1   -1    0    0    0  501  0.00000000000E+00  0.00000000000E+00  0.33548350357E+03  0.33548350361E+03  0.50400001928E-02 0. -1.
        1   -1    0    0  501    0  0.00000000000E+00  0.00000000000E+00 -0.26562574261E+04  0.26562574262E+04  0.50400001928E-02 0.  1.
    10030    2    1    2    0    0  0.00000000000E+00  0.00000000000E+00 -0.23207739226E+04  0.29917409298E+04  0.18879942243E+04 0.  0.
        5    1    3    3  502    0 -0.77069733401E+03  0.10551696098E+02 -0.20239979721E+04  0.21657967587E+04  0.46999998093E+01 0.  1.
       -5    1    3    3    0  502  0.77069733401E+03 -0.10551696098E+02 -0.29677595047E+03  0.82594417106E+03  0.46999998093E+01 0. -1.
</event>
<event>
 5   0  0.1658711E-04  0.1911474E+04  0.7818609E-02  0.8649166E-01
        2   -1    0    0  501    0  0.00000000000E+00  0.00000000000E+00  0.15323629365E+04  0.15323629365E+04  0.25500000920E-02 0. -1.
       -2   -1    0    0    0  501  0.00000000000E+00  0.00000000000E+00 -0.59609441701E+03  0.59609441701E+03  0.25500000920E-02 0.  1.
    10030    2    1    2    0    0  0.00000000000E+00  0.00000000000E+00  0.93626851953E+03  0.21284573536E+04  0.19114737679E+04 0.  0.
        2    1    3    3  502    0  0.96906331529E+02 -0.23565644584E+03 -0.55757583758E+03  0.61303801857E+03  0.25500000920E-02 0.  1.
       -2    1    3    3    0  502 -0.96906331529E+02  0.23565644584E+03  0.14938443571E+04  0.15154193350E+04  0.25500000920E-02 0. -1.
</event>
<event>
 5   0  0.1658711E-04  0.1886771E+04  0.7818609E-02  0.8661469E-01
       -2   -1    0    0    0  501  0.00000000000E+00  0.00000000000E+00  0.61612350689E+03  0.61612350690E+03  0.25500000920E-02 0. -1.
        2   -1    0    0  501    0  0.00000000000E+00  0.00000000000E+00 -0.14444774200E+04  0.14444774200E+04  0.25500000920E-02 0.  1.
    10030    2    1    2    0    0  0.00000000000E+00  0.00000000000E+00 -0.82835391308E+03  0.20606009269E+04  0.18867713095E+04 0.  0.
        2    1    3    3  502    0 -0.25519541043E+02 -0.90980871900E+03 -0.14317589725E+03  0.92135904495E+03  0.25500000920E-02 0. -1.
       -2    1    3    3    0  502  0.25519541043E+02  0.90980871900E+03 -0.68517801582E+03  0.11392418819E+04  0.25500000920E-02 0.  1.
</event>
<event>
 5   0  0.8681396E-05  0.1930731E+04  0.7818609E-02  0.8639709E-01
       -1   -1    0    0    0  501  0.00000000000E+00  0.00000000000E+00  0.53735765074E+03  0.53735765076E+03  0.50400001928E-02 0. -1.
        1   -1    0    0  501    0  0.00000000000E+00  0.00000000000E+00 -0.17342834823E+04  0.17342834823E+04  0.50400001928E-02 0.  1.
    10030    2    1    2    0    0  0.00000000000E+00  0.00000000000E+00 -0.11969258315E+04  0.22716411330E+04  0.19307309474E+04 0.  0.
        3    1    3    3  502    0  0.37252497691E+03 -0.85877484924E+03 -0.87604726743E+03  0.12820795315E+04  0.10100000352E+00 0.  1.
       -3    1    3    3    0  502 -0.37252497691E+03  0.85877484924E+03 -0.32087856408E+03  0.98956160152E+03  0.10100000352E+00 0. -1.
</event>
<event>
 5   0  0.1790832E-04  0.1912165E+04  0.7818609E-02  0.8648825E-01
        2   -1    0    0  501    0  0.00000000000E+00  0.00000000000E+00  0.15532247525E+04  0.15532247525E+04  0.25500000920E-02 0.  1.
       -2   -1    0    0    0  501  0.00000000000E+00  0.00000000000E+00 -0.58851355204E+03  0.58851355204E+03  0.25500000920E-02 0. -1.
    10030    2    1    2    0    0  0.00000000000E+00  0.00000000000E+00  0.96471120048E+03  0.21417383046E+04  0.19121650726E+04 0.  0.
        5    1    3    3  502    0  0.51092302731E+03 -0.16417964732E+03 -0.40388982458E+03  0.67167430860E+03  0.46999998093E+01 0. -1.
       -5    1    3    3    0  502 -0.51092302731E+03  0.16417964732E+03  0.13686010251E+04  0.14700639960E+04  0.46999998093E+01 0.  1.
</event>
<event>
 5   0  0.8567844E-05  0.1980360E+04  0.7818609E-02  0.8615858E-01
        1   -1    0    0  501    0  0.00000000000E+00  0.00000000000E+00  0.13623462213E+04  0.13623462213E+04  0.50400001928E-02 0. -1.
       -1   -1    0    0    0  501  0.00000000000E+00  0.00000000000E+00 -0.71968238787E+03  0.71968238788E+03  0.50400001928E-02 0.  1.
    10030    2    1    2    0    0  0.00000000000E+00  0.00000000000E+00  0.64266383345E+03  0.20820286092E+04  0.19803601508E+04 0.  0.
        4    1    3    3  502    0 -0.37060424001E+03  0.64627424125E+03  0.10070730158E+04  0.12526833477E+04  0.12699999809E+01 0. -1.
       -4    1    3    3    0  502  0.37060424001E+03 -0.64627424125E+03 -0.36440918237E+03  0.82934526147E+03  0.12699999809E+01 0.  1.
</event>
<event>
 5   0  0.1658711E-04  0.1903689E+04  0.7818609E-02  0.8653022E-01
       -2   -1    0    0    0  501  0.00000000000E+00  0.00000000000E+00  0.10567495809E+04  0.10567495809E+04  0.25500000920E-02 0.  1.
        2   -1    0    0  501    0  0.00000000000E+00  0.00000000000E+00 -0.85735383924E+03  0.85735383925E+03  0.25500000920E-02 0. -1.
    10030    2    1    2    0    0  0.00000000000E+00  0.00000000000E+00  0.19939574167E+03  0.19141034202E+04  0.19036893763E+04 0.  0.
        2    1    3    3  502    0 -0.30187853635E+03  0.74664181822E+03 -0.41042719940E+03  0.90391102518E+03  0.25500000920E-02 0. -1.
       -2    1    3    3    0  502  0.30187853635E+03 -0.74664181822E+03  0.60982294107E+03  0.10101923950E+04  0.25500000920E-02 0.  1.
</event>
<event>
 5   0  0.8587082E-05  0.1905325E+04  0.7818609E-02  0.8652210E-01
       -1   -1    0    0    0  501  0.00000000000E+00  0.00000000000E+00  0.10077370092E+04  0.10077370092E+04  0.50400001928E-02 0.  1.
        1   -1    0    0  501    0  0.00000000000E+00  0.00000000000E+00 -0.90059785608E+03  0.90059785610E+03  0.50400001928E-02 0. -1.
    10030    2    1    2    0    0  0.00000000000E+00  0.00000000000E+00  0.10713915308E+03  0.19083348653E+04  0.19053249486E+04 0.  0.
        5    1    3    3  502    0 -0.31619521573E+03  0.89750569129E+03  0.98893905216E+02  0.95671206475E+03  0.46999998093E+01 0. -1.
       -5    1    3    3    0  502  0.31619521573E+03 -0.89750569129E+03  0.82452478634E+01  0.95162280052E+03  0.46999998093E+01 0.  1.
</event>
<event>
 5   0  0.8587082E-05  0.1917183E+04  0.7818609E-02  0.8646350E-01
        1   -1    0    0  501    0  0.00000000000E+00  0.00000000000E+00  0.10052188082E+04  0.10052188082E+04  0.50400001928E-02 0. -1.
       -1   -1    0    0    0  501  0.00000000000E+00  0.00000000000E+00 -0.91412695209E+03  0.91412695210E+03  0.50400001928E-02 0.  1.
    10030    2    1    2    0    0  0.00000000000E+00  0.00000000000E+00  0.91091856074E+02  0.19193457603E+04  0.19171829389E+04 0.  0.
        5    1    3    3  502    0  0.32794825977E+03  0.76195653181E+03 -0.43535802897E+03  0.93684925193E+03  0.46999998093E+01 0.  1.
       -5    1    3    3    0  502 -0.32794825977E+03 -0.76195653181E+03  0.52644988505E+03  0.98249650835E+03  0.46999998093E+01 0. -1.
</event>
<event>
 5   0  0.8602017E-05  0.2000510E+04  0.7818609E-02  0.8606382E-01
        1   -1    0    0  501    0  0.00000000000E+00  0.00000000000E+00  0.18243885084E+04  0.18243885085E+04  0.50400001928E-02 0. -1.
       -1   -1    0    0    0  501  0.00000000000E+00  0.00000000000E+00 -0.54840868909E+03  0.54840868911E+03  0.50400001928E-02 0.  1.
    10030    2    1    2    0    0  0.00000000000E+00  0.00000000000E+00  0.12759798194E+04  0.23727971976E+04  0.20005104452E+04 0.  0.
        2    1    3    3  502    0  0.58369437067E+02 -0.79443766967E+03  0.13555262645E+04  0.15722562310E+04  0.25500000920E-02 0. -1.
       -2    1    3    3    0  502 -0.58369437067E+02  0.79443766967E+03 -0.79546445164E+02  0.80054096654E+03  0.25500000920E-02 0.  1.
</event>
<event>
 5   0  0.8587082E-05  0.1869808E+04  0.7818609E-02  0.8670033E-01
        1   -1    0    0  501    0  0.00000000000E+00  0.00000000000E+00  0.22783017571E+04  0.22783017571E+04  0.50400001928E-02 0.  1.
       -1   -1    0    0    0  501  0.00000000000E+00  0.00000000000E+00 -0.38363895324E+03  0.38363895327E+03  0.50400001928E-02 0. -1.
    10030    2    1    2    0    0  0.00000000000E+00  0.00000000000E+00  0.18946628039E+04  0.26619407104E+04  0.18698077990E+04 0.  0.
        5    1    3    3  502    0 -0.40062199637E+03  0.80166807489E+03  0.13262816033E+04  0.16006919340E+04  0.46999998093E+01 0.  1.
       -5    1    3    3    0  502  0.40062199637E+03 -0.80166807489E+03  0.56838120061E+03  0.10612487764E+04  0.46999998093E+01 0. -1.
</event>
<event>
 5   0  0.1658711E-04  0.1899178E+04  0.7818609E-02  0.8655266E-01
        2   -1    0    0  501    0  0.00000000000E+00  0.00000000000E+00  0.21353001915E+04  0.21353001915E+04  0.25500000920E-02 0.  1.
       -2   -1    0    0    0  501  0.00000000000E+00  0.00000000000E+00 -0.42229168047E+03  0.42229168048E+03  0.25500000920E-02 0. -1.
    10030    2    1    2    0    0  0.00000000000E+00  0.00000000000E+00  0.17130085110E+04  0.25575918720E+04  0.18991782499E+04 0.  0.
        2    1    3    3  502    0  0.89697519384E+03 -0.11561321686E+03  0.46668978103E+03  0.10177083403E+04  0.25500000920E-02 0. -1.
       -2    1    3    3    0  502 -0.89697519384E+03  0.11561321686E+03  0.12463187300E+04  0.15398835317E+04  0.25500000920E-02 0.  1.
</event>
<event>
 5   0  0.1658711E-04  0.1893172E+04  0.7818609E-02  0.8658263E-01
        2   -1    0    0  501    0  0.00000000000E+00  0.00000000000E+00  0.19662593524E+04  0.19662593524E+04  0.25500000920E-02 0.  1.
       -2   -1    0    0    0  501  0.00000000000E+00  0.00000000000E+00 -0.45570028810E+03  0.45570028810E+03  0.25500000920E-02 0. -1.
    10030    2    1    2    0    0  0.00000000000E+00  0.00000000000E+00  0.15105590643E+04  0.24219596405E+04  0.18931718922E+04 0.  0.
        2    1    3    3  502    0  0.85605884505E+03 -0.20571130030E+03  0.12000521413E+04  0.14883813446E+04  0.25500000920E-02 0. -1.
       -2    1    3    3    0  502 -0.85605884505E+03  0.20571130030E+03  0.31050692301E+03  0.93357829586E+03  0.25500000920E-02 0.  1.
</event>
<event>
 5   0  0.8567844E-05  0.1887517E+04  0.7818609E-02  0.8661095E-01
       -1   -1    0    0    0  501  0.00000000000E+00  0.00000000000E+00  0.60815673587E+03  0.60815673590E+03  0.50400001928E-02 0.  1.
        1   -1    0    0  501    0  0.00000000000E+00  0.00000000000E+00 -0.14645568885E+04  0.14645568885E+04  0.50400001928E-02 0. -1.
    10030    2    1    2    0    0  0.00000000000E+00  0.00000000000E+00 -0.85640015260E+03  0.20727136244E+04  0.18875170323E+04 0.  0.
        4    1    3    3  502    0  0.49443646191E+03 -0.73715781761E+03 -0.76100936550E+02  0.89087711183E+03  0.12699999809E+01 0.  1.
       -4    1    3    3    0  502 -0.49443646191E+03  0.73715781761E+03 -0.78029921605E+03  0.11818365126E+04  0.12699999809E+01 0. -1.
</event>
<event>
 5   0  0.1810569E-04  0.1907008E+04  0.7818609E-02  0.8651376E-01
       -2   -1    0    0    0  501  0.00000000000E+00  0.00000000000E+00  0.11441304738E+04  0.11441304738E+04  0.25500000920E-02 0.  1.
        2   -1    0    0  501    0  0.00000000000E+00  0.00000000000E+00 -0.79463855866E+03  0.79463855867E+03  0.25500000920E-02 0. -1.
    10030    2    1    2    0    0  0.00000000000E+00  0.00000000000E+00  0.34949191511E+03  0.19387690324E+04  0.19070083278E+04 0.  0.
        4    1    3    3  502    0 -0.39999685404E+03  0.28459698994E+03 -0.65628806906E+03  0.81957828937E+03  0.12699999809E+01 0. -1.
       -4    1    3    3    0  502  0.39999685404E+03 -0.28459698994E+03  0.10057799842E+04  0.11191907431E+04  0.12699999809E+01 0.  1.
</event>
<event>
 5   0  0.6375750E-05  0.1900148E+04  0.7818609E-02  0.8654783E-01
       -3   -1    0    0    0  501  0.00000000000E+00  0.00000000000E+00  0.98256887425E+03  0.98256887944E+03  0.10100000352E+00 0. -1.
        3   -1    0    0  501    0  0.00000000000E+00  0.00000000000E+00 -0.91865367590E+03  0.91865368145E+03  0.10100000352E+00 0.  1.
    10030    2    1    2    0    0  0.00000000000E+00  0.00000000000E+00  0.63915198351E+02  0.19012225609E+04  0.19001479083E+04 0.  0.
        4    1    3    3  502    0  0.14166410361E+02 -0.58204081611E+03 -0.71924441398E+03  0.92535741135E+03  0.12699999809E+01 0.  1.
       -4    1    3    3    0  502 -0.14166410361E+02  0.58204081611E+03  0.78315961233E+03  0.97586514954E+03  0.12699999809E+01 0. -1.
</event>
<event>
 5   0  0.8587082E-05  0.1902951E+04  0.7818609E-02  0.8653389E-01
        1   -1    0    0  501    0  0.00000000000E+00  0.00000000000E+00  0.74590730171E+03  0.74590730173E+03  0.50400001928E-02 0. -1.
       -1   -1    0    0    0  501  0.00000000000E+00  0.00000000000E+00 -0.12136970186E+04  0.12136970186E+04  0.50400001928E-02 0.  1.
    10030    2    1    2    0    0  0.00000000000E+00  0.00000000000E+00 -0.46778971692E+03  0.19596043204E+04  0.19029508331E+04 0.  0.
        5    1    3    3  502    0  0.22805978041E+03  0.70340707069E+03 -0.85046105649E+03  0.11269866322E+04  0.46999998093E+01 0.  1.
       -5    1    3    3    0  502 -0.22805978041E+03 -0.70340707069E+03  0.38267133957E+03  0.83261768818E+03  0.46999998093E+01 0. -1.
</event>
<event>
 5   0  0.8681396E-05  0.1906974E+04  0.7818609E-02  0.8651393E-01
        1   -1    0    0  501    0  0.00000000000E+00  0.00000000000E+00  0.73156722942E+03  0.73156722944E+03  0.50400001928E-02 0.  1.
       -1   -1    0    0    0  501  0.00000000000E+00  0.00000000000E+00 -0.12427253890E+04  0.12427253890E+04  0.50400001928E-02 0. -1.
    10030    2    1    2    0    0  0.00000000000E+00  0.00000000000E+00 -0.51115815958E+03  0.19742926184E+04  0.19069736965E+04 0.  0.
        3    1    3    3  502    0  0.31596779955E+03  0.11873096656E+03 -0.11788012488E+04  0.12261749823E+04  0.10100000352E+00 0. -1.
       -3    1    3    3    0  502 -0.31596779955E+03 -0.11873096656E+03  0.66764308922E+03  0.74811763617E+03  0.10100000352E+00 0.  1.
</event>
<event>
 5   0  0.1658711E-04  0.1877162E+04  0.7818609E-02  0.8666308E-01
        2   -1    0    0  501    0  0.00000000000E+00  0.00000000000E+00  0.11153811228E+04  0.11153811228E+04  0.25500000920E-02 0.  1.
       -2   -1    0    0    0  501  0.00000000000E+00  0.00000000000E+00 -0.78980586197E+03  0.78980586198E+03  0.25500000920E-02 0. -1.
    10030    2    1    2    0    0  0.00000000000E+00  0.00000000000E+00  0.32557526087E+03  0.19051869848E+04  0.18771622723E+04 0.  0.
        2    1    3    3  502    0  0.75866427912E+03 -0.39616399529E+03 -0.22821333719E+03  0.88577577685E+03  0.25500000920E-02 0. -1.
       -2    1    3    3    0  502 -0.75866427912E+03  0.39616399529E+03  0.55378859806E+03  0.10194112080E+04  0.25500000920E-02 0.  1.
</event>
<event>
 5   0  0.8905646E-05  0.1834368E+04  0.7818609E-02  0.8688233E-01
       -1   -1    0    0    0  501  0.00000000000E+00  0.00000000000E+00  0.73817103577E+03  0.73817103578E+03  0.50400001928E-02 0. -1.
        1   -1    0    0  501    0  0.00000000000E+00  0.00000000000E+00 -0.11396093136E+04  0.11396093137E+04  0.50400001928E-02 0.  1.
    10030    2    1    2    0    0  0.00000000000E+00  0.00000000000E+00 -0.40143827788E+03  0.18777803494E+04  0.18343681064E+04 0.  0.
        1    1    3    3  502    0 -0.24001757318E+03 -0.81480615218E+03 -0.55489736404E+03  0.10146076018E+04  0.50400001928E-02 0.  1.
       -1    1    3    3    0  502  0.24001757318E+03  0.81480615218E+03  0.15345908616E+03  0.86317274761E+03  0.50400001928E-02 0. -1.
</event>
<event>
 5   0  0.1658711E-04  0.1889977E+04  0.7818609E-02  0.8659861E-01
       -2   -1    0    0    0  501  0.00000000000E+00  0.00000000000E+00  0.47031536536E+03  0.47031536537E+03  0.25500000920E-02 0. -1.
        2   -1    0    0  501    0  0.00000000000E+00  0.00000000000E+00 -0.18987336691E+04  0.18987336691E+04  0.25500000920E-02 0.  1.
    10030    2    1    2    0    0  0.00000000000E+00  0.00000000000E+00 -0.14284183037E+04  0.23690490345E+04  0.18899773748E+04 0.  0.
        2    1    3    3  502    0  0.36738032977E+03 -0.86669949126E+03 -0.61033425731E+03  0.11218931413E+04  0.25500000920E-02 0.  1.
       -2    1    3    3    0  502 -0.36738032977E+03  0.86669949126E+03 -0.81808404644E+03  0.12471558932E+04  0.25500000920E-02 0. -1.
</event>
<event>
 5   0  0.1658711E-04  0.1897679E+04  0.7818609E-02  0.8656012E-01
        2   -1    0    0  501    0  0.00000000000E+00  0.00000000000E+00  0.13129375950E+04  0.13129375950E+04  0.25500000920E-02 0.  1.
       -2   -1    0    0    0  501  0.00000000000E+00  0.00000000000E+00 -0.68571174753E+03  0.68571174754E+03  0.25500000920E-02 0. -1.
    10030    2    1    2    0    0  0.00000000000E+00  0.00000000000E+00  0.62722584748E+03  0.19986493426E+04  0.18976793540E+04 0.  0.
        2    1    3    3  502    0 -0.51668515786E+03  0.77481527105E+03  0.12230436906E+03  0.93928729114E+03  0.25500000920E-02 0.  1.
       -2    1    3    3    0  502  0.51668515786E+03 -0.77481527105E+03  0.50492147842E+03  0.10593620514E+04  0.25500000920E-02 0. -1.
</event>
<event>
 5   0  0.8681396E-05  0.1879706E+04  0.7818609E-02  0.8665024E-01
        1   -1    0    0  501    0  0.00000000000E+00  0.00000000000E+00  0.10110555369E+04  0.10110555369E+04  0.50400001928E-02 0.  1.
       -1   -1    0    0    0  501  0.00000000000E+00  0.00000000000E+00 -0.87366491813E+03  0.87366491815E+03  0.50400001928E-02 0. -1.
    10030    2    1    2    0    0  0.00000000000E+00  0.00000000000E+00  0.13739061875E+03  0.18847204550E+04  0.18797060971E+04 0.  0.
        3    1    3    3  502    0 -0.35145166066E+03  0.73750395009E+03  0.53457810547E+03  0.97632172321E+03  0.10100000352E+00 0.  1.
       -3    1    3    3    0  502  0.35145166066E+03 -0.73750395009E+03 -0.39718748672E+03  0.90839873183E+03  0.10100000352E+00 0. -1.
</event>
<event>
 5   0  0.8905646E-05  0.1902486E+04  0.7818609E-02  0.8653620E-01
       -1   -1    0    0    0  501  0.00000000000E+00  0.00000000000E+00  0.52054622508E+03  0.52054622510E+03  0.50400001928E-02 0.  1.
        1   -1    0    0  501    0  0.00000000000E+00  0.00000000000E+00 -0.17382949933E+04  0.17382949933E+04  0.50400001928E-02 0. -1.
    10030    2    1    2    0    0  0.00000000000E+00  0.00000000000E+00 -0.12177487683E+04  0.22588412184E+04  0.19024856340E+04 0.  0.
        1    1    3    3  502    0  0.85284457251E+03 -0.16288347568E+03 -0.10702297136E+04  0.13781387925E+04  0.50400001928E-02 0. -1.
       -1    1    3    3    0  502 -0.85284457251E+03  0.16288347568E+03 -0.14751905463E+03  0.88070242592E+03  0.50400001928E-02 0.  1.
</event>
<event>
 5   0  0.8681396E-05  0.1905580E+04  0.7818609E-02  0.8652084E-01
        1   -1    0    0  501    0  0.00000000000E+00  0.00000000000E+00  0.82748328671E+03  0.82748328673E+03  0.50400001928E-02 0. -1.
       -1   -1    0    0    0  501  0.00000000000E+00  0.00000000000E+00 -0.10970720024E+04  0.10970720024E+04  0.50400001928E-02 0.  1.
    10030    2    1    2    0    0  0.00000000000E+00  0.00000000000E+00 -0.26958871567E+03  0.19245552891E+04  0.19055799603E+04 0.  0.
        3    1    3    3  502    0 -0.22983022281E+03  0.85528708322E+03  0.22008877953E+03  0.91256616589E+03  0.10100000352E+00 0.  1.
       -3    1    3    3    0  502  0.22983022281E+03 -0.85528708322E+03 -0.48967749520E+03  0.10119891232E+04  0.10100000352E+00 0. -1.
</event>
<event>
 5   0  0.6375750E-05  0.1897466E+04  0.7818609E-02  0.8656119E-01
       -3   -1    0    0    0  501  0.00000000000E+00  0.00000000000E+00  0.10571254474E+04  0.10571254522E+04  0.10100000352E+00 0.  1.
        3   -1    0    0  501    0  0.00000000000E+00  0.00000000000E+00 -0.85145480296E+03  0.85145480895E+03  0.10100000352E+00 0. -1.
    10030    2    1    2    0    0  0.00000000000E+00  0.00000000000E+00  0.20567064445E+03  0.19085802612E+04  0.18974662578E+04 0.  0.
        2    1    3    3  502    0  0.86255241049E+03 -0.48082658201E+02  0.49728780316E+03  0.99679675062E+03  0.25500000920E-02 0.  1.
       -2    1    3    3    0  502 -0.86255241049E+03  0.48082658201E+02 -0.29161715871E+03  0.91178351056E+03  0.25500000920E-02 0. -1.
</event>
<event>
 5   0  0.8567844E-05  0.1913634E+04  0.7818609E-02  0.8648100E-01
       -1   -1    0    0    0  501  0.00000000000E+00  0.00000000000E+00  0.73507097383E+03  0.73507097385E+03  0.50400001928E-02 0. -1.
        1   -1    0    0  501    0  0.00000000000E+00  0.00000000000E+00 -0.12454557039E+04  0.12454557039E+04  0.50400001928E-02 0.  1.
    10030    2    1    2    0    0  0.00000000000E+00  0.00000000000E+00 -0.51038473005E+03  0.19805266777E+04  0.19136335461E+04 0.  0.
        4    1    3    3  502    0 -0.17458456781E+03 -0.29282975579E+03  0.67007671391E+03  0.75182009325E+03  0.12699999809E+01 0. -1.
       -4    1    3    3    0  502  0.17458456781E+03  0.29282975579E+03 -0.11804614440E+04  0.12287065845E+04  0.12699999809E+01 0.  1.
</event>
<event>
 5   0  0.8567844E-05  0.1884615E+04  0.7818609E-02  0.8662553E-01
        1   -1    0    0  501    0  0.00000000000E+00  0.00000000000E+00  0.96219795895E+03  0.96219795896E+03  0.50400001928E-02 0.  1.
       -1   -1    0    0    0  501  0.00000000000E+00  0.00000000000E+00 -0.92282818238E+03  0.92282818240E+03  0.50400001928E-02 0. -1.
    10030    2    1    2    0    0  0.00000000000E+00  0.00000000000E+00  0.39369776564E+02  0.18850261414E+04  0.18846149671E+04 0.  0.
        4    1    3    3  502    0  0.16312900562E+03 -0.70949470225E+02  0.94524988616E+03  0.96184398942E+03  0.12699999809E+01 0.  1.
       -4    1    3    3    0  502 -0.16312900562E+03  0.70949470225E+02 -0.90588010960E+03  0.92318215194E+03  0.12699999809E+01 0. -1.
</event>
<event>
 5   0  0.1799738E-04  0.1897811E+04  0.7818609E-02  0.8655947E-01
        2   -1    0    0  501    0  0.00000000000E+00  0.00000000000E+00  0.11064181746E+04  0.11064181746E+04  0.25500000920E-02 0.  1.
       -2   -1    0    0    0  501  0.00000000000E+00  0.00000000000E+00 -0.81381669356E+03  0.81381669356E+03  0.25500000920E-02 0. -1.
    10030    2    1    2    0    0  0.00000000000E+00  0.00000000000E+00  0.29260148102E+03  0.19202348681E+04  0.18978109290E+04 0.  0.
        1    1    3    3  502    0  0.53699901111E+03 -0.21767748150E+03  0.90662496194E+03  0.10759740915E+04  0.50400001928E-02 0.  1.
       -1    1    3    3    0  502 -0.53699901111E+03  0.21767748150E+03 -0.61402348092E+03  0.84426077667E+03  0.50400001928E-02 0. -1.
</event>
<event>
 5   0  0.1765328E-04  0.1854067E+04  0.7818609E-02  0.8678064E-01
        2   -1    0    0  501    0  0.00000000000E+00  0.00000000000E+00  0.12246468643E+04  0.12246468643E+04  0.25500000920E-02 0.  1.
       -2   -1    0    0    0  501  0.00000000000E+00  0.00000000000E+00 -0.70174642762E+03  0.70174642762E+03  0.25500000920E-02 0. -1.
    10030    2    1    2    0    0  0.00000000000E+00  0.00000000000E+00  0.52290043669E+03  0.19263932919E+04  0.18540674876E+04 0.  0.
        3    1    3    3  502    0  0.70722788537E+03  0.33156828614E+03  0.78020907602E+03  0.11040086153E+04  0.10100000352E+00 0.  1.
       -3    1    3    3    0  502 -0.70722788537E+03 -0.33156828614E+03 -0.25730863934E+03  0.82238467659E+03  0.10100000352E+00 0. -1.
</event>
<event>
 5   0  0.8587082E-05  0.1923502E+04  0.7818609E-02  0.8643246E-01
       -1   -1    0    0    0  501  0.00000000000E+00  0.00000000000E+00  0.41610595693E+03  0.41610595696E+03  0.50400001928E-02 0.  1.
        1   -1    0    0  501    0  0.00000000000E+00  0.00000000000E+00 -0.22229070793E+04  0.22229070793E+04  0.50400001928E-02 0. -1.
    10030    2    1    2    0    0  0.00000000000E+00  0.00000000000E+00 -0.18068011223E+04  0.26390130363E+04  0.19235018871E+04 0.  0.
        5    1    3    3  502    0  0.49787820953E+03  0.46026320656E+03 -0.18391877749E+04  0.19601935344E+04  0.46999998093E+01 0. -1.
       -5    1    3    3    0  502 -0.49787820953E+03 -0.46026320656E+03  0.32386652586E+02  0.67881950185E+03  0.46999998093E+01 0.  1.
</event>
<event>
 5   0  0.1658711E-04  0.1897016E+04  0.7818609E-02  0.8656343E-01
       -2   -1    0    0    0  501  0.00000000000E+00  0.00000000000E+00  0.68989259299E+03  0.68989259300E+03  0.25500000920E-02 0.  1.
        2   -1    0    0  501    0  0.00000000000E+00  0.00000000000E+00 -0.13040685846E+04  0.13040685846E+04  0.25500000920E-02 0. -1.
    10030    2    1    2    0    0  0.00000000000E+00  0.00000000000E+00 -0.61417599164E+03  0.19939611776E+04  0.18970158221E+04 0.  0.
        2    1    3    3  502    0  0.46445300025E+03  0.78549267780E+03 -0.57906191923E+03  0.10807534606E+04  0.25500000920E-02 0. -1.
       -2    1    3    3    0  502 -0.46445300025E+03 -0.78549267780E+03 -0.35114072401E+02  0.91320771701E+03  0.25500000920E-02 0.  1.
</event>
<event>
 5   0  0.1810569E-04  0.1921957E+04  0.7818609E-02  0.8644004E-01
        2   -1    0    0  501    0  0.00000000000E+00  0.00000000000E+00  0.12388308451E+04  0.12388308451E+04  0.25500000920E-02 0.  1.
       -2   -1    0    0    0  501  0.00000000000E+00  0.00000000000E+00 -0.74544432674E+03  0.74544432674E+03  0.25500000920E-02 0. -1.
    10030    2    1    2    0    0  0.00000000000E+00  0.00000000000E+00  0.49338651839E+03  0.19842751719E+04  0.19219567376E+04 0.  0.
        4    1    3    3  502    0 -0.45322908471E+03 -0.36737826763E+03  0.10350589803E+04  0.11881633307E+04  0.12699999809E+01 0.  1.
       -4    1    3    3    0  502  0.45322908471E+03  0.36737826763E+03 -0.54167246193E+03  0.79611184118E+03  0.12699999809E+01 0. -1.
</event>
<event>
 5   0  0.8567844E-05  0.1905853E+04  0.7818609E-02  0.8651948E-01
       -1   -1    0    0    0  501  0.00000000000E+00  0.00000000000E+00  0.73271781639E+03  0.73271781641E+03  0.50400001928E-02 0.  1.
        1   -1    0    0  501    0  0.00000000000E+00  0.00000000000E+00 -0.12393164549E+04  0.12393164549E+04  0.50400001928E-02 0. -1.
    10030    2    1    2    0    0  0.00000000000E+00  0.00000000000E+00 -0.50659863851E+03  0.19720342713E+04  0.19058533487E+04 0.  0.
        4    1    3    3  502    0  0.44215316199E+03  0.78294470311E+02  0.61638584868E+03  0.76260249809E+03  0.12699999809E+01 0.  1.
       -4    1    3    3    0  502 -0.44215316199E+03 -0.78294470311E+02 -0.11229844872E+04  0.12094317732E+04  0.12699999809E+01 0. -1.
</event>
<event>
 5   0  0.1790832E-04  0.1892180E+04  0.7818609E-02  0.8658759E-01
       -2   -1    0    0    0  501  0.00000000000E+00  0.00000000000E+00  0.66042369531E+03  0.66042369531E+03  0.25500000920E-02 0. -1.
        2   -1    0    0  501    0  0.00000000000E+00  0.00000000000E+00 -0.13553217707E+04  0.13553217707E+04  0.25500000920E-02 0.  1.
    10030    2    1    2    0    0  0.00000000000E+00  0.00000000000E+00 -0.69489807543E+03  0.20157454661E+04  0.18921803425E+04 0.  0.
        5    1    3    3  502    0  0.92217218635E+03  0.18075800925E+03 -0.23080189167E+03  0.96766037554E+03  0.46999998093E+01 0.  1.
       -5    1    3    3    0  502 -0.92217218635E+03 -0.18075800925E+03 -0.46409618377E+03  0.10480850905E+04  0.46999998093E+01 0. -1.
</event>
<event>
 5   0  0.1799738E-04  0.1901260E+04  0.7818609E-02  0.8654229E-01
       -2   -1    0    0    0  501  0.00000000000E+00  0.00000000000E+00  0.88698403114E+03  0.88698403114E+03  0.25500000920E-02 0.  1.
        2   -1    0    0  501    0  0.00000000000E+00  0.00000000000E+00 -0.10188434068E+04  0.10188434068E+04  0.25500000920E-02 0. -1.
    10030    2    1    2    0    0  0.00000000000E+00  0.00000000000E+00 -0.13185937568E+03  0.19058274380E+04  0.19012604578E+04 0.  0.
        1    1    3    3  502    0 -0.94570780165E+03  0.93336397305E+02 -0.40911713811E+02  0.95118278870E+03  0.50400001928E-02 0.  1.
       -1    1    3    3    0  502  0.94570780165E+03 -0.93336397305E+02 -0.90947661871E+02  0.95464464927E+03  0.50400001928E-02 0. -1.
</event>
<event>
 5   0  0.8567844E-05  0.1892946E+04  0.7818609E-02  0.8658376E-01
        1   -1    0    0  501    0  0.00000000000E+00  0.00000000000E+00  0.71280518500E+03  0.71280518502E+03  0.50400001928E-02 0.  1.
       -1   -1    0    0    0  501  0.00000000000E+00  0.00000000000E+00 -0.12567400068E+04  0.12567400068E+04  0.50400001928E-02 0. -1.
    10030    2    1    2    0    0  0.00000000000E+00  0.00000000000E+00 -0.54393482179E+03  0.19695451918E+04  0.18929456337E+04 0.  0.
        4    1    3    3  502    0  0.75785251606E+02 -0.60680666913E+03  0.47965765209E+03  0.77719419335E+03  0.12699999809E+01 0.  1.
       -4    1    3    3    0  502 -0.75785251606E+02  0.60680666913E+03 -0.10235924739E+04  0.11923509985E+04  0.12699999809E+01 0. -1.
</event>
<event>
 5   0  0.8681396E-05  0.1916311E+04  0.7818609E-02  0.8646780E-01
        1   -1    0    0  501    0  0.00000000000E+00  0.00000000000E+00  0.13305420561E+04  0.13305420561E+04  0.50400001928E-02 0. -1.
       -1   -1    0    0    0  501  0.00000000000E+00  0.00000000000E+00 -0.68999077107E+03  0.68999077109E+03  0.50400001928E-02 0.  1.
    10030    2    1    2    0    0  0.00000000000E+00  0.00000000000E+00  0.64055128502E+03  0.20205328272E+04  0.19163107673E+04 0.  0.
        3    1    3    3  502    0 -0.10469223690E+03  0.15224713836E+03  0.13115798753E+04  0.13245306471E+04  0.10100000352E+00 0. -1.
       -3    1    3    3    0  502  0.10469223690E+03 -0.15224713836E+03 -0.67102859025E+03  0.69600218012E+03  0.10100000352E+00 0.  1.
</event>
<event>
 5   0  0.1810569E-04  0.1891479E+04  0.7818609E-02  0.8659109E-01
        2   -1    0    0  501    0  0.00000000000E+00  0.00000000000E+00  0.94531170370E+03  0.94531170370E+03  0.25500000920E-02 0. -1.
       -2   -1    0    0    0  501  0.00000000000E+00  0.00000000000E+00 -0.94616788311E+03  0.94616788312E+03  0.25500000920E-02 0.  1.
    10030    2    1    2    0    0  0.00000000000E+00  0.00000000000E+00 -0.85617941419E+00  0.18914795868E+04  0.18914793930E+04 0.  0.
        4    1    3    3  502    0  0.52525282109E+03  0.64412921414E+03 -0.45168082580E+03  0.94594405324E+03  0.12699999809E+01 0.  1.
       -4    1    3    3    0  502 -0.52525282109E+03 -0.64412921414E+03  0.45082464638E+03  0.94553553358E+03  0.12699999809E+01 0. -1.
</event>
<event>
 5   0  0.1765328E-04  0.1929086E+04  0.7818609E-02  0.8640512E-01
       -2   -1    0    0    0  501  0.00000000000E+00  0.00000000000E+00  0.82836033221E+03  0.82836033221E+03  0.25500000920E-02 0.  1.
        2   -1    0    0  501    0  0.00000000000E+00  0.00000000000E+00 -0.11231145915E+04  0.11231145915E+04  0.25500000920E-02 0. -1.
    10030    2    1    2    0    0  0.00000000000E+00  0.00000000000E+00 -0.29475425930E+03  0.19514749237E+04  0.19290863912E+04 0.  0.
        3    1    3    3  502    0 -0.30437080879E+02  0.21527071093E+03  0.80325011688E+03  0.83215302400E+03  0.10100000352E+00 0.  1.
       -3    1    3    3    0  502  0.30437080879E+02 -0.21527071093E+03 -0.10980043762E+04  0.11193218997E+04  0.10100000352E+00 0. -1.
</event>
<event>
 5   0  0.1658711E-04  0.1882230E+04  0.7818609E-02  0.8663753E-01
        2   -1    0    0  501    0  0.00000000000E+00  0.00000000000E+00  0.21355103033E+04  0.21355103033E+04  0.25500000920E-02 0. -1.
       -2   -1    0    0    0  501  0.00000000000E+00  0.00000000000E+00 -0.41474725268E+03  0.41474725269E+03  0.25500000920E-02 0.  1.
    10030    2    1    2    0    0  0.00000000000E+00  0.00000000000E+00  0.17207630506E+04  0.25502575560E+04  0.18822295624E+04 0.  0.
        2    1    3    3  502    0  0.83014906913E+03 -0.14263754011E+03  0.29163410348E+03  0.89137163694E+03  0.25500000920E-02 0.  1.
       -2    1    3    3    0  502 -0.83014906913E+03  0.14263754011E+03  0.14291289471E+04  0.16588859190E+04  0.25500000920E-02 0. -1.
</event>
<event>
 5   0  0.1658711E-04  0.1899887E+04  0.7818609E-02  0.8654913E-01
        2   -1    0    0  501    0  0.00000000000E+00  0.00000000000E+00  0.27495756902E+04  0.27495756902E+04  0.25500000920E-02 0.  1.
       -2   -1    0    0    0  501  0.00000000000E+00  0.00000000000E+00 -0.32819335739E+03  0.32819335740E+03  0.25500000920E-02 0. -1.
    10030    2    1    2    0    0  0.00000000000E+00  0.00000000000E+00  0.24213823328E+04  0.30777690476E+04  0.18998868147E+04 0.  0.
        2    1    3    3  502    0 -0.70037373251E+02 -0.34461658636E+03  0.26402460002E+04  0.26635624203E+04  0.25500000920E-02 0.  1.
       -2    1    3    3    0  502  0.70037373251E+02  0.34461658636E+03 -0.21886366735E+03  0.41420662734E+03  0.25500000920E-02 0. -1.
</event>
<event>
 5   0  0.1810569E-04  0.1895650E+04  0.7818609E-02  0.8657024E-01
       -2   -1    0    0    0  501  0.00000000000E+00  0.00000000000E+00  0.12767370431E+04  0.12767370431E+04  0.25500000920E-02 0.  1.
        2   -1    0    0  501    0  0.00000000000E+00  0.00000000000E+00 -0.70364735887E+03  0.70364735887E+03  0.25500000920E-02 0. -1.
    10030    2    1    2    0    0  0.00000000000E+00  0.00000000000E+00  0.57308968425E+03  0.19803844020E+04  0.18956504407E+04 0.  0.
        4    1    3    3  502    0 -0.82479104041E+02  0.73258686256E+03 -0.33580544210E+03  0.81009457574E+03  0.12699999809E+01 0. -1.
       -4    1    3    3    0  502  0.82479104041E+02 -0.73258686256E+03  0.90889512635E+03  0.11702898262E+04  0.12699999809E+01 0.  1.
</event>
<event>
 5   0  0.1790832E-04  0.1875367E+04  0.7818609E-02  0.8667216E-01
        2   -1    0    0  501    0  0.00000000000E+00  0.00000000000E+00  0.15990818529E+04  0.15990818530E+04  0.25500000920E-02 0. -1.
       -2   -1    0    0    0  501  0.00000000000E+00  0.00000000000E+00 -0.54984683605E+03  0.54984683605E+03  0.25500000920E-02 0.  1.
    10030    2    1    2    0    0  0.00000000000E+00  0.00000000000E+00  0.10492350169E+04  0.21489286890E+04  0.18753667347E+04 0.  0.
        5    1    3    3  502    0  0.51823202197E+03 -0.93698077622E+02 -0.36436309412E+03  0.64041104979E+03  0.46999998093E+01 0.  1.
       -5    1    3    3    0  502 -0.51823202197E+03  0.93698077622E+02  0.14135981110E+04  0.15085176392E+04  0.46999998093E+01 0. -1.
</event>
<event>
 5   0  0.1790832E-04  0.1871693E+04  0.7818609E-02  0.8669076E-01
       -2   -1    0    0    0  501  0.00000000000E+00  0.00000000000E+00  0.51586215285E+03  0.51586215286E+03  0.25500000920E-02 0. -1.
        2   -1    0    0  501    0  0.00000000000E+00  0.00000000000E+00 -0.16977579998E+04  0.16977579998E+04  0.25500000920E-02 0.  1.
    10030    2    1    2    0    0  0.00000000000E+00  0.00000000000E+00 -0.11818958470E+04  0.22136201527E+04  0.18716934544E+04 0.  0.
        5    1    3    3  502    0  0.90930515086E+03 -0.22030036938E+03 -0.56674198912E+03  0.10938860463E+04  0.46999998093E+01 0.  1.
       -5    1    3    3    0  502 -0.90930515086E+03  0.22030036938E+03 -0.61515385787E+03  0.11197341064E+04  0.46999998093E+01 0. -1.
</event>
<event>
 5   0  0.1765328E-04  0.1890120E+04  0.7818609E-02  0.8659790E-01
        2   -1    0    0  501    0  0.00000000000E+00  0.00000000000E+00  0.77430940063E+03  0.77430940063E+03  0.25500000920E-02 0.  1.
       -2   -1    0    0    0  501  0.00000000000E+00  0.00000000000E+00 -0.11534639251E+04  0.11534639251E+04  0.25500000920E-02 0. -1.
    10030    2    1    2    0    0  0.00000000000E+00  0.00000000000E+00 -0.37915452447E+03  0.19277733257E+04  0.18901195311E+04 0.  0.
        3    1    3    3  502    0  0.62246446937E+03 -0.27691795789E+03  0.47844584558E+03  0.83249985488E+03  0.10100000352E+00 0.  1.
       -3    1    3    3    0  502 -0.62246446937E+03  0.27691795789E+03 -0.85760037005E+03  0.10952734708E+04  0.10100000352E+00 0. -1.
</event>
<event>
 5   0  0.8905646E-05  0.1887859E+04  0.7818609E-02  0.8660923E-01
       -1   -1    0    0    0  501  0.00000000000E+00  0.00000000000E+00  0.88318147669E+03  0.88318147671E+03  0.50400001928E-02 0. -1.
        1   -1    0    0  501    0  0.00000000000E+00  0.00000000000E+00 -0.10088561289E+04  0.10088561289E+04  0.50400001928E-02 0.  1.
    10030    2    1    2    0    0  0.00000000000E+00  0.00000000000E+00 -0.12567465219E+03  0.18920376056E+04  0.18878591533E+04 0.  0.
        1    1    3    3  502    0 -0.20889279379E+03  0.55207951666E+03  0.67538994595E+03  0.89698359580E+03  0.50400001928E-02 0. -1.
       -1    1    3    3    0  502  0.20889279379E+03 -0.55207951666E+03 -0.80106459814E+03  0.99505400980E+03  0.50400001928E-02 0.  1.
</event>
<event>
 5   0  0.8905646E-05  0.1899232E+04  0.7818609E-02  0.8655239E-01
       -1   -1    0    0    0  501  0.00000000000E+00  0.00000000000E+00  0.86365337041E+03  0.86365337042E+03  0.50400001928E-02 0. -1.
        1   -1    0    0  501    0  0.00000000000E+00  0.00000000000E+00 -0.10441351707E+04  0.10441351707E+04  0.50400001928E-02 0.  1.
    10030    2    1    2    0    0  0.00000000000E+00  0.00000000000E+00 -0.18048180026E+03  0.19077885411E+04  0.18992323284E+04 0.  0.
        1    1    3    3  502    0 -0.28963071408E+03 -0.19094627493E+03 -0.97820546213E+03  0.10378980473E+04  0.50400001928E-02 0.  1.
       -1    1    3    3    0  502  0.28963071408E+03  0.19094627493E+03  0.79772366187E+03  0.86989049379E+03  0.50400001928E-02 0. -1.
</event>
<event>
 5   0  0.1658711E-04  0.1897994E+04  0.7818609E-02  0.8655856E-01
       -2   -1    0    0    0  501  0.00000000000E+00  0.00000000000E+00  0.45110667540E+03  0.45110667541E+03  0.25500000920E-02 0. -1.
        2   -1    0    0  501    0  0.00000000000E+00  0.00000000000E+00 -0.19964122065E+04  0.19964122065E+04  0.25500000920E-02 0.  1.
    10030    2    1    2    0    0  0.00000000000E+00  0.00000000000E+00 -0.15453055311E+04  0.24475188819E+04  0.18979935439E+04 0.  0.
        2    1    3    3  502    0  0.86121387056E+03  0.13832666706E+03 -0.29054926557E+03  0.91937069422E+03  0.25500000920E-02 0. -1.
       -2    1    3    3    0  502 -0.86121387056E+03 -0.13832666706E+03 -0.12547562655E+04  0.15281481877E+04  0.25500000920E-02 0.  1.
</event>
<event>
 5   0  0.1810569E-04  0.1888985E+04  0.7818609E-02  0.8660359E-01
       -2   -1    0    0    0  501  0.00000000000E+00  0.00000000000E+00  0.10114484697E+04  0.10114484697E+04  0.25500000920E-02 0. -1.
        2   -1    0    0  501    0  0.00000000000E+00  0.00000000000E+00 -0.88196901099E+03  0.88196901099E+03  0.25500000920E-02 0.  1.
    10030    2    1    2    0    0  0.00000000000E+00  0.00000000000E+00  0.12947945875E+03  0.18934174807E+04  0.18889851313E+04 0.  0.
        4    1    3    3  502    0  0.14618133398E+02  0.36016163973E+03  0.93979130841E+03  0.10065482665E+04  0.12699999809E+01 0. -1.
       -4    1    3    3    0  502 -0.14618133398E+02 -0.36016163973E+03 -0.81031184965E+03  0.88686921423E+03  0.12699999809E+01 0.  1.
</event>
<event>
 5   0  0.8587082E-05  0.1885162E+04  0.7818609E-02  0.8662278E-01
        1   -1    0    0  501    0  0.00000000000E+00  0.00000000000E+00  0.64316560886E+03  0.64316560888E+03  0.50400001928E-02 0.  1.
       -1   -1    0    0    0  501  0.00000000000E+00  0.00000000000E+00 -0.13813840599E+04  0.13813840599E+04  0.50400001928E-02 0. -1.
    10030    2    1    2    0    0  0.00000000000E+00  0.00000000000E+00 -0.73821845104E+03  0.20245496688E+04  0.18851617649E+04 0.  0.
        5    1    3    3  502    0 -0.46302479161E+03 -0.45388040517E+03 -0.11038261137E+04  0.12801771593E+04  0.46999998093E+01 0. -1.
       -5    1    3    3    0  502  0.46302479161E+03  0.45388040517E+03  0.36560766271E+03  0.74437250948E+03  0.46999998093E+01 0.  1.
</event>
<event>
 5   0  0.6375750E-05  0.1913178E+04  0.7818609E-02  0.8648325E-01
       -3   -1    0    0    0  501  0.00000000000E+00  0.00000000000E+00  0.72116191219E+03  0.72116191926E+03  0.10100000352E+00 0.  1.
        3   -1    0    0  501    0  0.00000000000E+00  0.00000000000E+00 -0.12688723200E+04  0.12688723240E+04  0.10100000352E+00 0. -1.
    10030    2    1    2    0    0  0.00000000000E+00  0.00000000000E+00 -0.54771040777E+03  0.19900342432E+04  0.19131778795E+04 0.  0.
        5    1    3    3  502    0  0.68050119500E+03  0.14078840254E+03  0.40992410452E+03  0.80682285054E+03  0.46999998093E+01 0.  1.
       -5    1    3    3    0  502 -0.68050119500E+03 -0.14078840254E+03 -0.95763451229E+03  0.11832113927E+04  0.46999998093E+01 0. -1.
</event>
<event>
 5   0  0.1810569E-04  0.1909921E+04  0.7818609E-02  0.8649934E-01
        2   -1    0    0  501    0  0.00000000000E+00  0.00000000000E+00  0.71537950661E+03  0.71537950661E+03  0.25500000920E-02 0.  1.
       -2   -1    0    0    0  501  0.00000000000E+00  0.00000000000E+00 -0.12747770366E+04  0.12747770366E+04  0.25500000920E-02 0. -1.
    10030    2    1    2    0    0  0.00000000000E+00  0.00000000000E+00 -0.55939752998E+03  0.19901565432E+04  0.19099208020E+04 0.  0.
        4    1    3    3  502    0  0.66407789722E+03 -0.65066314912E+02 -0.99156371240E+03  0.11951708194E+04  0.12699999809E+01 0. -1.
       -4    1    3    3    0  502 -0.66407789722E+03  0.65066314912E+02  0.43216618242E+03  0.79498572380E+03  0.12699999809E+01 0.  1.
</event>
<event>
 5   0  0.8587082E-05  0.1898454E+04  0.7818609E-02  0.8655626E-01
       -1   -1    0    0    0  501  0.00000000000E+00  0.00000000000E+00  0.95466899305E+03  0.95466899306E+03  0.50400001928E-02 0. -1.
        1   -1    0    0  501    0  0.00000000000E+00  0.00000000000E+00 -0.94381611895E+03  0.94381611896E+03  0.50400001928E-02 0.  1.
    10030    2    1    2    0    0  0.00000000000E+00  0.00000000000E+00  0.10852874100E+02  0.18984851120E+04  0.18984540910E+04 0.  0.
        5    1    3    3  502    0  0.46345823712E+03  0.56327179914E+03 -0.60198881948E+03  0.94577020784E+03  0.46999998093E+01 0.  1.
       -5    1    3    3    0  502 -0.46345823712E+03 -0.56327179914E+03  0.61284169358E+03  0.95271490418E+03  0.46999998093E+01 0. -1.
</event>
<event>
 5   0  0.8567844E-05  0.1865689E+04  0.7818609E-02  0.8672126E-01
        1   -1    0    0  501    0  0.00000000000E+00  0.00000000000E+00  0.20385187178E+04  0.20385187178E+04  0.50400001928E-02 0.  1.
       -1   -1    0    0    0  501  0.00000000000E+00  0.00000000000E+00 -0.42687783482E+03  0.42687783485E+03  0.50400001928E-02 0. -1.
    10030    2    1    2    0    0  0.00000000000E+00  0.00000000000E+00  0.16116408830E+04  0.24653965527E+04  0.18656885662E+04 0.  0.
        4    1    3    3  502    0  0.61731119282E+03 -0.24789321053E+03  0.16699988158E+04  0.17976155902E+04  0.12699999809E+01 0.  1.
       -4    1    3    3    0  502 -0.61731119282E+03  0.24789321053E+03 -0.58357932771E+02  0.66778096246E+03  0.12699999809E+01 0. -1.
</event>
<event>
 5   0  0.8905646E-05  0.1891818E+04  0.7818609E-02  0.8658940E-01
       -1   -1    0    0    0  501  0.00000000000E+00  0.00000000000E+00  0.11777829230E+04  0.11777829230E+04  0.50400001928E-02 0. -1.
        1   -1    0    0  501    0  0.00000000000E+00  0.00000000000E+00 -0.75968482999E+03  0.75968483001E+03  0.50400001928E-02 0.  1.
    10030    2    1    2    0    0  0.00000000000E+00  0.00000000000E+00  0.41809809296E+03  0.19374677530E+04  0.18918179824E+04 0.  0.
        1    1    3    3  502    0  0.79582603193E+03  0.46472147715E+03 -0.92581535139E+01  0.92162402196E+03  0.50400001928E-02 0. -1.
       -1    1    3    3    0  502 -0.79582603193E+03 -0.46472147715E+03  0.42735624648E+03  0.10158437310E+04  0.50400001928E-02 0.  1.
</event>
<event>
 5   0  0.8905646E-05  0.1893065E+04  0.7818609E-02  0.8658316E-01
       -1   -1    0    0    0  501  0.00000000000E+00  0.00000000000E+00  0.51911681626E+03  0.51911681629E+03  0.50400001928E-02 0.  1.
        1   -1    0    0  501    0  0.00000000000E+00  0.00000000000E+00 -0.17258622487E+04  0.17258622487E+04  0.50400001928E-02 0. -1.
    10030    2    1    2    0    0  0.00000000000E+00  0.00000000000E+00 -0.12067454325E+04  0.22449790650E+04  0.18930653617E+04 0.  0.
        1    1    3    3  502    0  0.85540249890E+03  0.19492602012E+03 -0.10246823202E+04  0.13489564284E+04  0.50400001928E-02 0. -1.
       -1    1    3    3    0  502 -0.85540249890E+03 -0.19492602012E+03 -0.18206311231E+03  0.89602263662E+03  0.50400001928E-02 0.  1.
</event>
<event>
 5   0  0.8905646E-05  0.1900287E+04  0.7818609E-02  0.8654714E-01
       -1   -1    0    0    0  501  0.00000000000E+00  0.00000000000E+00  0.68443049057E+03  0.68443049059E+03  0.50400001928E-02 0. -1.
        1   -1    0    0  501    0  0.00000000000E+00  0.00000000000E+00 -0.13190128123E+04  0.13190128124E+04  0.50400001928E-02 0.  1.
    10030    2    1    2    0    0  0.00000000000E+00  0.00000000000E+00 -0.63458232177E+03  0.20034433029E+04  0.19002869112E+04 0.  0.
        1    1    3    3  502    0  0.14013524992E+03 -0.88124960750E+03  0.26822286231E+02  0.89272515035E+03  0.50400001928E-02 0. -1.
       -1    1    3    3    0  502 -0.14013524992E+03  0.88124960750E+03 -0.66140460801E+03  0.11107181526E+04  0.50400001928E-02 0.  1.
</event>
<event>
 5   0  0.8602017E-05  0.1899888E+04  0.7818609E-02  0.8654912E-01
       -1   -1    0    0    0  501  0.00000000000E+00  0.00000000000E+00  0.13042442875E+04  0.13042442875E+04  0.50400001928E-02 0. -1.
        1   -1    0    0  501    0  0.00000000000E+00  0.00000000000E+00 -0.69188970090E+03  0.69188970092E+03  0.50400001928E-02 0.  1.
    10030    2    1    2    0    0  0.00000000000E+00  0.00000000000E+00  0.61235458661E+03  0.19961339884E+04  0.18998875651E+04 0.  0.
        2    1    3    3  502    0 -0.62900166198E+03 -0.61100512977E+03  0.68995245585E+03  0.11157978091E+04  0.25500000920E-02 0. -1.
       -2    1    3    3    0  502  0.62900166198E+03  0.61100512977E+03 -0.77597869235E+02  0.88033617937E+03  0.25500000920E-02 0.  1.
</event>
<event>
 5   0  0.8587082E-05  0.1895085E+04  0.7818609E-02  0.8657307E-01
       -1   -1    0    0    0  501  0.00000000000E+00  0.00000000000E+00  0.17023606524E+04  0.17023606524E+04  0.50400001928E-02 0.  1.
        1   -1    0    0  501    0  0.00000000000E+00  0.00000000000E+00 -0.52740688558E+03  0.52740688560E+03  0.50400001928E-02 0. -1.
    10030    2    1    2    0    0  0.00000000000E+00  0.00000000000E+00  0.11749537668E+04  0.22297675380E+04  0.18950849373E+04 0.  0.
        5    1    3    3  502    0 -0.40771362142E+03 -0.36171327545E+03  0.14994393928E+04  0.15954333184E+04  0.46999998093E+01 0.  1.
       -5    1    3    3    0  502  0.40771362142E+03  0.36171327545E+03 -0.32448562598E+03  0.63433421963E+03  0.46999998093E+01 0. -1.
</event>
<event>
 5   0  0.1765328E-04  0.1898916E+04  0.7818609E-02  0.8655396E-01
        2   -1    0    0  501    0  0.00000000000E+00  0.00000000000E+00  0.81641978188E+03  0.81641978188E+03  0.25500000920E-02 0.  1.
       -2   -1    0    0    0  501  0.00000000000E+00  0.00000000000E+00 -0.11041747175E+04  0.11041747175E+04  0.25500000920E-02 0. -1.
    10030    2    1    2    0    0  0.00000000000E+00  0.00000000000E+00 -0.28775493557E+03  0.19205944993E+04  0.18989155663E+04 0.  0.
        3    1    3    3  502    0 -0.76716767230E+03  0.43980182171E+03 -0.49350908037E+03  0.10126811455E+04  0.10100000352E+00 0. -1.
       -3    1    3    3    0  502  0.76716767230E+03 -0.43980182171E+03  0.20575414480E+03  0.90791335385E+03  0.10100000352E+00 0.  1.
</event>
<event>
 5   0  0.8681396E-05  0.1797867E+04  0.7818609E-02  0.8707434E-01
        1   -1    0    0  501    0  0.00000000000E+00  0.00000000000E+00  0.81366512523E+03  0.81366512524E+03  0.50400001928E-02 0.  1.
       -1   -1    0    0    0  501  0.00000000000E+00  0.00000000000E+00 -0.99313812278E+03  0.99313812279E+03  0.50400001928E-02 0. -1.
    10030    2    1    2    0    0  0.00000000000E+00  0.00000000000E+00 -0.17947299755E+03  0.18068032480E+04  0.17978674646E+04 0.  0.
        3    1    3    3  502    0  0.33919224937E+03 -0.61355730017E+03  0.47571256311E+03  0.84723455757E+03  0.10100000352E+00 0.  1.
       -3    1    3    3    0  502 -0.33919224937E+03  0.61355730017E+03 -0.65518556066E+03  0.95956869047E+03  0.10100000352E+00 0. -1.
</event>
<event>
 5   0  0.8602017E-05  0.1856089E+04  0.7818609E-02  0.8677028E-01
        1   -1    0    0  501    0  0.00000000000E+00  0.00000000000E+00  0.71846255287E+03  0.71846255289E+03  0.50400001928E-02 0.  1.
       -1   -1    0    0    0  501  0.00000000000E+00  0.00000000000E+00 -0.11987630758E+04  0.11987630758E+04  0.50400001928E-02 0. -1.
    10030    2    1    2    0    0  0.00000000000E+00  0.00000000000E+00 -0.48030052294E+03  0.19172256287E+04  0.18560887692E+04 0.  0.
        2    1    3    3  502    0 -0.23048305918E+03  0.89187138308E+03 -0.12370104144E+03  0.92944012835E+03  0.25500000920E-02 0.  1.
       -2    1    3    3    0  502  0.23048305918E+03 -0.89187138308E+03 -0.35659948150E+03  0.98778550037E+03  0.25500000920E-02 0. -1.
</event>
<event>
 5   0  0.1790832E-04  0.1890790E+04  0.7818609E-02  0.8659454E-01
        2   -1    0    0  501    0  0.00000000000E+00  0.00000000000E+00  0.13936720972E+04  0.13936720972E+04  0.25500000920E-02 0. -1.
       -2   -1    0    0    0  501  0.00000000000E+00  0.00000000000E+00 -0.64130731445E+03  0.64130731446E+03  0.25500000920E-02 0.  1.
    10030    2    1    2    0    0  0.00000000000E+00  0.00000000000E+00  0.75236478278E+03  0.20349794117E+04  0.18907904272E+04 0.  0.
        5    1    3    3  502    0 -0.68278425310E+03 -0.10881104419E+03 -0.31774640712E+03  0.76093301207E+03  0.46999998093E+01 0. -1.
       -5    1    3    3    0  502  0.68278425310E+03  0.10881104419E+03  0.10701111899E+04  0.12740463996E+04  0.46999998093E+01 0.  1.
</event>
<event>
 5   0  0.1765328E-04  0.1954875E+04  0.7818609E-02  0.8628014E-01
        2   -1    0    0  501    0  0.00000000000E+00  0.00000000000E+00  0.10305751883E+04  0.10305751883E+04  0.25500000920E-02 0. -1.
       -2   -1    0    0    0  501  0.00000000000E+00  0.00000000000E+00 -0.92703969644E+03  0.92703969645E+03  0.25500000920E-02 0.  1.
    10030    2    1    2    0    0  0.00000000000E+00  0.00000000000E+00  0.10353549183E+03  0.19576148847E+04  0.19548750443E+04 0.  0.
        3    1    3    3  502    0 -0.33168594164E+03  0.72371940455E+03  0.61965933722E+03  0.10088424281E+04  0.10100000352E+00 0. -1.
       -3    1    3    3    0  502  0.33168594164E+03 -0.72371940455E+03 -0.51612384539E+03  0.94877245659E+03  0.10100000352E+00 0.  1.
</event>
<event>
 5   0  0.8905646E-05  0.1916073E+04  0.7818609E-02  0.8646897E-01
       -1   -1    0    0    0  501  0.00000000000E+00  0.00000000000E+00  0.91591229537E+03  0.91591229539E+03  0.50400001928E-02 0.  1.
        1   -1    0    0  501    0  0.00000000000E+00  0.00000000000E+00 -0.10020976066E+04  0.10020976066E+04  0.50400001928E-02 0. -1.
    10030    2    1    2    0    0  0.00000000000E+00  0.00000000000E+00 -0.86185311189E+02  0.19180099020E+04  0.19160725655E+04 0.  0.
        1    1    3    3  502    0 -0.26640198961E+03 -0.87280800796E+03 -0.33505463029E+03  0.97212419172E+03  0.50400001928E-02 0. -1.
       -1    1    3    3    0  502  0.26640198961E+03  0.87280800796E+03  0.24886931910E+03  0.94588571024E+03  0.50400001928E-02 0.  1.
</event>
<event>
 5   0  0.1810569E-04  0.1861940E+04  0.7818609E-02  0.8674037E-01
       -2   -1    0    0    0  501  0.00000000000E+00  0.00000000000E+00  0.86280259750E+03  0.86280259750E+03  0.25500000920E-02 0.  1.
        2   -1    0    0  501    0  0.00000000000E+00  0.00000000000E+00 -0.10045226668E+04  0.10045226668E+04  0.25500000920E-02 0. -1.
    10030    2    1    2    0    0  0.00000000000E+00  0.00000000000E+00 -0.14172006933E+03  0.18673252643E+04  0.18619395975E+04 0.  0.
        4    1    3    3  502    0 -0.70009890469E+01  0.16913335642E+03 -0.98895761806E+03  0.10033413623E+04  0.12699999809E+01 0. -1.
       -4    1    3    3    0  502  0.70009890469E+01 -0.16913335642E+03  0.84723754872E+03  0.86398390203E+03  0.12699999809E+01 0.  1.
</event>
<event>
 5   0  0.1799738E-04  0.1877678E+04  0.7818609E-02  0.8666048E-01
       -2   -1    0    0    0  501  0.00000000000E+00  0.00000000000E+00  0.41577710203E+03  0.41577710204E+03  0.25500000920E-02 0. -1.
        2   -1    0    0  501    0  0.00000000000E+00  0.00000000000E+00 -0.21199298891E+04  0.21199298891E+04  0.25500000920E-02 0.  1.
    10030    2    1    2    0    0  0.00000000000E+00  0.00000000000E+00 -0.17041527871E+04  0.25357069911E+04  0.18776776143E+04 0.  0.
        1    1    3    3  502    0 -0.53198701933E+03  0.43490037746E+02  0.19093572627E+03  0.56688448885E+03  0.50400001928E-02 0. -1.
       -1    1    3    3    0  502  0.53198701933E+03 -0.43490037746E+02 -0.18950885133E+04  0.19688225023E+04  0.50400001928E-02 0.  1.
</event>
<event>
 5   0  0.1765328E-04  0.1884902E+04  0.7818609E-02  0.8662408E-01
        2   -1    0    0  501    0  0.00000000000E+00  0.00000000000E+00  0.17983604179E+04  0.17983604179E+04  0.25500000920E-02 0.  1.
       -2   -1    0    0    0  501  0.00000000000E+00  0.00000000000E+00 -0.49390191940E+03  0.49390191940E+03  0.25500000920E-02 0. -1.
    10030    2    1    2    0    0  0.00000000000E+00  0.00000000000E+00  0.13044584985E+04  0.22922623373E+04  0.18849017610E+04 0.  0.
        3    1    3    3  502    0 -0.12093243562E+02  0.61217360036E+03 -0.21906698499E+03  0.65030232787E+03  0.10100000352E+00 0. -1.
       -3    1    3    3    0  502  0.12093243562E+02 -0.61217360036E+03  0.15235254835E+04  0.16419600094E+04  0.10100000352E+00 0.  1.
</event>
<event>
 5   0  0.8587082E-05  0.1882896E+04  0.7818609E-02  0.8663417E-01
       -1   -1    0    0    0  501  0.00000000000E+00  0.00000000000E+00  0.11314447998E+04  0.11314447998E+04  0.50400001928E-02 0.  1.
        1   -1    0    0  501    0  0.00000000000E+00  0.00000000000E+00 -0.78335649422E+03  0.78335649423E+03  0.50400001928E-02 0. -1.
    10030    2    1    2    0    0  0.00000000000E+00  0.00000000000E+00  0.34808830559E+03  0.19148012941E+04  0.18828963135E+04 0.  0.
        5    1    3    3  502    0 -0.16278029457E+03  0.30252349142E+03 -0.71732661332E+03  0.79535994829E+03  0.46999998093E+01 0. -1.
       -5    1    3    3    0  502  0.16278029457E+03 -0.30252349142E+03  0.10654149189E+04  0.11194413458E+04  0.46999998093E+01 0.  1.
</event>
<event>
 5   0  0.8602017E-05  0.1887716E+04  0.7818609E-02  0.8660995E-01
        1   -1    0    0  501    0  0.00000000000E+00  0.00000000000E+00  0.10149290464E+04  0.10149290464E+04  0.50400001928E-02 0. -1.
       -1   -1    0    0    0  501  0.00000000000E+00  0.00000000000E+00 -0.87776420432E+03  0.87776420434E+03  0.50400001928E-02 0.  1.
    10030    2    1    2    0    0  0.00000000000E+00  0.00000000000E+00  0.13716484210E+03  0.18926932508E+04  0.18877164903E+04 0.  0.
        2    1    3    3  502    0 -0.47337418914E+03  0.72781238989E+03 -0.30262925097E+03  0.91944464835E+03  0.25500000920E-02 0. -1.
       -2    1    3    3    0  502  0.47337418914E+03 -0.72781238989E+03  0.43979409307E+03  0.97324860243E+03  0.25500000920E-02 0.  1.
</event>
<event>
 5   0  0.8905646E-05  0.1908428E+04  0.7818609E-02  0.8650673E-01
        1   -1    0    0  501    0  0.00000000000E+00  0.00000000000E+00  0.26544168593E+04  0.26544168593E+04  0.50400001928E-02 0. -1.
       -1   -1    0    0    0  501  0.00000000000E+00  0.00000000000E+00 -0.34302224897E+03  0.34302224900E+03  0.50400001928E-02 0.  1.
    10030    2    1    2    0    0  0.00000000000E+00  0.00000000000E+00  0.23113946103E+04  0.29974391083E+04  0.19084276678E+04 0.  0.
        1    1    3    3  502    0  0.57776047110E+03 -0.48760930804E+03  0.20701159517E+04  0.22038489178E+04  0.50400001928E-02 0. -1.
       -1    1    3    3    0  502 -0.57776047110E+03  0.48760930804E+03  0.24127865865E+03  0.79359019046E+03  0.50400001928E-02 0.  1.
</event>
<event>
 5   0  0.1658711E-04  0.1892718E+04  0.7818609E-02  0.8658489E-01
        2   -1    0    0  501    0  0.00000000000E+00  0.00000000000E+00  0.85944484347E+03  0.85944484347E+03  0.25500000920E-02 0.  1.
       -2   -1    0    0    0  501  0.00000000000E+00  0.00000000000E+00 -0.10420630003E+04  0.10420630003E+04  0.25500000920E-02 0. -1.
    10030    2    1    2    0    0  0.00000000000E+00  0.00000000000E+00 -0.18261815685E+03  0.19015078438E+04  0.18927183332E+04 0.  0.
        2    1    3    3  502    0  0.12849479576E+03 -0.20061831471E+03  0.82882461706E+03  0.86238556724E+03  0.25500000920E-02 0.  1.
       -2    1    3    3    0  502 -0.12849479576E+03  0.20061831471E+03 -0.10114427739E+04  0.10391222766E+04  0.25500000920E-02 0. -1.
</event>
<event>
 5   0  0.1810569E-04  0.1836540E+04  0.7818609E-02  0.8687106E-01
       -2   -1    0    0    0  501  0.00000000000E+00  0.00000000000E+00  0.49194881659E+03  0.49194881659E+03  0.25500000920E-02 0.  1.
        2   -1    0    0  501    0  0.00000000000E+00  0.00000000000E+00 -0.17140394257E+04  0.17140394257E+04  0.25500000920E-02 0. -1.
    10030    2    1    2    0    0  0.00000000000E+00  0.00000000000E+00 -0.12220906091E+04  0.22059882423E+04  0.18365398629E+04 0.  0.
        4    1    3    3  502    0  0.65966198136E+03 -0.61190586422E+03 -0.83133832165E+03  0.12250337686E+04  0.12699999809E+01 0. -1.
       -4    1    3    3    0  502 -0.65966198136E+03  0.61190586422E+03 -0.39075228743E+03  0.98095447364E+03  0.12699999809E+01 0.  1.
</event>
<event>
 5   0  0.8602017E-05  0.1898212E+04  0.7818609E-02  0.8655747E-01
        1   -1    0    0  501    0  0.00000000000E+00  0.00000000000E+00  0.21305188332E+04  0.21305188332E+04  0.50400001928E-02 0.  1.
       -1   -1    0    0    0  501  0.00000000000E+00  0.00000000000E+00 -0.42280869651E+03  0.42280869654E+03  0.50400001928E-02 0. -1.
    10030    2    1    2    0    0  0.00000000000E+00  0.00000000000E+00  0.17077101367E+04  0.25533275297E+04  0.18982116750E+04 0.  0.
        2    1    3    3  502    0  0.89094726270E+03 -0.24324856120E+03  0.11480804821E+04  0.14734468707E+04  0.25500000920E-02 0. -1.
       -2    1    3    3    0  502 -0.89094726270E+03  0.24324856120E+03  0.55962965460E+03  0.10798806590E+04  0.25500000920E-02 0.  1.
</event>
<event>
 5   0  0.8587082E-05  0.1849119E+04  0.7818609E-02  0.8680606E-01
        1   -1    0    0  501    0  0.00000000000E+00  0.00000000000E+00  0.18931183427E+04  0.18931183427E+04  0.50400001928E-02 0.  1.
       -1   -1    0    0    0  501  0.00000000000E+00  0.00000000000E+00 -0.45153533052E+03  0.45153533055E+03  0.50400001928E-02 0. -1.
    10030    2    1    2    0    0  0.00000000000E+00  0.00000000000E+00  0.14415830121E+04  0.23446536732E+04  0.18491185106E+04 0.  0.
        5    1    3    3  502    0 -0.45414569035E+03 -0.49715495555E+03  0.15241138674E+04  0.16662402374E+04  0.46999998093E+01 0.  1.
       -5    1    3    3    0  502  0.45414569035E+03  0.49715495555E+03 -0.82530855221E+02  0.67841343586E+03  0.46999998093E+01 0. -1.
</event>
<event>
 5   0  0.8602017E-05  0.1945769E+04  0.7818609E-02  0.8632404E-01
        1   -1    0    0  501    0  0.00000000000E+00  0.00000000000E+00  0.14855528200E+04  0.14855528200E+04  0.50400001928E-02 0. -1.
       -1   -1    0    0    0  501  0.00000000000E+00  0.00000000000E+00 -0.63713928673E+03  0.63713928675E+03  0.50400001928E-02 0.  1.
    10030    2    1    2    0    0  0.00000000000E+00  0.00000000000E+00  0.84841353323E+03  0.21226921067E+04  0.19457688086E+04 0.  0.
        2    1    3    3  502    0 -0.66297378195E+03  0.30920112908E+03  0.11239024067E+04  0.13410056650E+04  0.25500000920E-02 0. -1.
       -2    1    3    3    0  502  0.66297378195E+03 -0.30920112908E+03 -0.27548887346E+03  0.78168644172E+03  0.25500000920E-02 0.  1.
</event>
<event>
 5   0  0.6375750E-05  0.1904712E+04  0.7818609E-02  0.8652514E-01
       -3   -1    0    0    0  501  0.00000000000E+00  0.00000000000E+00  0.18006490750E+04  0.18006490779E+04  0.10100000352E+00 0. -1.
        3   -1    0    0  501    0  0.00000000000E+00  0.00000000000E+00 -0.50369735659E+03  0.50369736671E+03  0.10100000352E+00 0.  1.
    10030    2    1    2    0    0  0.00000000000E+00  0.00000000000E+00  0.12969517184E+04  0.23043464446E+04  0.19047122556E+04 0.  0.
        5    1    3    3  502    0 -0.68455891785E+03 -0.64646896275E+03  0.82134406763E+03  0.12494683666E+04  0.46999998093E+01 0. -1.
       -5    1    3    3    0  502  0.68455891785E+03  0.64646896275E+03  0.47560765081E+03  0.10548780779E+04  0.46999998093E+01 0.  1.
</event>
<event>
 5   0  0.1658711E-04  0.1906349E+04  0.7818609E-02  0.8651703E-01
        2   -1    0    0  501    0  0.00000000000E+00  0.00000000000E+00  0.16627620874E+04  0.16627620874E+04  0.25500000920E-02 0.  1.
       -2   -1    0    0    0  501  0.00000000000E+00  0.00000000000E+00 -0.54640503466E+03  0.54640503467E+03  0.25500000920E-02 0. -1.
    10030    2    1    2    0    0  0.00000000000E+00  0.00000000000E+00  0.11163570527E+04  0.22091671221E+04  0.19063489460E+04 0.  0.
        2    1    3    3  502    0 -0.83792292670E+02 -0.44329492158E+03 -0.41484608100E+03  0.61288563920E+03  0.25500000920E-02 0. -1.
       -2    1    3    3    0  502  0.83792292670E+02  0.44329492158E+03  0.15312031337E+04  0.15962814829E+04  0.25500000920E-02 0.  1.
</event>
<event>
 5   0  0.1765328E-04  0.1882395E+04  0.7818609E-02  0.8663669E-01
        2   -1    0    0  501    0  0.00000000000E+00  0.00000000000E+00  0.16492228496E+04  0.16492228496E+04  0.25500000920E-02 0. -1.
       -2   -1    0    0    0  501  0.00000000000E+00  0.00000000000E+00 -0.53713347061E+03  0.53713347061E+03  0.25500000920E-02 0.  1.
    10030    2    1    2    0    0  0.00000000000E+00  0.00000000000E+00  0.11120893790E+04  0.21863563202E+04  0.18823950627E+04 0.  0.
        3    1    3    3  502    0  0.73602045625E+03  0.57347319449E+03  0.69950066268E+03  0.11661469908E+04  0.10100000352E+00 0. -1.
       -3    1    3    3    0  502 -0.73602045625E+03 -0.57347319449E+03  0.41258871630E+03  0.10202093294E+04  0.10100000352E+00 0.  1.
</event>
<event>
 5   0  0.1658711E-04  0.1901036E+04  0.7818609E-02  0.8654341E-01
        2   -1    0    0  501    0  0.00000000000E+00  0.00000000000E+00  0.16306118345E+04  0.16306118345E+04  0.25500000920E-02 0.  1.
       -2   -1    0    0    0  501  0.00000000000E+00  0.00000000000E+00 -0.55407697316E+03  0.55407697317E+03  0.25500000920E-02 0. -1.
    10030    2    1    2    0    0  0.00000000000E+00  0.00000000000E+00  0.10765348614E+04  0.21846888077E+04  0.19010360014E+04 0.  0.
        2    1    3    3  502    0 -0.83801195756E+02 -0.29614405192E+03  0.15717644211E+04  0.16016139782E+04  0.25500000920E-02 0.  1.
       -2    1    3    3    0  502  0.83801195756E+02  0.29614405192E+03 -0.49522955973E+03  0.58307482945E+03  0.25500000920E-02 0. -1.
</event>
<event>
 5   0  0.8681396E-05  0.1898249E+04  0.7818609E-02  0.8655728E-01
        1   -1    0    0  501    0  0.00000000000E+00  0.00000000000E+00  0.12567109403E+04  0.12567109403E+04  0.50400001928E-02 0.  1.
       -1   -1    0    0    0  501  0.00000000000E+00  0.00000000000E+00 -0.71682161545E+03  0.71682161547E+03  0.50400001928E-02 0. -1.
    10030    2    1    2    0    0  0.00000000000E+00  0.00000000000E+00  0.53988932483E+03  0.19735325558E+04  0.18982492633E+04 0.  0.
        3    1    3    3  502    0 -0.31402644414E+03  0.65181268382E+03 -0.36871864215E+03  0.81205038617E+03  0.10100000352E+00 0. -1.
       -3    1    3    3    0  502  0.31402644414E+03 -0.65181268382E+03  0.90860796698E+03  0.11614821696E+04  0.10100000352E+00 0.  1.
</event>
<event>
 5   0  0.8587082E-05  0.1884737E+04  0.7818609E-02  0.8662491E-01
       -1   -1    0    0    0  501  0.00000000000E+00  0.00000000000E+00  0.94075016512E+03  0.94075016514E+03  0.50400001928E-02 0. -1.
        1   -1    0    0  501    0  0.00000000000E+00  0.00000000000E+00 -0.94398999930E+03  0.94398999931E+03  0.50400001928E-02 0.  1.
    10030    2    1    2    0    0  0.00000000000E+00  0.00000000000E+00 -0.32398341748E+01  0.18847401644E+04  0.18847373798E+04 0.  0.
        5    1    3    3  502    0  0.90898923584E+02  0.88695272961E+02 -0.93538100451E+03  0.94397520061E+03  0.46999998093E+01 0.  1.
       -5    1    3    3    0  502 -0.90898923584E+02 -0.88695272961E+02  0.93214117034E+03  0.94076496384E+03  0.46999998093E+01 0. -1.
</event>
<event>
 5   0  0.1790832E-04  0.1808582E+04  0.7818609E-02  0.8701749E-01
       -2   -1    0    0    0  501  0.00000000000E+00  0.00000000000E+00  0.77503161783E+03  0.77503161783E+03  0.25500000920E-02 0. -1.
        2   -1    0    0  501    0  0.00000000000E+00  0.00000000000E+00 -0.10551083180E+04  0.10551083180E+04  0.25500000920E-02 0.  1.
    10030    2    1    2    0    0  0.00000000000E+00  0.00000000000E+00 -0.28007670021E+03  0.18301399359E+04  0.18085821040E+04 0.  0.
        5    1    3    3  502    0 -0.65824016335E+03  0.59674644188E+03  0.30294490923E+02  0.88900296665E+03  0.46999998093E+01 0. -1.
       -5    1    3    3    0  502  0.65824016335E+03 -0.59674644188E+03 -0.31037119113E+03  0.94113696921E+03  0.46999998093E+01 0.  1.
</event>
<event>
 5   0  0.8587082E-05  0.1892446E+04  0.7818609E-02  0.8658626E-01
       -1   -1    0    0    0  501  0.00000000000E+00  0.00000000000E+00  0.11621130595E+04  0.11621130595E+04  0.50400001928E-02 0.  1.
        1   -1    0    0  501    0  0.00000000000E+00  0.00000000000E+00 -0.77043943019E+03  0.77043943021E+03  0.50400001928E-02 0. -1.
    10030    2    1    2    0    0  0.00000000000E+00  0.00000000000E+00  0.39167362935E+03  0.19325524898E+04  0.18924457439E+04 0.  0.
        5    1    3    3  502    0  0.22229805574E+03 -0.42760975457E+03 -0.63569851922E+03  0.79774759487E+03  0.46999998093E+01 0. -1.
       -5    1    3    3    0  502 -0.22229805574E+03  0.42760975457E+03  0.10273721486E+04  0.11348048949E+04  0.46999998093E+01 0.  1.
</event>
<event>
 5   0  0.8602017E-05  0.2022395E+04  0.7818609E-02  0.8596221E-01
        1   -1    0    0  501    0  0.00000000000E+00  0.00000000000E+00  0.22622723445E+04  0.22622723445E+04  0.50400001928E-02 0.  1.
       -1   -1    0    0    0  501  0.00000000000E+00  0.00000000000E+00 -0.45198828944E+03  0.45198828947E+03  0.50400001928E-02 0. -1.
    10030    2    1    2    0    0  0.00000000000E+00  0.00000000000E+00  0.18102840551E+04  0.27142606340E+04  0.20223952208E+04 0.  0.
        2    1    3    3  502    0  0.36155238036E+03  0.48271958272E+03 -0.18418047422E+03  0.63060349379E+03  0.25500000920E-02 0. -1.
       -2    1    3    3    0  502 -0.36155238036E+03 -0.48271958272E+03  0.19944645293E+04  0.20836571402E+04  0.25500000920E-02 0.  1.
</event>
<event>
 5   0  0.1790832E-04  0.1898848E+04  0.7818609E-02  0.8655430E-01
       -2   -1    0    0    0  501  0.00000000000E+00  0.00000000000E+00  0.11280708713E+04  0.11280708713E+04  0.25500000920E-02 0.  1.
        2   -1    0    0  501    0  0.00000000000E+00  0.00000000000E+00 -0.79906847150E+03  0.79906847150E+03  0.25500000920E-02 0. -1.
    10030    2    1    2    0    0  0.00000000000E+00  0.00000000000E+00  0.32900239980E+03  0.19271393428E+04  0.18988479316E+04 0.  0.
        5    1    3    3  502    0 -0.17921496676E+03 -0.67551999085E+03  0.81667842319E+03  0.10749097633E+04  0.46999998093E+01 0.  1.
       -5    1    3    3    0  502  0.17921496676E+03  0.67551999085E+03 -0.48767602340E+03  0.85222957948E+03  0.46999998093E+01 0. -1.
</event>
<event>
 5   0  0.8905646E-05  0.1889913E+04  0.7818609E-02  0.8659894E-01
        1   -1    0    0  501    0  0.00000000000E+00  0.00000000000E+00  0.10204097563E+04  0.10204097563E+04  0.50400001928E-02 0. -1.
       -1   -1    0    0    0  501  0.00000000000E+00  0.00000000000E+00 -0.87508240585E+03  0.87508240586E+03  0.50400001928E-02 0.  1.
    10030    2    1    2    0    0  0.00000000000E+00  0.00000000000E+00  0.14532735048E+03  0.18954921622E+04  0.18899128282E+04 0.  0.
        1    1    3    3  502    0  0.49976318112E+03  0.76386601965E+03  0.31769638671E+03  0.96653273475E+03  0.50400001928E-02 0. -1.
       -1    1    3    3    0  502 -0.49976318112E+03 -0.76386601965E+03 -0.17236903623E+03  0.92895942746E+03  0.50400001928E-02 0.  1.
</event>
<event>
 5   0  0.1765328E-04  0.1923683E+04  0.7818609E-02  0.8643157E-01
        2   -1    0    0  501    0  0.00000000000E+00  0.00000000000E+00  0.11318910892E+04  0.11318910892E+04  0.25500000920E-02 0. -1.
       -2   -1    0    0    0  501  0.00000000000E+00  0.00000000000E+00 -0.81733935880E+03  0.81733935881E+03  0.25500000920E-02 0.  1.
    10030    2    1    2    0    0  0.00000000000E+00  0.00000000000E+00  0.31455173037E+03  0.19492304480E+04  0.19236830686E+04 0.  0.
        3    1    3    3  502    0  0.92264992419E+03 -0.13661640349E+01 -0.11809487133E+03  0.93017802481E+03  0.10100000352E+00 0.  1.
       -3    1    3    3    0  502 -0.92264992419E+03  0.13661640349E+01  0.43264660170E+03  0.10190524232E+04  0.10100000352E+00 0. -1.
</event>
<event>
 5   0  0.1799738E-04  0.1871867E+04  0.7818609E-02  0.8668988E-01
       -2   -1    0    0    0  501  0.00000000000E+00  0.00000000000E+00  0.47351756325E+03  0.47351756326E+03  0.25500000920E-02 0. -1.
        2   -1    0    0  501    0  0.00000000000E+00  0.00000000000E+00 -0.18499236837E+04  0.18499236837E+04  0.25500000920E-02 0.  1.
    10030    2    1    2    0    0  0.00000000000E+00  0.00000000000E+00 -0.13764061204E+04  0.23234412469E+04  0.18718668274E+04 0.  0.
        1    1    3    3  502    0 -0.18161222699E+03 -0.83913898339E+03 -0.11506957297E+04  0.14357011865E+04  0.50400001928E-02 0.  1.
       -1    1    3    3    0  502  0.18161222699E+03  0.83913898339E+03 -0.22571039070E+03  0.88774006045E+03  0.50400001928E-02 0. -1.
</event>
<event>
 5   0  0.1765328E-04  0.1909973E+04  0.7818609E-02  0.8649908E-01
        2   -1    0    0  501    0  0.00000000000E+00  0.00000000000E+00  0.11598233601E+04  0.11598233601E+04  0.25500000920E-02 0.  1.
       -2   -1    0    0    0  501  0.00000000000E+00  0.00000000000E+00 -0.78632565016E+03  0.78632565016E+03  0.25500000920E-02 0. -1.
    10030    2    1    2    0    0  0.00000000000E+00  0.00000000000E+00  0.37349770990E+03  0.19461490102E+04  0.19099726256E+04 0.  0.
        3    1    3    3  502    0  0.46123340028E+03  0.28263599030E+03 -0.61516433832E+03  0.81917429518E+03  0.10100000352E+00 0. -1.
       -3    1    3    3    0  502 -0.46123340028E+03 -0.28263599030E+03  0.98866204822E+03  0.11269747150E+04  0.10100000352E+00 0.  1.
</event>
<event>
 5   0  0.8602017E-05  0.1870202E+04  0.7818609E-02  0.8669833E-01
       -1   -1    0    0    0  501  0.00000000000E+00  0.00000000000E+00  0.59381822942E+03  0.59381822944E+03  0.50400001928E-02 0.  1.
        1   -1    0    0  501    0  0.00000000000E+00  0.00000000000E+00 -0.14725276520E+04  0.14725276520E+04  0.50400001928E-02 0. -1.
    10030    2    1    2    0    0  0.00000000000E+00  0.00000000000E+00 -0.87870942261E+03  0.20663458815E+04  0.18702018748E+04 0.  0.
        2    1    3    3  502    0  0.23620610874E+03  0.32333341996E+03 -0.13730103622E+04  0.14302081251E+04  0.25500000920E-02 0. -1.
       -2    1    3    3    0  502 -0.23620610874E+03 -0.32333341996E+03  0.49430093958E+03  0.63613775643E+03  0.25500000920E-02 0.  1.
</event>
<event>
 5   0  0.1810569E-04  0.1946589E+04  0.7818609E-02  0.8632007E-01
        2   -1    0    0  501    0  0.00000000000E+00  0.00000000000E+00  0.92922434773E+03  0.92922434774E+03  0.25500000920E-02 0.  1.
       -2   -1    0    0    0  501  0.00000000000E+00  0.00000000000E+00 -0.10194550905E+04  0.10194550905E+04  0.25500000920E-02 0. -1.
    10030    2    1    2    0    0  0.00000000000E+00  0.00000000000E+00 -0.90230742764E+02  0.19486794382E+04  0.19465893162E+04 0.  0.
        4    1    3    3  502    0 -0.34112776235E+03  0.81032547032E+03  0.37283184678E+03  0.95498728629E+03  0.12699999809E+01 0.  1.
       -4    1    3    3    0  502  0.34112776235E+03 -0.81032547032E+03 -0.46306258955E+03  0.99369215195E+03  0.12699999809E+01 0. -1.
</event>
<event>
 5   0  0.8587082E-05  0.1590320E+04  0.7818609E-02  0.8826517E-01
        1   -1    0    0  501    0  0.00000000000E+00  0.00000000000E+00  0.49926651381E+03  0.49926651383E+03  0.50400001928E-02 0.  1.
       -1   -1    0    0    0  501  0.00000000000E+00  0.00000000000E+00 -0.12664166239E+04  0.12664166240E+04  0.50400001928E-02 0. -1.
    10030    2    1    2    0    0  0.00000000000E+00  0.00000000000E+00 -0.76715011014E+03  0.17656831378E+04  0.15903199840E+04 0.  0.
        5    1    3    3  502    0  0.23971889672E+03  0.64304091400E+03 -0.82947017903E+03  0.10765730976E+04  0.46999998093E+01 0. -1.
       -5    1    3    3    0  502 -0.23971889672E+03 -0.64304091400E+03  0.62320068897E+02  0.68911004021E+03  0.46999998093E+01 0.  1.
</event>
<event>
 5   0  0.6375750E-05  0.1875160E+04  0.7818609E-02  0.8667321E-01
       -4   -1    0    0    0  501  0.00000000000E+00  0.00000000000E+00  0.12231963060E+04  0.12231969653E+04  0.12699999809E+01 0. -1.
        4   -1    0    0  501    0  0.00000000000E+00  0.00000000000E+00 -0.71865337903E+03  0.71865450120E+03  0.12699999809E+01 0.  1.
    10030    2    1    2    0    0  0.00000000000E+00  0.00000000000E+00  0.50454292693E+03  0.19418514665E+04  0.18751596072E+04 0.  0.
        5    1    3    3  502    0 -0.29938706052E+03  0.72996861883E+03 -0.27224755485E+03  0.83464220933E+03  0.46999998093E+01 0.  1.
       -5    1    3    3    0  502  0.29938706052E+03 -0.72996861883E+03  0.77679048178E+03  0.11072092571E+04  0.46999998093E+01 0. -1.
</event>
<event>
 5   0  0.6375750E-05  0.1892613E+04  0.7818609E-02  0.8658542E-01
       -3   -1    0    0    0  501  0.00000000000E+00  0.00000000000E+00  0.94986805324E+03  0.94986805860E+03  0.10100000352E+00 0.  1.
        3   -1    0    0  501    0  0.00000000000E+00  0.00000000000E+00 -0.94275861000E+03  0.94275861541E+03  0.10100000352E+00 0. -1.
    10030    2    1    2    0    0  0.00000000000E+00  0.00000000000E+00  0.71094432320E+01  0.18926266740E+04  0.18926133211E+04 0.  0.
        1    1    3    3  502    0  0.45787135428E+03 -0.80726568181E+03 -0.18130392660E+03  0.94561893590E+03  0.50400001928E-02 0.  1.
       -1    1    3    3    0  502 -0.45787135428E+03  0.80726568181E+03  0.18841336983E+03  0.94700773812E+03  0.50400001928E-02 0. -1.
</event>
<event>
 5   0  0.8602017E-05  0.1900241E+04  0.7818609E-02  0.8654736E-01
       -1   -1    0    0    0  501  0.00000000000E+00  0.00000000000E+00  0.44251718353E+03  0.44251718356E+03  0.50400001928E-02 0. -1.
        1   -1    0    0  501    0  0.00000000000E+00  0.00000000000E+00 -0.20399860435E+04  0.20399860435E+04  0.50400001928E-02 0.  1.
    10030    2    1    2    0    0  0.00000000000E+00  0.00000000000E+00 -0.15974688600E+04  0.24825032271E+04  0.19002409094E+04 0.  0.
        2    1    3    3  502    0 -0.95249974996E+02  0.94258500673E+03 -0.70461971126E+03  0.11806896248E+04  0.25500000920E-02 0.  1.
       -2    1    3    3    0  502  0.95249974996E+02 -0.94258500673E+03 -0.89284914873E+03  0.13018136023E+04  0.25500000920E-02 0. -1.
</event>
<event>
 5   0  0.8681396E-05  0.1897328E+04  0.7818609E-02  0.8656187E-01
       -1   -1    0    0    0  501  0.00000000000E+00  0.00000000000E+00  0.12852467546E+04  0.12852467546E+04  0.50400001928E-02 0.  1.
        1   -1    0    0  501    0  0.00000000000E+00  0.00000000000E+00 -0.70022640113E+03  0.70022640115E+03  0.50400001928E-02 0. -1.
    10030    2    1    2    0    0  0.00000000000E+00  0.00000000000E+00  0.58502035350E+03  0.19854731558E+04  0.18973283423E+04 0.  0.
        3    1    3    3  502    0  0.43093124082E+03  0.84493749842E+03  0.31187921855E+03  0.99844367278E+03  0.10100000352E+00 0. -1.
       -3    1    3    3    0  502 -0.43093124082E+03 -0.84493749842E+03  0.27314113495E+03  0.98702948302E+03  0.10100000352E+00 0.  1.
</event>
<event>
 5   0  0.8587082E-05  0.1892057E+04  0.7818609E-02  0.8658820E-01
        1   -1    0    0  501    0  0.00000000000E+00  0.00000000000E+00  0.14277906908E+04  0.14277906908E+04  0.50400001928E-02 0. -1.
       -1   -1    0    0    0  501  0.00000000000E+00  0.00000000000E+00 -0.62682128081E+03  0.62682128083E+03  0.50400001928E-02 0.  1.
    10030    2    1    2    0    0  0.00000000000E+00  0.00000000000E+00  0.80096941000E+03  0.20546119717E+04  0.18920566478E+04 0.  0.
        5    1    3    3  502    0  0.78730519917E+03 -0.11647619333E+03 -0.15485347379E+03  0.81081309104E+03  0.46999998093E+01 0.  1.
       -5    1    3    3    0  502 -0.78730519917E+03  0.11647619333E+03  0.95582288379E+03  0.12437988806E+04  0.46999998093E+01 0. -1.
</event>
<event>
 5   0  0.1790832E-04  0.1895506E+04  0.7818609E-02  0.8657097E-01
       -2   -1    0    0    0  501  0.00000000000E+00  0.00000000000E+00  0.76581076894E+03  0.76581076894E+03  0.25500000920E-02 0. -1.
        2   -1    0    0  501    0  0.00000000000E+00  0.00000000000E+00 -0.11729212052E+04  0.11729212052E+04  0.25500000920E-02 0.  1.
    10030    2    1    2    0    0  0.00000000000E+00  0.00000000000E+00 -0.40711043630E+03  0.19387319742E+04  0.18955059378E+04 0.  0.
        5    1    3    3  502    0 -0.88310314900E+03 -0.77319125870E+02  0.13929668866E+03  0.89737120327E+03  0.46999998093E+01 0. -1.
       -5    1    3    3    0  502  0.88310314900E+03  0.77319125870E+02 -0.54640712495E+03  0.10413607709E+04  0.46999998093E+01 0.  1.
</event>
<event>
 5   0  0.8905646E-05  0.1899919E+04  0.7818609E-02  0.8654897E-01
        1   -1    0    0  501    0  0.00000000000E+00  0.00000000000E+00  0.12789795055E+04  0.12789795055E+04  0.50400001928E-02 0. -1.
       -1   -1    0    0    0  501  0.00000000000E+00  0.00000000000E+00 -0.70558050708E+03  0.70558050710E+03  0.50400001928E-02 0.  1.
    10030    2    1    2    0    0  0.00000000000E+00  0.00000000000E+00  0.57339899840E+03  0.19845600126E+04  0.18999189541E+04 0.  0.
        1    1    3    3  502    0  0.71255277762E+03 -0.35573090530E+03 -0.25419889115E+03  0.83599821421E+03  0.50400001928E-02 0.  1.
       -1    1    3    3    0  502 -0.71255277762E+03  0.35573090530E+03  0.82759788955E+03  0.11485617984E+04  0.50400001928E-02 0. -1.
</event>
<event>
 5   0  0.8587082E-05  0.1883093E+04  0.7818609E-02  0.8663318E-01
       -1   -1    0    0    0  501  0.00000000000E+00  0.00000000000E+00  0.42071340204E+03  0.42071340207E+03  0.50400001928E-02 0.  1.
        1   -1    0    0  501    0  0.00000000000E+00  0.00000000000E+00 -0.21071587402E+04  0.21071587402E+04  0.50400001928E-02 0. -1.
    10030    2    1    2    0    0  0.00000000000E+00  0.00000000000E+00 -0.16864453382E+04  0.25278721423E+04  0.18830931175E+04 0.  0.
        5    1    3    3  502    0  0.90979857061E+03  0.93694754635E+02 -0.54312495270E+03  0.10637287955E+04  0.46999998093E+01 0.  1.
       -5    1    3    3    0  502 -0.90979857061E+03 -0.93694754635E+02 -0.11433203855E+04  0.14641433468E+04  0.46999998093E+01 0. -1.
</event>
<event>
 5   0  0.8567844E-05  0.1928987E+04  0.7818609E-02  0.8640561E-01
       -1   -1    0    0    0  501  0.00000000000E+00  0.00000000000E+00  0.52954455599E+03  0.52954455602E+03  0.50400001928E-02 0.  1.
        1   -1    0    0  501    0  0.00000000000E+00  0.00000000000E+00 -0.17566930852E+04  0.17566930852E+04  0.50400001928E-02 0. -1.
    10030    2    1    2    0    0  0.00000000000E+00  0.00000000000E+00 -0.12271485292E+04  0.22862376413E+04  0.19289865317E+04 0.  0.
        4    1    3    3  502    0 -0.20384786334E+03 -0.44512692396E+03  0.37132294974E+03  0.61447072813E+03  0.12699999809E+01 0.  1.
       -4    1    3    3    0  502  0.20384786334E+03  0.44512692396E+03 -0.15984714790E+04  0.16717669131E+04  0.12699999809E+01 0. -1.
</event>
<event>
 5   0  0.8602017E-05  0.1838859E+04  0.7818609E-02  0.8685903E-01
       -1   -1    0    0    0  501  0.00000000000E+00  0.00000000000E+00  0.10378356258E+04  0.10378356258E+04  0.50400001928E-02 0. -1.
        1   -1    0    0  501    0  0.00000000000E+00  0.00000000000E+00 -0.81453252177E+03  0.81453252179E+03  0.50400001928E-02 0.  1.
    10030    2    1    2    0    0  0.00000000000E+00  0.00000000000E+00  0.22330310407E+03  0.18523681476E+04  0.18388592872E+04 0.  0.
        2    1    3    3  502    0  0.64617837773E+03  0.39105952889E+03 -0.41648699310E+03  0.86251693689E+03  0.25500000920E-02 0. -1.
       -2    1    3    3    0  502 -0.64617837773E+03 -0.39105952889E+03  0.63979009717E+03  0.98985121075E+03  0.25500000920E-02 0.  1.
</event>
<event>
 5   0  0.1658711E-04  0.1885796E+04  0.7818609E-02  0.8661959E-01
        2   -1    0    0  501    0  0.00000000000E+00  0.00000000000E+00  0.18788371036E+04  0.18788371036E+04  0.25500000920E-02 0. -1.
       -2   -1    0    0    0  501  0.00000000000E+00  0.00000000000E+00 -0.47319540133E+03  0.47319540133E+03  0.25500000920E-02 0.  1.
    10030    2    1    2    0    0  0.00000000000E+00  0.00000000000E+00  0.14056417022E+04  0.23520325049E+04  0.18857964654E+04 0.  0.
        2    1    3    3  502    0 -0.51876818856E+03  0.64715352902E+03  0.14346807341E+03  0.84173108038E+03  0.25500000920E-02 0.  1.
       -2    1    3    3    0  502  0.51876818856E+03 -0.64715352902E+03  0.12621736288E+04  0.15103014245E+04  0.25500000920E-02 0. -1.
</event>
<event>
 5   0  0.1765328E-04  0.1880884E+04  0.7818609E-02  0.8664430E-01
        2   -1    0    0  501    0  0.00000000000E+00  0.00000000000E+00  0.16780005514E+04  0.16780005514E+04  0.25500000920E-02 0.  1.
       -2   -1    0    0    0  501  0.00000000000E+00  0.00000000000E+00 -0.52707462254E+03  0.52707462254E+03  0.25500000920E-02 0. -1.
    10030    2    1    2    0    0  0.00000000000E+00  0.00000000000E+00  0.11509259289E+04  0.22050751739E+04  0.18808843742E+04 0.  0.
        3    1    3    3  502    0  0.13533931125E+03  0.72778374452E+03 -0.10455239274E+03  0.74760759826E+03  0.10100000352E+00 0. -1.
       -3    1    3    3    0  502 -0.13533931125E+03 -0.72778374452E+03  0.12554783216E+04  0.14574675757E+04  0.10100000352E+00 0.  1.
</event>
<event>
 5   0  0.1810569E-04  0.1892820E+04  0.7818609E-02  0.8658438E-01
        2   -1    0    0  501    0  0.00000000000E+00  0.00000000000E+00  0.17137173004E+04  0.17137173004E+04  0.25500000920E-02 0.  1.
       -2   -1    0    0    0  501  0.00000000000E+00  0.00000000000E+00 -0.52266041255E+03  0.52266041256E+03  0.25500000920E-02 0. -1.
    10030    2    1    2    0    0  0.00000000000E+00  0.00000000000E+00  0.11910568879E+04  0.22363777130E+04  0.18928203203E+04 0.  0.
        4    1    3    3  502    0 -0.64647647111E+03 -0.27470897104E+03  0.13449175904E+04  0.15173008220E+04  0.12699999809E+01 0.  1.
       -4    1    3    3    0  502  0.64647647111E+03  0.27470897104E+03 -0.15386070255E+03  0.71907689099E+03  0.12699999809E+01 0. -1.
</event>
<event>
 5   0  0.8587082E-05  0.1772447E+04  0.7818609E-02  0.8721091E-01
        1   -1    0    0  501    0  0.00000000000E+00  0.00000000000E+00  0.15747012985E+04  0.15747012985E+04  0.50400001928E-02 0.  1.
       -1   -1    0    0    0  501  0.00000000000E+00  0.00000000000E+00 -0.49875624098E+03  0.49875624101E+03  0.50400001928E-02 0. -1.
    10030    2    1    2    0    0  0.00000000000E+00  0.00000000000E+00  0.10759450576E+04  0.20734575396E+04  0.17724470095E+04 0.  0.
        5    1    3    3  502    0  0.16997690069E+03  0.84243209826E+03  0.79100715349E+03  0.11680318462E+04  0.46999998093E+01 0.  1.
       -5    1    3    3    0  502 -0.16997690069E+03 -0.84243209826E+03  0.28493790406E+03  0.90542569332E+03  0.46999998093E+01 0. -1.
</event>
<event>
 5   0  0.1799738E-04  0.1847575E+04  0.7818609E-02  0.8681401E-01
        2   -1    0    0  501    0  0.00000000000E+00  0.00000000000E+00  0.97380280652E+03  0.97380280652E+03  0.25500000920E-02 0. -1.
       -2   -1    0    0    0  501  0.00000000000E+00  0.00000000000E+00 -0.87634112614E+03  0.87634112614E+03  0.25500000920E-02 0.  1.
    10030    2    1    2    0    0  0.00000000000E+00  0.00000000000E+00  0.97461680376E+02  0.18501439327E+04  0.18475751114E+04 0.  0.
        1    1    3    3  502    0 -0.42479121167E+03 -0.80936570746E+03  0.18256929983E+03  0.93212229412E+03  0.50400001928E-02 0. -1.
       -1    1    3    3    0  502  0.42479121167E+03  0.80936570746E+03 -0.85107619458E+02  0.91802163855E+03  0.50400001928E-02 0.  1.
</event>
<event>
 5   0  0.1790832E-04  0.1875867E+04  0.7818609E-02  0.8666963E-01
       -2   -1    0    0    0  501  0.00000000000E+00  0.00000000000E+00  0.11424567249E+04  0.11424567249E+04  0.25500000920E-02 0. -1.
        2   -1    0    0  501    0  0.00000000000E+00  0.00000000000E+00 -0.77002453569E+03  0.77002453569E+03  0.25500000920E-02 0.  1.
    10030    2    1    2    0    0  0.00000000000E+00  0.00000000000E+00  0.37243218924E+03  0.19124812606E+04  0.18758674891E+04 0.  0.
        5    1    3    3  502    0  0.16480377492E+03 -0.67102882194E+03 -0.46040101295E+03  0.83031990631E+03  0.46999998093E+01 0.  1.
       -5    1    3    3    0  502 -0.16480377492E+03  0.67102882194E+03  0.83283320219E+03  0.10821613543E+04  0.46999998093E+01 0. -1.
</event>
<event>
 5   0  0.8567844E-05  0.1900038E+04  0.7818609E-02  0.8654838E-01
       -1   -1    0    0    0  501  0.00000000000E+00  0.00000000000E+00  0.58994517753E+03  0.58994517755E+03  0.50400001928E-02 0.  1.
        1   -1    0    0  501    0  0.00000000000E+00  0.00000000000E+00 -0.15298638840E+04  0.15298638841E+04  0.50400001928E-02 0. -1.
    10030    2    1    2    0    0  0.00000000000E+00  0.00000000000E+00 -0.93991870651E+03  0.21198090616E+04  0.19000377056E+04 0.  0.
        4    1    3    3  502    0 -0.81769286166E+03  0.48058040301E+03 -0.40931110427E+03  0.10330132297E+04  0.12699999809E+01 0. -1.
       -4    1    3    3    0  502  0.81769286166E+03 -0.48058040301E+03 -0.53060760224E+03  0.10867958319E+04  0.12699999809E+01 0.  1.
</event>
<event>
 5   0  0.8602017E-05  0.1891790E+04  0.7818609E-02  0.8658954E-01
        1   -1    0    0  501    0  0.00000000000E+00  0.00000000000E+00  0.23660093857E+04  0.23660093857E+04  0.50400001928E-02 0.  1.
       -1   -1    0    0    0  501  0.00000000000E+00  0.00000000000E+00 -0.37815454380E+03  0.37815454383E+03  0.50400001928E-02 0. -1.
    10030    2    1    2    0    0  0.00000000000E+00  0.00000000000E+00  0.19878548419E+04  0.27441639296E+04  0.18917898403E+04 0.  0.
        2    1    3    3  502    0  0.81881269706E+03  0.13596948323E+03  0.16519393232E+04  0.18487415885E+04  0.25500000920E-02 0.  1.
       -2    1    3    3    0  502 -0.81881269706E+03 -0.13596948323E+03  0.33591551868E+03  0.89542234109E+03  0.25500000920E-02 0. -1.
</event>
<event>
 5   0  0.8602017E-05  0.1873470E+04  0.7818609E-02  0.8668176E-01
        1   -1    0    0  501    0  0.00000000000E+00  0.00000000000E+00  0.26041448652E+04  0.26041448652E+04  0.50400001928E-02 0.  1.
       -1   -1    0    0    0  501  0.00000000000E+00  0.00000000000E+00 -0.33695225955E+03  0.33695225959E+03  0.50400001928E-02 0. -1.
    10030    2    1    2    0    0  0.00000000000E+00  0.00000000000E+00  0.22671926056E+04  0.29410971247E+04  0.18734700388E+04 0.  0.
        2    1    3    3  502    0 -0.26792162127E+03  0.88920523148E+03  0.94129854787E+03  0.13223127070E+04  0.25500000920E-02 0. -1.
       -2    1    3    3    0  502  0.26792162127E+03 -0.88920523148E+03  0.13258940577E+04  0.16187844178E+04  0.25500000920E-02 0.  1.
</event>
<event>
 5   0  0.8681396E-05  0.1879364E+04  0.7818609E-02  0.8665197E-01
        1   -1    0    0  501    0  0.00000000000E+00  0.00000000000E+00  0.12404283905E+04  0.12404283905E+04  0.50400001928E-02 0. -1.
       -1   -1    0    0    0  501  0.00000000000E+00  0.00000000000E+00 -0.71185281561E+03  0.71185281563E+03  0.50400001928E-02 0.  1.
    10030    2    1    2    0    0  0.00000000000E+00  0.00000000000E+00  0.52857557491E+03  0.19522812062E+04  0.18793641929E+04 0.  0.
        3    1    3    3  502    0  0.26530618068E+02  0.67382232077E+03  0.94409570030E+03  0.11601970071E+04  0.10100000352E+00 0. -1.
       -3    1    3    3    0  502 -0.26530618068E+02 -0.67382232077E+03 -0.41552012539E+03  0.79208419910E+03  0.10100000352E+00 0.  1.
</event>
<event>
 5   0  0.8602017E-05  0.1924455E+04  0.7818609E-02  0.8642778E-01
       -1   -1    0    0    0  501  0.00000000000E+00  0.00000000000E+00  0.11343527336E+04  0.11343527337E+04  0.50400001928E-02 0.  1.
        1   -1    0    0  501    0  0.00000000000E+00  0.00000000000E+00 -0.81622058139E+03  0.81622058141E+03  0.50400001928E-02 0. -1.
    10030    2    1    2    0    0  0.00000000000E+00  0.00000000000E+00  0.31813215225E+03  0.19505733151E+04  0.19244552973E+04 0.  0.
        2    1    3    3  502    0  0.80302265556E+03 -0.18645829570E+03  0.66205703254E+03  0.10573228437E+04  0.25500000920E-02 0.  1.
       -2    1    3    3    0  502 -0.80302265556E+03  0.18645829570E+03 -0.34392488029E+03  0.89325047141E+03  0.25500000920E-02 0. -1.
</event>
<event>
 5   0  0.1658711E-04  0.1899860E+04  0.7818609E-02  0.8654926E-01
       -2   -1    0    0    0  501  0.00000000000E+00  0.00000000000E+00  0.46363684454E+03  0.46363684455E+03  0.25500000920E-02 0. -1.
        2   -1    0    0  501    0  0.00000000000E+00  0.00000000000E+00 -0.19462795589E+04  0.19462795589E+04  0.25500000920E-02 0.  1.
    10030    2    1    2    0    0  0.00000000000E+00  0.00000000000E+00 -0.14826427144E+04  0.24099164035E+04  0.18998599036E+04 0.  0.
        2    1    3    3  502    0  0.22410680387E+03 -0.48992054006E+03 -0.17337493627E+04  0.18155255018E+04  0.25500000920E-02 0.  1.
       -2    1    3    3    0  502 -0.22410680387E+03  0.48992054006E+03  0.25110664833E+03  0.59439090164E+03  0.25500000920E-02 0. -1.
</event>
<event>
 5   0  0.1658711E-04  0.1905392E+04  0.7818609E-02  0.8652177E-01
       -2   -1    0    0    0  501  0.00000000000E+00  0.00000000000E+00  0.48274078814E+03  0.48274078815E+03  0.25500000920E-02 0. -1.
        2   -1    0    0  501    0  0.00000000000E+00  0.00000000000E+00 -0.18801587443E+04  0.18801587443E+04  0.25500000920E-02 0.  1.
    10030    2    1    2    0    0  0.00000000000E+00  0.00000000000E+00 -0.13974179562E+04  0.23628995325E+04  0.19053916281E+04 0.  0.
        2    1    3    3  502    0  0.35823062054E+03 -0.54020251384E+03  0.16713575585E+03  0.66938949374E+03  0.25500000920E-02 0.  1.
       -2    1    3    3    0  502 -0.35823062054E+03  0.54020251384E+03 -0.15645537121E+04  0.16935100388E+04  0.25500000920E-02 0. -1.
</event>
<event>
 5   0  0.1765328E-04  0.1891517E+04  0.7818609E-02  0.8659090E-01
       -2   -1    0    0    0  501  0.00000000000E+00  0.00000000000E+00  0.61174534765E+03  0.61174534765E+03  0.25500000920E-02 0.  1.
        2   -1    0    0  501    0  0.00000000000E+00  0.00000000000E+00 -0.14621434756E+04  0.14621434756E+04  0.25500000920E-02 0. -1.
    10030    2    1    2    0    0  0.00000000000E+00  0.00000000000E+00 -0.85039812797E+03  0.20738888233E+04  0.18915173473E+04 0.  0.
        3    1    3    3  502    0  0.92041637142E+03  0.34700817553E+02 -0.66058139326E+03  0.11334629376E+04  0.10100000352E+00 0. -1.
       -3    1    3    3    0  502 -0.92041637142E+03 -0.34700817553E+02 -0.18981673470E+03  0.94042588570E+03  0.10100000352E+00 0.  1.
</event>
<event>
 5   0  0.8905646E-05  0.1606263E+04  0.7818609E-02  0.8816710E-01
       -1   -1    0    0    0  501  0.00000000000E+00  0.00000000000E+00  0.46052777449E+03  0.46052777451E+03  0.50400001928E-02 0.  1.
        1   -1    0    0  501    0  0.00000000000E+00  0.00000000000E+00 -0.14006102235E+04  0.14006102235E+04  0.50400001928E-02 0. -1.
    10030    2    1    2    0    0  0.00000000000E+00  0.00000000000E+00 -0.94008244901E+03  0.18611379980E+04  0.16062626301E+04 0.  0.
        1    1    3    3  502    0  0.58695631991E+03  0.24738480345E+03  0.96766869924E+02  0.64426763818E+03  0.50400001928E-02 0.  1.
       -1    1    3    3    0  502 -0.58695631991E+03 -0.24738480345E+03 -0.10368493189E+04  0.12168703598E+04  0.50400001928E-02 0. -1.
</event>
<event>
 5   0  0.8602017E-05  0.1868784E+04  0.7818609E-02  0.8670552E-01
       -1   -1    0    0    0  501  0.00000000000E+00  0.00000000000E+00  0.75903857669E+03  0.75903857671E+03  0.50400001928E-02 0.  1.
        1   -1    0    0  501    0  0.00000000000E+00  0.00000000000E+00 -0.11502562175E+04  0.11502562176E+04  0.50400001928E-02 0. -1.
    10030    2    1    2    0    0  0.00000000000E+00  0.00000000000E+00 -0.39121764085E+03  0.19092947943E+04  0.18687844629E+04 0.  0.
        2    1    3    3  502    0  0.85883585335E+03  0.36800702751E+03 -0.20356524861E+03  0.95627768234E+03  0.25500000920E-02 0.  1.
       -2    1    3    3    0  502 -0.85883585335E+03 -0.36800702751E+03 -0.18765239224E+03  0.95301711192E+03  0.25500000920E-02 0. -1.
</event>
<event>
 5   0  0.8602017E-05  0.1902995E+04  0.7818609E-02  0.8653367E-01
       -1   -1    0    0    0  501  0.00000000000E+00  0.00000000000E+00  0.64822887378E+03  0.64822887380E+03  0.50400001928E-02 0.  1.
        1   -1    0    0  501    0  0.00000000000E+00  0.00000000000E+00 -0.13966474256E+04  0.13966474256E+04  0.50400001928E-02 0. -1.
    10030    2    1    2    0    0  0.00000000000E+00  0.00000000000E+00 -0.74841855182E+03  0.20448762994E+04  0.19029946797E+04 0.  0.
        2    1    3    3  502    0 -0.51955752128E+03  0.43948131008E+03  0.34040212700E+03  0.76089253375E+03  0.25500000920E-02 0.  1.
       -2    1    3    3    0  502  0.51955752128E+03 -0.43948131008E+03 -0.10888206788E+04  0.12839837657E+04  0.25500000920E-02 0. -1.
</event>
<event>
 5   0  0.1765328E-04  0.1836471E+04  0.7818609E-02  0.8687141E-01
       -2   -1    0    0    0  501  0.00000000000E+00  0.00000000000E+00  0.38546997293E+03  0.38546997294E+03  0.25500000920E-02 0. -1.
        2   -1    0    0  501    0  0.00000000000E+00  0.00000000000E+00 -0.21873474366E+04  0.21873474366E+04  0.25500000920E-02 0.  1.
    10030    2    1    2    0    0  0.00000000000E+00  0.00000000000E+00 -0.18018774636E+04  0.25728174095E+04  0.18364713525E+04 0.  0.
        3    1    3    3  502    0 -0.90275139621E+03  0.13413336360E+03 -0.10424624655E+04  0.13855251152E+04  0.10100000352E+00 0.  1.
       -3    1    3    3    0  502  0.90275139621E+03 -0.13413336360E+03 -0.75941499810E+03  0.11872922943E+04  0.10100000352E+00 0. -1.
</event>
<event>
 5   0  0.1658711E-04  0.1934719E+04  0.7818609E-02  0.8637765E-01
       -2   -1    0    0    0  501  0.00000000000E+00  0.00000000000E+00  0.81327869842E+03  0.81327869843E+03  0.25500000920E-02 0. -1.
        2   -1    0    0  501    0  0.00000000000E+00  0.00000000000E+00 -0.11506319802E+04  0.11506319802E+04  0.25500000920E-02 0.  1.
    10030    2    1    2    0    0  0.00000000000E+00  0.00000000000E+00 -0.33735328179E+03  0.19639106786E+04  0.19347190796E+04 0.  0.
        2    1    3    3  502    0 -0.45254304035E+03  0.11129584466E+03 -0.10291713061E+04  0.11297679168E+04  0.25500000920E-02 0.  1.
       -2    1    3    3    0  502  0.45254304035E+03 -0.11129584466E+03  0.69181802432E+03  0.83414276188E+03  0.25500000920E-02 0. -1.
</event>
<event>
 5   0  0.1658711E-04  0.1907345E+04  0.7818609E-02  0.8651209E-01
       -2   -1    0    0    0  501  0.00000000000E+00  0.00000000000E+00  0.53472429848E+03  0.53472429848E+03  0.25500000920E-02 0.  1.
        2   -1    0    0  501    0  0.00000000000E+00  0.00000000000E+00 -0.17008594490E+04  0.17008594490E+04  0.25500000920E-02 0. -1.
    10030    2    1    2    0    0  0.00000000000E+00  0.00000000000E+00 -0.11661351505E+04  0.22355837475E+04  0.19073446208E+04 0.  0.
        2    1    3    3  502    0  0.11301178551E+03 -0.71429232725E+03  0.14561723556E+03  0.73769205752E+03  0.25500000920E-02 0. -1.
       -2    1    3    3    0  502 -0.11301178551E+03  0.71429232725E+03 -0.13117523861E+04  0.14978916899E+04  0.25500000920E-02 0.  1.
</event>
<event>
 5   0  0.8567844E-05  0.1949972E+04  0.7818609E-02  0.8630374E-01
        1   -1    0    0  501    0  0.00000000000E+00  0.00000000000E+00  0.12218615150E+04  0.12218615150E+04  0.50400001928E-02 0. -1.
       -1   -1    0    0    0  501  0.00000000000E+00  0.00000000000E+00 -0.77799159152E+03  0.77799159154E+03  0.50400001928E-02 0.  1.
    10030    2    1    2    0    0  0.00000000000E+00  0.00000000000E+00  0.44386992347E+03  0.19998531065E+04  0.19499722918E+04 0.  0.
        4    1    3    3  502    0 -0.78109451581E+03  0.50610896116E+03 -0.75909949662E+02  0.93381949891E+03  0.12699999809E+01 0.  1.
       -4    1    3    3    0  502  0.78109451581E+03 -0.50610896116E+03  0.51977987313E+03  0.10660336076E+04  0.12699999809E+01 0. -1.
</event>
<event>
 5   0  0.6375750E-05  0.1904165E+04  0.7818609E-02  0.8652786E-01
        3   -1    0    0  501    0  0.00000000000E+00  0.00000000000E+00  0.54503923824E+03  0.54503924760E+03  0.10100000352E+00 0. -1.
       -3   -1    0    0    0  501  0.00000000000E+00  0.00000000000E+00 -0.16631118821E+04  0.16631118852E+04  0.10100000352E+00 0.  1.
    10030    2    1    2    0    0  0.00000000000E+00  0.00000000000E+00 -0.11180726439E+04  0.22081511328E+04  0.19041651683E+04 0.  0.
        2    1    3    3  502    0  0.19802079337E+03 -0.27840255208E+02 -0.16384848260E+04  0.16506422506E+04  0.25500000920E-02 0.  1.
       -2    1    3    3    0  502 -0.19802079337E+03  0.27840255208E+02  0.52041218212E+03  0.55750888219E+03  0.25500000920E-02 0. -1.
</event>
<event>
 5   0  0.1799738E-04  0.1902897E+04  0.7818609E-02  0.8653416E-01
        2   -1    0    0  501    0  0.00000000000E+00  0.00000000000E+00  0.11090389451E+04  0.11090389451E+04  0.25500000920E-02 0. -1.
       -2   -1    0    0    0  501  0.00000000000E+00  0.00000000000E+00 -0.81625100084E+03  0.81625100084E+03  0.25500000920E-02 0.  1.
    10030    2    1    2    0    0  0.00000000000E+00  0.00000000000E+00  0.29278794424E+03  0.19252899459E+04  0.19028968957E+04 0.  0.
        1    1    3    3  502    0 -0.77219138740E+03  0.25549635330E+03 -0.35307128596E+03  0.88668892985E+03  0.50400001928E-02 0.  1.
       -1    1    3    3    0  502  0.77219138740E+03 -0.25549635330E+03  0.64585923020E+03  0.10386010161E+04  0.50400001928E-02 0. -1.
</event>
<event>
 5   0  0.1765328E-04  0.1874229E+04  0.7818609E-02  0.8667791E-01
        2   -1    0    0  501    0  0.00000000000E+00  0.00000000000E+00  0.12746540367E+04  0.12746540367E+04  0.25500000920E-02 0.  1.
       -2   -1    0    0    0  501  0.00000000000E+00  0.00000000000E+00 -0.68895862127E+03  0.68895862128E+03  0.25500000920E-02 0. -1.
    10030    2    1    2    0    0  0.00000000000E+00  0.00000000000E+00  0.58569541547E+03  0.19636126580E+04  0.18742293219E+04 0.  0.
        3    1    3    3  502    0  0.32938688046E+03  0.87157727182E+03  0.39783248507E+03  0.10131206020E+04  0.10100000352E+00 0.  1.
       -3    1    3    3    0  502 -0.32938688046E+03 -0.87157727182E+03  0.18786293040E+03  0.95049205604E+03  0.10100000352E+00 0. -1.
</event>
<event>
 5   0  0.8602017E-05  0.1899926E+04  0.7818609E-02  0.8654893E-01
       -1   -1    0    0    0  501  0.00000000000E+00  0.00000000000E+00  0.98484236241E+03  0.98484236242E+03  0.50400001928E-02 0.  1.
        1   -1    0    0  501    0  0.00000000000E+00  0.00000000000E+00 -0.91631926096E+03  0.91631926097E+03  0.50400001928E-02 0. -1.
    10030    2    1    2    0    0  0.00000000000E+00  0.00000000000E+00  0.68523101450E+02  0.19011616234E+04  0.18999263414E+04 0.  0.
        2    1    3    3  502    0 -0.41383238282E+02  0.63031617014E+03 -0.67572000624E+03  0.92499112082E+03  0.25500000920E-02 0. -1.
       -2    1    3    3    0  502  0.41383238282E+02 -0.63031617014E+03  0.74424310769E+03  0.97617050257E+03  0.25500000920E-02 0.  1.
</event>
<event>
 5   0  0.1765328E-04  0.1905922E+04  0.7818609E-02  0.8651914E-01
       -2   -1    0    0    0  501  0.00000000000E+00  0.00000000000E+00  0.35924942546E+03  0.35924942547E+03  0.25500000920E-02 0. -1.
        2   -1    0    0  501    0  0.00000000000E+00  0.00000000000E+00 -0.25278676397E+04  0.25278676397E+04  0.25500000920E-02 0.  1.
    10030    2    1    2    0    0  0.00000000000E+00  0.00000000000E+00 -0.21686182142E+04  0.28871170651E+04  0.19059223460E+04 0.  0.
        3    1    3    3  502    0 -0.16707131596E+03 -0.90915184056E+03 -0.73339151900E+03  0.11799716201E+04  0.10100000352E+00 0. -1.
       -3    1    3    3    0  502  0.16707131596E+03  0.90915184056E+03 -0.14352266952E+04  0.17071454451E+04  0.10100000352E+00 0.  1.
</event>
<event>
 5   0  0.1658711E-04  0.1903685E+04  0.7818609E-02  0.8653024E-01
       -2   -1    0    0    0  501  0.00000000000E+00  0.00000000000E+00  0.51581350008E+03  0.51581350009E+03  0.25500000920E-02 0. -1.
        2   -1    0    0  501    0  0.00000000000E+00  0.00000000000E+00 -0.17564574560E+04  0.17564574560E+04  0.25500000920E-02 0.  1.
    10030    2    1    2    0    0  0.00000000000E+00  0.00000000000E+00 -0.12406439559E+04  0.22722709561E+04  0.19036853397E+04 0.  0.
        2    1    3    3  502    0 -0.88721768959E+03  0.34258949954E+03 -0.66626730122E+03  0.11612213013E+04  0.25500000920E-02 0. -1.
       -2    1    3    3    0  502  0.88721768959E+03 -0.34258949954E+03 -0.57437665467E+03  0.11110496548E+04  0.25500000920E-02 0.  1.
</event>
<event>
 5   0  0.1765328E-04  0.1890016E+04  0.7818609E-02  0.8659842E-01
        2   -1    0    0  501    0  0.00000000000E+00  0.00000000000E+00  0.19097096970E+04  0.19097096970E+04  0.25500000920E-02 0. -1.
       -2   -1    0    0    0  501  0.00000000000E+00  0.00000000000E+00 -0.46763115119E+03  0.46763115120E+03  0.25500000920E-02 0.  1.
    10030    2    1    2    0    0  0.00000000000E+00  0.00000000000E+00  0.14420785458E+04  0.23773408482E+04  0.18900156021E+04 0.  0.
        3    1    3    3  502    0 -0.37148151583E+03  0.56123125869E+02 -0.36965648875E+03  0.52706190504E+03  0.10100000352E+00 0.  1.
       -3    1    3    3    0  502  0.37148151583E+03 -0.56123125869E+02  0.18117350345E+04  0.18502789431E+04  0.10100000352E+00 0. -1.
</event>
<event>
 5   0  0.8587082E-05  0.1892559E+04  0.7818609E-02  0.8658569E-01
       -1   -1    0    0    0  501  0.00000000000E+00  0.00000000000E+00  0.78259713715E+03  0.78259713717E+03  0.50400001928E-02 0. -1.
        1   -1    0    0  501    0  0.00000000000E+00  0.00000000000E+00 -0.11441959974E+04  0.11441959974E+04  0.50400001928E-02 0.  1.
    10030    2    1    2    0    0  0.00000000000E+00  0.00000000000E+00 -0.36159886024E+03  0.19267931346E+04  0.18925585982E+04 0.  0.
        5    1    3    3  502    0 -0.24407858498E+03 -0.73207481273E+03  0.37675145783E+03  0.85876168874E+03  0.46999998093E+01 0. -1.
       -5    1    3    3    0  502  0.24407858498E+03  0.73207481273E+03 -0.73835031807E+03  0.10680314458E+04  0.46999998093E+01 0.  1.
</event>
<event>
 5   0  0.8587082E-05  0.1890739E+04  0.7818609E-02  0.8659480E-01
       -1   -1    0    0    0  501  0.00000000000E+00  0.00000000000E+00  0.80852317356E+03  0.80852317358E+03  0.50400001928E-02 0. -1.
        1   -1    0    0  501    0  0.00000000000E+00  0.00000000000E+00 -0.11053779301E+04  0.11053779301E+04  0.50400001928E-02 0.  1.
    10030    2    1    2    0    0  0.00000000000E+00  0.00000000000E+00 -0.29685475654E+03  0.19139011037E+04  0.18907391910E+04 0.  0.
        5    1    3    3  502    0  0.85496268330E+03 -0.39907126431E+03 -0.20816316196E+03  0.96621584329E+03  0.46999998093E+01 0.  1.
       -5    1    3    3    0  502 -0.85496268330E+03  0.39907126431E+03 -0.88691594580E+02  0.94768526040E+03  0.46999998093E+01 0. -1.
</event>
<event>
 5   0  0.1799738E-04  0.1895952E+04  0.7818609E-02  0.8656874E-01
       -2   -1    0    0    0  501  0.00000000000E+00  0.00000000000E+00  0.84355419492E+03  0.84355419492E+03  0.25500000920E-02 0.  1.
        2   -1    0    0  501    0  0.00000000000E+00  0.00000000000E+00 -0.10653241682E+04  0.10653241682E+04  0.25500000920E-02 0. -1.
    10030    2    1    2    0    0  0.00000000000E+00  0.00000000000E+00 -0.22176997331E+03  0.19088783632E+04  0.18959521841E+04 0.  0.
        1    1    3    3  502    0 -0.58662817685E+03  0.59458156742E+03  0.34050053133E+03  0.90199804326E+03  0.50400001928E-02 0.  1.
       -1    1    3    3    0  502  0.58662817685E+03 -0.59458156742E+03 -0.56227050464E+03  0.10068803199E+04  0.50400001928E-02 0. -1.
</event>
<event>
 5   0  0.8602017E-05  0.1761934E+04  0.7818609E-02  0.8726808E-01
        1   -1    0    0  501    0  0.00000000000E+00  0.00000000000E+00  0.95595920763E+03  0.95595920764E+03  0.50400001928E-02 0. -1.
       -1   -1    0    0    0  501  0.00000000000E+00  0.00000000000E+00 -0.81185793356E+03  0.81185793358E+03  0.50400001928E-02 0.  1.
    10030    2    1    2    0    0  0.00000000000E+00  0.00000000000E+00  0.14410127407E+03  0.17678171412E+04  0.17619342404E+04 0.  0.
        2    1    3    3  502    0 -0.74112879056E+03  0.38693797476E+03 -0.20656373904E+03  0.86119768857E+03  0.25500000920E-02 0.  1.
       -2    1    3    3    0  502  0.74112879056E+03 -0.38693797476E+03  0.35066501310E+03  0.90661945265E+03  0.25500000920E-02 0. -1.
</event>
<event>
 5   0  0.1658711E-04  0.1943491E+04  0.7818609E-02  0.8633506E-01
       -2   -1    0    0    0  501  0.00000000000E+00  0.00000000000E+00  0.91846443193E+03  0.91846443193E+03  0.25500000920E-02 0. -1.
        2   -1    0    0  501    0  0.00000000000E+00  0.00000000000E+00 -0.10281178658E+04  0.10281178658E+04  0.25500000920E-02 0.  1.
    10030    2    1    2    0    0  0.00000000000E+00  0.00000000000E+00 -0.10965343383E+03  0.19465822977E+04  0.19434913857E+04 0.  0.
        2    1    3    3  502    0 -0.49017327648E+03 -0.60141305197E+03 -0.64084029174E+03  0.10063020320E+04  0.25500000920E-02 0.  1.
       -2    1    3    3    0  502  0.49017327648E+03  0.60141305197E+03  0.53118685791E+03  0.94028026571E+03  0.25500000920E-02 0. -1.
</event>
<event>
 5   0  0.8905646E-05  0.1906023E+04  0.7818609E-02  0.8651864E-01
        1   -1    0    0  501    0  0.00000000000E+00  0.00000000000E+00  0.18243111484E+04  0.18243111484E+04  0.50400001928E-02 0. -1.
       -1   -1    0    0    0  501  0.00000000000E+00  0.00000000000E+00 -0.49784857072E+03  0.49784857075E+03  0.50400001928E-02 0.  1.
    10030    2    1    2    0    0  0.00000000000E+00  0.00000000000E+00  0.13264625777E+04  0.23221597191E+04  0.19060227678E+04 0.  0.
        1    1    3    3  502    0 -0.30148943710E+03 -0.63062675851E+03  0.14524636400E+04  0.16119046544E+04  0.50400001928E-02 0. -1.
       -1    1    3    3    0  502  0.30148943710E+03  0.63062675851E+03 -0.12600106239E+03  0.71025506473E+03  0.50400001928E-02 0.  1.
</event>
<event>
 5   0  0.1810569E-04  0.1907940E+04  0.7818609E-02  0.8650914E-01
       -2   -1    0    0    0  501  0.00000000000E+00  0.00000000000E+00  0.45575527400E+03  0.45575527400E+03  0.25500000920E-02 0.  1.
        2   -1    0    0  501    0  0.00000000000E+00  0.00000000000E+00 -0.19968145158E+04  0.19968145158E+04  0.25500000920E-02 0. -1.
    10030    2    1    2    0    0  0.00000000000E+00  0.00000000000E+00 -0.15410592418E+04  0.24525697898E+04  0.19079399852E+04 0.  0.
        4    1    3    3  502    0 -0.34334859535E+03 -0.88350199824E+03 -0.90893608174E+03  0.13132518618E+04  0.12699999809E+01 0. -1.
       -4    1    3    3    0  502  0.34334859535E+03  0.88350199824E+03 -0.63212316010E+03  0.11393179281E+04  0.12699999809E+01 0.  1.
</event>
<event>
 5   0  0.8567844E-05  0.1922213E+04  0.7818609E-02  0.8643878E-01
        1   -1    0    0  501    0  0.00000000000E+00  0.00000000000E+00  0.10772818003E+04  0.10772818003E+04  0.50400001928E-02 0.  1.
       -1   -1    0    0    0  501  0.00000000000E+00  0.00000000000E+00 -0.85745937743E+03  0.85745937744E+03  0.50400001928E-02 0. -1.
    10030    2    1    2    0    0  0.00000000000E+00  0.00000000000E+00  0.21982242287E+03  0.19347411778E+04  0.19222126644E+04 0.  0.
        4    1    3    3  502    0  0.91839799497E+03  0.15072588115E+03  0.35137186429E+03  0.99480499010E+03  0.12699999809E+01 0.  1.
       -4    1    3    3    0  502 -0.91839799497E+03 -0.15072588115E+03 -0.13154944142E+03  0.93993618765E+03  0.12699999809E+01 0. -1.
</event>
<event>
 5   0  0.1790832E-04  0.1887331E+04  0.7818609E-02  0.8661189E-01
       -2   -1    0    0    0  501  0.00000000000E+00  0.00000000000E+00  0.40335553697E+03  0.40335553697E+03  0.25500000920E-02 0.  1.
        2   -1    0    0  501    0  0.00000000000E+00  0.00000000000E+00 -0.22077400220E+04  0.22077400220E+04  0.25500000920E-02 0. -1.
    10030    2    1    2    0    0  0.00000000000E+00  0.00000000000E+00 -0.18043844851E+04  0.26110955590E+04  0.18873305615E+04 0.  0.
        5    1    3    3  502    0  0.56312125787E+03 -0.22561376956E+03 -0.19022095796E+04  0.19966047428E+04  0.46999998093E+01 0. -1.
       -5    1    3    3    0  502 -0.56312125787E+03  0.22561376956E+03  0.97825094571E+02  0.61449081621E+03  0.46999998093E+01 0.  1.
</event>
<event>
 5   0  0.8567844E-05  0.1907140E+04  0.7818609E-02  0.8651310E-01
        1   -1    0    0  501    0  0.00000000000E+00  0.00000000000E+00  0.93590456347E+03  0.93590456348E+03  0.50400001928E-02 0.  1.
       -1   -1    0    0    0  501  0.00000000000E+00  0.00000000000E+00 -0.97156928063E+03  0.97156928064E+03  0.50400001928E-02 0. -1.
    10030    2    1    2    0    0  0.00000000000E+00  0.00000000000E+00 -0.35664717158E+02  0.19074738441E+04  0.19071403970E+04 0.  0.
        4    1    3    3  502    0 -0.38468412234E+03 -0.85519996967E+03  0.15524600773E+03  0.95050081427E+03  0.12699999809E+01 0.  1.
       -4    1    3    3    0  502  0.38468412234E+03  0.85519996967E+03 -0.19091072489E+03  0.95697302986E+03  0.12699999809E+01 0. -1.
</event>
<event>
 5   0  0.8587082E-05  0.1920151E+04  0.7818609E-02  0.8644890E-01
       -1   -1    0    0    0  501  0.00000000000E+00  0.00000000000E+00  0.10874719259E+04  0.10874719259E+04  0.50400001928E-02 0.  1.
        1   -1    0    0  501    0  0.00000000000E+00  0.00000000000E+00 -0.84760381790E+03  0.84760381792E+03  0.50400001928E-02 0. -1.
    10030    2    1    2    0    0  0.00000000000E+00  0.00000000000E+00  0.23986810800E+03  0.19350757438E+04  0.19201514068E+04 0.  0.
        5    1    3    3  502    0  0.75815072056E+03  0.13105398981E+02 -0.47350532975E+03  0.89397631617E+03  0.46999998093E+01 0. -1.
       -5    1    3    3    0  502 -0.75815072056E+03 -0.13105398981E+02  0.71337343775E+03  0.10410994277E+04  0.46999998093E+01 0.  1.
</event>
<event>
 5   0  0.1799738E-04  0.1652126E+04  0.7818609E-02  0.8789150E-01
       -2   -1    0    0    0  501  0.00000000000E+00  0.00000000000E+00  0.92439973695E+03  0.92439973695E+03  0.25500000920E-02 0.  1.
        2   -1    0    0  501    0  0.00000000000E+00  0.00000000000E+00 -0.73818753588E+03  0.73818753588E+03  0.25500000920E-02 0. -1.
    10030    2    1    2    0    0  0.00000000000E+00  0.00000000000E+00  0.18621220107E+03  0.16625872728E+04  0.16521263438E+04 0.  0.
        1    1    3    3  502    0 -0.49296866045E+02  0.26260918168E+03  0.87971170861E+03  0.91939461256E+03  0.50400001928E-02 0.  1.
       -1    1    3    3    0  502  0.49296866045E+02 -0.26260918168E+03 -0.69349950754E+03  0.74319266028E+03  0.50400001928E-02 0. -1.
</event>
<event>
 5   0  0.8681396E-05  0.1910630E+04  0.7818609E-02  0.8649583E-01
       -1   -1    0    0    0  501  0.00000000000E+00  0.00000000000E+00  0.43747821165E+03  0.43747821168E+03  0.50400001928E-02 0. -1.
        1   -1    0    0  501    0  0.00000000000E+00  0.00000000000E+00 -0.20861074389E+04  0.20861074389E+04  0.50400001928E-02 0.  1.
    10030    2    1    2    0    0  0.00000000000E+00  0.00000000000E+00 -0.16486292272E+04  0.25235856506E+04  0.19106297932E+04 0.  0.
        3    1    3    3  502    0  0.12997502955E+03 -0.46164633055E+03  0.26694891212E+03  0.54888302460E+03  0.10100000352E+00 0. -1.
       -3    1    3    3    0  502 -0.12997502955E+03  0.46164633055E+03 -0.19155781394E+04  0.19747026260E+04  0.10100000352E+00 0.  1.
</event>
<event>
 5   0  0.1799738E-04  0.1885290E+04  0.7818609E-02  0.8662213E-01
       -2   -1    0    0    0  501  0.00000000000E+00  0.00000000000E+00  0.44674064325E+03  0.44674064326E+03  0.25500000920E-02 0. -1.
        2   -1    0    0  501    0  0.00000000000E+00  0.00000000000E+00 -0.19890278520E+04  0.19890278520E+04  0.25500000920E-02 0.  1.
    10030    2    1    2    0    0  0.00000000000E+00  0.00000000000E+00 -0.15422872087E+04  0.24357684952E+04  0.18852899852E+04 0.  0.
        1    1    3    3  502    0  0.69425034863E+02  0.77784761728E+03 -0.89062011390E+02  0.78600177677E+03  0.50400001928E-02 0. -1.
       -1    1    3    3    0  502 -0.69425034863E+02 -0.77784761728E+03 -0.14532251973E+04  0.16497667185E+04  0.50400001928E-02 0.  1.
</event>
<event>
 5   0  0.8681396E-05  0.1903214E+04  0.7818609E-02  0.8653258E-01
       -1   -1    0    0    0  501  0.00000000000E+00  0.00000000000E+00  0.60894785316E+03  0.60894785318E+03  0.50400001928E-02 0. -1.
        1   -1    0    0  501    0  0.00000000000E+00  0.00000000000E+00 -0.14870829299E+04  0.14870829299E+04  0.50400001928E-02 0.  1.
    10030    2    1    2    0    0  0.00000000000E+00  0.00000000000E+00 -0.87813507671E+03  0.20960307831E+04  0.19032140790E+04 0.  0.
        3    1    3    3  502    0 -0.46043500478E+03 -0.29605882440E+03 -0.12963267982E+04  0.14071653773E+04  0.10100000352E+00 0.  1.
       -3    1    3    3    0  502  0.46043500478E+03  0.29605882440E+03  0.41819172149E+03  0.68886540576E+03  0.10100000352E+00 0. -1.
</event>
<event>
 5   0  0.8587082E-05  0.1902277E+04  0.7818609E-02  0.8653724E-01
        1   -1    0    0  501    0  0.00000000000E+00  0.00000000000E+00  0.96805186318E+03  0.96805186319E+03  0.50400001928E-02 0.  1.
       -1   -1    0    0    0  501  0.00000000000E+00  0.00000000000E+00 -0.93452080278E+03  0.93452080279E+03  0.50400001928E-02 0. -1.
    10030    2    1    2    0    0  0.00000000000E+00  0.00000000000E+00  0.33531060404E+02  0.19025726660E+04  0.19022771663E+04 0.  0.
        5    1    3    3  502    0  0.68979016545E+03  0.67411848064E+02 -0.63470934472E+03  0.93980469880E+03  0.46999998093E+01 0. -1.
       -5    1    3    3    0  502 -0.68979016545E+03 -0.67411848064E+02  0.66824040512E+03  0.96276796719E+03  0.46999998093E+01 0.  1.
</event>
<event>
 5   0  0.1810569E-04  0.1845955E+04  0.7818609E-02  0.8682236E-01
       -2   -1    0    0    0  501  0.00000000000E+00  0.00000000000E+00  0.54551680441E+03  0.54551680442E+03  0.25500000920E-02 0.  1.
        2   -1    0    0  501    0  0.00000000000E+00  0.00000000000E+00 -0.15616159491E+04  0.15616159491E+04  0.25500000920E-02 0. -1.
    10030    2    1    2    0    0  0.00000000000E+00  0.00000000000E+00 -0.10160991447E+04  0.21071327535E+04  0.18459552999E+04 0.  0.
        4    1    3    3  502    0 -0.68814779155E+02 -0.46074164149E+02 -0.15573653980E+04  0.15595662532E+04  0.12699999809E+01 0. -1.
       -4    1    3    3    0  502  0.68814779155E+02  0.46074164149E+02  0.54126625328E+03  0.54756650032E+03  0.12699999809E+01 0.  1.
</event>
<event>
 5   0  0.1658711E-04  0.1899868E+04  0.7818609E-02  0.8654922E-01
       -2   -1    0    0    0  501  0.00000000000E+00  0.00000000000E+00  0.86747242992E+03  0.86747242992E+03  0.25500000920E-02 0. -1.
        2   -1    0    0  501    0  0.00000000000E+00  0.00000000000E+00 -0.10402340298E+04  0.10402340298E+04  0.25500000920E-02 0.  1.
    10030    2    1    2    0    0  0.00000000000E+00  0.00000000000E+00 -0.17276159987E+03  0.19077064597E+04  0.18998677233E+04 0.  0.
        2    1    3    3  502    0 -0.21370217457E+02  0.68938256821E+03 -0.74227516316E+03  0.10132509212E+04  0.25500000920E-02 0.  1.
       -2    1    3    3    0  502  0.21370217457E+02 -0.68938256821E+03  0.56951356329E+03  0.89445553848E+03  0.25500000920E-02 0. -1.
</event>
<event>
 5   0  0.8567844E-05  0.1865253E+04  0.7818609E-02  0.8672348E-01
        1   -1    0    0  501    0  0.00000000000E+00  0.00000000000E+00  0.75857996907E+03  0.75857996909E+03  0.50400001928E-02 0.  1.
       -1   -1    0    0    0  501  0.00000000000E+00  0.00000000000E+00 -0.11466061452E+04  0.11466061452E+04  0.50400001928E-02 0. -1.
    10030    2    1    2    0    0  0.00000000000E+00  0.00000000000E+00 -0.38802617611E+03  0.19051861143E+04  0.18652532849E+04 0.  0.
        4    1    3    3  502    0  0.30373829864E+03  0.79728988713E+03 -0.57872332254E+03  0.10309463687E+04  0.12699999809E+01 0. -1.
       -4    1    3    3    0  502 -0.30373829864E+03 -0.79728988713E+03  0.19069714644E+03  0.87423974557E+03  0.12699999809E+01 0.  1.
</event>
<event>
 5   0  0.1790832E-04  0.1931237E+04  0.7818609E-02  0.8639462E-01
       -2   -1    0    0    0  501  0.00000000000E+00  0.00000000000E+00  0.43455289552E+03  0.43455289553E+03  0.25500000920E-02 0. -1.
        2   -1    0    0  501    0  0.00000000000E+00  0.00000000000E+00 -0.21456975969E+04  0.21456975969E+04  0.25500000920E-02 0.  1.
    10030    2    1    2    0    0  0.00000000000E+00  0.00000000000E+00 -0.17111447014E+04  0.25802504924E+04  0.19312370167E+04 0.  0.
        5    1    3    3  502    0  0.18214619144E+03 -0.29936462594E+01  0.41137058331E+03  0.44992670935E+03  0.46999998093E+01 0. -1.
       -5    1    3    3    0  502 -0.18214619144E+03  0.29936462594E+01 -0.21225152847E+04  0.21303237830E+04  0.46999998093E+01 0.  1.
</event>
<event>
 5   0  0.8905646E-05  0.1918085E+04  0.7818609E-02  0.8645906E-01
        1   -1    0    0  501    0  0.00000000000E+00  0.00000000000E+00  0.81831834856E+03  0.81831834857E+03  0.50400001928E-02 0.  1.
       -1   -1    0    0    0  501  0.00000000000E+00  0.00000000000E+00 -0.11239669504E+04  0.11239669504E+04  0.50400001928E-02 0. -1.
    10030    2    1    2    0    0  0.00000000000E+00  0.00000000000E+00 -0.30564860183E+03  0.19422852990E+04  0.19180852731E+04 0.  0.
        1    1    3    3  502    0  0.75724655553E+03  0.49243828363E+03 -0.47913990663E+03  0.10224934519E+04  0.50400001928E-02 0. -1.
       -1    1    3    3    0  502 -0.75724655553E+03 -0.49243828363E+03  0.17349130480E+03  0.91979184706E+03  0.50400001928E-02 0.  1.
</event>
<event>
 5   0  0.1810569E-04  0.1720561E+04  0.7818609E-02  0.8749724E-01
       -2   -1    0    0    0  501  0.00000000000E+00  0.00000000000E+00  0.82432814650E+03  0.82432814650E+03  0.25500000920E-02 0.  1.
        2   -1    0    0  501    0  0.00000000000E+00  0.00000000000E+00 -0.89780050262E+03  0.89780050263E+03  0.25500000920E-02 0. -1.
    10030    2    1    2    0    0  0.00000000000E+00  0.00000000000E+00 -0.73472356125E+02  0.17221286491E+04  0.17205606345E+04 0.  0.
        4    1    3    3  502    0 -0.36839604507E+03 -0.72731906921E+02 -0.81144093080E+03  0.89411608496E+03  0.12699999809E+01 0. -1.
       -4    1    3    3    0  502  0.36839604507E+03  0.72731906921E+02  0.73796857468E+03  0.82801256417E+03  0.12699999809E+01 0.  1.
</event>
<event>
 5   0  0.8602017E-05  0.1900605E+04  0.7818609E-02  0.8654555E-01
       -1   -1    0    0    0  501  0.00000000000E+00  0.00000000000E+00  0.64241903443E+03  0.64241903445E+03  0.50400001928E-02 0. -1.
        1   -1    0    0  501    0  0.00000000000E+00  0.00000000000E+00 -0.14057410389E+04  0.14057410389E+04  0.50400001928E-02 0.  1.
    10030    2    1    2    0    0  0.00000000000E+00  0.00000000000E+00 -0.76332200446E+03  0.20481600733E+04  0.19006049573E+04 0.  0.
        2    1    3    3  502    0 -0.85110299284E+03  0.37430416243E+03 -0.59336884380E+03  0.11029807320E+04  0.25500000920E-02 0.  1.
       -2    1    3    3    0  502  0.85110299284E+03 -0.37430416243E+03 -0.16995316066E+03  0.94517934132E+03  0.25500000920E-02 0. -1.
</event>
<event>
 5   0  0.8602017E-05  0.1539799E+04  0.7818609E-02  0.8858410E-01
        1   -1    0    0  501    0  0.00000000000E+00  0.00000000000E+00  0.91316365016E+03  0.91316365018E+03  0.50400001928E-02 0.  1.
       -1   -1    0    0    0  501  0.00000000000E+00  0.00000000000E+00 -0.64911143963E+03  0.64911143965E+03  0.50400001928E-02 0. -1.
    10030    2    1    2    0    0  0.00000000000E+00  0.00000000000E+00  0.26405221053E+03  0.15622750898E+04  0.15397986513E+04 0.  0.
        2    1    3    3  502    0 -0.44613801612E+02 -0.51036273100E+03 -0.45106664997E+03  0.68258452313E+03  0.25500000920E-02 0. -1.
       -2    1    3    3    0  502  0.44613801612E+02  0.51036273100E+03  0.71511886050E+03  0.87969056670E+03  0.25500000920E-02 0.  1.
</event>
<event>
 5   0  0.1658711E-04  0.1893244E+04  0.7818609E-02  0.8658226E-01
       -2   -1    0    0    0  501  0.00000000000E+00  0.00000000000E+00  0.63765727820E+03  0.63765727820E+03  0.25500000920E-02 0.  1.
        2   -1    0    0  501    0  0.00000000000E+00  0.00000000000E+00 -0.14052901277E+04  0.14052901277E+04  0.25500000920E-02 0. -1.
    10030    2    1    2    0    0  0.00000000000E+00  0.00000000000E+00 -0.76763284946E+03  0.20429474059E+04  0.18932442821E+04 0.  0.
        2    1    3    3  502    0  0.18023107543E+03  0.33822915067E+03 -0.13178289189E+04  0.13724267770E+04  0.25500000920E-02 0. -1.
       -2    1    3    3    0  502 -0.18023107543E+03 -0.33822915067E+03  0.55019606939E+03  0.67052062884E+03  0.25500000920E-02 0.  1.
</event>
<event>
 5   0  0.8587082E-05  0.1877404E+04  0.7818609E-02  0.8666186E-01
        1   -1    0    0  501    0  0.00000000000E+00  0.00000000000E+00  0.10433810880E+04  0.10433810880E+04  0.50400001928E-02 0. -1.
       -1   -1    0    0    0  501  0.00000000000E+00  0.00000000000E+00 -0.84452501491E+03  0.84452501493E+03  0.50400001928E-02 0.  1.
    10030    2    1    2    0    0  0.00000000000E+00  0.00000000000E+00  0.19885607309E+03  0.18879061029E+04  0.18774039831E+04 0.  0.
        5    1    3    3  502    0  0.24343588959E+03 -0.78390608355E+03 -0.35849781034E+03  0.89571901296E+03  0.46999998093E+01 0.  1.
       -5    1    3    3    0  502 -0.24343588959E+03  0.78390608355E+03  0.55735388343E+03  0.99218708999E+03  0.46999998093E+01 0. -1.
</event>
<event>
 5   0  0.8567844E-05  0.1861241E+04  0.7818609E-02  0.8674393E-01
        1   -1    0    0  501    0  0.00000000000E+00  0.00000000000E+00  0.14012346595E+04  0.14012346595E+04  0.50400001928E-02 0. -1.
       -1   -1    0    0    0  501  0.00000000000E+00  0.00000000000E+00 -0.61806518818E+03  0.61806518820E+03  0.50400001928E-02 0.  1.
    10030    2    1    2    0    0  0.00000000000E+00  0.00000000000E+00  0.78316947130E+03  0.20192998477E+04  0.18612408372E+04 0.  0.
        4    1    3    3  502    0 -0.83738726212E+03 -0.21359299428E+02 -0.48282429632E+02  0.83905092357E+03  0.12699999809E+01 0. -1.
       -4    1    3    3    0  502  0.83738726212E+03  0.21359299428E+02  0.83145190093E+03  0.11802489241E+04  0.12699999809E+01 0.  1.
</event>
<event>
 5   0  0.8587082E-05  0.1899237E+04  0.7818609E-02  0.8655236E-01
       -1   -1    0    0    0  501  0.00000000000E+00  0.00000000000E+00  0.65530019621E+03  0.65530019623E+03  0.50400001928E-02 0. -1.
        1   -1    0    0  501    0  0.00000000000E+00  0.00000000000E+00 -0.13761250328E+04  0.13761250329E+04  0.50400001928E-02 0.  1.
    10030    2    1    2    0    0  0.00000000000E+00  0.00000000000E+00 -0.72082483664E+03  0.20314252291E+04  0.18992366931E+04 0.  0.
        5    1    3    3  502    0 -0.58869432878E+03 -0.84101624392E+02 -0.11522919287E+04  0.12967007654E+04  0.46999998093E+01 0.  1.
       -5    1    3    3    0  502  0.58869432878E+03  0.84101624392E+02  0.43146709210E+03  0.73472446368E+03  0.46999998093E+01 0. -1.
</event>
<event>
 5   0  0.1658711E-04  0.1900316E+04  0.7818609E-02  0.8654699E-01
        2   -1    0    0  501    0  0.00000000000E+00  0.00000000000E+00  0.15899399581E+04  0.15899399581E+04  0.25500000920E-02 0.  1.
       -2   -1    0    0    0  501  0.00000000000E+00  0.00000000000E+00 -0.56782055688E+03  0.56782055689E+03  0.25500000920E-02 0. -1.
    10030    2    1    2    0    0  0.00000000000E+00  0.00000000000E+00  0.10221194012E+04  0.21577605150E+04  0.19003163867E+04 0.  0.
        2    1    3    3  502    0 -0.31627799638E+03  0.89437487855E+03  0.57180914906E+03  0.11076569403E+04  0.25500000920E-02 0.  1.
       -2    1    3    3    0  502  0.31627799638E+03 -0.89437487855E+03  0.45031025212E+03  0.10501035747E+04  0.25500000920E-02 0. -1.
</event>
<event>
 5   0  0.1658711E-04  0.1896814E+04  0.7818609E-02  0.8656444E-01
        2   -1    0    0  501    0  0.00000000000E+00  0.00000000000E+00  0.17741413126E+04  0.17741413126E+04  0.25500000920E-02 0. -1.
       -2   -1    0    0    0  501  0.00000000000E+00  0.00000000000E+00 -0.50699210574E+03  0.50699210575E+03  0.25500000920E-02 0.  1.
    10030    2    1    2    0    0  0.00000000000E+00  0.00000000000E+00  0.12671492068E+04  0.22811334183E+04  0.18968137915E+04 0.  0.
        2    1    3    3  502    0  0.14960825287E+03 -0.93290320212E+03  0.53451674215E+03  0.10855409534E+04  0.25500000920E-02 0. -1.
       -2    1    3    3    0  502 -0.14960825287E+03  0.93290320212E+03  0.73263246467E+03  0.11955924649E+04  0.25500000920E-02 0.  1.
</event>
<event>
 5   0  0.8905646E-05  0.1902234E+04  0.7818609E-02  0.8653745E-01
        1   -1    0    0  501    0  0.00000000000E+00  0.00000000000E+00  0.10847095326E+04  0.10847095326E+04  0.50400001928E-02 0.  1.
       -1   -1    0    0    0  501  0.00000000000E+00  0.00000000000E+00 -0.83397759387E+03  0.83397759389E+03  0.50400001928E-02 0. -1.
    10030    2    1    2    0    0  0.00000000000E+00  0.00000000000E+00  0.25073193875E+03  0.19186871265E+04  0.19022338932E+04 0.  0.
        1    1    3    3  502    0  0.88632792578E+02 -0.58181633695E+03 -0.62826285348E+03  0.86086017155E+03  0.50400001928E-02 0. -1.
       -1    1    3    3    0  502 -0.88632792578E+02  0.58181633695E+03  0.87899479224E+03  0.10578269550E+04  0.50400001928E-02 0.  1.
</event>
<event>
 5   0  0.1765328E-04  0.1888234E+04  0.7818609E-02  0.8660735E-01
        2   -1    0    0  501    0  0.00000000000E+00  0.00000000000E+00  0.60267044047E+03  0.60267044047E+03  0.25500000920E-02 0.  1.
       -2   -1    0    0    0  501  0.00000000000E+00  0.00000000000E+00 -0.14790121770E+04  0.14790121770E+04  0.25500000920E-02 0. -1.
    10030    2    1    2    0    0  0.00000000000E+00  0.00000000000E+00 -0.87634173651E+03  0.20816826174E+04  0.18882340111E+04 0.  0.
        3    1    3    3  502    0 -0.35344406230E+03 -0.76473652478E+03  0.31648884766E+02  0.84305772022E+03  0.10100000352E+00 0. -1.
       -3    1    3    3    0  502  0.35344406230E+03  0.76473652478E+03 -0.90799062127E+03  0.12386248972E+04  0.10100000352E+00 0.  1.
</event>
<event>
 5   0  0.1765328E-04  0.1909946E+04  0.7818609E-02  0.8649921E-01
       -2   -1    0    0    0  501  0.00000000000E+00  0.00000000000E+00  0.66207280529E+03  0.66207280529E+03  0.25500000920E-02 0. -1.
        2   -1    0    0  501    0  0.00000000000E+00  0.00000000000E+00 -0.13774525954E+04  0.13774525954E+04  0.25500000920E-02 0.  1.
    10030    2    1    2    0    0  0.00000000000E+00  0.00000000000E+00 -0.71537979014E+03  0.20395254007E+04  0.19099464956E+04 0.  0.
        3    1    3    3  502    0  0.38083810675E+02 -0.17033757571E+03 -0.13602748907E+04  0.13714273786E+04  0.10100000352E+00 0.  1.
       -3    1    3    3    0  502 -0.38083810675E+02  0.17033757571E+03  0.64489510052E+03  0.66809802215E+03  0.10100000352E+00 0. -1.
</event>
<event>
 5   0  0.1810569E-04  0.1903808E+04  0.7818609E-02  0.8652963E-01
        2   -1    0    0  501    0  0.00000000000E+00  0.00000000000E+00  0.15033353804E+04  0.15033353804E+04  0.25500000920E-02 0.  1.
       -2   -1    0    0    0  501  0.00000000000E+00  0.00000000000E+00 -0.60274064393E+03  0.60274064394E+03  0.25500000920E-02 0. -1.
    10030    2    1    2    0    0  0.00000000000E+00  0.00000000000E+00  0.90059473651E+03  0.21060760244E+04  0.19038081156E+04 0.  0.
        4    1    3    3  502    0 -0.77439764007E+02 -0.16809792177E+03  0.14832388413E+04  0.14947417508E+04  0.12699999809E+01 0.  1.
       -4    1    3    3    0  502  0.77439764007E+02  0.16809792177E+03 -0.58264410477E+03  0.61133427360E+03  0.12699999809E+01 0. -1.
</event>
<event>
 5   0  0.8567844E-05  0.1898758E+04  0.7818609E-02  0.8655475E-01
       -1   -1    0    0    0  501  0.00000000000E+00  0.00000000000E+00  0.44783327490E+03  0.44783327493E+03  0.50400001928E-02 0.  1.
        1   -1    0    0  501    0  0.00000000000E+00  0.00000000000E+00 -0.20126258554E+04  0.20126258554E+04  0.50400001928E-02 0. -1.
    10030    2    1    2    0    0  0.00000000000E+00  0.00000000000E+00 -0.15647925805E+04  0.24604591303E+04  0.18987583606E+04 0.  0.
        4    1    3    3  502    0 -0.74643081431E+03 -0.56615137386E+03 -0.98160336057E+03  0.13569204505E+04  0.12699999809E+01 0. -1.
       -4    1    3    3    0  502  0.74643081431E+03  0.56615137386E+03 -0.58318921991E+03  0.11035386798E+04  0.12699999809E+01 0.  1.
</event>
<event>
 5   0  0.8567844E-05  0.1848387E+04  0.7818609E-02  0.8680983E-01
       -1   -1    0    0    0  501  0.00000000000E+00  0.00000000000E+00  0.69935232965E+03  0.69935232967E+03  0.50400001928E-02 0. -1.
        1   -1    0    0  501    0  0.00000000000E+00  0.00000000000E+00 -0.12213202665E+04  0.12213202666E+04  0.50400001928E-02 0.  1.
    10030    2    1    2    0    0  0.00000000000E+00  0.00000000000E+00 -0.52196793689E+03  0.19206725962E+04  0.18483865112E+04 0.  0.
        4    1    3    3  502    0 -0.41001379134E+03  0.66722018782E+02  0.59687378421E+03  0.72720221676E+03  0.12699999809E+01 0. -1.
       -4    1    3    3    0  502  0.41001379134E+03 -0.66722018782E+02 -0.11188417211E+04  0.11934703795E+04  0.12699999809E+01 0.  1.
</event>
<event>
 5   0  0.1790832E-04  0.1902175E+04  0.7818609E-02  0.8653774E-01
       -2   -1    0    0    0  501  0.00000000000E+00  0.00000000000E+00  0.70445349994E+03  0.70445349994E+03  0.25500000920E-02 0.  1.
        2   -1    0    0  501    0  0.00000000000E+00  0.00000000000E+00 -0.12840702119E+04  0.12840702119E+04  0.25500000920E-02 0. -1.
    10030    2    1    2    0    0  0.00000000000E+00  0.00000000000E+00 -0.57961671196E+03  0.19885237118E+04  0.19021753389E+04 0.  0.
        5    1    3    3  502    0 -0.78753162733E+03 -0.41793956465E+03  0.56383198390E+02  0.89335362473E+03  0.46999998093E+01 0.  1.
       -5    1    3    3    0  502  0.78753162733E+03  0.41793956465E+03 -0.63599991035E+03  0.10951700871E+04  0.46999998093E+01 0. -1.
</event>
<event>
 5   0  0.8567844E-05  0.1907656E+04  0.7818609E-02  0.8651055E-01
        1   -1    0    0  501    0  0.00000000000E+00  0.00000000000E+00  0.18377203855E+04  0.18377203855E+04  0.50400001928E-02 0.  1.
       -1   -1    0    0    0  501  0.00000000000E+00  0.00000000000E+00 -0.49506331775E+03  0.49506331777E+03  0.50400001928E-02 0. -1.
    10030    2    1    2    0    0  0.00000000000E+00  0.00000000000E+00  0.13426570678E+04  0.23327837033E+04  0.19076561023E+04 0.  0.
        4    1    3    3  502    0  0.74859432909E+03  0.40436764424E+03  0.11985466697E+04  0.14698375399E+04  0.12699999809E+01 0.  1.
       -4    1    3    3    0  502 -0.74859432909E+03 -0.40436764424E+03  0.14411039809E+03  0.86294616344E+03  0.12699999809E+01 0. -1.
</event>
<event>
 5   0  0.1765328E-04  0.1906880E+04  0.7818609E-02  0.8651439E-01
        2   -1    0    0  501    0  0.00000000000E+00  0.00000000000E+00  0.50315214689E+03  0.50315214690E+03  0.25500000920E-02 0. -1.
       -2   -1    0    0    0  501  0.00000000000E+00  0.00000000000E+00 -0.18067059172E+04  0.18067059172E+04  0.25500000920E-02 0.  1.
    10030    2    1    2    0    0  0.00000000000E+00  0.00000000000E+00 -0.13035537703E+04  0.23098580641E+04  0.19068801337E+04 0.  0.
        3    1    3    3  502    0 -0.50627876091E+03  0.35002226256E+03 -0.15338154427E+04  0.16527019061E+04  0.10100000352E+00 0.  1.
       -3    1    3    3    0  502  0.50627876091E+03 -0.35002226256E+03  0.23026167238E+03  0.65715615800E+03  0.10100000352E+00 0. -1.
</event>
<event>
 5   0  0.1765328E-04  0.1899762E+04  0.7818609E-02  0.8654975E-01
        2   -1    0    0  501    0  0.00000000000E+00  0.00000000000E+00  0.95117640102E+03  0.95117640102E+03  0.25500000920E-02 0.  1.
       -2   -1    0    0    0  501  0.00000000000E+00  0.00000000000E+00 -0.94858744578E+03  0.94858744579E+03  0.25500000920E-02 0. -1.
    10030    2    1    2    0    0  0.00000000000E+00  0.00000000000E+00  0.25889552377E+01  0.18997638468E+04  0.18997620827E+04 0.  0.
        3    1    3    3  502    0 -0.15354088883E+03 -0.45371837532E+03  0.82156276511E+03  0.95099976649E+03  0.10100000352E+00 0.  1.
       -3    1    3    3    0  502  0.15354088883E+03  0.45371837532E+03 -0.81897380988E+03  0.94876408032E+03  0.10100000352E+00 0. -1.
</event>
<event>
 5   0  0.8567844E-05  0.1896319E+04  0.7818609E-02  0.8656691E-01
        1   -1    0    0  501    0  0.00000000000E+00  0.00000000000E+00  0.10270853351E+04  0.10270853351E+04  0.50400001928E-02 0.  1.
       -1   -1    0    0    0  501  0.00000000000E+00  0.00000000000E+00 -0.87529855888E+03  0.87529855889E+03  0.50400001928E-02 0. -1.
    10030    2    1    2    0    0  0.00000000000E+00  0.00000000000E+00  0.15178677618E+03  0.19023838940E+04  0.18963188694E+04 0.  0.
        4    1    3    3  502    0  0.31194122313E+03  0.27599865572E+02  0.97370578652E+03  0.10228263053E+04  0.12699999809E+01 0.  1.
       -4    1    3    3    0  502 -0.31194122313E+03 -0.27599865572E+02 -0.82191901034E+03  0.87955758864E+03  0.12699999809E+01 0. -1.
</event>
<event>
 5   0  0.8681396E-05  0.2000916E+04  0.7818609E-02  0.8606192E-01
        1   -1    0    0  501    0  0.00000000000E+00  0.00000000000E+00  0.12949186312E+04  0.12949186312E+04  0.50400001928E-02 0. -1.
       -1   -1    0    0    0  501  0.00000000000E+00  0.00000000000E+00 -0.77295697342E+03  0.77295697344E+03  0.50400001928E-02 0.  1.
    10030    2    1    2    0    0  0.00000000000E+00  0.00000000000E+00  0.52196165777E+03  0.20678756046E+04  0.20009161762E+04 0.  0.
        3    1    3    3  502    0  0.59099325827E+03 -0.79076448591E+03  0.42869166458E+03  0.10762704386E+04  0.10100000352E+00 0. -1.
       -3    1    3    3    0  502 -0.59099325827E+03  0.79076448591E+03  0.93269993186E+02  0.99160516605E+03  0.10100000352E+00 0.  1.
</event>
<event>
 5   0  0.8567844E-05  0.1896918E+04  0.7818609E-02  0.8656392E-01
       -1   -1    0    0    0  501  0.00000000000E+00  0.00000000000E+00  0.11732148946E+04  0.11732148946E+04  0.50400001928E-02 0. -1.
        1   -1    0    0  501    0  0.00000000000E+00  0.00000000000E+00 -0.76676052425E+03  0.76676052426E+03  0.50400001928E-02 0.  1.
    10030    2    1    2    0    0  0.00000000000E+00  0.00000000000E+00  0.40645437032E+03  0.19399754188E+04  0.18969184143E+04 0.  0.
        4    1    3    3  502    0 -0.24806245473E+03  0.69141848560E+03  0.81682811286E+03  0.10985464408E+04  0.12699999809E+01 0. -1.
       -4    1    3    3    0  502  0.24806245473E+03 -0.69141848560E+03 -0.41037374254E+03  0.84142897807E+03  0.12699999809E+01 0.  1.
</event>
<event>
 5   0  0.1790832E-04  0.1908968E+04  0.7818609E-02  0.8650405E-01
       -2   -1    0    0    0  501  0.00000000000E+00  0.00000000000E+00  0.14203200157E+04  0.14203200157E+04  0.25500000920E-02 0. -1.
        2   -1    0    0  501    0  0.00000000000E+00  0.00000000000E+00 -0.64143296427E+03  0.64143296427E+03  0.25500000920E-02 0.  1.
    10030    2    1    2    0    0  0.00000000000E+00  0.00000000000E+00  0.77888705142E+03  0.20617529800E+04  0.19089683893E+04 0.  0.
        5    1    3    3  502    0 -0.69990299599E+03 -0.17349404422E+03  0.10648357223E+04  0.12860255023E+04  0.46999998093E+01 0. -1.
       -5    1    3    3    0  502  0.69990299599E+03  0.17349404422E+03 -0.28594867087E+03  0.77572747763E+03  0.46999998093E+01 0.  1.
</event>
<event>
 5   0  0.8567844E-05  0.1847967E+04  0.7818609E-02  0.8681199E-01
       -1   -1    0    0    0  501  0.00000000000E+00  0.00000000000E+00  0.10920218205E+04  0.10920218205E+04  0.50400001928E-02 0. -1.
        1   -1    0    0  501    0  0.00000000000E+00  0.00000000000E+00 -0.78180248342E+03  0.78180248344E+03  0.50400001928E-02 0.  1.
    10030    2    1    2    0    0  0.00000000000E+00  0.00000000000E+00  0.31021933705E+03  0.18738243039E+04  0.18479668517E+04 0.  0.
        4    1    3    3  502    0 -0.75076331848E+03 -0.41075462937E+03  0.50837918882E+03  0.99539737716E+03  0.12699999809E+01 0.  1.
       -4    1    3    3    0  502  0.75076331848E+03  0.41075462937E+03 -0.19815985177E+03  0.87842692677E+03  0.12699999809E+01 0. -1.
</event>
<event>
 5   0  0.6375750E-05  0.1892581E+04  0.7818609E-02  0.8658558E-01
        3   -1    0    0  501    0  0.00000000000E+00  0.00000000000E+00  0.94785528820E+03  0.94785529358E+03  0.10100000352E+00 0. -1.
       -3   -1    0    0    0  501  0.00000000000E+00  0.00000000000E+00 -0.94472857006E+03  0.94472857546E+03  0.10100000352E+00 0.  1.
    10030    2    1    2    0    0  0.00000000000E+00  0.00000000000E+00  0.31267181322E+01  0.18925838690E+04  0.18925812862E+04 0.  0.
        5    1    3    3  502    0  0.66673171942E+03  0.65527489361E+03  0.14828615257E+03  0.94653433372E+03  0.46999998093E+01 0.  1.
       -5    1    3    3    0  502 -0.66673171942E+03 -0.65527489361E+03 -0.14515943444E+03  0.94604953532E+03  0.46999998093E+01 0. -1.
</event>
<event>
 5   0  0.8602017E-05  0.1917910E+04  0.7818609E-02  0.8645992E-01
       -1   -1    0    0    0  501  0.00000000000E+00  0.00000000000E+00  0.72831218318E+03  0.72831218320E+03  0.50400001928E-02 0.  1.
        1   -1    0    0  501    0  0.00000000000E+00  0.00000000000E+00 -0.12626384028E+04  0.12626384028E+04  0.50400001928E-02 0. -1.
    10030    2    1    2    0    0  0.00000000000E+00  0.00000000000E+00 -0.53432621960E+03  0.19909505860E+04  0.19179102500E+04 0.  0.
        2    1    3    3  502    0 -0.31982965277E+03  0.50588038419E+03  0.51063007901E+03  0.78673314885E+03  0.25500000920E-02 0.  1.
       -2    1    3    3    0  502  0.31982965277E+03 -0.50588038419E+03 -0.10449562986E+04  0.12042174371E+04  0.25500000920E-02 0. -1.
</event>
<event>
 5   0  0.8587082E-05  0.1916845E+04  0.7818609E-02  0.8646517E-01
       -1   -1    0    0    0  501  0.00000000000E+00  0.00000000000E+00  0.91029892973E+03  0.91029892974E+03  0.50400001928E-02 0. -1.
        1   -1    0    0  501    0  0.00000000000E+00  0.00000000000E+00 -0.10090902399E+04  0.10090902399E+04  0.50400001928E-02 0.  1.
    10030    2    1    2    0    0  0.00000000000E+00  0.00000000000E+00 -0.98791310161E+02  0.19193891696E+04  0.19168450802E+04 0.  0.
        5    1    3    3  502    0  0.37330759062E+03  0.54599599318E+03  0.64512529506E+03  0.92394746502E+03  0.46999998093E+01 0. -1.
       -5    1    3    3    0  502 -0.37330759062E+03 -0.54599599318E+03 -0.74391660523E+03  0.99544170463E+03  0.46999998093E+01 0.  1.
</event>
<event>
 5   0  0.1658711E-04  0.1886582E+04  0.7818609E-02  0.8661564E-01
        2   -1    0    0  501    0  0.00000000000E+00  0.00000000000E+00  0.10057501355E+04  0.10057501355E+04  0.25500000920E-02 0.  1.
       -2   -1    0    0    0  501  0.00000000000E+00  0.00000000000E+00 -0.88471092922E+03  0.88471092922E+03  0.25500000920E-02 0. -1.
    10030    2    1    2    0    0  0.00000000000E+00  0.00000000000E+00  0.12103920628E+03  0.18904610647E+04  0.18865822399E+04 0.  0.
        2    1    3    3  502    0 -0.45727277923E+03  0.66978090324E+03  0.54327071452E+03  0.97613929448E+03  0.25500000920E-02 0. -1.
       -2    1    3    3    0  502  0.45727277923E+03 -0.66978090324E+03 -0.42223150824E+03  0.91432177024E+03  0.25500000920E-02 0.  1.
</event>
<event>
 5   0  0.1810569E-04  0.1846772E+04  0.7818609E-02  0.8681815E-01
        2   -1    0    0  501    0  0.00000000000E+00  0.00000000000E+00  0.19373904465E+04  0.19373904465E+04  0.25500000920E-02 0. -1.
       -2   -1    0    0    0  501  0.00000000000E+00  0.00000000000E+00 -0.44009802366E+03  0.44009802367E+03  0.25500000920E-02 0.  1.
    10030    2    1    2    0    0  0.00000000000E+00  0.00000000000E+00  0.14972924229E+04  0.23774884702E+04  0.18467720017E+04 0.  0.
        4    1    3    3  502    0  0.33134739041E+03 -0.77824855935E+03  0.27183368457E+03  0.88845769636E+03  0.12699999809E+01 0. -1.
       -4    1    3    3    0  502 -0.33134739041E+03  0.77824855935E+03  0.12254587383E+04  0.14890307738E+04  0.12699999809E+01 0.  1.
</event>
<event>
 5   0  0.1765328E-04  0.1899986E+04  0.7818609E-02  0.8654863E-01
        2   -1    0    0  501    0  0.00000000000E+00  0.00000000000E+00  0.88545781277E+03  0.88545781278E+03  0.25500000920E-02 0. -1.
       -2   -1    0    0    0  501  0.00000000000E+00  0.00000000000E+00 -0.10192321116E+04  0.10192321116E+04  0.25500000920E-02 0.  1.
    10030    2    1    2    0    0  0.00000000000E+00  0.00000000000E+00 -0.13377429881E+03  0.19046899244E+04  0.18999863539E+04 0.  0.
        3    1    3    3  502    0  0.50074965362E+03 -0.37276674374E+02 -0.87532466742E+03  0.10091248930E+04  0.10100000352E+00 0.  1.
       -3    1    3    3    0  502 -0.50074965362E+03  0.37276674374E+02  0.74155036861E+03  0.89556503138E+03  0.10100000352E+00 0. -1.
</event>
<event>
 5   0  0.8567844E-05  0.1892082E+04  0.7818609E-02  0.8658808E-01
       -1   -1    0    0    0  501  0.00000000000E+00  0.00000000000E+00  0.10478400672E+04  0.10478400672E+04  0.50400001928E-02 0.  1.
        1   -1    0    0  501    0  0.00000000000E+00  0.00000000000E+00 -0.85413221405E+03  0.85413221407E+03  0.50400001928E-02 0. -1.
    10030    2    1    2    0    0  0.00000000000E+00  0.00000000000E+00  0.19370785314E+03  0.19019722813E+04  0.18920824047E+04 0.  0.
        4    1    3    3  502    0 -0.19730913433E+02 -0.11014172984E+03 -0.84745601688E+03  0.85481215659E+03  0.12699999809E+01 0. -1.
       -4    1    3    3    0  502  0.19730913433E+02  0.11014172984E+03  0.10411638700E+04  0.10471601247E+04  0.12699999809E+01 0.  1.
</event>
<event>
 5   0  0.8681396E-05  0.2013251E+04  0.7818609E-02  0.8600451E-01
        1   -1    0    0  501    0  0.00000000000E+00  0.00000000000E+00  0.92277812902E+03  0.92277812903E+03  0.50400001928E-02 0. -1.
       -1   -1    0    0    0  501  0.00000000000E+00  0.00000000000E+00 -0.10980911852E+04  0.10980911852E+04  0.50400001928E-02 0.  1.
    10030    2    1    2    0    0  0.00000000000E+00  0.00000000000E+00 -0.17531305618E+03  0.20208693142E+04  0.20132506346E+04 0.  0.
        3    1    3    3  502    0 -0.66246637221E+03 -0.33119152858E+03 -0.77195842846E+03  0.10697987420E+04  0.10100000352E+00 0.  1.
       -3    1    3    3    0  502  0.66246637221E+03  0.33119152858E+03  0.59664537228E+03  0.95107057224E+03  0.10100000352E+00 0. -1.
</event>
<event>
 5   0  0.8587082E-05  0.1895022E+04  0.7818609E-02  0.8657338E-01
        1   -1    0    0  501    0  0.00000000000E+00  0.00000000000E+00  0.13066430646E+04  0.13066430646E+04  0.50400001928E-02 0. -1.
       -1   -1    0    0    0  501  0.00000000000E+00  0.00000000000E+00 -0.68708689436E+03  0.68708689438E+03  0.50400001928E-02 0.  1.
    10030    2    1    2    0    0  0.00000000000E+00  0.00000000000E+00  0.61955617028E+03  0.19937299590E+04  0.18950222430E+04 0.  0.
        5    1    3    3  502    0 -0.56170600766E+03  0.39936011673E+02 -0.49191476113E+03  0.74773708367E+03  0.46999998093E+01 0.  1.
       -5    1    3    3    0  502  0.56170600766E+03 -0.39936011673E+02  0.11114709314E+04  0.12459928754E+04  0.46999998093E+01 0. -1.
</event>
<event>
 5   0  0.8587082E-05  0.1890901E+04  0.7818609E-02  0.8659399E-01
       -1   -1    0    0    0  501  0.00000000000E+00  0.00000000000E+00  0.36040518871E+03  0.36040518874E+03  0.50400001928E-02 0.  1.
        1   -1    0    0  501    0  0.00000000000E+00  0.00000000000E+00 -0.24801984238E+04  0.24801984238E+04  0.50400001928E-02 0. -1.
    10030    2    1    2    0    0  0.00000000000E+00  0.00000000000E+00 -0.21197932351E+04  0.28406036125E+04  0.18909007176E+04 0.  0.
        5    1    3    3  502    0  0.58264574442E+03  0.51623253091E+03 -0.18659231091E+04  0.20217970295E+04  0.46999998093E+01 0. -1.
       -5    1    3    3    0  502 -0.58264574442E+03 -0.51623253091E+03 -0.25387012592E+03  0.81880658296E+03  0.46999998093E+01 0.  1.
</event>
<event>
 5   0  0.1658711E-04  0.1895680E+04  0.7818609E-02  0.8657010E-01
       -2   -1    0    0    0  501  0.00000000000E+00  0.00000000000E+00  0.10387669257E+04  0.10387669257E+04  0.25500000920E-02 0. -1.
        2   -1    0    0  501    0  0.00000000000E+00  0.00000000000E+00 -0.86487202573E+03  0.86487202573E+03  0.25500000920E-02 0.  1.
    10030    2    1    2    0    0  0.00000000000E+00  0.00000000000E+00  0.17389489997E+03  0.19036389514E+04  0.18956797781E+04 0.  0.
        2    1    3    3  502    0  0.86177709702E+03  0.37406294641E+03  0.21324354810E+03  0.96335645721E+03  0.25500000920E-02 0. -1.
       -2    1    3    3    0  502 -0.86177709702E+03 -0.37406294641E+03 -0.39348648127E+02  0.94028249423E+03  0.25500000920E-02 0.  1.
</event>
<event>
 5   0  0.1658711E-04  0.1881015E+04  0.7818609E-02  0.8664365E-01
        2   -1    0    0  501    0  0.00000000000E+00  0.00000000000E+00  0.17121415781E+04  0.17121415781E+04  0.25500000920E-02 0.  1.
       -2   -1    0    0    0  501  0.00000000000E+00  0.00000000000E+00 -0.51663595354E+03  0.51663595354E+03  0.25500000920E-02 0. -1.
    10030    2    1    2    0    0  0.00000000000E+00  0.00000000000E+00  0.11955056246E+04  0.22287775316E+04  0.18810145101E+04 0.  0.
        2    1    3    3  502    0 -0.78638851087E+03 -0.51338244706E+03  0.65800104475E+03  0.11467056300E+04  0.25500000920E-02 0.  1.
       -2    1    3    3    0  502  0.78638851087E+03  0.51338244706E+03  0.53750457980E+03  0.10820719016E+04  0.25500000920E-02 0. -1.
</event>
<event>
 5   0  0.8681396E-05  0.1895184E+04  0.7818609E-02  0.8657257E-01
        1   -1    0    0  501    0  0.00000000000E+00  0.00000000000E+00  0.15041535428E+04  0.15041535428E+04  0.50400001928E-02 0.  1.
       -1   -1    0    0    0  501  0.00000000000E+00  0.00000000000E+00 -0.59696741912E+03  0.59696741914E+03  0.50400001928E-02 0. -1.
    10030    2    1    2    0    0  0.00000000000E+00  0.00000000000E+00  0.90718612366E+03  0.21011209619E+04  0.18951840633E+04 0.  0.
        3    1    3    3  502    0 -0.67740468113E+03  0.65345660763E+03  0.57528373294E+03  0.11031020006E+04  0.10100000352E+00 0. -1.
       -3    1    3    3    0  502  0.67740468113E+03 -0.65345660763E+03  0.33190239072E+03  0.99801896137E+03  0.10100000352E+00 0.  1.
</event>
<event>
 5   0  0.8905646E-05  0.1884851E+04  0.7818609E-02  0.8662434E-01
        1   -1    0    0  501    0  0.00000000000E+00  0.00000000000E+00  0.17658533430E+04  0.17658533430E+04  0.50400001928E-02 0. -1.
       -1   -1    0    0    0  501  0.00000000000E+00  0.00000000000E+00 -0.50296675743E+03  0.50296675746E+03  0.50400001928E-02 0.  1.
    10030    2    1    2    0    0  0.00000000000E+00  0.00000000000E+00  0.12628865856E+04  0.22688201005E+04  0.18848506891E+04 0.  0.
        1    1    3    3  502    0 -0.50571879281E+03 -0.44813461816E+03 -0.15934183244E+03  0.69423767759E+03  0.50400001928E-02 0.  1.
       -1    1    3    3    0  502  0.50571879281E+03  0.44813461816E+03  0.14222284180E+04  0.15745824229E+04  0.50400001928E-02 0. -1.
</event>
<event>
 5   0  0.1799738E-04  0.1897150E+04  0.7818609E-02  0.8656276E-01
        2   -1    0    0  501    0  0.00000000000E+00  0.00000000000E+00  0.14468199705E+04  0.14468199705E+04  0.25500000920E-02 0. -1.
       -2   -1    0    0    0  501  0.00000000000E+00  0.00000000000E+00 -0.62191215459E+03  0.62191215459E+03  0.25500000920E-02 0.  1.
    10030    2    1    2    0    0  0.00000000000E+00  0.00000000000E+00  0.82490781589E+03  0.20687321251E+04  0.18971504159E+04 0.  0.
        1    1    3    3  502    0 -0.60190619803E+03 -0.62128269761E+03  0.83690291950E+03  0.12036152867E+04  0.50400001928E-02 0. -1.
       -1    1    3    3    0  502  0.60190619803E+03  0.62128269761E+03 -0.11995103613E+02  0.86511683842E+03  0.50400001928E-02 0.  1.
</event>
<event>
 5   0  0.1790832E-04  0.1917302E+04  0.7818609E-02  0.8646291E-01
       -2   -1    0    0    0  501  0.00000000000E+00  0.00000000000E+00  0.62093385151E+03  0.62093385151E+03  0.25500000920E-02 0.  1.
        2   -1    0    0  501    0  0.00000000000E+00  0.00000000000E+00 -0.14800483694E+04  0.14800483694E+04  0.25500000920E-02 0. -1.
    10030    2    1    2    0    0  0.00000000000E+00  0.00000000000E+00 -0.85911451791E+03  0.21009822209E+04  0.19173024117E+04 0.  0.
        5    1    3    3  502    0  0.38197490441E+03 -0.58147132820E+03 -0.11522680873E+04  0.13460154413E+04  0.46999998093E+01 0. -1.
       -5    1    3    3    0  502 -0.38197490441E+03  0.58147132820E+03  0.29315356941E+03  0.75496677965E+03  0.46999998093E+01 0.  1.
</event>
<event>
 5   0  0.8602017E-05  0.1903005E+04  0.7818609E-02  0.8653362E-01
        1   -1    0    0  501    0  0.00000000000E+00  0.00000000000E+00  0.15479938014E+04  0.15479938014E+04  0.50400001928E-02 0. -1.
       -1   -1    0    0    0  501  0.00000000000E+00  0.00000000000E+00 -0.58485858927E+03  0.58485858929E+03  0.50400001928E-02 0.  1.
    10030    2    1    2    0    0  0.00000000000E+00  0.00000000000E+00  0.96313521211E+03  0.21328523907E+04  0.19030054870E+04 0.  0.
        2    1    3    3  502    0  0.24436542727E+03 -0.24129957256E+03  0.14761099941E+04  0.15155331275E+04  0.25500000920E-02 0. -1.
       -2    1    3    3    0  502 -0.24436542727E+03  0.24129957256E+03 -0.51297478199E+03  0.61731926321E+03  0.25500000920E-02 0.  1.
</event>
<event>
 5   0  0.8602017E-05  0.1891292E+04  0.7818609E-02  0.8659203E-01
        1   -1    0    0  501    0  0.00000000000E+00  0.00000000000E+00  0.10559378239E+04  0.10559378239E+04  0.50400001928E-02 0. -1.
       -1   -1    0    0    0  501  0.00000000000E+00  0.00000000000E+00 -0.84687436159E+03  0.84687436160E+03  0.50400001928E-02 0.  1.
    10030    2    1    2    0    0  0.00000000000E+00  0.00000000000E+00  0.20906346232E+03  0.19028121855E+04  0.18912923312E+04 0.  0.
        2    1    3    3  502    0  0.84028904220E+03 -0.38111844268E+03 -0.10387663404E+03  0.92850810276E+03  0.25500000920E-02 0.  1.
       -2    1    3    3    0  502 -0.84028904220E+03  0.38111844268E+03  0.31294009636E+03  0.97430408277E+03  0.25500000920E-02 0. -1.
</event>
<event>
 5   0  0.8681396E-05  0.1912236E+04  0.7818609E-02  0.8648790E-01
        1   -1    0    0  501    0  0.00000000000E+00  0.00000000000E+00  0.10101502702E+04  0.10101502702E+04  0.50400001928E-02 0.  1.
       -1   -1    0    0    0  501  0.00000000000E+00  0.00000000000E+00 -0.90497593132E+03  0.90497593133E+03  0.50400001928E-02 0. -1.
    10030    2    1    2    0    0  0.00000000000E+00  0.00000000000E+00  0.10517433884E+03  0.19151262015E+04  0.19122360540E+04 0.  0.
        3    1    3    3  502    0  0.47772216184E+03  0.10495801112E+03 -0.77019392553E+03  0.91237784998E+03  0.10100000352E+00 0. -1.
       -3    1    3    3    0  502 -0.47772216184E+03 -0.10495801112E+03  0.87536826437E+03  0.10027483515E+04  0.10100000352E+00 0.  1.
</event>
<event>
 5   0  0.1765328E-04  0.1888864E+04  0.7818609E-02  0.8660419E-01
        2   -1    0    0  501    0  0.00000000000E+00  0.00000000000E+00  0.70381001489E+03  0.70381001490E+03  0.25500000920E-02 0. -1.
       -2   -1    0    0    0  501  0.00000000000E+00  0.00000000000E+00 -0.12673191794E+04  0.12673191794E+04  0.25500000920E-02 0.  1.
    10030    2    1    2    0    0  0.00000000000E+00  0.00000000000E+00 -0.56350916449E+03  0.19711291943E+04  0.18888641354E+04 0.  0.
        3    1    3    3  502    0  0.40977492852E+03 -0.24788336582E+03 -0.11312027721E+04  0.12284060309E+04  0.10100000352E+00 0.  1.
       -3    1    3    3    0  502 -0.40977492852E+03  0.24788336582E+03  0.56769360758E+03  0.74272316335E+03  0.10100000352E+00 0. -1.
</event>
<event>
 5   0  0.8587082E-05  0.1890315E+04  0.7818609E-02  0.8659693E-01
       -1   -1    0    0    0  501  0.00000000000E+00  0.00000000000E+00  0.58301379277E+03  0.58301379280E+03  0.50400001928E-02 0.  1.
        1   -1    0    0  501    0  0.00000000000E+00  0.00000000000E+00 -0.15322489406E+04  0.15322489406E+04  0.50400001928E-02 0. -1.
    10030    2    1    2    0    0  0.00000000000E+00  0.00000000000E+00 -0.94923514780E+03  0.21152627334E+04  0.18903145414E+04 0.  0.
        5    1    3    3  502    0 -0.97271878741E+02  0.92854394869E+03 -0.30998947820E+03  0.98375365292E+03  0.46999998093E+01 0. -1.
       -5    1    3    3    0  502  0.97271878741E+02 -0.92854394869E+03 -0.63924566960E+03  0.11315090805E+04  0.46999998093E+01 0.  1.
</event>
<event>
 5   0  0.8602017E-05  0.1922709E+04  0.7818609E-02  0.8643634E-01
        1   -1    0    0  501    0  0.00000000000E+00  0.00000000000E+00  0.70164700273E+03  0.70164700275E+03  0.50400001928E-02 0. -1.
       -1   -1    0    0    0  501  0.00000000000E+00  0.00000000000E+00 -0.13171905106E+04  0.13171905106E+04  0.50400001928E-02 0.  1.
    10030    2    1    2    0    0  0.00000000000E+00  0.00000000000E+00 -0.61554350788E+03  0.20188375134E+04  0.19227093112E+04 0.  0.
        2    1    3    3  502    0  0.10605206069E+02  0.95703784701E+03 -0.21287124573E+03  0.98048359408E+03  0.25500000920E-02 0.  1.
       -2    1    3    3    0  502 -0.10605206069E+02 -0.95703784701E+03 -0.40267226216E+03  0.10383539193E+04  0.25500000920E-02 0. -1.
</event>
<event>
 5   0  0.1765328E-04  0.1920564E+04  0.7818609E-02  0.8644687E-01
        2   -1    0    0  501    0  0.00000000000E+00  0.00000000000E+00  0.25404008962E+04  0.25404008962E+04  0.25500000920E-02 0. -1.
       -2   -1    0    0    0  501  0.00000000000E+00  0.00000000000E+00 -0.36299063052E+03  0.36299063053E+03  0.25500000920E-02 0.  1.
    10030    2    1    2    0    0  0.00000000000E+00  0.00000000000E+00  0.21774102657E+04  0.29033915267E+04  0.19205642120E+04 0.  0.
        3    1    3    3  502    0  0.34720999116E+03 -0.52814631879E+01  0.24421623482E+04  0.24667264982E+04  0.10100000352E+00 0. -1.
       -3    1    3    3    0  502 -0.34720999116E+03  0.52814631879E+01 -0.26475208246E+03  0.43666502858E+03  0.10100000352E+00 0.  1.
</event>
<event>
 5   0  0.1790832E-04  0.1930763E+04  0.7818609E-02  0.8639694E-01
       -2   -1    0    0    0  501  0.00000000000E+00  0.00000000000E+00  0.10561421264E+04  0.10561421264E+04  0.25500000920E-02 0. -1.
        2   -1    0    0  501    0  0.00000000000E+00  0.00000000000E+00 -0.88242020688E+03  0.88242020689E+03  0.25500000920E-02 0.  1.
    10030    2    1    2    0    0  0.00000000000E+00  0.00000000000E+00  0.17372191955E+03  0.19385623333E+04  0.19307627029E+04 0.  0.
        5    1    3    3  502    0  0.52632526254E+03 -0.14565105415E+03 -0.71241171911E+03  0.89765531196E+03  0.46999998093E+01 0.  1.
       -5    1    3    3    0  502 -0.52632526254E+03  0.14565105415E+03  0.88613363866E+03  0.10409070214E+04  0.46999998093E+01 0. -1.
</event>
<event>
 5   0  0.1790832E-04  0.1854241E+04  0.7818609E-02  0.8677975E-01
        2   -1    0    0  501    0  0.00000000000E+00  0.00000000000E+00  0.66394581046E+03  0.66394581046E+03  0.25500000920E-02 0. -1.
       -2   -1    0    0    0  501  0.00000000000E+00  0.00000000000E+00 -0.12946127485E+04  0.12946127485E+04  0.25500000920E-02 0.  1.
    10030    2    1    2    0    0  0.00000000000E+00  0.00000000000E+00 -0.63066693799E+03  0.19585585589E+04  0.18542413117E+04 0.  0.
        5    1    3    3  502    0  0.51286043872E+03 -0.15287194786E+03 -0.11149812895E+04  0.12367704023E+04  0.46999998093E+01 0.  1.
       -5    1    3    3    0  502 -0.51286043872E+03  0.15287194786E+03  0.48431435148E+03  0.72178815666E+03  0.46999998093E+01 0. -1.
</event>
<event>
 5   0  0.1790832E-04  0.1816809E+04  0.7818609E-02  0.8697412E-01
       -2   -1    0    0    0  501  0.00000000000E+00  0.00000000000E+00  0.76814278677E+03  0.76814278677E+03  0.25500000920E-02 0. -1.
        2   -1    0    0  501    0  0.00000000000E+00  0.00000000000E+00 -0.10742772233E+04  0.10742772233E+04  0.25500000920E-02 0.  1.
    10030    2    1    2    0    0  0.00000000000E+00  0.00000000000E+00 -0.30613443652E+03  0.18424200101E+04  0.18168085205E+04 0.  0.
        5    1    3    3  502    0 -0.26784877121E+03  0.61759757326E+03  0.46545419307E+03  0.81843718304E+03  0.46999998093E+01 0. -1.
       -5    1    3    3    0  502  0.26784877121E+03 -0.61759757326E+03 -0.77158862958E+03  0.10239828270E+04  0.46999998093E+01 0.  1.
</event>
<event>
 5   0  0.1658711E-04  0.1926813E+04  0.7818609E-02  0.8641624E-01
        2   -1    0    0  501    0  0.00000000000E+00  0.00000000000E+00  0.20499286077E+04  0.20499286077E+04  0.25500000920E-02 0.  1.
       -2   -1    0    0    0  501  0.00000000000E+00  0.00000000000E+00 -0.45277302811E+03  0.45277302812E+03  0.25500000920E-02 0. -1.
    10030    2    1    2    0    0  0.00000000000E+00  0.00000000000E+00  0.15971555795E+04  0.25027016358E+04  0.19268133102E+04 0.  0.
        2    1    3    3  502    0 -0.72400157599E+03 -0.30728953755E+03  0.15212359459E+04  0.17125314435E+04  0.25500000920E-02 0.  1.
       -2    1    3    3    0  502  0.72400157599E+03  0.30728953755E+03  0.75919633631E+02  0.79017019224E+03  0.25500000920E-02 0. -1.
</event>
<event>
 5   0  0.1810569E-04  0.1609043E+04  0.7818609E-02  0.8815012E-01
       -2   -1    0    0    0  501  0.00000000000E+00  0.00000000000E+00  0.84427171966E+03  0.84427171966E+03  0.25500000920E-02 0. -1.
        2   -1    0    0  501    0  0.00000000000E+00  0.00000000000E+00 -0.76664257504E+03  0.76664257505E+03  0.25500000920E-02 0.  1.
    10030    2    1    2    0    0  0.00000000000E+00  0.00000000000E+00  0.77629144613E+02  0.16109142947E+04  0.16090427529E+04 0.  0.
        4    1    3    3  502    0 -0.17822546168E+03 -0.67062932450E+03 -0.36877691406E+03  0.78581551990E+03  0.12699999809E+01 0.  1.
       -4    1    3    3    0  502  0.17822546168E+03  0.67062932450E+03  0.44640605867E+03  0.82509877481E+03  0.12699999809E+01 0. -1.
</event>
<event>
 5   0  0.1765328E-04  0.1874762E+04  0.7818609E-02  0.8667522E-01
       -2   -1    0    0    0  501  0.00000000000E+00  0.00000000000E+00  0.57175063923E+03  0.57175063924E+03  0.25500000920E-02 0. -1.
        2   -1    0    0  501    0  0.00000000000E+00  0.00000000000E+00 -0.15368290812E+04  0.15368290812E+04  0.25500000920E-02 0.  1.
    10030    2    1    2    0    0  0.00000000000E+00  0.00000000000E+00 -0.96507844200E+03  0.21085797205E+04  0.18747618618E+04 0.  0.
        3    1    3    3  502    0 -0.70446541811E+03  0.57849803170E+03 -0.72831406594E+03  0.11667788509E+04  0.10100000352E+00 0.  1.
       -3    1    3    3    0  502  0.70446541811E+03 -0.57849803170E+03 -0.23676437605E+03  0.94180086959E+03  0.10100000352E+00 0. -1.
</event>
<event>
 5   0  0.1790832E-04  0.1895438E+04  0.7818609E-02  0.8657131E-01
       -2   -1    0    0    0  501  0.00000000000E+00  0.00000000000E+00  0.73451683388E+03  0.73451683389E+03  0.25500000920E-02 0. -1.
        2   -1    0    0  501    0  0.00000000000E+00  0.00000000000E+00 -0.12228050064E+04  0.12228050064E+04  0.25500000920E-02 0.  1.
    10030    2    1    2    0    0  0.00000000000E+00  0.00000000000E+00 -0.48828817251E+03  0.19573218403E+04  0.18954375345E+04 0.  0.
        5    1    3    3  502    0  0.67927974746E+03 -0.57072500863E+03 -0.58818947683E+03  0.10644890612E+04  0.46999998093E+01 0. -1.
       -5    1    3    3    0  502 -0.67927974746E+03  0.57072500863E+03  0.99901304318E+02  0.89283277908E+03  0.46999998093E+01 0.  1.
</event>
<event>
 5   0  0.1810569E-04  0.1893536E+04  0.7818609E-02  0.8658081E-01
        2   -1    0    0  501    0  0.00000000000E+00  0.00000000000E+00  0.18252853807E+04  0.18252853807E+04  0.25500000920E-02 0. -1.
       -2   -1    0    0    0  501  0.00000000000E+00  0.00000000000E+00 -0.49108463150E+03  0.49108463151E+03  0.25500000920E-02 0.  1.
    10030    2    1    2    0    0  0.00000000000E+00  0.00000000000E+00  0.13342007492E+04  0.23163700122E+04  0.18935359501E+04 0.  0.
        4    1    3    3  502    0 -0.77757081557E+03 -0.51638512980E+03  0.86090048706E+03  0.12698114966E+04  0.12699999809E+01 0.  1.
       -4    1    3    3    0  502  0.77757081557E+03  0.51638512980E+03  0.47330026217E+03  0.10465585156E+04  0.12699999809E+01 0. -1.
</event>
<event>
 5   0  0.6375750E-05  0.1849745E+04  0.7818609E-02  0.8680284E-01
        3   -1    0    0  501    0  0.00000000000E+00  0.00000000000E+00  0.13894761254E+04  0.13894761291E+04  0.10100000352E+00 0.  1.
       -3   -1    0    0    0  501  0.00000000000E+00  0.00000000000E+00 -0.61561993493E+03  0.61561994322E+03  0.10100000352E+00 0. -1.
    10030    2    1    2    0    0  0.00000000000E+00  0.00000000000E+00  0.77385619045E+03  0.20050960723E+04  0.18497450785E+04 0.  0.
        1    1    3    3  502    0 -0.24363724613E+03  0.72449405751E+03 -0.17751332210E+03  0.78470486593E+03  0.50400001928E-02 0. -1.
       -1    1    3    3    0  502  0.24363724613E+03 -0.72449405751E+03  0.95136951255E+03  0.12203912063E+04  0.50400001928E-02 0.  1.
</event>
<event>
 5   0  0.1799738E-04  0.1902119E+04  0.7818609E-02  0.8653802E-01
        2   -1    0    0  501    0  0.00000000000E+00  0.00000000000E+00  0.15419155668E+04  0.15419155668E+04  0.25500000920E-02 0. -1.
       -2   -1    0    0    0  501  0.00000000000E+00  0.00000000000E+00 -0.58661726504E+03  0.58661726505E+03  0.25500000920E-02 0.  1.
    10030    2    1    2    0    0  0.00000000000E+00  0.00000000000E+00  0.95529830178E+03  0.21285328319E+04  0.19021191264E+04 0.  0.
        1    1    3    3  502    0 -0.28615773314E+03  0.34865170859E+02  0.14918484012E+04  0.15194451226E+04  0.50400001928E-02 0. -1.
       -1    1    3    3    0  502  0.28615773314E+03 -0.34865170859E+02 -0.53655009942E+03  0.60908770927E+03  0.50400001928E-02 0.  1.
</event>
<event>
 5   0  0.8602017E-05  0.1862225E+04  0.7818609E-02  0.8673891E-01
       -1   -1    0    0    0  501  0.00000000000E+00  0.00000000000E+00  0.96323409133E+03  0.96323409134E+03  0.50400001928E-02 0. -1.
        1   -1    0    0  501    0  0.00000000000E+00  0.00000000000E+00 -0.90006251894E+03  0.90006251895E+03  0.50400001928E-02 0.  1.
    10030    2    1    2    0    0  0.00000000000E+00  0.00000000000E+00  0.63171572388E+02  0.18632966103E+04  0.18622254456E+04 0.  0.
        2    1    3    3  502    0  0.17255959401E+03 -0.76729435298E+03 -0.46715199202E+03  0.91473953738E+03  0.25500000920E-02 0.  1.
       -2    1    3    3    0  502 -0.17255959401E+03  0.76729435298E+03  0.53032356440E+03  0.94855707291E+03  0.25500000920E-02 0. -1.
</event>
<event>
 5   0  0.1765328E-04  0.1930264E+04  0.7818609E-02  0.8639937E-01
        2   -1    0    0  501    0  0.00000000000E+00  0.00000000000E+00  0.34175460269E+04  0.34175460269E+04  0.25500000920E-02 0. -1.
       -2   -1    0    0    0  501  0.00000000000E+00  0.00000000000E+00 -0.27255819341E+03  0.27255819342E+03  0.25500000920E-02 0.  1.
    10030    2    1    2    0    0  0.00000000000E+00  0.00000000000E+00  0.31449878335E+04  0.36901042204E+04  0.19302644078E+04 0.  0.
        3    1    3    3  502    0  0.49524567084E+03  0.48713420096E+03  0.28533564216E+04  0.29367006798E+04  0.10100000352E+00 0. -1.
       -3    1    3    3    0  502 -0.49524567084E+03 -0.48713420096E+03  0.29163141195E+03  0.75340354052E+03  0.10100000352E+00 0.  1.
</event>
<event>
 5   0  0.8567844E-05  0.1899040E+04  0.7818609E-02  0.8655335E-01
       -1   -1    0    0    0  501  0.00000000000E+00  0.00000000000E+00  0.10627917419E+04  0.10627917419E+04  0.50400001928E-02 0. -1.
        1   -1    0    0  501    0  0.00000000000E+00  0.00000000000E+00 -0.84832044484E+03  0.84832044486E+03  0.50400001928E-02 0.  1.
    10030    2    1    2    0    0  0.00000000000E+00  0.00000000000E+00  0.21447129703E+03  0.19111121867E+04  0.18990397187E+04 0.  0.
        4    1    3    3  502    0 -0.47508690729E+03  0.81620358186E+03  0.81695433698E+01  0.94443856913E+03  0.12699999809E+01 0. -1.
       -4    1    3    3    0  502  0.47508690729E+03 -0.81620358186E+03  0.20630175366E+03  0.96667361762E+03  0.12699999809E+01 0.  1.
</event>
<event>
 5   0  0.8905646E-05  0.1894774E+04  0.7818609E-02  0.8657462E-01
       -1   -1    0    0    0  501  0.00000000000E+00  0.00000000000E+00  0.77992949675E+03  0.77992949677E+03  0.50400001928E-02 0. -1.
        1   -1    0    0  501    0  0.00000000000E+00  0.00000000000E+00 -0.11507990584E+04  0.11507990584E+04  0.50400001928E-02 0.  1.
    10030    2    1    2    0    0  0.00000000000E+00  0.00000000000E+00 -0.37086956167E+03  0.19307285552E+04  0.18947740029E+04 0.  0.
        1    1    3    3  502    0  0.32406994524E+03 -0.80550275043E+03  0.20081763733E+03  0.89116986812E+03  0.50400001928E-02 0. -1.
       -1    1    3    3    0  502 -0.32406994524E+03  0.80550275043E+03 -0.57168719900E+03  0.10395586871E+04  0.50400001928E-02 0.  1.
</event>
<event>
 5   0  0.8587082E-05  0.1791637E+04  0.7818609E-02  0.8710760E-01
        1   -1    0    0  501    0  0.00000000000E+00  0.00000000000E+00  0.71137878167E+03  0.71137878169E+03  0.50400001928E-02 0. -1.
       -1   -1    0    0    0  501  0.00000000000E+00  0.00000000000E+00 -0.11280774323E+04  0.11280774323E+04  0.50400001928E-02 0.  1.
    10030    2    1    2    0    0  0.00000000000E+00  0.00000000000E+00 -0.41669865063E+03  0.18394562140E+04  0.17916365139E+04 0.  0.
        5    1    3    3  502    0 -0.51379467562E+03  0.22176868263E+03  0.50982193133E+03  0.75703818196E+03  0.46999998093E+01 0. -1.
       -5    1    3    3    0  502  0.51379467562E+03 -0.22176868263E+03 -0.92652058196E+03  0.10824180320E+04  0.46999998093E+01 0.  1.
</event>
<event>
 5   0  0.1810569E-04  0.1903940E+04  0.7818609E-02  0.8652898E-01
        2   -1    0    0  501    0  0.00000000000E+00  0.00000000000E+00  0.11589261279E+04  0.11589261279E+04  0.25500000920E-02 0. -1.
       -2   -1    0    0    0  501  0.00000000000E+00  0.00000000000E+00 -0.78197082357E+03  0.78197082357E+03  0.25500000920E-02 0.  1.
    10030    2    1    2    0    0  0.00000000000E+00  0.00000000000E+00  0.37695530433E+03  0.19408969515E+04  0.19039395145E+04 0.  0.
        4    1    3    3  502    0 -0.13474185495E+03  0.75999833390E+03 -0.37955659125E+03  0.86012653364E+03  0.12699999809E+01 0.  1.
       -4    1    3    3    0  502  0.13474185495E+03 -0.75999833390E+03  0.75651189558E+03  0.10807704178E+04  0.12699999809E+01 0. -1.
</event>
<event>
 5   0  0.8602017E-05  0.1932303E+04  0.7818609E-02  0.8638942E-01
       -1   -1    0    0    0  501  0.00000000000E+00  0.00000000000E+00  0.79810220080E+03  0.79810220082E+03  0.50400001928E-02 0. -1.
        1   -1    0    0  501    0  0.00000000000E+00  0.00000000000E+00 -0.11695860388E+04  0.11695860388E+04  0.50400001928E-02 0.  1.
    10030    2    1    2    0    0  0.00000000000E+00  0.00000000000E+00 -0.37148383800E+03  0.19676882396E+04  0.19323034872E+04 0.  0.
        2    1    3    3  502    0  0.50051078701E+02  0.18451197514E+02  0.79660146486E+03  0.79838552779E+03  0.25500000920E-02 0. -1.
       -2    1    3    3    0  502 -0.50051078701E+02 -0.18451197514E+02 -0.11680853029E+04  0.11693027118E+04  0.25500000920E-02 0.  1.
</event>
<event>
 5   0  0.1658711E-04  0.1890052E+04  0.7818609E-02  0.8659824E-01
       -2   -1    0    0    0  501  0.00000000000E+00  0.00000000000E+00  0.12148764428E+04  0.12148764428E+04  0.25500000920E-02 0. -1.
        2   -1    0    0  501    0  0.00000000000E+00  0.00000000000E+00 -0.73511534380E+03  0.73511534381E+03  0.25500000920E-02 0.  1.
    10030    2    1    2    0    0  0.00000000000E+00  0.00000000000E+00  0.47976109900E+03  0.19499917866E+04  0.18900521833E+04 0.  0.
        2    1    3    3  502    0 -0.63041559668E+03 -0.59065524623E+03  0.63514503748E+03  0.10722437517E+04  0.25500000920E-02 0. -1.
       -2    1    3    3    0  502  0.63041559668E+03  0.59065524623E+03 -0.15538393848E+03  0.87774803490E+03  0.25500000920E-02 0.  1.
</event>
<event>
 5   0  0.1799738E-04  0.1896044E+04  0.7818609E-02  0.8656828E-01
        2   -1    0    0  501    0  0.00000000000E+00  0.00000000000E+00  0.15234091546E+04  0.15234091546E+04  0.25500000920E-02 0. -1.
       -2   -1    0    0    0  501  0.00000000000E+00  0.00000000000E+00 -0.58995675350E+03  0.58995675351E+03  0.25500000920E-02 0.  1.
    10030    2    1    2    0    0  0.00000000000E+00  0.00000000000E+00  0.93345240113E+03  0.21133659081E+04  0.18960437960E+04 0.  0.
        1    1    3    3  502    0 -0.67896812314E+03 -0.51363154490E+03  0.18748104212E+01  0.85136278465E+03  0.50400001928E-02 0.  1.
       -1    1    3    3    0  502  0.67896812314E+03  0.51363154490E+03  0.93157759071E+03  0.12620031235E+04  0.50400001928E-02 0. -1.
</event>
<event>
 5   0  0.1790832E-04  0.1904471E+04  0.7818609E-02  0.8652634E-01
       -2   -1    0    0    0  501  0.00000000000E+00  0.00000000000E+00  0.70920081976E+03  0.70920081977E+03  0.25500000920E-02 0.  1.
        2   -1    0    0  501    0  0.00000000000E+00  0.00000000000E+00 -0.12785551504E+04  0.12785551504E+04  0.25500000920E-02 0. -1.
    10030    2    1    2    0    0  0.00000000000E+00  0.00000000000E+00 -0.56935433062E+03  0.19877559701E+04  0.19044709090E+04 0.  0.
        5    1    3    3  502    0 -0.13564705044E+03  0.49694306279E+03  0.55120616653E+03  0.75445533862E+03  0.46999998093E+01 0.  1.
       -5    1    3    3    0  502  0.13564705044E+03 -0.49694306279E+03 -0.11205604972E+04  0.12333006315E+04  0.46999998093E+01 0. -1.
</event>
<event>
 5   0  0.8602017E-05  0.1932559E+04  0.7818609E-02  0.8638817E-01
       -1   -1    0    0    0  501  0.00000000000E+00  0.00000000000E+00  0.57628302621E+03  0.57628302623E+03  0.50400001928E-02 0. -1.
        1   -1    0    0  501    0  0.00000000000E+00  0.00000000000E+00 -0.16202044673E+04  0.16202044673E+04  0.50400001928E-02 0.  1.
    10030    2    1    2    0    0  0.00000000000E+00  0.00000000000E+00 -0.10439214411E+04  0.21964874935E+04  0.19325592705E+04 0.  0.
        2    1    3    3  502    0 -0.62063170842E+03  0.60622264235E+03 -0.38408628613E+02  0.86842664190E+03  0.25500000920E-02 0. -1.
       -2    1    3    3    0  502  0.62063170842E+03 -0.60622264235E+03 -0.10055128125E+04  0.13280608516E+04  0.25500000920E-02 0.  1.
</event>
<event>
 5   0  0.8567844E-05  0.1888296E+04  0.7818609E-02  0.8660704E-01
        1   -1    0    0  501    0  0.00000000000E+00  0.00000000000E+00  0.16582269466E+04  0.16582269466E+04  0.50400001928E-02 0.  1.
       -1   -1    0    0    0  501  0.00000000000E+00  0.00000000000E+00 -0.53757162241E+03  0.53757162243E+03  0.50400001928E-02 0. -1.
    10030    2    1    2    0    0  0.00000000000E+00  0.00000000000E+00  0.11206553242E+04  0.21957985691E+04  0.18882963221E+04 0.  0.
        4    1    3    3  502    0  0.15818393624E+03  0.92367672257E+03  0.42665953566E+03  0.10296799589E+04  0.12699999809E+01 0. -1.
       -4    1    3    3    0  502 -0.15818393624E+03 -0.92367672257E+03  0.69399578854E+03  0.11661186101E+04  0.12699999809E+01 0.  1.
</event>
<event>
 5   0  0.1810569E-04  0.1880098E+04  0.7818609E-02  0.8664827E-01
       -2   -1    0    0    0  501  0.00000000000E+00  0.00000000000E+00  0.52619765102E+03  0.52619765102E+03  0.25500000920E-02 0.  1.
        2   -1    0    0  501    0  0.00000000000E+00  0.00000000000E+00 -0.16793926485E+04  0.16793926485E+04  0.25500000920E-02 0. -1.
    10030    2    1    2    0    0  0.00000000000E+00  0.00000000000E+00 -0.11531949975E+04  0.22055902996E+04  0.18800983664E+04 0.  0.
        4    1    3    3  502    0 -0.81865354365E+03 -0.10618067424E+03 -0.49052595735E+02  0.82696779270E+03  0.12699999809E+01 0.  1.
       -4    1    3    3    0  502  0.81865354365E+03  0.10618067424E+03 -0.11041424018E+04  0.13786225069E+04  0.12699999809E+01 0. -1.
</event>
<event>
 5   0  0.1765328E-04  0.1997872E+04  0.7818609E-02  0.8607616E-01
        2   -1    0    0  501    0  0.00000000000E+00  0.00000000000E+00  0.31512815214E+03  0.31512815215E+03  0.25500000920E-02 0.  1.
       -2   -1    0    0    0  501  0.00000000000E+00  0.00000000000E+00 -0.31665637602E+04  0.31665637602E+04  0.25500000920E-02 0. -1.
    10030    2    1    2    0    0  0.00000000000E+00  0.00000000000E+00 -0.28514356081E+04  0.34816919124E+04  0.19978722546E+04 0.  0.
        3    1    3    3  502    0 -0.43900093460E+02 -0.86510565662E+03 -0.55866833139E+03  0.10307498872E+04  0.10100000352E+00 0.  1.
       -3    1    3    3    0  502  0.43900093460E+02  0.86510565662E+03 -0.22927672767E+04  0.24509420252E+04  0.10100000352E+00 0. -1.
</event>
<event>
 5   0  0.8905646E-05  0.1900937E+04  0.7818609E-02  0.8654390E-01
        1   -1    0    0  501    0  0.00000000000E+00  0.00000000000E+00  0.13649445626E+04  0.13649445626E+04  0.50400001928E-02 0.  1.
       -1   -1    0    0    0  501  0.00000000000E+00  0.00000000000E+00 -0.66185128532E+03  0.66185128534E+03  0.50400001928E-02 0. -1.
    10030    2    1    2    0    0  0.00000000000E+00  0.00000000000E+00  0.70309327725E+03  0.20267958479E+04  0.19009369407E+04 0.  0.
        1    1    3    3  502    0 -0.19934504256E+03 -0.90219735528E+03  0.58922227020E+03  0.10958473423E+04  0.50400001928E-02 0.  1.
       -1    1    3    3    0  502  0.19934504256E+03  0.90219735528E+03  0.11387100705E+03  0.93094850563E+03  0.50400001928E-02 0. -1.
</event>
<event>
 5   0  0.8681396E-05  0.1898743E+04  0.7818609E-02  0.8655482E-01
       -1   -1    0    0    0  501  0.00000000000E+00  0.00000000000E+00  0.63701814365E+03  0.63701814367E+03  0.50400001928E-02 0. -1.
        1   -1    0    0  501    0  0.00000000000E+00  0.00000000000E+00 -0.14148836145E+04  0.14148836145E+04  0.50400001928E-02 0.  1.
    10030    2    1    2    0    0  0.00000000000E+00  0.00000000000E+00 -0.77786547087E+03  0.20519017582E+04  0.18987433040E+04 0.  0.
        3    1    3    3  502    0  0.85173297408E+03  0.41246533150E+03 -0.30713136246E+03  0.99494039663E+03  0.10100000352E+00 0.  1.
       -3    1    3    3    0  502 -0.85173297408E+03 -0.41246533150E+03 -0.47073410842E+03  0.10569613616E+04  0.10100000352E+00 0. -1.
</event>
<event>
 5   0  0.8602017E-05  0.1870211E+04  0.7818609E-02  0.8669828E-01
        1   -1    0    0  501    0  0.00000000000E+00  0.00000000000E+00  0.27951286879E+04  0.27951286879E+04  0.50400001928E-02 0.  1.
       -1   -1    0    0    0  501  0.00000000000E+00  0.00000000000E+00 -0.31283797107E+03  0.31283797111E+03  0.50400001928E-02 0. -1.
    10030    2    1    2    0    0  0.00000000000E+00  0.00000000000E+00  0.24822907168E+04  0.31079666590E+04  0.18702110979E+04 0.  0.
        2    1    3    3  502    0 -0.18410408354E+03 -0.48845637156E+03  0.25304684570E+04  0.25837481596E+04  0.25500000920E-02 0.  1.
       -2    1    3    3    0  502  0.18410408354E+03  0.48845637156E+03 -0.48177740134E+02  0.52421849943E+03  0.25500000920E-02 0. -1.
</event>
<event>
 5   0  0.8602017E-05  0.2138616E+04  0.7818609E-02  0.8544421E-01
        1   -1    0    0  501    0  0.00000000000E+00  0.00000000000E+00  0.20109844712E+04  0.20109844712E+04  0.50400001928E-02 0. -1.
       -1   -1    0    0    0  501  0.00000000000E+00  0.00000000000E+00 -0.56858705386E+03  0.56858705388E+03  0.50400001928E-02 0.  1.
    10030    2    1    2    0    0  0.00000000000E+00  0.00000000000E+00  0.14423974173E+04  0.25795715251E+04  0.21386161281E+04 0.  0.
        2    1    3    3  502    0 -0.26826382177E+03 -0.42681096470E+03 -0.41625996029E+03  0.65376251973E+03  0.25500000920E-02 0.  1.
       -2    1    3    3    0  502  0.26826382177E+03  0.42681096470E+03  0.18586573776E+04  0.19258090054E+04  0.25500000920E-02 0. -1.
</event>
<event>
 5   0  0.1790832E-04  0.1920200E+04  0.7818609E-02  0.8644866E-01
       -2   -1    0    0    0  501  0.00000000000E+00  0.00000000000E+00  0.76145011912E+03  0.76145011912E+03  0.25500000920E-02 0. -1.
        2   -1    0    0  501    0  0.00000000000E+00  0.00000000000E+00 -0.12105749079E+04  0.12105749079E+04  0.25500000920E-02 0.  1.
    10030    2    1    2    0    0  0.00000000000E+00  0.00000000000E+00 -0.44912478875E+03  0.19720250270E+04  0.19202004143E+04 0.  0.
        5    1    3    3  502    0  0.38227182124E+03 -0.65938753979E+03  0.37501517179E+03  0.84945991195E+03  0.46999998093E+01 0. -1.
       -5    1    3    3    0  502 -0.38227182124E+03  0.65938753979E+03 -0.82413996053E+03  0.11225651150E+04  0.46999998093E+01 0.  1.
</event>
<event>
 5   0  0.8587082E-05  0.1893634E+04  0.7818609E-02  0.8658032E-01
        1   -1    0    0  501    0  0.00000000000E+00  0.00000000000E+00  0.21435287679E+04  0.21435287679E+04  0.50400001928E-02 0. -1.
       -1   -1    0    0    0  501  0.00000000000E+00  0.00000000000E+00 -0.41821795930E+03  0.41821795933E+03  0.50400001928E-02 0.  1.
    10030    2    1    2    0    0  0.00000000000E+00  0.00000000000E+00  0.17253108086E+04  0.25617467273E+04  0.18936337841E+04 0.  0.
        5    1    3    3  502    0  0.74141027516E+03  0.51537034290E+03  0.12480178073E+04  0.15404110892E+04  0.46999998093E+01 0. -1.
       -5    1    3    3    0  502 -0.74141027516E+03 -0.51537034290E+03  0.47729300136E+03  0.10213356381E+04  0.46999998093E+01 0.  1.
</event>
<event>
 5   0  0.8681396E-05  0.1940864E+04  0.7818609E-02  0.8634779E-01
       -1   -1    0    0    0  501  0.00000000000E+00  0.00000000000E+00  0.53847232093E+03  0.53847232095E+03  0.50400001928E-02 0. -1.
        1   -1    0    0  501    0  0.00000000000E+00  0.00000000000E+00 -0.17489076754E+04  0.17489076754E+04  0.50400001928E-02 0.  1.
    10030    2    1    2    0    0  0.00000000000E+00  0.00000000000E+00 -0.12104353545E+04  0.22873799964E+04  0.19408641118E+04 0.  0.
        3    1    3    3  502    0 -0.33316996296E+03 -0.37078443238E+03 -0.15864903595E+04  0.16629597080E+04  0.10100000352E+00 0.  1.
       -3    1    3    3    0  502  0.33316996296E+03  0.37078443238E+03  0.37605500502E+03  0.62442028836E+03  0.10100000352E+00 0. -1.
</event>
<event>
 5   0  0.8587082E-05  0.1907282E+04  0.7818609E-02  0.8651240E-01
       -1   -1    0    0    0  501  0.00000000000E+00  0.00000000000E+00  0.59899287329E+03  0.59899287331E+03  0.50400001928E-02 0.  1.
        1   -1    0    0  501    0  0.00000000000E+00  0.00000000000E+00 -0.15182665581E+04  0.15182665581E+04  0.50400001928E-02 0. -1.
    10030    2    1    2    0    0  0.00000000000E+00  0.00000000000E+00 -0.91927368481E+03  0.21172594314E+04  0.19072816762E+04 0.  0.
        5    1    3    3  502    0  0.14120320556E+01  0.91211638505E+03 -0.76857478697E+03  0.11927646821E+04  0.46999998093E+01 0. -1.
       -5    1    3    3    0  502 -0.14120320556E+01 -0.91211638505E+03 -0.15069889785E+03  0.92449474932E+03  0.46999998093E+01 0.  1.
</event>
<event>
 5   0  0.8567844E-05  0.1823712E+04  0.7818609E-02  0.8693791E-01
        1   -1    0    0  501    0  0.00000000000E+00  0.00000000000E+00  0.96269352616E+03  0.96269352618E+03  0.50400001928E-02 0.  1.
       -1   -1    0    0    0  501  0.00000000000E+00  0.00000000000E+00 -0.86370283934E+03  0.86370283935E+03  0.50400001928E-02 0. -1.
    10030    2    1    2    0    0  0.00000000000E+00  0.00000000000E+00  0.98990686827E+02  0.18263963655E+04  0.18237117447E+04 0.  0.
        4    1    3    3  502    0  0.76638517296E+03  0.30068105857E+03 -0.34315858008E+03  0.89191633929E+03  0.12699999809E+01 0. -1.
       -4    1    3    3    0  502 -0.76638517296E+03 -0.30068105857E+03  0.44214926690E+03  0.93448002624E+03  0.12699999809E+01 0.  1.
</event>
<event>
 5   0  0.1658711E-04  0.1924183E+04  0.7818609E-02  0.8642912E-01
        2   -1    0    0  501    0  0.00000000000E+00  0.00000000000E+00  0.19236846387E+04  0.19236846387E+04  0.25500000920E-02 0.  1.
       -2   -1    0    0    0  501  0.00000000000E+00  0.00000000000E+00 -0.48117019926E+03  0.48117019926E+03  0.25500000920E-02 0. -1.
    10030    2    1    2    0    0  0.00000000000E+00  0.00000000000E+00  0.14425144395E+04  0.24048548380E+04  0.19241826534E+04 0.  0.
        2    1    3    3  502    0  0.32211712494E+03 -0.22496200386E+03 -0.37633451709E+03  0.54405423822E+03  0.25500000920E-02 0. -1.
       -2    1    3    3    0  502 -0.32211712494E+03  0.22496200386E+03  0.18188489566E+04  0.18608005998E+04  0.25500000920E-02 0.  1.
</event>
<event>
 5   0  0.1799738E-04  0.1942608E+04  0.7818609E-02  0.8633934E-01
        2   -1    0    0  501    0  0.00000000000E+00  0.00000000000E+00  0.90948407251E+03  0.90948407252E+03  0.25500000920E-02 0.  1.
       -2   -1    0    0    0  501  0.00000000000E+00  0.00000000000E+00 -0.10373254758E+04  0.10373254758E+04  0.25500000920E-02 0. -1.
    10030    2    1    2    0    0  0.00000000000E+00  0.00000000000E+00 -0.12784140326E+03  0.19468095483E+04  0.19426075242E+04 0.  0.
        1    1    3    3  502    0 -0.88702265881E+03 -0.18171993083E+03 -0.41624861572E+03  0.99654113845E+03  0.50400001928E-02 0. -1.
       -1    1    3    3    0  502  0.88702265881E+03  0.18171993083E+03  0.28840721247E+03  0.95026840984E+03  0.50400001928E-02 0.  1.
</event>
<event>
 5   0  0.8587082E-05  0.1922437E+04  0.7818609E-02  0.8643768E-01
       -1   -1    0    0    0  501  0.00000000000E+00  0.00000000000E+00  0.93989087934E+03  0.93989087935E+03  0.50400001928E-02 0. -1.
        1   -1    0    0  501    0  0.00000000000E+00  0.00000000000E+00 -0.98303018437E+03  0.98303018438E+03  0.50400001928E-02 0.  1.
    10030    2    1    2    0    0  0.00000000000E+00  0.00000000000E+00 -0.43139305028E+02  0.19229210637E+04  0.19224371037E+04 0.  0.
        5    1    3    3  502    0 -0.47783542942E+03 -0.11727927523E+03  0.80437297711E+03  0.94293112278E+03  0.46999998093E+01 0. -1.
       -5    1    3    3    0  502  0.47783542942E+03  0.11727927523E+03 -0.84751228213E+03  0.97998994096E+03  0.46999998093E+01 0.  1.
</event>
<event>
 5   0  0.8602017E-05  0.1884864E+04  0.7818609E-02  0.8662427E-01
       -1   -1    0    0    0  501  0.00000000000E+00  0.00000000000E+00  0.68401341078E+03  0.68401341080E+03  0.50400001928E-02 0.  1.
        1   -1    0    0  501    0  0.00000000000E+00  0.00000000000E+00 -0.12984811395E+04  0.12984811395E+04  0.50400001928E-02 0. -1.
    10030    2    1    2    0    0  0.00000000000E+00  0.00000000000E+00 -0.61446772873E+03  0.19824945503E+04  0.18848644653E+04 0.  0.
        2    1    3    3  502    0  0.58483809426E+03  0.31967733188E+03 -0.10080410931E+04  0.12084601931E+04  0.25500000920E-02 0. -1.
       -2    1    3    3    0  502 -0.58483809426E+03 -0.31967733188E+03  0.39357336434E+03  0.77403435721E+03  0.25500000920E-02 0.  1.
</event>
<event>
 5   0  0.8681396E-05  0.1900922E+04  0.7818609E-02  0.8654398E-01
       -1   -1    0    0    0  501  0.00000000000E+00  0.00000000000E+00  0.64438563153E+03  0.64438563155E+03  0.50400001928E-02 0.  1.
        1   -1    0    0  501    0  0.00000000000E+00  0.00000000000E+00 -0.14019185252E+04  0.14019185252E+04  0.50400001928E-02 0. -1.
    10030    2    1    2    0    0  0.00000000000E+00  0.00000000000E+00 -0.75753289370E+03  0.20463041568E+04  0.19009220439E+04 0.  0.
        3    1    3    3  502    0  0.91946290164E+03  0.86994064530E+02 -0.62042632739E+03  0.11126135145E+04  0.10100000352E+00 0. -1.
       -3    1    3    3    0  502 -0.91946290164E+03 -0.86994064530E+02 -0.13710656631E+03  0.93369064228E+03  0.10100000352E+00 0.  1.
</event>
<event>
 5   0  0.1658711E-04  0.1904458E+04  0.7818609E-02  0.8652641E-01
       -2   -1    0    0    0  501  0.00000000000E+00  0.00000000000E+00  0.70166430729E+03  0.70166430730E+03  0.25500000920E-02 0. -1.
        2   -1    0    0  501    0  0.00000000000E+00  0.00000000000E+00 -0.12922703396E+04  0.12922703396E+04  0.25500000920E-02 0.  1.
    10030    2    1    2    0    0  0.00000000000E+00  0.00000000000E+00 -0.59060603232E+03  0.19939346469E+04  0.19044578994E+04 0.  0.
        2    1    3    3  502    0 -0.36214775227E+03  0.29976005988E+03  0.57169285995E+03  0.74016201882E+03  0.25500000920E-02 0. -1.
       -2    1    3    3    0  502  0.36214775227E+03 -0.29976005988E+03 -0.11622988923E+04  0.12537726281E+04  0.25500000920E-02 0.  1.
</event>
<event>
 5   0  0.1799738E-04  0.1898290E+04  0.7818609E-02  0.8655708E-01
       -2   -1    0    0    0  501  0.00000000000E+00  0.00000000000E+00  0.51282755549E+03  0.51282755550E+03  0.25500000920E-02 0. -1.
        2   -1    0    0  501    0  0.00000000000E+00  0.00000000000E+00 -0.17566853186E+04  0.17566853186E+04  0.25500000920E-02 0.  1.
    10030    2    1    2    0    0  0.00000000000E+00  0.00000000000E+00 -0.12438577631E+04  0.22695128741E+04  0.18982904285E+04 0.  0.
        1    1    3    3  502    0  0.23946587966E+02  0.93891685256E+03 -0.78558625621E+03  0.12244525557E+04  0.50400001928E-02 0.  1.
       -1    1    3    3    0  502 -0.23946587966E+02 -0.93891685256E+03 -0.45827150688E+03  0.10450603184E+04  0.50400001928E-02 0. -1.
</event>
<event>
 5   0  0.8905646E-05  0.1908933E+04  0.7818609E-02  0.8650423E-01
       -1   -1    0    0    0  501  0.00000000000E+00  0.00000000000E+00  0.54543764736E+03  0.54543764739E+03  0.50400001928E-02 0.  1.
        1   -1    0    0  501    0  0.00000000000E+00  0.00000000000E+00 -0.16702291980E+04  0.16702291980E+04  0.50400001928E-02 0. -1.
    10030    2    1    2    0    0  0.00000000000E+00  0.00000000000E+00 -0.11247915506E+04  0.22156668454E+04  0.19089325649E+04 0.  0.
        1    1    3    3  502    0  0.17938686739E+03 -0.42139369918E+03 -0.15343625513E+04  0.16012559873E+04  0.50400001928E-02 0. -1.
       -1    1    3    3    0  502 -0.17938686739E+03  0.42139369918E+03  0.40957100070E+03  0.61441085809E+03  0.50400001928E-02 0.  1.
</event>
<event>
 5   0  0.1658711E-04  0.1901570E+04  0.7818609E-02  0.8654075E-01
       -2   -1    0    0    0  501  0.00000000000E+00  0.00000000000E+00  0.10130913582E+04  0.10130913582E+04  0.25500000920E-02 0.  1.
        2   -1    0    0  501    0  0.00000000000E+00  0.00000000000E+00 -0.89231084142E+03  0.89231084142E+03  0.25500000920E-02 0. -1.
    10030    2    1    2    0    0  0.00000000000E+00  0.00000000000E+00  0.12078051678E+03  0.19054021996E+04  0.19015703009E+04 0.  0.
        2    1    3    3  502    0  0.43349410818E+03  0.30715655129E+03 -0.72969730884E+03  0.90261866331E+03  0.25500000920E-02 0. -1.
       -2    1    3    3    0  502 -0.43349410818E+03 -0.30715655129E+03  0.85047782562E+03  0.10027835363E+04  0.25500000920E-02 0.  1.
</event>
<event>
 5   0  0.8567844E-05  0.1906836E+04  0.7818609E-02  0.8651461E-01
        1   -1    0    0  501    0  0.00000000000E+00  0.00000000000E+00  0.18200394188E+04  0.18200394188E+04  0.50400001928E-02 0.  1.
       -1   -1    0    0    0  501  0.00000000000E+00  0.00000000000E+00 -0.49944309445E+03  0.49944309447E+03  0.50400001928E-02 0. -1.
    10030    2    1    2    0    0  0.00000000000E+00  0.00000000000E+00  0.13205963244E+04  0.23194825133E+04  0.19068362482E+04 0.  0.
        4    1    3    3  502    0 -0.36359774205E+03  0.82759516510E+03  0.29157046692E+03  0.94980630941E+03  0.12699999809E+01 0.  1.
       -4    1    3    3    0  502  0.36359774205E+03 -0.82759516510E+03  0.10290258575E+04  0.13696762039E+04  0.12699999809E+01 0. -1.
</event>
<event>
 5   0  0.8681396E-05  0.1937834E+04  0.7818609E-02  0.8636250E-01
        1   -1    0    0  501    0  0.00000000000E+00  0.00000000000E+00  0.63634623226E+03  0.63634623228E+03  0.50400001928E-02 0.  1.
       -1   -1    0    0    0  501  0.00000000000E+00  0.00000000000E+00 -0.14752984362E+04  0.14752984363E+04  0.50400001928E-02 0. -1.
    10030    2    1    2    0    0  0.00000000000E+00  0.00000000000E+00 -0.83895220399E+03  0.21116446685E+04  0.19378344629E+04 0.  0.
        3    1    3    3  502    0 -0.24985023808E+03 -0.43074133354E+03 -0.13251921666E+04  0.14156615155E+04  0.10100000352E+00 0. -1.
       -3    1    3    3    0  502  0.24985023808E+03  0.43074133354E+03  0.48623996259E+03  0.69598315304E+03  0.10100000352E+00 0.  1.
</event>
<event>
 5   0  0.1790832E-04  0.1764418E+04  0.7818609E-02  0.8725454E-01
       -2   -1    0    0    0  501  0.00000000000E+00  0.00000000000E+00  0.55071822920E+03  0.55071822920E+03  0.25500000920E-02 0. -1.
        2   -1    0    0  501    0  0.00000000000E+00  0.00000000000E+00 -0.14132320034E+04  0.14132320034E+04  0.25500000920E-02 0.  1.
    10030    2    1    2    0    0  0.00000000000E+00  0.00000000000E+00 -0.86251377417E+03  0.19639502326E+04  0.17644178942E+04 0.  0.
        5    1    3    3  502    0  0.55251434450E+03  0.64013236650E+03 -0.71114673300E+03  0.11048951594E+04  0.46999998093E+01 0.  1.
       -5    1    3    3    0  502 -0.55251434450E+03 -0.64013236650E+03 -0.15136704117E+03  0.85905507313E+03  0.46999998093E+01 0. -1.
</event>
<event>
 5   0  0.1658711E-04  0.1671142E+04  0.7818609E-02  0.8777996E-01
       -2   -1    0    0    0  501  0.00000000000E+00  0.00000000000E+00  0.79575827460E+03  0.79575827461E+03  0.25500000920E-02 0.  1.
        2   -1    0    0  501    0  0.00000000000E+00  0.00000000000E+00 -0.87737588431E+03  0.87737588431E+03  0.25500000920E-02 0. -1.
    10030    2    1    2    0    0  0.00000000000E+00  0.00000000000E+00 -0.81617609704E+02  0.16731341589E+04  0.16711422679E+04 0.  0.
        2    1    3    3  502    0 -0.72562055235E+03  0.41171759625E+03 -0.87151716263E+02  0.83882774555E+03  0.25500000920E-02 0. -1.
       -2    1    3    3    0  502  0.72562055235E+03 -0.41171759625E+03  0.55341065596E+01  0.83430641337E+03  0.25500000920E-02 0.  1.
</event>
<event>
 5   0  0.6375750E-05  0.1911834E+04  0.7818609E-02  0.8648988E-01
        3   -1    0    0  501    0  0.00000000000E+00  0.00000000000E+00  0.27628604395E+04  0.27628604414E+04  0.10100000352E+00 0.  1.
       -3   -1    0    0    0  501  0.00000000000E+00  0.00000000000E+00 -0.33073593070E+03  0.33073594612E+03  0.10100000352E+00 0. -1.
    10030    2    1    2    0    0  0.00000000000E+00  0.00000000000E+00  0.24321245088E+04  0.30935963875E+04  0.19118339317E+04 0.  0.
        4    1    3    3  502    0 -0.10910734082E+02 -0.82777701031E+03  0.44266739219E+03  0.93877039574E+03  0.12699999809E+01 0. -1.
       -4    1    3    3    0  502  0.10910734082E+02  0.82777701031E+03  0.19894571166E+04  0.21548259918E+04  0.12699999809E+01 0.  1.
</event>
<event>
 5   0  0.8587082E-05  0.1901173E+04  0.7818609E-02  0.8654273E-01
       -1   -1    0    0    0  501  0.00000000000E+00  0.00000000000E+00  0.12198686868E+04  0.12198686868E+04  0.50400001928E-02 0.  1.
        1   -1    0    0  501    0  0.00000000000E+00  0.00000000000E+00 -0.74074736832E+03  0.74074736834E+03  0.50400001928E-02 0. -1.
    10030    2    1    2    0    0  0.00000000000E+00  0.00000000000E+00  0.47912131843E+03  0.19606160551E+04  0.19011728164E+04 0.  0.
        5    1    3    3  502    0  0.32228399443E+03 -0.27680911499E+03 -0.63738118053E+03  0.76600725747E+03  0.46999998093E+01 0. -1.
       -5    1    3    3    0  502 -0.32228399443E+03  0.27680911499E+03  0.11165024990E+04  0.11946087976E+04  0.46999998093E+01 0.  1.
</event>
<event>
 5   0  0.8602017E-05  0.1876093E+04  0.7818609E-02  0.8666849E-01
       -1   -1    0    0    0  501  0.00000000000E+00  0.00000000000E+00  0.79436331408E+03  0.79436331410E+03  0.50400001928E-02 0.  1.
        1   -1    0    0  501    0  0.00000000000E+00  0.00000000000E+00 -0.11077190250E+04  0.11077190250E+04  0.50400001928E-02 0. -1.
    10030    2    1    2    0    0  0.00000000000E+00  0.00000000000E+00 -0.31335571089E+03  0.19020823391E+04  0.18760931275E+04 0.  0.
        2    1    3    3  502    0 -0.22014196508E+03 -0.23175713060E+03 -0.10508003589E+04  0.10983420444E+04  0.25500000920E-02 0. -1.
       -2    1    3    3    0  502  0.22014196508E+03  0.23175713060E+03  0.73744464799E+03  0.80374029464E+03  0.25500000920E-02 0.  1.
</event>
<event>
 5   0  0.8905646E-05  0.1892973E+04  0.7818609E-02  0.8658362E-01
       -1   -1    0    0    0  501  0.00000000000E+00  0.00000000000E+00  0.13152836865E+04  0.13152836865E+04  0.50400001928E-02 0.  1.
        1   -1    0    0  501    0  0.00000000000E+00  0.00000000000E+00 -0.68109799694E+03  0.68109799696E+03  0.50400001928E-02 0. -1.
    10030    2    1    2    0    0  0.00000000000E+00  0.00000000000E+00  0.63418568954E+03  0.19963816835E+04  0.18929734116E+04 0.  0.
        1    1    3    3  502    0  0.46840613399E+03  0.68885769005E+02 -0.54724336039E+03  0.72361927216E+03  0.50400001928E-02 0. -1.
       -1    1    3    3    0  502 -0.46840613399E+03 -0.68885769005E+02  0.11814290499E+04  0.12727624113E+04  0.50400001928E-02 0.  1.
</event>
<event>
 5   0  0.1658711E-04  0.1912640E+04  0.7818609E-02  0.8648590E-01
       -2   -1    0    0    0  501  0.00000000000E+00  0.00000000000E+00  0.12870003633E+04  0.12870003633E+04  0.25500000920E-02 0. -1.
        2   -1    0    0  501    0  0.00000000000E+00  0.00000000000E+00 -0.71060433141E+03  0.71060433142E+03  0.25500000920E-02 0.  1.
    10030    2    1    2    0    0  0.00000000000E+00  0.00000000000E+00  0.57639603190E+03  0.19976046947E+04  0.19126400944E+04 0.  0.
        2    1    3    3  502    0  0.93397337919E+03 -0.91039563781E+02  0.95747563459E+02  0.94327200273E+03  0.25500000920E-02 0. -1.
       -2    1    3    3    0  502 -0.93397337919E+03  0.91039563781E+02  0.48064846844E+03  0.10543326920E+04  0.25500000920E-02 0.  1.
</event>
<event>
 5   0  0.8905646E-05  0.1857065E+04  0.7818609E-02  0.8676528E-01
       -1   -1    0    0    0  501  0.00000000000E+00  0.00000000000E+00  0.38758924084E+03  0.38758924087E+03  0.50400001928E-02 0.  1.
        1   -1    0    0  501    0  0.00000000000E+00  0.00000000000E+00 -0.22244495074E+04  0.22244495074E+04  0.50400001928E-02 0. -1.
    10030    2    1    2    0    0  0.00000000000E+00  0.00000000000E+00 -0.18368602665E+04  0.26120387482E+04  0.18570650994E+04 0.  0.
        1    1    3    3  502    0  0.46845556262E+03  0.30944844916E+03 -0.19586658345E+04  0.20375428359E+04  0.50400001928E-02 0. -1.
       -1    1    3    3    0  502 -0.46845556262E+03 -0.30944844916E+03  0.12180556801E+03  0.57449591231E+03  0.50400001928E-02 0.  1.
</event>
<event>
 5   0  0.1790832E-04  0.1853211E+04  0.7818609E-02  0.8678503E-01
       -2   -1    0    0    0  501  0.00000000000E+00  0.00000000000E+00  0.40089342920E+03  0.40089342921E+03  0.25500000920E-02 0. -1.
        2   -1    0    0  501    0  0.00000000000E+00  0.00000000000E+00 -0.21417112100E+04  0.21417112100E+04  0.25500000920E-02 0.  1.
    10030    2    1    2    0    0  0.00000000000E+00  0.00000000000E+00 -0.17408177808E+04  0.25426046392E+04  0.18532112144E+04 0.  0.
        5    1    3    3  502    0 -0.89094155472E+03 -0.23786725276E+02 -0.52268567116E+03  0.10332304017E+04  0.46999998093E+01 0. -1.
       -5    1    3    3    0  502  0.89094155472E+03  0.23786725276E+02 -0.12181321096E+04  0.15093742375E+04  0.46999998093E+01 0.  1.
</event>
<event>
 5   0  0.8681396E-05  0.2004070E+04  0.7818609E-02  0.8604720E-01
        1   -1    0    0  501    0  0.00000000000E+00  0.00000000000E+00  0.51826624695E+03  0.51826624697E+03  0.50400001928E-02 0.  1.
       -1   -1    0    0    0  501  0.00000000000E+00  0.00000000000E+00 -0.19373705418E+04  0.19373705418E+04  0.50400001928E-02 0. -1.
    10030    2    1    2    0    0  0.00000000000E+00  0.00000000000E+00 -0.14191042949E+04  0.24556367888E+04  0.20040696192E+04 0.  0.
        3    1    3    3  502    0 -0.65858363314E+03 -0.75459385296E+03 -0.67219550959E+03  0.12062301182E+04  0.10100000352E+00 0.  1.
       -3    1    3    3    0  502  0.65858363314E+03  0.75459385296E+03 -0.74690878526E+03  0.12494066706E+04  0.10100000352E+00 0. -1.
</event>
<event>
 5   0  0.6375750E-05  0.1907114E+04  0.7818609E-02  0.8651323E-01
       -3   -1    0    0    0  501  0.00000000000E+00  0.00000000000E+00  0.20584760919E+04  0.20584760944E+04  0.10100000352E+00 0. -1.
        3   -1    0    0  501    0  0.00000000000E+00  0.00000000000E+00 -0.44172058822E+03  0.44172059976E+03  0.10100000352E+00 0.  1.
    10030    2    1    2    0    0  0.00000000000E+00  0.00000000000E+00  0.16167555037E+04  0.25001966942E+04  0.19071143518E+04 0.  0.
        2    1    3    3  502    0  0.87500728835E+03  0.32521195496E+03  0.10635005140E+04  0.14150738191E+04  0.25500000920E-02 0. -1.
       -2    1    3    3    0  502 -0.87500728835E+03 -0.32521195496E+03  0.55325498975E+03  0.10851228751E+04  0.25500000920E-02 0.  1.
</event>
<event>
 5   0  0.8587082E-05  0.1893273E+04  0.7818609E-02  0.8658212E-01
       -1   -1    0    0    0  501  0.00000000000E+00  0.00000000000E+00  0.50202173520E+03  0.50202173523E+03  0.50400001928E-02 0. -1.
        1   -1    0    0  501    0  0.00000000000E+00  0.00000000000E+00 -0.17850232719E+04  0.17850232719E+04  0.50400001928E-02 0.  1.
    10030    2    1    2    0    0  0.00000000000E+00  0.00000000000E+00 -0.12830015367E+04  0.22870450071E+04  0.18932728069E+04 0.  0.
        5    1    3    3  502    0 -0.37866709886E+03 -0.86712003496E+03 -0.67593286475E+03  0.11628384473E+04  0.46999998093E+01 0.  1.
       -5    1    3    3    0  502  0.37866709886E+03  0.86712003496E+03 -0.60706867194E+03  0.11242065599E+04  0.46999998093E+01 0. -1.
</event>
<event>
 5   0  0.1658711E-04  0.1885201E+04  0.7818609E-02  0.8662258E-01
        2   -1    0    0  501    0  0.00000000000E+00  0.00000000000E+00  0.17602394519E+04  0.17602394519E+04  0.25500000920E-02 0.  1.
       -2   -1    0    0    0  501  0.00000000000E+00  0.00000000000E+00 -0.50475822695E+03  0.50475822695E+03  0.25500000920E-02 0. -1.
    10030    2    1    2    0    0  0.00000000000E+00  0.00000000000E+00  0.12554812249E+04  0.22649976788E+04  0.18852006204E+04 0.  0.
        2    1    3    3  502    0  0.30390286620E+03 -0.67098397316E+03  0.13343791737E+04  0.15241864136E+04  0.25500000920E-02 0. -1.
       -2    1    3    3    0  502 -0.30390286620E+03  0.67098397316E+03 -0.78897948760E+02  0.74081126520E+03  0.25500000920E-02 0.  1.
</event>
<event>
 5   0  0.6375750E-05  0.1842824E+04  0.7818609E-02  0.8683852E-01
        3   -1    0    0  501    0  0.00000000000E+00  0.00000000000E+00  0.57956624152E+03  0.57956625032E+03  0.10100000352E+00 0. -1.
       -3   -1    0    0    0  501  0.00000000000E+00  0.00000000000E+00 -0.14648882253E+04  0.14648882287E+04  0.10100000352E+00 0.  1.
    10030    2    1    2    0    0  0.00000000000E+00  0.00000000000E+00 -0.88532198375E+03  0.20444544791E+04  0.18428236763E+04 0.  0.
        4    1    3    3  502    0 -0.46660948754E+03  0.79239367738E+03 -0.50721715394E+03  0.10501823689E+04  0.12699999809E+01 0.  1.
       -4    1    3    3    0  502  0.46660948754E+03 -0.79239367738E+03 -0.37810482981E+03  0.99427211016E+03  0.12699999809E+01 0. -1.
</event>
<event>
 5   0  0.8905646E-05  0.1899966E+04  0.7818609E-02  0.8654874E-01
        1   -1    0    0  501    0  0.00000000000E+00  0.00000000000E+00  0.18412559857E+04  0.18412559857E+04  0.50400001928E-02 0. -1.
       -1   -1    0    0    0  501  0.00000000000E+00  0.00000000000E+00 -0.49013677303E+03  0.49013677305E+03  0.50400001928E-02 0.  1.
    10030    2    1    2    0    0  0.00000000000E+00  0.00000000000E+00  0.13511192126E+04  0.23313927587E+04  0.18999655441E+04 0.  0.
        1    1    3    3  502    0  0.66561451417E+03 -0.67588026956E+03  0.61286543753E+03  0.11293630350E+04  0.50400001928E-02 0. -1.
       -1    1    3    3    0  502 -0.66561451417E+03  0.67588026956E+03  0.73825377511E+03  0.12020297237E+04  0.50400001928E-02 0.  1.
</event>
<event>
 5   0  0.1658711E-04  0.1920569E+04  0.7818609E-02  0.8644685E-01
       -2   -1    0    0    0  501  0.00000000000E+00  0.00000000000E+00  0.11356097321E+04  0.11356097321E+04  0.25500000920E-02 0. -1.
        2   -1    0    0  501    0  0.00000000000E+00  0.00000000000E+00 -0.81202755406E+03  0.81202755406E+03  0.25500000920E-02 0.  1.
    10030    2    1    2    0    0  0.00000000000E+00  0.00000000000E+00  0.32358217802E+03  0.19476372861E+04  0.19205690751E+04 0.  0.
        2    1    3    3  502    0  0.41054294066E+03 -0.81377367132E+03  0.46833154622E+03  0.10247475452E+04  0.25500000920E-02 0. -1.
       -2    1    3    3    0  502 -0.41054294066E+03  0.81377367132E+03 -0.14474936820E+03  0.92288974090E+03  0.25500000920E-02 0.  1.
</event>
<event>
 5   0  0.8602017E-05  0.1927013E+04  0.7818609E-02  0.8641526E-01
        1   -1    0    0  501    0  0.00000000000E+00  0.00000000000E+00  0.75968308510E+03  0.75968308512E+03  0.50400001928E-02 0.  1.
       -1   -1    0    0    0  501  0.00000000000E+00  0.00000000000E+00 -0.12220164026E+04  0.12220164026E+04  0.50400001928E-02 0. -1.
    10030    2    1    2    0    0  0.00000000000E+00  0.00000000000E+00 -0.46233331748E+03  0.19816994877E+04  0.19270134310E+04 0.  0.
        2    1    3    3  502    0  0.22746240274E+03  0.58343804092E+03 -0.98420819217E+03  0.11665354079E+04  0.25500000920E-02 0. -1.
       -2    1    3    3    0  502 -0.22746240274E+03 -0.58343804092E+03  0.52187487469E+03  0.81516407986E+03  0.25500000920E-02 0.  1.
</event>
<event>
 5   0  0.8602017E-05  0.1907127E+04  0.7818609E-02  0.8651317E-01
        1   -1    0    0  501    0  0.00000000000E+00  0.00000000000E+00  0.92318181249E+03  0.92318181251E+03  0.50400001928E-02 0. -1.
       -1   -1    0    0    0  501  0.00000000000E+00  0.00000000000E+00 -0.98494519587E+03  0.98494519588E+03  0.50400001928E-02 0.  1.
    10030    2    1    2    0    0  0.00000000000E+00  0.00000000000E+00 -0.61763383375E+02  0.19081270084E+04  0.19071271496E+04 0.  0.
        2    1    3    3  502    0 -0.11216053553E+03  0.23138916128E+03  0.88783855468E+03  0.92432582398E+03  0.25500000920E-02 0. -1.
       -2    1    3    3    0  502  0.11216053553E+03 -0.23138916128E+03 -0.94960193806E+03  0.98380118441E+03  0.25500000920E-02 0.  1.
</event>
<event>
 5   0  0.8567844E-05  0.1899713E+04  0.7818609E-02  0.8654999E-01
        1   -1    0    0  501    0  0.00000000000E+00  0.00000000000E+00  0.11341290646E+04  0.11341290646E+04  0.50400001928E-02 0. -1.
       -1   -1    0    0    0  501  0.00000000000E+00  0.00000000000E+00 -0.79552456405E+03  0.79552456407E+03  0.50400001928E-02 0.  1.
    10030    2    1    2    0    0  0.00000000000E+00  0.00000000000E+00  0.33860450054E+03  0.19296536287E+04  0.18997131675E+04 0.  0.
        4    1    3    3  502    0  0.46169553978E+03  0.40093143339E+03  0.90761212003E+03  0.10943811763E+04  0.12699999809E+01 0. -1.
       -4    1    3    3    0  502 -0.46169553978E+03 -0.40093143339E+03 -0.56900761949E+03  0.83527245236E+03  0.12699999809E+01 0.  1.
</event>
<event>
 5   0  0.8567844E-05  0.1973767E+04  0.7818609E-02  0.8618985E-01
        1   -1    0    0  501    0  0.00000000000E+00  0.00000000000E+00  0.78997710424E+03  0.78997710425E+03  0.50400001928E-02 0. -1.
       -1   -1    0    0    0  501  0.00000000000E+00  0.00000000000E+00 -0.12328695855E+04  0.12328695855E+04  0.50400001928E-02 0.  1.
    10030    2    1    2    0    0  0.00000000000E+00  0.00000000000E+00 -0.44289248127E+03  0.20228466898E+04  0.19737666986E+04 0.  0.
        4    1    3    3  502    0 -0.71967809127E+03 -0.31241585921E+03 -0.83499527791E+03  0.11457569337E+04  0.12699999809E+01 0.  1.
       -4    1    3    3    0  502  0.71967809127E+03  0.31241585921E+03  0.39210279664E+03  0.87708975605E+03  0.12699999809E+01 0. -1.
</event>
<event>
 5   0  0.8587082E-05  0.1897919E+04  0.7818609E-02  0.8655893E-01
        1   -1    0    0  501    0  0.00000000000E+00  0.00000000000E+00  0.16131677369E+04  0.16131677369E+04  0.50400001928E-02 0. -1.
       -1   -1    0    0    0  501  0.00000000000E+00  0.00000000000E+00 -0.55823315687E+03  0.55823315689E+03  0.50400001928E-02 0.  1.
    10030    2    1    2    0    0  0.00000000000E+00  0.00000000000E+00  0.10549345801E+04  0.21714008938E+04  0.18979185635E+04 0.  0.
        5    1    3    3  502    0 -0.76544969008E+03 -0.34170889178E+03  0.10363307968E+04  0.13329222802E+04  0.46999998093E+01 0. -1.
       -5    1    3    3    0  502  0.76544969008E+03  0.34170889178E+03  0.18603783310E+02  0.83847861363E+03  0.46999998093E+01 0.  1.
</event>
<event>
 5   0  0.8681396E-05  0.1893737E+04  0.7818609E-02  0.8657980E-01
        1   -1    0    0  501    0  0.00000000000E+00  0.00000000000E+00  0.14534026145E+04  0.14534026145E+04  0.50400001928E-02 0. -1.
       -1   -1    0    0    0  501  0.00000000000E+00  0.00000000000E+00 -0.61686935672E+03  0.61686935674E+03  0.50400001928E-02 0.  1.
    10030    2    1    2    0    0  0.00000000000E+00  0.00000000000E+00  0.83653325777E+03  0.20702719712E+04  0.18937365560E+04 0.  0.
        3    1    3    3  502    0 -0.30047881196E+03  0.28951381692E+03  0.13474744728E+04  0.14106003090E+04  0.10100000352E+00 0. -1.
       -3    1    3    3    0  502  0.30047881196E+03 -0.28951381692E+03 -0.51094121502E+03  0.65967166229E+03  0.10100000352E+00 0.  1.
</event>
<event>
 5   0  0.1790832E-04  0.1638736E+04  0.7818609E-02  0.8797098E-01
       -2   -1    0    0    0  501  0.00000000000E+00  0.00000000000E+00  0.92338987802E+03  0.92338987802E+03  0.25500000920E-02 0. -1.
        2   -1    0    0  501    0  0.00000000000E+00  0.00000000000E+00 -0.72706468908E+03  0.72706468909E+03  0.25500000920E-02 0.  1.
    10030    2    1    2    0    0  0.00000000000E+00  0.00000000000E+00  0.19632518894E+03  0.16504545671E+04  0.16387363114E+04 0.  0.
        5    1    3    3  502    0 -0.41795291174E+03  0.43594013976E+03 -0.45952403728E+03  0.75888923613E+03  0.46999998093E+01 0.  1.
       -5    1    3    3    0  502  0.41795291174E+03 -0.43594013976E+03  0.65584922622E+03  0.89156533098E+03  0.46999998093E+01 0. -1.
</event>
<event>
 5   0  0.8587082E-05  0.1919497E+04  0.7818609E-02  0.8645212E-01
        1   -1    0    0  501    0  0.00000000000E+00  0.00000000000E+00  0.12031455212E+04  0.12031455212E+04  0.50400001928E-02 0. -1.
       -1   -1    0    0    0  501  0.00000000000E+00  0.00000000000E+00 -0.76559106416E+03  0.76559106418E+03  0.50400001928E-02 0.  1.
    10030    2    1    2    0    0  0.00000000000E+00  0.00000000000E+00  0.43755445701E+03  0.19687365854E+04  0.19194972883E+04 0.  0.
        5    1    3    3  502    0  0.19165988299E+03 -0.39235707682E+03  0.10953455635E+04  0.11791868300E+04  0.46999998093E+01 0. -1.
       -5    1    3    3    0  502 -0.19165988299E+03  0.39235707682E+03 -0.65779110649E+03  0.78954975540E+03  0.46999998093E+01 0.  1.
</event>
<event>
 5   0  0.1799738E-04  0.1921933E+04  0.7818609E-02  0.8644015E-01
        2   -1    0    0  501    0  0.00000000000E+00  0.00000000000E+00  0.20588549421E+04  0.20588549421E+04  0.25500000920E-02 0. -1.
       -2   -1    0    0    0  501  0.00000000000E+00  0.00000000000E+00 -0.44852930596E+03  0.44852930597E+03  0.25500000920E-02 0.  1.
    10030    2    1    2    0    0  0.00000000000E+00  0.00000000000E+00  0.16103256362E+04  0.25073842481E+04  0.19219331708E+04 0.  0.
        1    1    3    3  502    0 -0.79383281399E+03 -0.24520793936E+03  0.14351170385E+04  0.16582696958E+04  0.50400001928E-02 0.  1.
       -1    1    3    3    0  502  0.79383281399E+03  0.24520793936E+03  0.17520859770E+03  0.84911455224E+03  0.50400001928E-02 0. -1.
</event>
<event>
 5   0  0.8681396E-05  0.1896311E+04  0.7818609E-02  0.8656695E-01
       -1   -1    0    0    0  501  0.00000000000E+00  0.00000000000E+00  0.70318404412E+03  0.70318404414E+03  0.50400001928E-02 0. -1.
        1   -1    0    0  501    0  0.00000000000E+00  0.00000000000E+00 -0.12784683927E+04  0.12784683927E+04  0.50400001928E-02 0.  1.
    10030    2    1    2    0    0  0.00000000000E+00  0.00000000000E+00 -0.57528434858E+03  0.19816524368E+04  0.18963107073E+04 0.  0.
        3    1    3    3  502    0 -0.63766923245E+03  0.45011404036E+03 -0.85017464400E+03  0.11541324165E+04  0.10100000352E+00 0.  1.
       -3    1    3    3    0  502  0.63766923245E+03 -0.45011404036E+03  0.27489029542E+03  0.82752002033E+03  0.10100000352E+00 0. -1.
</event>
<event>
 5   0  0.8602017E-05  0.1874119E+04  0.7818609E-02  0.8667847E-01
        1   -1    0    0  501    0  0.00000000000E+00  0.00000000000E+00  0.16700123598E+04  0.16700123598E+04  0.50400001928E-02 0. -1.
       -1   -1    0    0    0  501  0.00000000000E+00  0.00000000000E+00 -0.52579279277E+03  0.52579279280E+03  0.50400001928E-02 0.  1.
    10030    2    1    2    0    0  0.00000000000E+00  0.00000000000E+00  0.11442195670E+04  0.21958051526E+04  0.18741189532E+04 0.  0.
        2    1    3    3  502    0  0.23602464893E+03 -0.57082503335E+02 -0.48828829391E+03  0.54533613952E+03  0.25500000920E-02 0.  1.
       -2    1    3    3    0  502 -0.23602464893E+03  0.57082503335E+02  0.16325078610E+04  0.16504690131E+04  0.25500000920E-02 0. -1.
</event>
<event>
 5   0  0.1799738E-04  0.1892234E+04  0.7818609E-02  0.8658732E-01
        2   -1    0    0  501    0  0.00000000000E+00  0.00000000000E+00  0.65647494689E+03  0.65647494689E+03  0.25500000920E-02 0.  1.
       -2   -1    0    0    0  501  0.00000000000E+00  0.00000000000E+00 -0.13635519832E+04  0.13635519832E+04  0.25500000920E-02 0. -1.
    10030    2    1    2    0    0  0.00000000000E+00  0.00000000000E+00 -0.70707703635E+03  0.20200269301E+04  0.18922343573E+04 0.  0.
        1    1    3    3  502    0  0.26271650370E+03 -0.71111852767E+03 -0.95783156427E+03  0.12215362570E+04  0.50400001928E-02 0. -1.
       -1    1    3    3    0  502 -0.26271650370E+03  0.71111852767E+03  0.25075452793E+03  0.79849067309E+03  0.50400001928E-02 0.  1.
</event>
<event>
 5   0  0.1765328E-04  0.1921255E+04  0.7818609E-02  0.8644348E-01
       -2   -1    0    0    0  501  0.00000000000E+00  0.00000000000E+00  0.11201711156E+04  0.11201711156E+04  0.25500000920E-02 0. -1.
        2   -1    0    0  501    0  0.00000000000E+00  0.00000000000E+00 -0.82380723848E+03  0.82380723848E+03  0.25500000920E-02 0.  1.
    10030    2    1    2    0    0  0.00000000000E+00  0.00000000000E+00  0.29636387713E+03  0.19439783541E+04  0.19212548747E+04 0.  0.
        3    1    3    3  502    0  0.95339746840E+03  0.10397837625E+03  0.20384925579E+03  0.98047578490E+03  0.10100000352E+00 0. -1.
       -3    1    3    3    0  502 -0.95339746840E+03 -0.10397837625E+03  0.92514621333E+02  0.96350256919E+03  0.10100000352E+00 0.  1.
</event>
<event>
 5   0  0.1799738E-04  0.1903453E+04  0.7818609E-02  0.8653140E-01
        2   -1    0    0  501    0  0.00000000000E+00  0.00000000000E+00  0.10177198469E+04  0.10177198469E+04  0.25500000920E-02 0.  1.
       -2   -1    0    0    0  501  0.00000000000E+00  0.00000000000E+00 -0.89001204400E+03  0.89001204400E+03  0.25500000920E-02 0. -1.
    10030    2    1    2    0    0  0.00000000000E+00  0.00000000000E+00  0.12770780288E+03  0.19077318909E+04  0.19034525696E+04 0.  0.
        1    1    3    3  502    0  0.11356872999E+03  0.18623874757E+03 -0.86461975132E+03  0.89171186037E+03  0.50400001928E-02 0. -1.
       -1    1    3    3    0  502 -0.11356872999E+03 -0.18623874757E+03  0.99232755420E+03  0.10160200305E+04  0.50400001928E-02 0.  1.
</event>
<event>
 5   0  0.1765328E-04  0.1913651E+04  0.7818609E-02  0.8648091E-01
        2   -1    0    0  501    0  0.00000000000E+00  0.00000000000E+00  0.15663964000E+04  0.15663964000E+04  0.25500000920E-02 0. -1.
       -2   -1    0    0    0  501  0.00000000000E+00  0.00000000000E+00 -0.58447192042E+03  0.58447192042E+03  0.25500000920E-02 0.  1.
    10030    2    1    2    0    0  0.00000000000E+00  0.00000000000E+00  0.98192447958E+03  0.21508683204E+04  0.19136506599E+04 0.  0.
        3    1    3    3  502    0 -0.40320180631E+03 -0.39417053905E+03  0.13598156266E+04  0.14720871778E+04  0.10100000352E+00 0. -1.
       -3    1    3    3    0  502  0.40320180631E+03  0.39417053905E+03 -0.37789114698E+03  0.67878114267E+03  0.10100000352E+00 0.  1.
</event>
<event>
 5   0  0.1658711E-04  0.1908302E+04  0.7818609E-02  0.8650735E-01
       -2   -1    0    0    0  501  0.00000000000E+00  0.00000000000E+00  0.63208117117E+03  0.63208117118E+03  0.25500000920E-02 0. -1.
        2   -1    0    0  501    0  0.00000000000E+00  0.00000000000E+00 -0.14403283658E+04  0.14403283658E+04  0.25500000920E-02 0.  1.
    10030    2    1    2    0    0  0.00000000000E+00  0.00000000000E+00 -0.80824719463E+03  0.20724095370E+04  0.19083023244E+04 0.  0.
        2    1    3    3  502    0 -0.29197164841E+03  0.12446178760E+03  0.57307182524E+03  0.65509502894E+03  0.25500000920E-02 0. -1.
       -2    1    3    3    0  502  0.29197164841E+03 -0.12446178760E+03 -0.13813190199E+04  0.14173145081E+04  0.25500000920E-02 0.  1.
</event>
<event>
 5   0  0.1799738E-04  0.1901775E+04  0.7818609E-02  0.8653973E-01
        2   -1    0    0  501    0  0.00000000000E+00  0.00000000000E+00  0.10031177444E+04  0.10031177444E+04  0.25500000920E-02 0. -1.
       -2   -1    0    0    0  501  0.00000000000E+00  0.00000000000E+00 -0.90137649904E+03  0.90137649904E+03  0.25500000920E-02 0.  1.
    10030    2    1    2    0    0  0.00000000000E+00  0.00000000000E+00  0.10174124537E+03  0.19044942435E+04  0.19017747086E+04 0.  0.
        1    1    3    3  502    0 -0.29500978427E+03  0.87773566345E+02 -0.85011132697E+03  0.90411516967E+03  0.50400001928E-02 0.  1.
       -1    1    3    3    0  502  0.29500978427E+03 -0.87773566345E+02  0.95185257234E+03  0.10003790738E+04  0.50400001928E-02 0. -1.
</event>
<event>
 5   0  0.8587082E-05  0.1929655E+04  0.7818609E-02  0.8640234E-01
       -1   -1    0    0    0  501  0.00000000000E+00  0.00000000000E+00  0.57497842087E+03  0.57497842089E+03  0.50400001928E-02 0.  1.
        1   -1    0    0  501    0  0.00000000000E+00  0.00000000000E+00 -0.16190038078E+04  0.16190038078E+04  0.50400001928E-02 0. -1.
    10030    2    1    2    0    0  0.00000000000E+00  0.00000000000E+00 -0.10440253869E+04  0.21939822287E+04  0.19296551534E+04 0.  0.
        5    1    3    3  502    0 -0.54367395626E+03  0.79575166310E+03 -0.57371826686E+03  0.11215956579E+04  0.46999998093E+01 0.  1.
       -5    1    3    3    0  502  0.54367395626E+03 -0.79575166310E+03 -0.47030712003E+03  0.10723865708E+04  0.46999998093E+01 0. -1.
</event>
<event>
 5   0  0.8587082E-05  0.1919782E+04  0.7818609E-02  0.8645072E-01
       -1   -1    0    0    0  501  0.00000000000E+00  0.00000000000E+00  0.10658773205E+04  0.10658773205E+04  0.50400001928E-02 0.  1.
        1   -1    0    0  501    0  0.00000000000E+00  0.00000000000E+00 -0.86444370976E+03  0.86444370977E+03  0.50400001928E-02 0. -1.
    10030    2    1    2    0    0  0.00000000000E+00  0.00000000000E+00  0.20143361074E+03  0.19303210303E+04  0.19197822221E+04 0.  0.
        5    1    3    3  502    0 -0.54008050825E+03  0.78791506755E+03  0.19542381575E+03  0.97504341792E+03  0.46999998093E+01 0. -1.
       -5    1    3    3    0  502  0.54008050825E+03 -0.78791506755E+03  0.60097949874E+01  0.95527761237E+03  0.46999998093E+01 0.  1.
</event>
<event>
 5   0  0.1658711E-04  0.2084424E+04  0.7818609E-02  0.8568136E-01
        2   -1    0    0  501    0  0.00000000000E+00  0.00000000000E+00  0.16121475381E+04  0.16121475382E+04  0.25500000920E-02 0. -1.
       -2   -1    0    0    0  501  0.00000000000E+00  0.00000000000E+00 -0.67376354529E+03  0.67376354530E+03  0.25500000920E-02 0.  1.
    10030    2    1    2    0    0  0.00000000000E+00  0.00000000000E+00  0.93838399286E+03  0.22859110835E+04  0.20844243722E+04 0.  0.
        2    1    3    3  502    0 -0.41102177202E+03 -0.84858664475E+03  0.95614994771E+03  0.13428555072E+04  0.25500000920E-02 0. -1.
       -2    1    3    3    0  502  0.41102177202E+03  0.84858664475E+03 -0.17765954856E+02  0.94305557624E+03  0.25500000920E-02 0.  1.
</event>
<event>
 5   0  0.8681396E-05  0.1877108E+04  0.7818609E-02  0.8666336E-01
        1   -1    0    0  501    0  0.00000000000E+00  0.00000000000E+00  0.88814886612E+03  0.88814886613E+03  0.50400001928E-02 0. -1.
       -1   -1    0    0    0  501  0.00000000000E+00  0.00000000000E+00 -0.99181995430E+03  0.99181995431E+03  0.50400001928E-02 0.  1.
    10030    2    1    2    0    0  0.00000000000E+00  0.00000000000E+00 -0.10367108818E+03  0.18799688204E+04  0.18771081672E+04 0.  0.
        3    1    3    3  502    0 -0.45730741203E+03  0.78160203407E+03  0.19522226911E+03  0.92636037983E+03  0.10100000352E+00 0. -1.
       -3    1    3    3    0  502  0.45730741203E+03 -0.78160203407E+03 -0.29889335729E+03  0.95360844061E+03  0.10100000352E+00 0.  1.
</event>
<event>
 5   0  0.8587082E-05  0.1903105E+04  0.7818609E-02  0.8653313E-01
       -1   -1    0    0    0  501  0.00000000000E+00  0.00000000000E+00  0.74123180284E+03  0.74123180285E+03  0.50400001928E-02 0.  1.
        1   -1    0    0  501    0  0.00000000000E+00  0.00000000000E+00 -0.12215499819E+04  0.12215499819E+04  0.50400001928E-02 0. -1.
    10030    2    1    2    0    0  0.00000000000E+00  0.00000000000E+00 -0.48031817903E+03  0.19627817847E+04  0.19031045114E+04 0.  0.
        5    1    3    3  502    0 -0.31309454615E+03 -0.64171843547E+02  0.68420650469E+03  0.75518663348E+03  0.46999998093E+01 0.  1.
       -5    1    3    3    0  502  0.31309454615E+03  0.64171843547E+02 -0.11645246837E+04  0.12075951513E+04  0.46999998093E+01 0. -1.
</event>
<event>
 5   0  0.1790832E-04  0.1811875E+04  0.7818609E-02  0.8700010E-01
       -2   -1    0    0    0  501  0.00000000000E+00  0.00000000000E+00  0.77337473310E+03  0.77337473311E+03  0.25500000920E-02 0. -1.
        2   -1    0    0  501    0  0.00000000000E+00  0.00000000000E+00 -0.10612224344E+04  0.10612224344E+04  0.25500000920E-02 0.  1.
    10030    2    1    2    0    0  0.00000000000E+00  0.00000000000E+00 -0.28784770131E+03  0.18345971675E+04  0.18118748489E+04 0.  0.
        5    1    3    3  502    0 -0.21055733512E+03 -0.56113846540E+03  0.54392585507E+03  0.80937518774E+03  0.46999998093E+01 0. -1.
       -5    1    3    3    0  502  0.21055733512E+03  0.56113846540E+03 -0.83177355638E+03  0.10252219798E+04  0.46999998093E+01 0.  1.
</event>
<event>
 5   0  0.1765328E-04  0.1864302E+04  0.7818609E-02  0.8672832E-01
        2   -1    0    0  501    0  0.00000000000E+00  0.00000000000E+00  0.10965659629E+04  0.10965659629E+04  0.25500000920E-02 0. -1.
       -2   -1    0    0    0  501  0.00000000000E+00  0.00000000000E+00 -0.79238795490E+03  0.79238795490E+03  0.25500000920E-02 0.  1.
    10030    2    1    2    0    0  0.00000000000E+00  0.00000000000E+00  0.30417800802E+03  0.18889539178E+04  0.18643021866E+04 0.  0.
        3    1    3    3  502    0 -0.14991394388E+03 -0.46675978537E+03  0.95539454124E+03  0.10738331469E+04  0.10100000352E+00 0. -1.
       -3    1    3    3    0  502  0.14991394388E+03  0.46675978537E+03 -0.65121653322E+03  0.81512077090E+03  0.10100000352E+00 0.  1.
</event>
<event>
 5   0  0.8587082E-05  0.1901962E+04  0.7818609E-02  0.8653880E-01
        1   -1    0    0  501    0  0.00000000000E+00  0.00000000000E+00  0.98931289488E+03  0.98931289489E+03  0.50400001928E-02 0. -1.
       -1   -1    0    0    0  501  0.00000000000E+00  0.00000000000E+00 -0.91413466762E+03  0.91413466763E+03  0.50400001928E-02 0.  1.
    10030    2    1    2    0    0  0.00000000000E+00  0.00000000000E+00  0.75178227266E+02  0.19034475625E+04  0.19019623701E+04 0.  0.
        5    1    3    3  502    0 -0.11816525284E+03 -0.34769760799E+03 -0.84029965123E+03  0.91705084234E+03  0.46999998093E+01 0.  1.
       -5    1    3    3    0  502  0.11816525284E+03  0.34769760799E+03  0.91547787849E+03  0.98639672019E+03  0.46999998093E+01 0. -1.
</event>
<event>
 5   0  0.1658711E-04  0.1911621E+04  0.7818609E-02  0.8649093E-01
        2   -1    0    0  501    0  0.00000000000E+00  0.00000000000E+00  0.11950974522E+04  0.11950974522E+04  0.25500000920E-02 0. -1.
       -2   -1    0    0    0  501  0.00000000000E+00  0.00000000000E+00 -0.76443471113E+03  0.76443471114E+03  0.25500000920E-02 0.  1.
    10030    2    1    2    0    0  0.00000000000E+00  0.00000000000E+00  0.43066274110E+03  0.19595321634E+04  0.19116212760E+04 0.  0.
        2    1    3    3  502    0 -0.39001412097E+03 -0.32256920415E+03 -0.61579943084E+03  0.79710152744E+03  0.25500000920E-02 0.  1.
       -2    1    3    3    0  502  0.39001412097E+03  0.32256920415E+03  0.10464621719E+04  0.11624306359E+04  0.25500000920E-02 0. -1.
</event>
<event>
 5   0  0.8905646E-05  0.1948374E+04  0.7818609E-02  0.8631145E-01
        1   -1    0    0  501    0  0.00000000000E+00  0.00000000000E+00  0.12681713398E+04  0.12681713398E+04  0.50400001928E-02 0. -1.
       -1   -1    0    0    0  501  0.00000000000E+00  0.00000000000E+00 -0.74835328863E+03  0.74835328865E+03  0.50400001928E-02 0.  1.
    10030    2    1    2    0    0  0.00000000000E+00  0.00000000000E+00  0.51981805115E+03  0.20165246284E+04  0.19483738786E+04 0.  0.
        1    1    3    3  502    0 -0.71062514868E+03 -0.21797909166E+03 -0.39182921430E+03  0.84025776970E+03  0.50400001928E-02 0. -1.
       -1    1    3    3    0  502  0.71062514868E+03  0.21797909166E+03  0.91164726545E+03  0.11762668587E+04  0.50400001928E-02 0.  1.
</event>
<event>
 5   0  0.6375750E-05  0.1898228E+04  0.7818609E-02  0.8655739E-01
       -3   -1    0    0    0  501  0.00000000000E+00  0.00000000000E+00  0.60680222612E+03  0.60680223452E+03  0.10100000352E+00 0. -1.
        3   -1    0    0  501    0  0.00000000000E+00  0.00000000000E+00 -0.14845313015E+04  0.14845313049E+04  0.10100000352E+00 0.  1.
    10030    2    1    2    0    0  0.00000000000E+00  0.00000000000E+00 -0.87772907536E+03  0.20913335394E+04  0.18982275004E+04 0.  0.
        5    1    3    3  502    0  0.33261118406E+03 -0.10445921996E+03 -0.14114197215E+04  0.14538465010E+04  0.46999998093E+01 0.  1.
       -5    1    3    3    0  502 -0.33261118406E+03  0.10445921996E+03  0.53369064611E+03  0.63748703841E+03  0.46999998093E+01 0. -1.
</event>
<event>
 5   0  0.1799738E-04  0.1987963E+04  0.7818609E-02  0.8612269E-01
       -2   -1    0    0    0  501  0.00000000000E+00  0.00000000000E+00  0.96047901110E+03  0.96047901111E+03  0.25500000920E-02 0. -1.
        2   -1    0    0  501    0  0.00000000000E+00  0.00000000000E+00 -0.10286525627E+04  0.10286525627E+04  0.25500000920E-02 0.  1.
    10030    2    1    2    0    0  0.00000000000E+00  0.00000000000E+00 -0.68173551597E+02  0.19891315738E+04  0.19879629737E+04 0.  0.
        1    1    3    3  502    0 -0.39781196811E+03  0.14792511140E+03 -0.93342712287E+03  0.10253888990E+04  0.50400001928E-02 0.  1.
       -1    1    3    3    0  502  0.39781196811E+03 -0.14792511140E+03  0.86525357127E+03  0.96374267477E+03  0.50400001928E-02 0. -1.
</event>
<event>
 5   0  0.8602017E-05  0.1895312E+04  0.7818609E-02  0.8657193E-01
        1   -1    0    0  501    0  0.00000000000E+00  0.00000000000E+00  0.86536892213E+03  0.86536892215E+03  0.50400001928E-02 0.  1.
       -1   -1    0    0    0  501  0.00000000000E+00  0.00000000000E+00 -0.10377677787E+04  0.10377677787E+04  0.50400001928E-02 0. -1.
    10030    2    1    2    0    0  0.00000000000E+00  0.00000000000E+00 -0.17239885653E+03  0.19031367008E+04  0.18953120947E+04 0.  0.
        2    1    3    3  502    0  0.42956101053E+03 -0.54607833729E+03  0.56092044375E+03  0.89294790243E+03  0.25500000920E-02 0.  1.
       -2    1    3    3    0  502 -0.42956101053E+03  0.54607833729E+03 -0.73331930028E+03  0.10101887984E+04  0.25500000920E-02 0. -1.
</event>
<event>
 5   0  0.8681396E-05  0.1598958E+04  0.7818609E-02  0.8821189E-01
       -1   -1    0    0    0  501  0.00000000000E+00  0.00000000000E+00  0.56955817062E+03  0.56955817064E+03  0.50400001928E-02 0.  1.
        1   -1    0    0  501    0  0.00000000000E+00  0.00000000000E+00 -0.11222142728E+04  0.11222142728E+04  0.50400001928E-02 0. -1.
    10030    2    1    2    0    0  0.00000000000E+00  0.00000000000E+00 -0.55265610217E+03  0.16917724434E+04  0.15989575457E+04 0.  0.
        3    1    3    3  502    0 -0.27267618132E+03 -0.39819877063E+03  0.39804876160E+03  0.62558563570E+03  0.10100000352E+00 0.  1.
       -3    1    3    3    0  502  0.27267618132E+03  0.39819877063E+03 -0.95070486377E+03  0.10661868077E+04  0.10100000352E+00 0. -1.
</event>
<event>
 5   0  0.8587082E-05  0.1912071E+04  0.7818609E-02  0.8648871E-01
        1   -1    0    0  501    0  0.00000000000E+00  0.00000000000E+00  0.10287625762E+04  0.10287625762E+04  0.50400001928E-02 0. -1.
       -1   -1    0    0    0  501  0.00000000000E+00  0.00000000000E+00 -0.88844952183E+03  0.88844952184E+03  0.50400001928E-02 0.  1.
    10030    2    1    2    0    0  0.00000000000E+00  0.00000000000E+00  0.14031305433E+03  0.19172120980E+04  0.19120707297E+04 0.  0.
        5    1    3    3  502    0 -0.12181473738E+02 -0.54353124340E+03 -0.71834652853E+03  0.90089867682E+03  0.46999998093E+01 0.  1.
       -5    1    3    3    0  502  0.12181473738E+02  0.54353124340E+03  0.85865958285E+03  0.10163134212E+04  0.46999998093E+01 0. -1.
</event>
<event>
 5   0  0.8602017E-05  0.1917603E+04  0.7818609E-02  0.8646143E-01
       -1   -1    0    0    0  501  0.00000000000E+00  0.00000000000E+00  0.11620965352E+04  0.11620965353E+04  0.50400001928E-02 0. -1.
        1   -1    0    0  501    0  0.00000000000E+00  0.00000000000E+00 -0.79107091355E+03  0.79107091356E+03  0.50400001928E-02 0.  1.
    10030    2    1    2    0    0  0.00000000000E+00  0.00000000000E+00  0.37102562170E+03  0.19531674488E+04  0.19176034708E+04 0.  0.
        2    1    3    3  502    0 -0.50656273019E+03 -0.74793706966E+03  0.51285314748E+03  0.10387656187E+04  0.25500000920E-02 0. -1.
       -2    1    3    3    0  502  0.50656273019E+03  0.74793706966E+03 -0.14182752578E+03  0.91440183009E+03  0.25500000920E-02 0.  1.
</event>
<event>
 5   0  0.1810569E-04  0.1890696E+04  0.7818609E-02  0.8659502E-01
        2   -1    0    0  501    0  0.00000000000E+00  0.00000000000E+00  0.57903504343E+03  0.57903504343E+03  0.25500000920E-02 0. -1.
       -2   -1    0    0    0  501  0.00000000000E+00  0.00000000000E+00 -0.15433998933E+04  0.15433998933E+04  0.25500000920E-02 0.  1.
    10030    2    1    2    0    0  0.00000000000E+00  0.00000000000E+00 -0.96436484987E+03  0.21224349367E+04  0.18906957706E+04 0.  0.
        4    1    3    3  502    0 -0.50684763866E+03  0.20028929801E+03  0.38493932892E+03  0.66722577256E+03  0.12699999809E+01 0. -1.
       -4    1    3    3    0  502  0.50684763866E+03 -0.20028929801E+03 -0.13493041788E+04  0.14552091642E+04  0.12699999809E+01 0.  1.
</event>
<event>
 5   0  0.8567844E-05  0.1948133E+04  0.7818609E-02  0.8631262E-01
       -1   -1    0    0    0  501  0.00000000000E+00  0.00000000000E+00  0.71382801926E+03  0.71382801928E+03  0.50400001928E-02 0. -1.
        1   -1    0    0  501    0  0.00000000000E+00  0.00000000000E+00 -0.13291790339E+04  0.13291790339E+04  0.50400001928E-02 0.  1.
    10030    2    1    2    0    0  0.00000000000E+00  0.00000000000E+00 -0.61535101465E+03  0.20430070532E+04  0.19481326824E+04 0.  0.
        4    1    3    3  502    0  0.88497345078E+03  0.37293942714E+03 -0.13682490517E+03  0.97004355184E+03  0.12699999809E+01 0. -1.
       -4    1    3    3    0  502 -0.88497345078E+03 -0.37293942714E+03 -0.47852610948E+03  0.10729635014E+04  0.12699999809E+01 0.  1.
</event>
<event>
 5   0  0.8587082E-05  0.1904063E+04  0.7818609E-02  0.8652837E-01
        1   -1    0    0  501    0  0.00000000000E+00  0.00000000000E+00  0.18538822508E+04  0.18538822508E+04  0.50400001928E-02 0. -1.
       -1   -1    0    0    0  501  0.00000000000E+00  0.00000000000E+00 -0.48890039228E+03  0.48890039230E+03  0.50400001928E-02 0.  1.
    10030    2    1    2    0    0  0.00000000000E+00  0.00000000000E+00  0.13649818585E+04  0.23427826431E+04  0.19040627717E+04 0.  0.
        5    1    3    3  502    0  0.44272089923E+03  0.61180471389E+03  0.13957427799E+04  0.15869551979E+04  0.46999998093E+01 0. -1.
       -5    1    3    3    0  502 -0.44272089923E+03 -0.61180471389E+03 -0.30760921426E+02  0.75582744515E+03  0.46999998093E+01 0.  1.
</event>
<event>
 5   0  0.6375750E-05  0.1789003E+04  0.7818609E-02  0.8712169E-01
        4   -1    0    0  501    0  0.00000000000E+00  0.00000000000E+00  0.98324228896E+03  0.98324310915E+03  0.12699999809E+01 0.  1.
       -4   -1    0    0    0  501  0.00000000000E+00  0.00000000000E+00 -0.81376854999E+03  0.81376954100E+03  0.12699999809E+01 0. -1.
    10030    2    1    2    0    0  0.00000000000E+00  0.00000000000E+00  0.16947373897E+03  0.17970126502E+04  0.17890033864E+04 0.  0.
        5    1    3    3  502    0 -0.21154188214E+03  0.35341586181E+03 -0.71283202254E+03  0.82328872313E+03  0.46999998093E+01 0. -1.
       -5    1    3    3    0  502  0.21154188214E+03 -0.35341586181E+03  0.88230576150E+03  0.97372392702E+03  0.46999998093E+01 0.  1.
</event>
<event>
 5   0  0.1799738E-04  0.1914032E+04  0.7818609E-02  0.8647903E-01
        2   -1    0    0  501    0  0.00000000000E+00  0.00000000000E+00  0.16023479956E+04  0.16023479956E+04  0.25500000920E-02 0.  1.
       -2   -1    0    0    0  501  0.00000000000E+00  0.00000000000E+00 -0.57158588612E+03  0.57158588613E+03  0.25500000920E-02 0. -1.
    10030    2    1    2    0    0  0.00000000000E+00  0.00000000000E+00  0.10307621094E+04  0.21739338817E+04  0.19140318690E+04 0.  0.
        1    1    3    3  502    0 -0.30948069779E+03  0.65118839977E+03 -0.19940297838E+03  0.74805493255E+03  0.50400001928E-02 0. -1.
       -1    1    3    3    0  502  0.30948069779E+03 -0.65118839977E+03  0.12301650878E+04  0.14258789491E+04  0.50400001928E-02 0.  1.
</event>
<event>
 5   0  0.1765328E-04  0.1907575E+04  0.7818609E-02  0.8651095E-01
        2   -1    0    0  501    0  0.00000000000E+00  0.00000000000E+00  0.23252022195E+04  0.23252022195E+04  0.25500000920E-02 0.  1.
       -2   -1    0    0    0  501  0.00000000000E+00  0.00000000000E+00 -0.39123950949E+03  0.39123950950E+03  0.25500000920E-02 0. -1.
    10030    2    1    2    0    0  0.00000000000E+00  0.00000000000E+00  0.19339627100E+04  0.27164417290E+04  0.19075753991E+04 0.  0.
        3    1    3    3  502    0 -0.34937711684E+03 -0.49013153058E+02 -0.29490742394E+03  0.45982285485E+03  0.10100000352E+00 0. -1.
       -3    1    3    3    0  502  0.34937711684E+03  0.49013153058E+02  0.22288701340E+04  0.22566188742E+04  0.10100000352E+00 0.  1.
</event>
<event>
 5   0  0.1765328E-04  0.1894049E+04  0.7818609E-02  0.8657824E-01
        2   -1    0    0  501    0  0.00000000000E+00  0.00000000000E+00  0.16759997588E+04  0.16759997588E+04  0.25500000920E-02 0. -1.
       -2   -1    0    0    0  501  0.00000000000E+00  0.00000000000E+00 -0.53511692439E+03  0.53511692439E+03  0.25500000920E-02 0.  1.
    10030    2    1    2    0    0  0.00000000000E+00  0.00000000000E+00  0.11408828344E+04  0.22111166832E+04  0.18940494568E+04 0.  0.
        3    1    3    3  502    0 -0.65932714955E+03 -0.67017513977E+03  0.43729200194E+03  0.10368564574E+04  0.10100000352E+00 0.  1.
       -3    1    3    3    0  502  0.65932714955E+03  0.67017513977E+03  0.70359083245E+03  0.11742602258E+04  0.10100000352E+00 0. -1.
</event>
<event>
 5   0  0.8567844E-05  0.1893339E+04  0.7818609E-02  0.8658179E-01
        1   -1    0    0  501    0  0.00000000000E+00  0.00000000000E+00  0.98462749367E+03  0.98462749369E+03  0.50400001928E-02 0.  1.
       -1   -1    0    0    0  501  0.00000000000E+00  0.00000000000E+00 -0.91017511269E+03  0.91017511270E+03  0.50400001928E-02 0. -1.
    10030    2    1    2    0    0  0.00000000000E+00  0.00000000000E+00  0.74452380987E+02  0.18948026064E+04  0.18933393146E+04 0.  0.
        4    1    3    3  502    0 -0.29881920197E+03 -0.38922675499E+03  0.84741437350E+03  0.97923598564E+03  0.12699999809E+01 0.  1.
       -4    1    3    3    0  502  0.29881920197E+03  0.38922675499E+03 -0.77296199251E+03  0.91556662075E+03  0.12699999809E+01 0. -1.
</event>
<event>
 5   0  0.1799738E-04  0.1892135E+04  0.7818609E-02  0.8658781E-01
       -2   -1    0    0    0  501  0.00000000000E+00  0.00000000000E+00  0.10828949990E+04  0.10828949990E+04  0.25500000920E-02 0.  1.
        2   -1    0    0  501    0  0.00000000000E+00  0.00000000000E+00 -0.82652879672E+03  0.82652879673E+03  0.25500000920E-02 0. -1.
    10030    2    1    2    0    0  0.00000000000E+00  0.00000000000E+00  0.25636620226E+03  0.19094237957E+04  0.18921351965E+04 0.  0.
        1    1    3    3  502    0 -0.30246461973E+03  0.10660261689E+03  0.10263689271E+04  0.10753056024E+04  0.50400001928E-02 0.  1.
       -1    1    3    3    0  502  0.30246461973E+03 -0.10660261689E+03 -0.77000272482E+03  0.83411819328E+03  0.50400001928E-02 0. -1.
</event>
<event>
 5   0  0.8602017E-05  0.1906435E+04  0.7818609E-02  0.8651660E-01
       -1   -1    0    0    0  501  0.00000000000E+00  0.00000000000E+00  0.53990433188E+03  0.53990433190E+03  0.50400001928E-02 0.  1.
        1   -1    0    0  501    0  0.00000000000E+00  0.00000000000E+00 -0.16829349769E+04  0.16829349769E+04  0.50400001928E-02 0. -1.
    10030    2    1    2    0    0  0.00000000000E+00  0.00000000000E+00 -0.11430306451E+04  0.22228393088E+04  0.19064352959E+04 0.  0.
        2    1    3    3  502    0 -0.41332064827E+03  0.83468498646E+03 -0.33516357262E+03  0.98988262200E+03  0.25500000920E-02 0.  1.
       -2    1    3    3    0  502  0.41332064827E+03 -0.83468498646E+03 -0.80786707244E+03  0.12329566869E+04  0.25500000920E-02 0. -1.
</event>
<event>
 5   0  0.8905646E-05  0.1875448E+04  0.7818609E-02  0.8667175E-01
       -1   -1    0    0    0  501  0.00000000000E+00  0.00000000000E+00  0.49448503121E+03  0.49448503124E+03  0.50400001928E-02 0. -1.
        1   -1    0    0  501    0  0.00000000000E+00  0.00000000000E+00 -0.17782661697E+04  0.17782661697E+04  0.50400001928E-02 0.  1.
    10030    2    1    2    0    0  0.00000000000E+00  0.00000000000E+00 -0.12837811385E+04  0.22727512010E+04  0.18754476825E+04 0.  0.
        1    1    3    3  502    0  0.22785676884E+03  0.25815549055E+03 -0.16988824332E+04  0.17334256506E+04  0.50400001928E-02 0.  1.
       -1    1    3    3    0  502 -0.22785676884E+03 -0.25815549055E+03  0.41510129467E+03  0.53932555036E+03  0.50400001928E-02 0. -1.
</event>
<event>
 5   0  0.8587082E-05  0.1881673E+04  0.7818609E-02  0.8664033E-01
       -1   -1    0    0    0  501  0.00000000000E+00  0.00000000000E+00  0.63172998377E+03  0.63172998379E+03  0.50400001928E-02 0. -1.
        1   -1    0    0  501    0  0.00000000000E+00  0.00000000000E+00 -0.14011899479E+04  0.14011899479E+04  0.50400001928E-02 0.  1.
    10030    2    1    2    0    0  0.00000000000E+00  0.00000000000E+00 -0.76945996410E+03  0.20329199317E+04  0.18816734074E+04 0.  0.
        5    1    3    3  502    0 -0.43959883438E+03 -0.80719698852E+03 -0.16774458176E+03  0.93433101638E+03  0.46999998093E+01 0. -1.
       -5    1    3    3    0  502  0.43959883438E+03  0.80719698852E+03 -0.60171538234E+03  0.10985889153E+04  0.46999998093E+01 0.  1.
</event>
<event>
 5   0  0.1658711E-04  0.1894747E+04  0.7818609E-02  0.8657475E-01
        2   -1    0    0  501    0  0.00000000000E+00  0.00000000000E+00  0.12960886760E+04  0.12960886761E+04  0.25500000920E-02 0.  1.
       -2   -1    0    0    0  501  0.00000000000E+00  0.00000000000E+00 -0.69248104087E+03  0.69248104087E+03  0.25500000920E-02 0. -1.
    10030    2    1    2    0    0  0.00000000000E+00  0.00000000000E+00  0.60360763518E+03  0.19885697169E+04  0.18947473029E+04 0.  0.
        2    1    3    3  502    0 -0.11512510980E+03  0.20856353114E+03  0.12641396450E+04  0.12863909124E+04  0.25500000920E-02 0.  1.
       -2    1    3    3    0  502  0.11512510980E+03 -0.20856353114E+03 -0.66053200985E+03  0.70217880449E+03  0.25500000920E-02 0. -1.
</event>
<event>
 5   0  0.1799738E-04  0.1891522E+04  0.7818609E-02  0.8659088E-01
        2   -1    0    0  501    0  0.00000000000E+00  0.00000000000E+00  0.12217821912E+04  0.12217821912E+04  0.25500000920E-02 0.  1.
       -2   -1    0    0    0  501  0.00000000000E+00  0.00000000000E+00 -0.73209764690E+03  0.73209764690E+03  0.25500000920E-02 0. -1.
    10030    2    1    2    0    0  0.00000000000E+00  0.00000000000E+00  0.48968454431E+03  0.19538798381E+04  0.18915219980E+04 0.  0.
        1    1    3    3  502    0 -0.39793754525E+03 -0.34974182939E+03  0.10541178615E+04  0.11797618841E+04  0.50400001928E-02 0.  1.
       -1    1    3    3    0  502  0.39793754525E+03  0.34974182939E+03 -0.56443331721E+03  0.77411795403E+03  0.50400001928E-02 0. -1.
</event>
<event>
 5   0  0.1765328E-04  0.1875810E+04  0.7818609E-02  0.8666992E-01
        2   -1    0    0  501    0  0.00000000000E+00  0.00000000000E+00  0.23812095105E+04  0.23812095105E+04  0.25500000920E-02 0. -1.
       -2   -1    0    0    0  501  0.00000000000E+00  0.00000000000E+00 -0.36941991322E+03  0.36941991323E+03  0.25500000920E-02 0.  1.
    10030    2    1    2    0    0  0.00000000000E+00  0.00000000000E+00  0.20117895973E+04  0.27506294238E+04  0.18758104497E+04 0.  0.
        3    1    3    3  502    0  0.34765782668E+03 -0.22899508072E+03  0.22383088470E+04  0.22766930439E+04  0.10100000352E+00 0. -1.
       -3    1    3    3    0  502 -0.34765782668E+03  0.22899508072E+03 -0.22651924970E+03  0.47393637983E+03  0.10100000352E+00 0.  1.
</event>
<event>
 5   0  0.6375750E-05  0.1905699E+04  0.7818609E-02  0.8652025E-01
       -3   -1    0    0    0  501  0.00000000000E+00  0.00000000000E+00  0.49061169705E+03  0.49061170745E+03  0.10100000352E+00 0.  1.
        3   -1    0    0  501    0  0.00000000000E+00  0.00000000000E+00 -0.18505928864E+04  0.18505928891E+04  0.10100000352E+00 0. -1.
    10030    2    1    2    0    0  0.00000000000E+00  0.00000000000E+00 -0.13599811893E+04  0.23412045966E+04  0.19056993802E+04 0.  0.
        1    1    3    3  502    0  0.25115233147E+03  0.84833534478E+03 -0.24534139400E+03  0.91811913739E+03  0.50400001928E-02 0.  1.
       -1    1    3    3    0  502 -0.25115233147E+03 -0.84833534478E+03 -0.11146397953E+04  0.14230854592E+04  0.50400001928E-02 0. -1.
</event>
<event>
 5   0  0.6375750E-05  0.1886419E+04  0.7818609E-02  0.8661646E-01
        4   -1    0    0  501    0  0.00000000000E+00  0.00000000000E+00  0.97762539441E+03  0.97762621932E+03  0.12699999809E+01 0.  1.
       -4   -1    0    0    0  501  0.00000000000E+00  0.00000000000E+00 -0.91000374366E+03  0.91000462986E+03  0.12699999809E+01 0. -1.
    10030    2    1    2    0    0  0.00000000000E+00  0.00000000000E+00  0.67621650756E+02  0.18876308492E+04  0.18864192363E+04 0.  0.
        3    1    3    3  502    0  0.93810693013E+03  0.97659119100E+02  0.41718917786E+02  0.94409872059E+03  0.10100000352E+00 0.  1.
       -3    1    3    3    0  502 -0.93810693013E+03 -0.97659119100E+02  0.25902732970E+02  0.94353212859E+03  0.10100000352E+00 0. -1.
</event>
<event>
 5   0  0.1658711E-04  0.1898373E+04  0.7818609E-02  0.8655667E-01
        2   -1    0    0  501    0  0.00000000000E+00  0.00000000000E+00  0.15316576532E+04  0.15316576532E+04  0.25500000920E-02 0. -1.
       -2   -1    0    0    0  501  0.00000000000E+00  0.00000000000E+00 -0.58822187547E+03  0.58822187547E+03  0.25500000920E-02 0.  1.
    10030    2    1    2    0    0  0.00000000000E+00  0.00000000000E+00  0.94343577772E+03  0.21198795287E+04  0.18983725002E+04 0.  0.
        2    1    3    3  502    0 -0.42661359691E+03  0.49723159680E+03  0.12386732783E+04  0.14012672523E+04  0.25500000920E-02 0. -1.
       -2    1    3    3    0  502  0.42661359691E+03 -0.49723159680E+03 -0.29523750063E+03  0.71861227634E+03  0.25500000920E-02 0.  1.
</event>
<event>
 5   0  0.1799738E-04  0.1886017E+04  0.7818609E-02  0.8661848E-01
        2   -1    0    0  501    0  0.00000000000E+00  0.00000000000E+00  0.15375123687E+04  0.15375123687E+04  0.25500000920E-02 0. -1.
       -2   -1    0    0    0  501  0.00000000000E+00  0.00000000000E+00 -0.57837892673E+03  0.57837892674E+03  0.25500000920E-02 0.  1.
    10030    2    1    2    0    0  0.00000000000E+00  0.00000000000E+00  0.95913344194E+03  0.21158912954E+04  0.18860167058E+04 0.  0.
        1    1    3    3  502    0 -0.73921251513E+03  0.23090191900E+03 -0.12407957160E+03  0.78431280676E+03  0.50400001928E-02 0.  1.
       -1    1    3    3    0  502  0.73921251513E+03 -0.23090191900E+03  0.10832130135E+04  0.13315784887E+04  0.50400001928E-02 0. -1.
</event>
<event>
 5   0  0.8905646E-05  0.1837231E+04  0.7818609E-02  0.8686747E-01
        1   -1    0    0  501    0  0.00000000000E+00  0.00000000000E+00  0.10665110097E+04  0.10665110098E+04  0.50400001928E-02 0. -1.
       -1   -1    0    0    0  501  0.00000000000E+00  0.00000000000E+00 -0.79122919832E+03  0.79122919834E+03  0.50400001928E-02 0.  1.
    10030    2    1    2    0    0  0.00000000000E+00  0.00000000000E+00  0.27528181142E+03  0.18577402081E+04  0.18372312334E+04 0.  0.
        1    1    3    3  502    0 -0.72627670737E+03  0.54390269178E+03  0.28258207187E+03  0.95034763174E+03  0.50400001928E-02 0. -1.
       -1    1    3    3    0  502  0.72627670737E+03 -0.54390269178E+03 -0.73002604510E+01  0.90739257635E+03  0.50400001928E-02 0.  1.
</event>
<event>
 5   0  0.8587082E-05  0.1924397E+04  0.7818609E-02  0.8642807E-01
       -1   -1    0    0    0  501  0.00000000000E+00  0.00000000000E+00  0.51375481445E+03  0.51375481447E+03  0.50400001928E-02 0.  1.
        1   -1    0    0  501    0  0.00000000000E+00  0.00000000000E+00 -0.18020767850E+04  0.18020767850E+04  0.50400001928E-02 0. -1.
    10030    2    1    2    0    0  0.00000000000E+00  0.00000000000E+00 -0.12883219706E+04  0.23158315995E+04  0.19243966580E+04 0.  0.
        5    1    3    3  502    0 -0.23404379481E+03 -0.90147547674E+03 -0.35342183767E+03  0.99617449194E+03  0.46999998093E+01 0.  1.
       -5    1    3    3    0  502  0.23404379481E+03  0.90147547674E+03 -0.93490013290E+03  0.13196571076E+04  0.46999998093E+01 0. -1.
</event>
<event>
 5   0  0.1790832E-04  0.1872762E+04  0.7818609E-02  0.8668534E-01
        2   -1    0    0  501    0  0.00000000000E+00  0.00000000000E+00  0.14564048200E+04  0.14564048200E+04  0.25500000920E-02 0. -1.
       -2   -1    0    0    0  501  0.00000000000E+00  0.00000000000E+00 -0.60203691368E+03  0.60203691368E+03  0.25500000920E-02 0.  1.
    10030    2    1    2    0    0  0.00000000000E+00  0.00000000000E+00  0.85436790637E+03  0.20584417337E+04  0.18727620916E+04 0.  0.
        5    1    3    3  502    0 -0.54048330810E+03 -0.97803386360E+02  0.12607260259E+04  0.13751872277E+04  0.46999998093E+01 0. -1.
       -5    1    3    3    0  502  0.54048330810E+03  0.97803386360E+02 -0.40635811956E+03  0.68325450606E+03  0.46999998093E+01 0.  1.
</event>
<event>
 5   0  0.1790832E-04  0.1910731E+04  0.7818609E-02  0.8649533E-01
       -2   -1    0    0    0  501  0.00000000000E+00  0.00000000000E+00  0.58649838327E+03  0.58649838328E+03  0.25500000920E-02 0. -1.
        2   -1    0    0  501    0  0.00000000000E+00  0.00000000000E+00 -0.15562246724E+04  0.15562246724E+04  0.25500000920E-02 0.  1.
    10030    2    1    2    0    0  0.00000000000E+00  0.00000000000E+00 -0.96972628915E+03  0.21427230557E+04  0.19107310165E+04 0.  0.
        5    1    3    3  502    0 -0.19257671798E+01 -0.31994339818E+03 -0.14943448053E+04  0.15282198709E+04  0.46999998093E+01 0.  1.
       -5    1    3    3    0  502  0.19257671798E+01  0.31994339818E+03  0.52461851618E+03  0.61450318480E+03  0.46999998093E+01 0. -1.
</event>
<event>
 5   0  0.1790832E-04  0.1919244E+04  0.7818609E-02  0.8645336E-01
        2   -1    0    0  501    0  0.00000000000E+00  0.00000000000E+00  0.85167056817E+03  0.85167056817E+03  0.25500000920E-02 0. -1.
       -2   -1    0    0    0  501  0.00000000000E+00  0.00000000000E+00 -0.10812565721E+04  0.10812565721E+04  0.25500000920E-02 0.  1.
    10030    2    1    2    0    0  0.00000000000E+00  0.00000000000E+00 -0.22958600390E+03  0.19329271403E+04  0.19192440169E+04 0.  0.
        5    1    3    3  502    0  0.76390464540E+03 -0.13519582036E+03  0.45405603774E+03  0.89889776533E+03  0.46999998093E+01 0. -1.
       -5    1    3    3    0  502 -0.76390464540E+03  0.13519582036E+03 -0.68364204164E+03  0.10340293749E+04  0.46999998093E+01 0.  1.
</event>
<event>
 5   0  0.1810569E-04  0.2088791E+04  0.7818609E-02  0.8566197E-01
        2   -1    0    0  501    0  0.00000000000E+00  0.00000000000E+00  0.21532778819E+04  0.21532778819E+04  0.25500000920E-02 0.  1.
       -2   -1    0    0    0  501  0.00000000000E+00  0.00000000000E+00 -0.50655894029E+03  0.50655894030E+03  0.25500000920E-02 0. -1.
    10030    2    1    2    0    0  0.00000000000E+00  0.00000000000E+00  0.16467189416E+04  0.26598368222E+04  0.20887911930E+04 0.  0.
        4    1    3    3  502    0  0.13130022641E+03 -0.21062375768E+03 -0.46845779461E+03  0.53014755964E+03  0.12699999809E+01 0. -1.
       -4    1    3    3    0  502 -0.13130022641E+03  0.21062375768E+03  0.21151767362E+04  0.21296892626E+04  0.12699999809E+01 0.  1.
</event>
<event>
 5   0  0.1810569E-04  0.1884228E+04  0.7818609E-02  0.8662747E-01
       -2   -1    0    0    0  501  0.00000000000E+00  0.00000000000E+00  0.17649070619E+04  0.17649070619E+04  0.25500000920E-02 0.  1.
        2   -1    0    0  501    0  0.00000000000E+00  0.00000000000E+00 -0.50290371844E+03  0.50290371844E+03  0.25500000920E-02 0. -1.
    10030    2    1    2    0    0  0.00000000000E+00  0.00000000000E+00  0.12620033435E+04  0.22678107803E+04  0.18842275066E+04 0.  0.
        4    1    3    3  502    0 -0.74854220716E+03 -0.11562284380E+03 -0.43315218058E+02  0.75865795911E+03  0.12699999809E+01 0. -1.
       -4    1    3    3    0  502  0.74854220716E+03  0.11562284380E+03  0.13053185615E+04  0.15091528212E+04  0.12699999809E+01 0.  1.
</event>
<event>
 5   0  0.8587082E-05  0.1899299E+04  0.7818609E-02  0.8655206E-01
       -1   -1    0    0    0  501  0.00000000000E+00  0.00000000000E+00  0.41932594616E+03  0.41932594619E+03  0.50400001928E-02 0. -1.
        1   -1    0    0  501    0  0.00000000000E+00  0.00000000000E+00 -0.21506750365E+04  0.21506750365E+04  0.50400001928E-02 0.  1.
    10030    2    1    2    0    0  0.00000000000E+00  0.00000000000E+00 -0.17313490903E+04  0.25700009827E+04  0.18992986543E+04 0.  0.
        5    1    3    3  502    0 -0.43917989888E+03  0.16618451662E+03  0.25122510861E+03  0.53257151852E+03  0.46999998093E+01 0. -1.
       -5    1    3    3    0  502  0.43917989888E+03 -0.16618451662E+03 -0.19825741989E+04  0.20374294641E+04  0.46999998093E+01 0.  1.
</event>
<event>
 5   0  0.1765328E-04  0.1924611E+04  0.7818609E-02  0.8642702E-01
       -2   -1    0    0    0  501  0.00000000000E+00  0.00000000000E+00  0.50165326657E+03  0.50165326658E+03  0.25500000920E-02 0.  1.
        2   -1    0    0  501    0  0.00000000000E+00  0.00000000000E+00 -0.18459608141E+04  0.18459608141E+04  0.25500000920E-02 0. -1.
    10030    2    1    2    0    0  0.00000000000E+00  0.00000000000E+00 -0.13443075475E+04  0.23476140806E+04  0.19246114126E+04 0.  0.
        3    1    3    3  502    0 -0.15522491916E+03 -0.80605395837E+03 -0.59565503423E+02  0.82302236830E+03  0.10100000352E+00 0.  1.
       -3    1    3    3    0  502  0.15522491916E+03  0.80605395837E+03 -0.12847420441E+04  0.15245917123E+04  0.10100000352E+00 0. -1.
</event>
<event>
 5   0  0.1658711E-04  0.1908103E+04  0.7818609E-02  0.8650834E-01
       -2   -1    0    0    0  501  0.00000000000E+00  0.00000000000E+00  0.45994448500E+03  0.45994448500E+03  0.25500000920E-02 0. -1.
        2   -1    0    0  501    0  0.00000000000E+00  0.00000000000E+00 -0.19789648650E+04  0.19789648650E+04  0.25500000920E-02 0.  1.
    10030    2    1    2    0    0  0.00000000000E+00  0.00000000000E+00 -0.15190203800E+04  0.24389093500E+04  0.19081026971E+04 0.  0.
        2    1    3    3  502    0 -0.45573470005E+03 -0.17829411323E+03  0.28730044173E+03  0.56747198298E+03  0.25500000920E-02 0. -1.
       -2    1    3    3    0  502  0.45573470005E+03  0.17829411323E+03 -0.18063208217E+04  0.18714373670E+04  0.25500000920E-02 0.  1.
</event>
<event>
 5   0  0.8681396E-05  0.1889721E+04  0.7818609E-02  0.8659990E-01
        1   -1    0    0  501    0  0.00000000000E+00  0.00000000000E+00  0.20312542663E+04  0.20312542664E+04  0.50400001928E-02 0.  1.
       -1   -1    0    0    0  501  0.00000000000E+00  0.00000000000E+00 -0.43951245744E+03  0.43951245747E+03  0.50400001928E-02 0. -1.
    10030    2    1    2    0    0  0.00000000000E+00  0.00000000000E+00  0.15917418089E+04  0.24707667238E+04  0.18897212010E+04 0.  0.
        3    1    3    3  502    0 -0.81380916960E+03 -0.64239223393E+00  0.16817883360E+03  0.83100535947E+03  0.10100000352E+00 0. -1.
       -3    1    3    3    0  502  0.81380916960E+03  0.64239223393E+00  0.14235629753E+04  0.16397613644E+04  0.10100000352E+00 0.  1.
</event>
<event>
 5   0  0.1790832E-04  0.1919784E+04  0.7818609E-02  0.8645071E-01
       -2   -1    0    0    0  501  0.00000000000E+00  0.00000000000E+00  0.51202276668E+03  0.51202276669E+03  0.25500000920E-02 0. -1.
        2   -1    0    0  501    0  0.00000000000E+00  0.00000000000E+00 -0.17995148213E+04  0.17995148213E+04  0.25500000920E-02 0.  1.
    10030    2    1    2    0    0  0.00000000000E+00  0.00000000000E+00 -0.12874920546E+04  0.23115375880E+04  0.19197839019E+04 0.  0.
        5    1    3    3  502    0  0.37074534163E+02 -0.33430861758E+03  0.43872701659E+03  0.55284740929E+03  0.46999998093E+01 0. -1.
       -5    1    3    3    0  502 -0.37074534163E+02  0.33430861758E+03 -0.17262190712E+04  0.17586901787E+04  0.46999998093E+01 0.  1.
</event>
<event>
 5   0  0.1658711E-04  0.1575788E+04  0.7818609E-02  0.8835562E-01
        2   -1    0    0  501    0  0.00000000000E+00  0.00000000000E+00  0.22642259241E+04  0.22642259241E+04  0.25500000920E-02 0.  1.
       -2   -1    0    0    0  501  0.00000000000E+00  0.00000000000E+00 -0.27416747053E+03  0.27416747055E+03  0.25500000920E-02 0. -1.
    10030    2    1    2    0    0  0.00000000000E+00  0.00000000000E+00  0.19900584535E+04  0.25383933946E+04  0.15757881765E+04 0.  0.
        2    1    3    3  502    0  0.54014302268E+03 -0.57359981924E+03  0.99892765485E+03  0.12722530005E+04  0.25500000920E-02 0. -1.
       -2    1    3    3    0  502 -0.54014302268E+03  0.57359981924E+03  0.99113079869E+03  0.12661403942E+04  0.25500000920E-02 0.  1.
</event>
<event>
 5   0  0.8905646E-05  0.1529414E+04  0.7818609E-02  0.8865125E-01
        1   -1    0    0  501    0  0.00000000000E+00  0.00000000000E+00  0.14377944062E+04  0.14377944062E+04  0.50400001928E-02 0.  1.
       -1   -1    0    0    0  501  0.00000000000E+00  0.00000000000E+00 -0.40671769038E+03  0.40671769041E+03  0.50400001928E-02 0. -1.
    10030    2    1    2    0    0  0.00000000000E+00  0.00000000000E+00  0.10310767159E+04  0.18445120966E+04  0.15294135087E+04 0.  0.
        1    1    3    3  502    0 -0.17209210468E+03  0.38914804231E+03  0.12818389376E+04  0.13506157682E+04  0.50400001928E-02 0.  1.
       -1    1    3    3    0  502  0.17209210468E+03 -0.38914804231E+03 -0.25076222179E+03  0.49389632842E+03  0.50400001928E-02 0. -1.
</event>
<event>
 5   0  0.1790832E-04  0.1876976E+04  0.7818609E-02  0.8666403E-01
       -2   -1    0    0    0  501  0.00000000000E+00  0.00000000000E+00  0.68407043748E+03  0.68407043749E+03  0.25500000920E-02 0. -1.
        2   -1    0    0  501    0  0.00000000000E+00  0.00000000000E+00 -0.12875273975E+04  0.12875273975E+04  0.25500000920E-02 0.  1.
    10030    2    1    2    0    0  0.00000000000E+00  0.00000000000E+00 -0.60345695998E+03  0.19715978350E+04  0.18769756845E+04 0.  0.
        5    1    3    3  502    0  0.64741106370E+02  0.77952226681E+03  0.24295949902E+03  0.81908350213E+03  0.46999998093E+01 0. -1.
       -5    1    3    3    0  502 -0.64741106370E+02 -0.77952226681E+03 -0.84641645900E+03  0.11525143328E+04  0.46999998093E+01 0.  1.
</event>
<event>
 5   0  0.1790832E-04  0.1891591E+04  0.7818609E-02  0.8659054E-01
        2   -1    0    0  501    0  0.00000000000E+00  0.00000000000E+00  0.66711754035E+03  0.66711754035E+03  0.25500000920E-02 0. -1.
       -2   -1    0    0    0  501  0.00000000000E+00  0.00000000000E+00 -0.13408863280E+04  0.13408863280E+04  0.25500000920E-02 0.  1.
    10030    2    1    2    0    0  0.00000000000E+00  0.00000000000E+00 -0.67376878766E+03  0.20080038684E+04  0.18915906418E+04 0.  0.
        5    1    3    3  502    0  0.50727798831E+03 -0.67016450753E+03 -0.79722591420E+03  0.11584656546E+04  0.46999998093E+01 0.  1.
       -5    1    3    3    0  502 -0.50727798831E+03  0.67016450753E+03  0.12345712654E+03  0.84953821378E+03  0.46999998093E+01 0. -1.
</event>
<event>
 5   0  0.1765328E-04  0.1939615E+04  0.7818609E-02  0.8635385E-01
       -2   -1    0    0    0  501  0.00000000000E+00  0.00000000000E+00  0.15179878000E+04  0.15179878000E+04  0.25500000920E-02 0. -1.
        2   -1    0    0  501    0  0.00000000000E+00  0.00000000000E+00 -0.61958754052E+03  0.61958754053E+03  0.25500000920E-02 0.  1.
    10030    2    1    2    0    0  0.00000000000E+00  0.00000000000E+00  0.89840025952E+03  0.21375753406E+04  0.19396147324E+04 0.  0.
        3    1    3    3  502    0 -0.33611283049E+03  0.46991004523E+03  0.13076341561E+04  0.14295783930E+04  0.10100000352E+00 0. -1.
       -3    1    3    3    0  502  0.33611283049E+03 -0.46991004523E+03 -0.40923389657E+03  0.70799694754E+03  0.10100000352E+00 0.  1.
</event>
<event>
 5   0  0.8602017E-05  0.1878664E+04  0.7818609E-02  0.8665550E-01
       -1   -1    0    0    0  501  0.00000000000E+00  0.00000000000E+00  0.10132145084E+04  0.10132145084E+04  0.50400001928E-02 0.  1.
        1   -1    0    0  501    0  0.00000000000E+00  0.00000000000E+00 -0.87083715429E+03  0.87083715430E+03  0.50400001928E-02 0. -1.
    10030    2    1    2    0    0  0.00000000000E+00  0.00000000000E+00  0.14237735414E+03  0.18840516628E+04  0.18786642481E+04 0.  0.
        2    1    3    3  502    0  0.20041729537E+03  0.83885409378E+03  0.44441388063E+03  0.97023037483E+03  0.25500000920E-02 0.  1.
       -2    1    3    3    0  502 -0.20041729537E+03 -0.83885409378E+03 -0.30203652648E+03  0.91382128793E+03  0.25500000920E-02 0. -1.
</event>
<event>
 5   0  0.8587082E-05  0.1885970E+04  0.7818609E-02  0.8661872E-01
       -1   -1    0    0    0  501  0.00000000000E+00  0.00000000000E+00  0.63526652970E+03  0.63526652972E+03  0.50400001928E-02 0. -1.
        1   -1    0    0  501    0  0.00000000000E+00  0.00000000000E+00 -0.13997603155E+04  0.13997603155E+04  0.50400001928E-02 0.  1.
    10030    2    1    2    0    0  0.00000000000E+00  0.00000000000E+00 -0.76449378580E+03  0.20350268452E+04  0.18859701780E+04 0.  0.
        5    1    3    3  502    0  0.59027615166E+00 -0.25649070836E+03 -0.13613842987E+04  0.13853436868E+04  0.46999998093E+01 0.  1.
       -5    1    3    3    0  502 -0.59027615166E+00  0.25649070836E+03  0.59689051291E+03  0.64968315839E+03  0.46999998093E+01 0. -1.
</event>
<event>
 5   0  0.1658711E-04  0.1903427E+04  0.7818609E-02  0.8653153E-01
        2   -1    0    0  501    0  0.00000000000E+00  0.00000000000E+00  0.17182685135E+04  0.17182685135E+04  0.25500000920E-02 0. -1.
       -2   -1    0    0    0  501  0.00000000000E+00  0.00000000000E+00 -0.52713435654E+03  0.52713435654E+03  0.25500000920E-02 0.  1.
    10030    2    1    2    0    0  0.00000000000E+00  0.00000000000E+00  0.11911341570E+04  0.22454028700E+04  0.19034267700E+04 0.  0.
        2    1    3    3  502    0  0.16776840145E+03  0.83288855174E+03  0.11014608648E+04  0.13910663582E+04  0.25500000920E-02 0. -1.
       -2    1    3    3    0  502 -0.16776840145E+03 -0.83288855174E+03  0.89673292116E+02  0.85433651184E+03  0.25500000920E-02 0.  1.
</event>
<event>
 5   0  0.1799738E-04  0.1905079E+04  0.7818609E-02  0.8652332E-01
       -2   -1    0    0    0  501  0.00000000000E+00  0.00000000000E+00  0.50224836321E+03  0.50224836321E+03  0.25500000920E-02 0.  1.
        2   -1    0    0  501    0  0.00000000000E+00  0.00000000000E+00 -0.18065391844E+04  0.18065391844E+04  0.25500000920E-02 0. -1.
    10030    2    1    2    0    0  0.00000000000E+00  0.00000000000E+00 -0.13042908212E+04  0.23087875476E+04  0.19050788419E+04 0.  0.
        1    1    3    3  502    0  0.57976022729E+03 -0.74988053153E+03 -0.53788702513E+03  0.10898464041E+04  0.50400001928E-02 0. -1.
       -1    1    3    3    0  502 -0.57976022729E+03  0.74988053153E+03 -0.76640379607E+03  0.12189411435E+04  0.50400001928E-02 0.  1.
</event>
<event>
 5   0  0.8602017E-05  0.1919314E+04  0.7818609E-02  0.8645302E-01
       -1   -1    0    0    0  501  0.00000000000E+00  0.00000000000E+00  0.13335422599E+04  0.13335422600E+04  0.50400001928E-02 0.  1.
        1   -1    0    0  501    0  0.00000000000E+00  0.00000000000E+00 -0.69059778182E+03  0.69059778184E+03  0.50400001928E-02 0. -1.
    10030    2    1    2    0    0  0.00000000000E+00  0.00000000000E+00  0.64294447812E+03  0.20241400418E+04  0.19193137594E+04 0.  0.
        2    1    3    3  502    0  0.79669438983E+03 -0.40017082295E+03  0.69594679092E+03  0.11310174951E+04  0.25500000920E-02 0.  1.
       -2    1    3    3    0  502 -0.79669438983E+03  0.40017082295E+03 -0.53002312803E+02  0.89312254674E+03  0.25500000920E-02 0. -1.
</event>
<event>
 5   0  0.8681396E-05  0.1897464E+04  0.7818609E-02  0.8656120E-01
        1   -1    0    0  501    0  0.00000000000E+00  0.00000000000E+00  0.12884277939E+04  0.12884277939E+04  0.50400001928E-02 0.  1.
       -1   -1    0    0    0  501  0.00000000000E+00  0.00000000000E+00 -0.69859712434E+03  0.69859712435E+03  0.50400001928E-02 0. -1.
    10030    2    1    2    0    0  0.00000000000E+00  0.00000000000E+00  0.58983066959E+03  0.19870249183E+04  0.18974635193E+04 0.  0.
        3    1    3    3  502    0  0.50801264270E+03  0.46263735715E+03 -0.39016659893E+03  0.79015198190E+03  0.10100000352E+00 0. -1.
       -3    1    3    3    0  502 -0.50801264270E+03 -0.46263735715E+03  0.97999726851E+03  0.11968729364E+04  0.10100000352E+00 0.  1.
</event>
<event>
 5   0  0.1658711E-04  0.1906113E+04  0.7818609E-02  0.8651820E-01
        2   -1    0    0  501    0  0.00000000000E+00  0.00000000000E+00  0.89515219599E+03  0.89515219600E+03  0.25500000920E-02 0. -1.
       -2   -1    0    0    0  501  0.00000000000E+00  0.00000000000E+00 -0.10147064397E+04  0.10147064397E+04  0.25500000920E-02 0.  1.
    10030    2    1    2    0    0  0.00000000000E+00  0.00000000000E+00 -0.11955424374E+03  0.19098586357E+04  0.19061130059E+04 0.  0.
        2    1    3    3  502    0  0.51512184930E+03  0.73462599691E+03 -0.38179756749E+03  0.97508730764E+03  0.25500000920E-02 0.  1.
       -2    1    3    3    0  502 -0.51512184930E+03 -0.73462599691E+03  0.26224332375E+03  0.93477132809E+03  0.25500000920E-02 0. -1.
</event>
<event>
 5   0  0.8905646E-05  0.1872915E+04  0.7818609E-02  0.8668457E-01
        1   -1    0    0  501    0  0.00000000000E+00  0.00000000000E+00  0.15698337994E+04  0.15698337994E+04  0.50400001928E-02 0. -1.
       -1   -1    0    0    0  501  0.00000000000E+00  0.00000000000E+00 -0.55862762296E+03  0.55862762298E+03  0.50400001928E-02 0.  1.
    10030    2    1    2    0    0  0.00000000000E+00  0.00000000000E+00  0.10112061764E+04  0.21284614223E+04  0.18729148660E+04 0.  0.
        1    1    3    3  502    0 -0.22786673274E+03 -0.27416210630E+03 -0.47849665551E+03  0.59669687261E+03  0.50400001928E-02 0.  1.
       -1    1    3    3    0  502  0.22786673274E+03  0.27416210630E+03  0.14897028319E+04  0.15317645497E+04  0.50400001928E-02 0. -1.
</event>
<event>
 5   0  0.8905646E-05  0.1914333E+04  0.7818609E-02  0.8647755E-01
       -1   -1    0    0    0  501  0.00000000000E+00  0.00000000000E+00  0.74600295002E+03  0.74600295004E+03  0.50400001928E-02 0.  1.
        1   -1    0    0  501    0  0.00000000000E+00  0.00000000000E+00 -0.12281018876E+04  0.12281018876E+04  0.50400001928E-02 0. -1.
    10030    2    1    2    0    0  0.00000000000E+00  0.00000000000E+00 -0.48209893753E+03  0.19741048376E+04  0.19143329189E+04 0.  0.
        1    1    3    3  502    0  0.42393166583E+02 -0.15684103856E+02  0.74490170876E+03  0.74627188573E+03  0.50400001928E-02 0.  1.
       -1    1    3    3    0  502 -0.42393166583E+02  0.15684103856E+02 -0.12270006463E+04  0.12278329519E+04  0.50400001928E-02 0. -1.
</event>
<event>
 5   0  0.8602017E-05  0.1876363E+04  0.7818609E-02  0.8666712E-01
       -1   -1    0    0    0  501  0.00000000000E+00  0.00000000000E+00  0.40706532267E+03  0.40706532270E+03  0.50400001928E-02 0.  1.
        1   -1    0    0  501    0  0.00000000000E+00  0.00000000000E+00 -0.21622676353E+04  0.21622676353E+04  0.50400001928E-02 0. -1.
    10030    2    1    2    0    0  0.00000000000E+00  0.00000000000E+00 -0.17552023126E+04  0.25693329580E+04  0.18763626224E+04 0.  0.
        2    1    3    3  502    0 -0.60123533070E+03  0.28186601079E+03  0.29927590299E+02  0.66470146050E+03  0.25500000920E-02 0.  1.
       -2    1    3    3    0  502  0.60123533070E+03 -0.28186601079E+03 -0.17851299029E+04  0.19046314975E+04  0.25500000920E-02 0. -1.
</event>
<event>
 5   0  0.1810569E-04  0.1882181E+04  0.7818609E-02  0.8663777E-01
        2   -1    0    0  501    0  0.00000000000E+00  0.00000000000E+00  0.24412611453E+04  0.24412611453E+04  0.25500000920E-02 0.  1.
       -2   -1    0    0    0  501  0.00000000000E+00  0.00000000000E+00 -0.36278415820E+03  0.36278415821E+03  0.25500000920E-02 0. -1.
    10030    2    1    2    0    0  0.00000000000E+00  0.00000000000E+00  0.20784769871E+04  0.28040453035E+04  0.18821805116E+04 0.  0.
        4    1    3    3  502    0  0.21778576384E+02 -0.58880309520E+03  0.21324668995E+04  0.22123697887E+04  0.12699999809E+01 0.  1.
       -4    1    3    3    0  502 -0.21778576384E+02  0.58880309520E+03 -0.53989912439E+02  0.59167551483E+03  0.12699999809E+01 0. -1.
</event>
<event>
 5   0  0.6375750E-05  0.1886345E+04  0.7818609E-02  0.8661684E-01
        4   -1    0    0  501    0  0.00000000000E+00  0.00000000000E+00  0.69471259511E+03  0.69471375595E+03  0.12699999809E+01 0.  1.
       -4   -1    0    0    0  501  0.00000000000E+00  0.00000000000E+00 -0.12804896228E+04  0.12804902526E+04  0.12699999809E+01 0. -1.
    10030    2    1    2    0    0  0.00000000000E+00  0.00000000000E+00 -0.58577702773E+03  0.19752040086E+04  0.18863446529E+04 0.  0.
        2    1    3    3  502    0 -0.54681843593E+03 -0.50972966752E+03  0.30930186898E+03  0.80901321496E+03  0.25500000920E-02 0.  1.
       -2    1    3    3    0  502  0.54681843593E+03  0.50972966752E+03 -0.89507889670E+03  0.11661907936E+04  0.25500000920E-02 0. -1.
</event>
<event>
 5   0  0.1810569E-04  0.1872891E+04  0.7818609E-02  0.8668469E-01
        2   -1    0    0  501    0  0.00000000000E+00  0.00000000000E+00  0.15285914687E+04  0.15285914687E+04  0.25500000920E-02 0.  1.
       -2   -1    0    0    0  501  0.00000000000E+00  0.00000000000E+00 -0.57368508541E+03  0.57368508542E+03  0.25500000920E-02 0. -1.
    10030    2    1    2    0    0  0.00000000000E+00  0.00000000000E+00  0.95490638332E+03  0.21022765541E+04  0.18728909496E+04 0.  0.
        4    1    3    3  502    0 -0.40294321126E+02  0.64778166956E+03 -0.28026749820E+03  0.70696266322E+03  0.12699999809E+01 0. -1.
       -4    1    3    3    0  502  0.40294321126E+02 -0.64778166956E+03  0.12351738815E+04  0.13953138909E+04  0.12699999809E+01 0.  1.
</event>
<event>
 5   0  0.1799738E-04  0.1915169E+04  0.7818609E-02  0.8647342E-01
        2   -1    0    0  501    0  0.00000000000E+00  0.00000000000E+00  0.92341108104E+03  0.92341108104E+03  0.25500000920E-02 0. -1.
       -2   -1    0    0    0  501  0.00000000000E+00  0.00000000000E+00 -0.99302288743E+03  0.99302288743E+03  0.25500000920E-02 0.  1.
    10030    2    1    2    0    0  0.00000000000E+00  0.00000000000E+00 -0.69611806390E+02  0.19164339685E+04  0.19151692750E+04 0.  0.
        1    1    3    3  502    0 -0.13968166026E+03  0.91349558748E+03 -0.28593613536E+03  0.96733894168E+03  0.50400001928E-02 0.  1.
       -1    1    3    3    0  502  0.13968166026E+03 -0.91349558748E+03  0.21632432897E+03  0.94909502679E+03  0.50400001928E-02 0. -1.
</event>
<event>
 5   0  0.1790832E-04  0.1989112E+04  0.7818609E-02  0.8611728E-01
       -2   -1    0    0    0  501  0.00000000000E+00  0.00000000000E+00  0.65317501883E+03  0.65317501884E+03  0.25500000920E-02 0.  1.
        2   -1    0    0  501    0  0.00000000000E+00  0.00000000000E+00 -0.15143594414E+04  0.15143594414E+04  0.25500000920E-02 0. -1.
    10030    2    1    2    0    0  0.00000000000E+00  0.00000000000E+00 -0.86118442254E+03  0.21675344602E+04  0.19891121202E+04 0.  0.
        5    1    3    3  502    0 -0.57758587955E+03  0.50299026206E+03 -0.11219419287E+04  0.13584478029E+04  0.46999998093E+01 0. -1.
       -5    1    3    3    0  502  0.57758587955E+03 -0.50299026206E+03  0.26075750614E+03  0.80908665728E+03  0.46999998093E+01 0.  1.
</event>
<event>
 5   0  0.1765328E-04  0.1880771E+04  0.7818609E-02  0.8664488E-01
       -2   -1    0    0    0  501  0.00000000000E+00  0.00000000000E+00  0.62371949768E+03  0.62371949769E+03  0.25500000920E-02 0. -1.
        2   -1    0    0  501    0  0.00000000000E+00  0.00000000000E+00 -0.14178241645E+04  0.14178241645E+04  0.25500000920E-02 0.  1.
    10030    2    1    2    0    0  0.00000000000E+00  0.00000000000E+00 -0.79410466685E+03  0.20415436622E+04  0.18807706673E+04 0.  0.
        3    1    3    3  502    0 -0.90448093948E+03  0.89385189684E+02 -0.65903187504E+03  0.11226747100E+04  0.10100000352E+00 0. -1.
       -3    1    3    3    0  502  0.90448093948E+03 -0.89385189684E+02 -0.13507279181E+03  0.91886895219E+03  0.10100000352E+00 0.  1.
</event>
<event>
 5   0  0.1810569E-04  0.1907476E+04  0.7818609E-02  0.8651144E-01
        2   -1    0    0  501    0  0.00000000000E+00  0.00000000000E+00  0.12017655004E+04  0.12017655004E+04  0.25500000920E-02 0. -1.
       -2   -1    0    0    0  501  0.00000000000E+00  0.00000000000E+00 -0.75689978224E+03  0.75689978224E+03  0.25500000920E-02 0.  1.
    10030    2    1    2    0    0  0.00000000000E+00  0.00000000000E+00  0.44486571820E+03  0.19586652827E+04  0.19074758668E+04 0.  0.
        4    1    3    3  502    0 -0.49677763146E+02  0.93211931055E+03  0.21476675762E+02  0.93369007157E+03  0.12699999809E+01 0.  1.
       -4    1    3    3    0  502  0.49677763146E+02 -0.93211931055E+03  0.42338904244E+03  0.10249752111E+04  0.12699999809E+01 0. -1.
</event>
<event>
 5   0  0.8681396E-05  0.1886834E+04  0.7818609E-02  0.8661438E-01
        1   -1    0    0  501    0  0.00000000000E+00  0.00000000000E+00  0.97819701096E+03  0.97819701098E+03  0.50400001928E-02 0. -1.
       -1   -1    0    0    0  501  0.00000000000E+00  0.00000000000E+00 -0.90987384059E+03  0.90987384060E+03  0.50400001928E-02 0.  1.
    10030    2    1    2    0    0  0.00000000000E+00  0.00000000000E+00  0.68323170375E+02  0.18880708516E+04  0.18868342495E+04 0.  0.
        3    1    3    3  502    0 -0.77924638618E+03  0.75553356721E+02  0.56091196019E+03  0.96309681620E+03  0.10100000352E+00 0. -1.
       -3    1    3    3    0  502  0.77924638618E+03 -0.75553356721E+02 -0.49258878981E+03  0.92497403538E+03  0.10100000352E+00 0.  1.
</event>
<event>
 5   0  0.8602017E-05  0.1940446E+04  0.7818609E-02  0.8634982E-01
       -1   -1    0    0    0  501  0.00000000000E+00  0.00000000000E+00  0.73615142303E+03  0.73615142304E+03  0.50400001928E-02 0. -1.
        1   -1    0    0  501    0  0.00000000000E+00  0.00000000000E+00 -0.12787211926E+04  0.12787211926E+04  0.50400001928E-02 0.  1.
    10030    2    1    2    0    0  0.00000000000E+00  0.00000000000E+00 -0.54256976960E+03  0.20148726157E+04  0.19404457484E+04 0.  0.
        2    1    3    3  502    0 -0.89950496338E+03  0.22840796127E+03  0.22503776311E+02  0.92832418684E+03  0.25500000920E-02 0. -1.
       -2    1    3    3    0  502  0.89950496338E+03 -0.22840796127E+03 -0.56507354591E+03  0.10865484288E+04  0.25500000920E-02 0.  1.
</event>
<event>
 5   0  0.8587082E-05  0.1803153E+04  0.7818609E-02  0.8704624E-01
       -1   -1    0    0    0  501  0.00000000000E+00  0.00000000000E+00  0.44535077881E+03  0.44535077883E+03  0.50400001928E-02 0. -1.
        1   -1    0    0  501    0  0.00000000000E+00  0.00000000000E+00 -0.18251692982E+04  0.18251692982E+04  0.50400001928E-02 0.  1.
    10030    2    1    2    0    0  0.00000000000E+00  0.00000000000E+00 -0.13798185194E+04  0.22705200770E+04  0.18031534249E+04 0.  0.
        5    1    3    3  502    0 -0.41379299530E+03 -0.74923549596E+03 -0.10465969688E+04  0.13520228461E+04  0.46999998093E+01 0.  1.
       -5    1    3    3    0  502  0.41379299530E+03  0.74923549596E+03 -0.33322155056E+03  0.91849723087E+03  0.46999998093E+01 0. -1.
</event>
<event>
 5   0  0.1810569E-04  0.1897353E+04  0.7818609E-02  0.8656175E-01
        2   -1    0    0  501    0  0.00000000000E+00  0.00000000000E+00  0.11987478849E+04  0.11987478849E+04  0.25500000920E-02 0. -1.
       -2   -1    0    0    0  501  0.00000000000E+00  0.00000000000E+00 -0.75077248038E+03  0.75077248038E+03  0.25500000920E-02 0.  1.
    10030    2    1    2    0    0  0.00000000000E+00  0.00000000000E+00  0.44797540450E+03  0.19495203653E+04  0.18973528116E+04 0.  0.
        4    1    3    3  502    0 -0.85289687699E+03 -0.39184273380E+03  0.82314450024E+02  0.94220544065E+03  0.12699999809E+01 0.  1.
       -4    1    3    3    0  502  0.85289687699E+03  0.39184273380E+03  0.36566095447E+03  0.10073149246E+04  0.12699999809E+01 0. -1.
</event>
<event>
 5   0  0.8905646E-05  0.1896776E+04  0.7818609E-02  0.8656463E-01
       -1   -1    0    0    0  501  0.00000000000E+00  0.00000000000E+00  0.47120128516E+03  0.47120128518E+03  0.50400001928E-02 0.  1.
        1   -1    0    0  501    0  0.00000000000E+00  0.00000000000E+00 -0.19088233738E+04  0.19088233738E+04  0.50400001928E-02 0. -1.
    10030    2    1    2    0    0  0.00000000000E+00  0.00000000000E+00 -0.14376220886E+04  0.23800246590E+04  0.18967762408E+04 0.  0.
        1    1    3    3  502    0  0.18260466017E+03 -0.42163151135E+03  0.32221433609E+03  0.56119486071E+03  0.50400001928E-02 0.  1.
       -1    1    3    3    0  502 -0.18260466017E+03  0.42163151135E+03 -0.17598364247E+04  0.18188297982E+04  0.50400001928E-02 0. -1.
</event>
<event>
 5   0  0.8587082E-05  0.1890835E+04  0.7818609E-02  0.8659432E-01
       -1   -1    0    0    0  501  0.00000000000E+00  0.00000000000E+00  0.71489920004E+03  0.71489920006E+03  0.50400001928E-02 0. -1.
        1   -1    0    0  501    0  0.00000000000E+00  0.00000000000E+00 -0.12502659356E+04  0.12502659356E+04  0.50400001928E-02 0.  1.
    10030    2    1    2    0    0  0.00000000000E+00  0.00000000000E+00 -0.53536673555E+03  0.19651651357E+04  0.18908348603E+04 0.  0.
        5    1    3    3  502    0  0.48771973729E+02  0.87407617900E+03  0.10328531346E+03  0.88152017452E+03  0.46999998093E+01 0. -1.
       -5    1    3    3    0  502 -0.48771973729E+02 -0.87407617900E+03 -0.63865204901E+03  0.10836449611E+04  0.46999998093E+01 0.  1.
</event>
<event>
 5   0  0.8905646E-05  0.1883124E+04  0.7818609E-02  0.8663303E-01
       -1   -1    0    0    0  501  0.00000000000E+00  0.00000000000E+00  0.91286051986E+03  0.91286051988E+03  0.50400001928E-02 0.  1.
        1   -1    0    0  501    0  0.00000000000E+00  0.00000000000E+00 -0.97116578102E+03  0.97116578104E+03  0.50400001928E-02 0. -1.
    10030    2    1    2    0    0  0.00000000000E+00  0.00000000000E+00 -0.58305261160E+02  0.18840263009E+04  0.18831238937E+04 0.  0.
        1    1    3    3  502    0 -0.41957686280E+03 -0.79081042265E+03 -0.32103381280E+03  0.95104604376E+03  0.50400001928E-02 0. -1.
       -1    1    3    3    0  502  0.41957686280E+03  0.79081042265E+03  0.26272855164E+03  0.93298025715E+03  0.50400001928E-02 0.  1.
</event>
<event>
 5   0  0.8602017E-05  0.1889864E+04  0.7818609E-02  0.8659918E-01
        1   -1    0    0  501    0  0.00000000000E+00  0.00000000000E+00  0.88289520877E+03  0.88289520878E+03  0.50400001928E-02 0.  1.
       -1   -1    0    0    0  501  0.00000000000E+00  0.00000000000E+00 -0.10113283404E+04  0.10113283404E+04  0.50400001928E-02 0. -1.
    10030    2    1    2    0    0  0.00000000000E+00  0.00000000000E+00 -0.12843313165E+03  0.18942235492E+04  0.18898644885E+04 0.  0.
        2    1    3    3  502    0 -0.10311444027E+02 -0.30113297504E+03 -0.96188801202E+03  0.10079761615E+04  0.25500000920E-02 0. -1.
       -2    1    3    3    0  502  0.10311444027E+02  0.30113297504E+03  0.83345488038E+03  0.88624738768E+03  0.25500000920E-02 0.  1.
</event>
<event>
 5   0  0.1790832E-04  0.1896896E+04  0.7818609E-02  0.8656403E-01
        2   -1    0    0  501    0  0.00000000000E+00  0.00000000000E+00  0.59642567587E+03  0.59642567588E+03  0.25500000920E-02 0. -1.
       -2   -1    0    0    0  501  0.00000000000E+00  0.00000000000E+00 -0.15082412599E+04  0.15082412599E+04  0.25500000920E-02 0.  1.
    10030    2    1    2    0    0  0.00000000000E+00  0.00000000000E+00 -0.91181558406E+03  0.21046669358E+04  0.18968962152E+04 0.  0.
        5    1    3    3  502    0 -0.37625174434E+03 -0.57577433097E+03  0.26865162275E+03  0.73842889957E+03  0.46999998093E+01 0. -1.
       -5    1    3    3    0  502  0.37625174434E+03  0.57577433097E+03 -0.11804672068E+04  0.13662380362E+04  0.46999998093E+01 0.  1.
</event>
<event>
 5   0  0.1810569E-04  0.1879546E+04  0.7818609E-02  0.8665105E-01
       -2   -1    0    0    0  501  0.00000000000E+00  0.00000000000E+00  0.60832309635E+03  0.60832309636E+03  0.25500000920E-02 0. -1.
        2   -1    0    0  501    0  0.00000000000E+00  0.00000000000E+00 -0.14518167423E+04  0.14518167423E+04  0.25500000920E-02 0.  1.
    10030    2    1    2    0    0  0.00000000000E+00  0.00000000000E+00 -0.84349364600E+03  0.20601398387E+04  0.18795463879E+04 0.  0.
        4    1    3    3  502    0  0.42313145808E+03  0.25240367547E+03  0.45541054952E+03  0.67093086658E+03  0.12699999809E+01 0. -1.
       -4    1    3    3    0  502 -0.42313145808E+03 -0.25240367547E+03 -0.12989041955E+04  0.13892089721E+04  0.12699999809E+01 0.  1.
</event>
<event>
 5   0  0.8681396E-05  0.1872576E+04  0.7818609E-02  0.8668629E-01
        1   -1    0    0  501    0  0.00000000000E+00  0.00000000000E+00  0.67541212762E+03  0.67541212764E+03  0.50400001928E-02 0. -1.
       -1   -1    0    0    0  501  0.00000000000E+00  0.00000000000E+00 -0.12979261815E+04  0.12979261815E+04  0.50400001928E-02 0.  1.
    10030    2    1    2    0    0  0.00000000000E+00  0.00000000000E+00 -0.62251405389E+03  0.19733383092E+04  0.18725758556E+04 0.  0.
        3    1    3    3  502    0 -0.16611058309E+03  0.80339413672E+03 -0.78675781082E+03  0.11366717766E+04  0.10100000352E+00 0.  1.
       -3    1    3    3    0  502  0.16611058309E+03 -0.80339413672E+03  0.16424375693E+03  0.83666653251E+03  0.10100000352E+00 0. -1.
</event>
<event>
 5   0  0.8602017E-05  0.1891006E+04  0.7818609E-02  0.8659346E-01
        1   -1    0    0  501    0  0.00000000000E+00  0.00000000000E+00  0.18496072116E+04  0.18496072116E+04  0.50400001928E-02 0.  1.
       -1   -1    0    0    0  501  0.00000000000E+00  0.00000000000E+00 -0.48333310312E+03  0.48333310315E+03  0.50400001928E-02 0. -1.
    10030    2    1    2    0    0  0.00000000000E+00  0.00000000000E+00  0.13662741085E+04  0.23329403147E+04  0.18910064973E+04 0.  0.
        2    1    3    3  502    0  0.23082169921E+03  0.32742599536E+03  0.17397299640E+04  0.17852581849E+04  0.25500000920E-02 0.  1.
       -2    1    3    3    0  502 -0.23082169921E+03 -0.32742599536E+03 -0.37345585553E+03  0.54768212980E+03  0.25500000920E-02 0. -1.
</event>
<event>
 5   0  0.1658711E-04  0.1902828E+04  0.7818609E-02  0.8653450E-01
       -2   -1    0    0    0  501  0.00000000000E+00  0.00000000000E+00  0.51631395802E+03  0.51631395802E+03  0.25500000920E-02 0. -1.
        2   -1    0    0  501    0  0.00000000000E+00  0.00000000000E+00 -0.17531744377E+04  0.17531744377E+04  0.25500000920E-02 0.  1.
    10030    2    1    2    0    0  0.00000000000E+00  0.00000000000E+00 -0.12368604797E+04  0.22694883958E+04  0.19028278252E+04 0.  0.
        2    1    3    3  502    0  0.40028919169E+03 -0.34091821615E+03  0.32728671364E+03  0.61933291533E+03  0.25500000920E-02 0. -1.
       -2    1    3    3    0  502 -0.40028919169E+03  0.34091821615E+03 -0.15641471934E+04  0.16501554804E+04  0.25500000920E-02 0.  1.
</event>
<event>
 5   0  0.8905646E-05  0.1895216E+04  0.7818609E-02  0.8657241E-01
       -1   -1    0    0    0  501  0.00000000000E+00  0.00000000000E+00  0.70538725618E+03  0.70538725620E+03  0.50400001928E-02 0.  1.
        1   -1    0    0  501    0  0.00000000000E+00  0.00000000000E+00 -0.12730046505E+04  0.12730046505E+04  0.50400001928E-02 0. -1.
    10030    2    1    2    0    0  0.00000000000E+00  0.00000000000E+00 -0.56761739431E+03  0.19783919067E+04  0.18952163544E+04 0.  0.
        1    1    3    3  502    0  0.30167221199E+03  0.89438407889E+03 -0.37134753752E+03  0.10143115881E+04  0.50400001928E-02 0.  1.
       -1    1    3    3    0  502 -0.30167221199E+03 -0.89438407889E+03 -0.19626985678E+03  0.96408031862E+03  0.50400001928E-02 0. -1.
</event>
<event>
 5   0  0.1810569E-04  0.1849948E+04  0.7818609E-02  0.8680180E-01
        2   -1    0    0  501    0  0.00000000000E+00  0.00000000000E+00  0.16596198070E+04  0.16596198070E+04  0.25500000920E-02 0.  1.
       -2   -1    0    0    0  501  0.00000000000E+00  0.00000000000E+00 -0.51552589066E+03  0.51552589066E+03  0.25500000920E-02 0. -1.
    10030    2    1    2    0    0  0.00000000000E+00  0.00000000000E+00  0.11440939163E+04  0.21751456977E+04  0.18499480849E+04 0.  0.
        4    1    3    3  502    0  0.67832923015E+03  0.62785413988E+03  0.61351744608E+03  0.11093857016E+04  0.12699999809E+01 0.  1.
       -4    1    3    3    0  502 -0.67832923015E+03 -0.62785413988E+03  0.53057647025E+03  0.10657599960E+04  0.12699999809E+01 0. -1.
</event>
<event>
 5   0  0.8905646E-05  0.1858677E+04  0.7818609E-02  0.8675703E-01
       -1   -1    0    0    0  501  0.00000000000E+00  0.00000000000E+00  0.74568178128E+03  0.74568178129E+03  0.50400001928E-02 0.  1.
        1   -1    0    0  501    0  0.00000000000E+00  0.00000000000E+00 -0.11582283249E+04  0.11582283250E+04  0.50400001928E-02 0. -1.
    10030    2    1    2    0    0  0.00000000000E+00  0.00000000000E+00 -0.41254654367E+03  0.19039101062E+04  0.18586766911E+04 0.  0.
        1    1    3    3  502    0  0.53764887596E+03  0.17835097946E+03 -0.96094877959E+03  0.11154810365E+04  0.50400001928E-02 0. -1.
       -1    1    3    3    0  502 -0.53764887596E+03 -0.17835097946E+03  0.54840223592E+03  0.78842906978E+03  0.50400001928E-02 0.  1.
</event>
<event>
 5   0  0.8905646E-05  0.1950179E+04  0.7818609E-02  0.8630275E-01
        1   -1    0    0  501    0  0.00000000000E+00  0.00000000000E+00  0.38894401806E+03  0.38894401809E+03  0.50400001928E-02 0. -1.
       -1   -1    0    0    0  501  0.00000000000E+00  0.00000000000E+00 -0.24445657969E+04  0.24445657969E+04  0.50400001928E-02 0.  1.
    10030    2    1    2    0    0  0.00000000000E+00  0.00000000000E+00 -0.20556217788E+04  0.28335098150E+04  0.19501787031E+04 0.  0.
        1    1    3    3  502    0 -0.22710556498E+03 -0.79954254040E+03 -0.17686068248E+04  0.19541789356E+04  0.50400001928E-02 0.  1.
       -1    1    3    3    0  502  0.22710556498E+03  0.79954254040E+03 -0.28701495400E+03  0.87933087936E+03  0.50400001928E-02 0. -1.
</event>
<event>
 5   0  0.1765328E-04  0.1918315E+04  0.7818609E-02  0.8645793E-01
       -2   -1    0    0    0  501  0.00000000000E+00  0.00000000000E+00  0.86516774816E+03  0.86516774816E+03  0.25500000920E-02 0. -1.
        2   -1    0    0  501    0  0.00000000000E+00  0.00000000000E+00 -0.10633578369E+04  0.10633578369E+04  0.25500000920E-02 0.  1.
    10030    2    1    2    0    0  0.00000000000E+00  0.00000000000E+00 -0.19819008871E+03  0.19285255850E+04  0.19183147867E+04 0.  0.
        3    1    3    3  502    0 -0.49330323184E+03 -0.16401096229E+03  0.71125700582E+03  0.88098479716E+03  0.10100000352E+00 0. -1.
       -3    1    3    3    0  502  0.49330323184E+03  0.16401096229E+03 -0.90944709453E+03  0.10475407879E+04  0.10100000352E+00 0.  1.
</event>
<event>
 5   0  0.8587082E-05  0.1939229E+04  0.7818609E-02  0.8635572E-01
        1   -1    0    0  501    0  0.00000000000E+00  0.00000000000E+00  0.62989503108E+03  0.62989503110E+03  0.50400001928E-02 0.  1.
       -1   -1    0    0    0  501  0.00000000000E+00  0.00000000000E+00 -0.14925543489E+04  0.14925543489E+04  0.50400001928E-02 0. -1.
    10030    2    1    2    0    0  0.00000000000E+00  0.00000000000E+00 -0.86265931785E+03  0.21224493800E+04  0.19392292985E+04 0.  0.
        5    1    3    3  502    0 -0.43494230446E+03 -0.86045267792E+03 -0.31876902451E+03  0.10154749628E+04  0.46999998093E+01 0.  1.
       -5    1    3    3    0  502  0.43494230446E+03  0.86045267792E+03 -0.54389029335E+03  0.11069744172E+04  0.46999998093E+01 0. -1.
</event>
<event>
 5   0  0.1765328E-04  0.1863365E+04  0.7818609E-02  0.8673310E-01
       -2   -1    0    0    0  501  0.00000000000E+00  0.00000000000E+00  0.34835102100E+03  0.34835102101E+03  0.25500000920E-02 0.  1.
        2   -1    0    0  501    0  0.00000000000E+00  0.00000000000E+00 -0.24918322965E+04  0.24918322965E+04  0.25500000920E-02 0. -1.
    10030    2    1    2    0    0  0.00000000000E+00  0.00000000000E+00 -0.21434812755E+04  0.28401833175E+04  0.18633650471E+04 0.  0.
        3    1    3    3  502    0 -0.38183981760E+03 -0.84869232405E+03 -0.11390831231E+04  0.14709149121E+04  0.10100000352E+00 0.  1.
       -3    1    3    3    0  502  0.38183981760E+03  0.84869232405E+03 -0.10043981524E+04  0.13692684054E+04  0.10100000352E+00 0. -1.
</event>
<event>
 5   0  0.1810569E-04  0.1882692E+04  0.7818609E-02  0.8663520E-01
       -2   -1    0    0    0  501  0.00000000000E+00  0.00000000000E+00  0.64234458816E+03  0.64234458817E+03  0.25500000920E-02 0. -1.
        2   -1    0    0  501    0  0.00000000000E+00  0.00000000000E+00 -0.13795278865E+04  0.13795278865E+04  0.25500000920E-02 0.  1.
    10030    2    1    2    0    0  0.00000000000E+00  0.00000000000E+00 -0.73718329831E+03  0.20218724746E+04  0.18826919792E+04 0.  0.
        4    1    3    3  502    0  0.20213279842E+03  0.39658093188E+03 -0.12593658279E+04  0.13357162892E+04  0.12699999809E+01 0.  1.
       -4    1    3    3    0  502 -0.20213279842E+03 -0.39658093188E+03  0.52218252961E+03  0.68615618547E+03  0.12699999809E+01 0. -1.
</event>
<event>
 5   0  0.1765328E-04  0.1871640E+04  0.7818609E-02  0.8669103E-01
       -2   -1    0    0    0  501  0.00000000000E+00  0.00000000000E+00  0.42685920047E+03  0.42685920047E+03  0.25500000920E-02 0.  1.
        2   -1    0    0  501    0  0.00000000000E+00  0.00000000000E+00 -0.20516355945E+04  0.20516355945E+04  0.25500000920E-02 0. -1.
    10030    2    1    2    0    0  0.00000000000E+00  0.00000000000E+00 -0.16247763940E+04  0.24784947950E+04  0.18716404885E+04 0.  0.
        3    1    3    3  502    0 -0.36437805271E+03  0.39011980930E+03  0.20546201326E+03  0.57199604893E+03  0.10100000352E+00 0.  1.
       -3    1    3    3    0  502  0.36437805271E+03 -0.39011980930E+03 -0.18302384073E+04  0.19064987460E+04  0.10100000352E+00 0. -1.
</event>
<event>
 5   0  0.1799738E-04  0.1887320E+04  0.7818609E-02  0.8661194E-01
        2   -1    0    0  501    0  0.00000000000E+00  0.00000000000E+00  0.86278610310E+03  0.86278610310E+03  0.25500000920E-02 0.  1.
       -2   -1    0    0    0  501  0.00000000000E+00  0.00000000000E+00 -0.10321151186E+04  0.10321151186E+04  0.25500000920E-02 0. -1.
    10030    2    1    2    0    0  0.00000000000E+00  0.00000000000E+00 -0.16932901551E+03  0.18949012217E+04  0.18873204086E+04 0.  0.
        1    1    3    3  502    0 -0.85291063731E+03  0.24588856517E+03 -0.40622715576E+03  0.97618555808E+03  0.50400001928E-02 0. -1.
       -1    1    3    3    0  502  0.85291063731E+03 -0.24588856517E+03  0.23689814024E+03  0.91871566363E+03  0.50400001928E-02 0.  1.
</event>
<event>
 5   0  0.8602017E-05  0.1904971E+04  0.7818609E-02  0.8652386E-01
        1   -1    0    0  501    0  0.00000000000E+00  0.00000000000E+00  0.15290462447E+04  0.15290462448E+04  0.50400001928E-02 0.  1.
       -1   -1    0    0    0  501  0.00000000000E+00  0.00000000000E+00 -0.59333005374E+03  0.59333005377E+03  0.50400001928E-02 0. -1.
    10030    2    1    2    0    0  0.00000000000E+00  0.00000000000E+00  0.93571619101E+03  0.21223762985E+04  0.19049714860E+04 0.  0.
        2    1    3    3  502    0  0.47175015737E+03 -0.98658531589E+02  0.13831694788E+04  0.14647318949E+04  0.25500000920E-02 0.  1.
       -2    1    3    3    0  502 -0.47175015737E+03  0.98658531589E+02 -0.44745328780E+03  0.65764440362E+03  0.25500000920E-02 0. -1.
</event>
<event>
 5   0  0.8567844E-05  0.2066792E+04  0.7818609E-02  0.8576015E-01
       -1   -1    0    0    0  501  0.00000000000E+00  0.00000000000E+00  0.35072572782E+03  0.35072572786E+03  0.50400001928E-02 0. -1.
        1   -1    0    0  501    0  0.00000000000E+00  0.00000000000E+00 -0.30448496765E+04  0.30448496765E+04  0.50400001928E-02 0.  1.
    10030    2    1    2    0    0  0.00000000000E+00  0.00000000000E+00 -0.26941239487E+04  0.33955754044E+04  0.20667918318E+04 0.  0.
        4    1    3    3  502    0  0.93980646850E+03  0.27902934314E+03 -0.18840029295E+04  0.21238084245E+04  0.12699999809E+01 0. -1.
       -4    1    3    3    0  502 -0.93980646850E+03 -0.27902934314E+03 -0.81012101920E+03  0.12717669799E+04  0.12699999809E+01 0.  1.
</event>
<event>
 5   0  0.1790832E-04  0.1931197E+04  0.7818609E-02  0.8639481E-01
       -2   -1    0    0    0  501  0.00000000000E+00  0.00000000000E+00  0.12426609493E+04  0.12426609493E+04  0.25500000920E-02 0. -1.
        2   -1    0    0  501    0  0.00000000000E+00  0.00000000000E+00 -0.75030980118E+03  0.75030980119E+03  0.25500000920E-02 0.  1.
    10030    2    1    2    0    0  0.00000000000E+00  0.00000000000E+00  0.49235114808E+03  0.19929707505E+04  0.19311972347E+04 0.  0.
        5    1    3    3  502    0  0.36144216627E+03 -0.70640904887E+03  0.81396025680E+03  0.11367530838E+04  0.46999998093E+01 0. -1.
       -5    1    3    3    0  502 -0.36144216627E+03  0.70640904887E+03 -0.32160910872E+03  0.85621766666E+03  0.46999998093E+01 0.  1.
</event>
<event>
 5   0  0.8905646E-05  0.1919134E+04  0.7818609E-02  0.8645390E-01
       -1   -1    0    0    0  501  0.00000000000E+00  0.00000000000E+00  0.60275533349E+03  0.60275533351E+03  0.50400001928E-02 0.  1.
        1   -1    0    0  501    0  0.00000000000E+00  0.00000000000E+00 -0.15275996182E+04  0.15275996182E+04  0.50400001928E-02 0. -1.
    10030    2    1    2    0    0  0.00000000000E+00  0.00000000000E+00 -0.92484428474E+03  0.21303549517E+04  0.19191339894E+04 0.  0.
        1    1    3    3  502    0 -0.23562756716E+03 -0.13972260057E+03 -0.14832711942E+04  0.15083554592E+04  0.50400001928E-02 0. -1.
       -1    1    3    3    0  502  0.23562756716E+03  0.13972260057E+03  0.55842690949E+03  0.62199949259E+03  0.50400001928E-02 0.  1.
</event>
<event>
 5   0  0.8567844E-05  0.1906483E+04  0.7818609E-02  0.8651636E-01
        1   -1    0    0  501    0  0.00000000000E+00  0.00000000000E+00  0.14191186665E+04  0.14191186666E+04  0.50400001928E-02 0. -1.
       -1   -1    0    0    0  501  0.00000000000E+00  0.00000000000E+00 -0.64030541537E+03  0.64030541539E+03  0.50400001928E-02 0.  1.
    10030    2    1    2    0    0  0.00000000000E+00  0.00000000000E+00  0.77881325117E+03  0.20594240819E+04  0.19064830104E+04 0.  0.
        4    1    3    3  502    0 -0.61874960900E+03  0.30524141169E+03  0.10999299987E+04  0.12984109569E+04  0.12699999809E+01 0. -1.
       -4    1    3    3    0  502  0.61874960900E+03 -0.30524141169E+03 -0.32111674753E+03  0.76101312505E+03  0.12699999809E+01 0.  1.
</event>
<event>
 5   0  0.8587082E-05  0.1847403E+04  0.7818609E-02  0.8681489E-01
       -1   -1    0    0    0  501  0.00000000000E+00  0.00000000000E+00  0.80114900763E+03  0.80114900765E+03  0.50400001928E-02 0. -1.
        1   -1    0    0  501    0  0.00000000000E+00  0.00000000000E+00 -0.10650014216E+04  0.10650014216E+04  0.50400001928E-02 0.  1.
    10030    2    1    2    0    0  0.00000000000E+00  0.00000000000E+00 -0.26385241393E+03  0.18661504292E+04  0.18474034016E+04 0.  0.
        5    1    3    3  502    0  0.71938134850E+03  0.10062621905E+03  0.44444925958E+03  0.85158228896E+03  0.46999998093E+01 0. -1.
       -5    1    3    3    0  502 -0.71938134850E+03 -0.10062621905E+03 -0.70830167351E+03  0.10145681403E+04  0.46999998093E+01 0.  1.
</event>
<event>
 5   0  0.1810569E-04  0.1820737E+04  0.7818609E-02  0.8695349E-01
        2   -1    0    0  501    0  0.00000000000E+00  0.00000000000E+00  0.13997519316E+04  0.13997519316E+04  0.25500000920E-02 0. -1.
       -2   -1    0    0    0  501  0.00000000000E+00  0.00000000000E+00 -0.59208406546E+03  0.59208406547E+03  0.25500000920E-02 0.  1.
    10030    2    1    2    0    0  0.00000000000E+00  0.00000000000E+00  0.80766786618E+03  0.19918359971E+04  0.18207370094E+04 0.  0.
        4    1    3    3  502    0  0.69153817651E+03  0.55533250078E+03  0.17923640699E+03  0.90484614078E+03  0.12699999809E+01 0. -1.
       -4    1    3    3    0  502 -0.69153817651E+03 -0.55533250078E+03  0.62843145919E+03  0.10869898563E+04  0.12699999809E+01 0.  1.
</event>
<event>
 5   0  0.8905646E-05  0.1907455E+04  0.7818609E-02  0.8651154E-01
       -1   -1    0    0    0  501  0.00000000000E+00  0.00000000000E+00  0.37619354303E+03  0.37619354307E+03  0.50400001928E-02 0.  1.
        1   -1    0    0  501    0  0.00000000000E+00  0.00000000000E+00 -0.24178950034E+04  0.24178950034E+04  0.50400001928E-02 0. -1.
    10030    2    1    2    0    0  0.00000000000E+00  0.00000000000E+00 -0.20417014604E+04  0.27940885465E+04  0.19074553605E+04 0.  0.
        1    1    3    3  502    0  0.60022039140E+03 -0.54592303935E+03 -0.28653635446E+03  0.86046473815E+03  0.50400001928E-02 0.  1.
       -1    1    3    3    0  502 -0.60022039140E+03  0.54592303935E+03 -0.17551651059E+04  0.19336238083E+04  0.50400001928E-02 0. -1.
</event>
<event>
 5   0  0.1658711E-04  0.1879886E+04  0.7818609E-02  0.8664934E-01
       -2   -1    0    0    0  501  0.00000000000E+00  0.00000000000E+00  0.87802435786E+03  0.87802435787E+03  0.25500000920E-02 0. -1.
        2   -1    0    0  501    0  0.00000000000E+00  0.00000000000E+00 -0.10062282705E+04  0.10062282705E+04  0.25500000920E-02 0.  1.
    10030    2    1    2    0    0  0.00000000000E+00  0.00000000000E+00 -0.12820391262E+03  0.18842526284E+04  0.18798860934E+04 0.  0.
        2    1    3    3  502    0  0.63659006188E+02 -0.34369367906E+03 -0.93866238173E+03  0.10016311102E+04  0.25500000920E-02 0.  1.
       -2    1    3    3    0  502 -0.63659006188E+02  0.34369367906E+03  0.81045846911E+03  0.88262151812E+03  0.25500000920E-02 0. -1.
</event>
<event>
 5   0  0.1790832E-04  0.1905891E+04  0.7818609E-02  0.8651929E-01
       -2   -1    0    0    0  501  0.00000000000E+00  0.00000000000E+00  0.77975214900E+03  0.77975214900E+03  0.25500000920E-02 0.  1.
        2   -1    0    0  501    0  0.00000000000E+00  0.00000000000E+00 -0.11646079050E+04  0.11646079050E+04  0.25500000920E-02 0. -1.
    10030    2    1    2    0    0  0.00000000000E+00  0.00000000000E+00 -0.38485575600E+03  0.19443600540E+04  0.19058914100E+04 0.  0.
        5    1    3    3  502    0 -0.74657138093E+03 -0.38412733336E+03  0.26740337536E+03  0.88116360014E+03  0.46999998093E+01 0.  1.
       -5    1    3    3    0  502  0.74657138093E+03  0.38412733336E+03 -0.65225913136E+03  0.10631964539E+04  0.46999998093E+01 0. -1.
</event>
<event>
 5   0  0.8681396E-05  0.1879027E+04  0.7818609E-02  0.8665367E-01
        1   -1    0    0  501    0  0.00000000000E+00  0.00000000000E+00  0.16522617624E+04  0.16522617624E+04  0.50400001928E-02 0.  1.
       -1   -1    0    0    0  501  0.00000000000E+00  0.00000000000E+00 -0.53422854052E+03  0.53422854055E+03  0.50400001928E-02 0. -1.
    10030    2    1    2    0    0  0.00000000000E+00  0.00000000000E+00  0.11180332219E+04  0.21864903030E+04  0.18790267586E+04 0.  0.
        3    1    3    3  502    0 -0.84643664461E+03  0.10291803461E+03  0.10180801289E+04  0.13279812779E+04  0.10100000352E+00 0.  1.
       -3    1    3    3    0  502  0.84643664461E+03 -0.10291803461E+03  0.99953092934E+02  0.85850902510E+03  0.10100000352E+00 0. -1.
</event>
<event>
 5   0  0.8587082E-05  0.1904436E+04  0.7818609E-02  0.8652652E-01
       -1   -1    0    0    0  501  0.00000000000E+00  0.00000000000E+00  0.43033131484E+03  0.43033131487E+03  0.50400001928E-02 0.  1.
        1   -1    0    0  501    0  0.00000000000E+00  0.00000000000E+00 -0.21070251184E+04  0.21070251184E+04  0.50400001928E-02 0. -1.
    10030    2    1    2    0    0  0.00000000000E+00  0.00000000000E+00 -0.16766938035E+04  0.25373564332E+04  0.19044357586E+04 0.  0.
        5    1    3    3  502    0 -0.43888518926E+03  0.38730829496E+03  0.16230083956E+03  0.60744676903E+03  0.46999998093E+01 0.  1.
       -5    1    3    3    0  502  0.43888518926E+03 -0.38730829496E+03 -0.18389946431E+04  0.19299096642E+04  0.46999998093E+01 0. -1.
</event>
<event>
 5   0  0.1658711E-04  0.1876280E+04  0.7818609E-02  0.8666754E-01
        2   -1    0    0  501    0  0.00000000000E+00  0.00000000000E+00  0.58357765193E+03  0.58357765194E+03  0.25500000920E-02 0.  1.
       -2   -1    0    0    0  501  0.00000000000E+00  0.00000000000E+00 -0.15081224865E+04  0.15081224866E+04  0.25500000920E-02 0. -1.
    10030    2    1    2    0    0  0.00000000000E+00  0.00000000000E+00 -0.92454483462E+03  0.20917001385E+04  0.18762799147E+04 0.  0.
        2    1    3    3  502    0  0.29393221163E+03 -0.56697273397E+03  0.30383357812E+03  0.70722632112E+03  0.25500000920E-02 0.  1.
       -2    1    3    3    0  502 -0.29393221163E+03  0.56697273397E+03 -0.12283784127E+04  0.13844738174E+04  0.25500000920E-02 0. -1.
</event>
<event>
 5   0  0.8567844E-05  0.1894535E+04  0.7818609E-02  0.8657582E-01
        1   -1    0    0  501    0  0.00000000000E+00  0.00000000000E+00  0.75498727927E+03  0.75498727928E+03  0.50400001928E-02 0. -1.
       -1   -1    0    0    0  501  0.00000000000E+00  0.00000000000E+00 -0.11885170653E+04  0.11885170653E+04  0.50400001928E-02 0.  1.
    10030    2    1    2    0    0  0.00000000000E+00  0.00000000000E+00 -0.43352978606E+03  0.19435043446E+04  0.18945345239E+04 0.  0.
        4    1    3    3  502    0 -0.76548865803E+03 -0.72342019127E+02  0.35080572635E+03  0.84514645112E+03  0.12699999809E+01 0. -1.
       -4    1    3    3    0  502  0.76548865803E+03  0.72342019127E+02 -0.78433551240E+03  0.10983578935E+04  0.12699999809E+01 0.  1.
</event>
<event>
 5   0  0.1765328E-04  0.1911955E+04  0.7818609E-02  0.8648928E-01
       -2   -1    0    0    0  501  0.00000000000E+00  0.00000000000E+00  0.48088663658E+03  0.48088663658E+03  0.25500000920E-02 0.  1.
        2   -1    0    0  501    0  0.00000000000E+00  0.00000000000E+00 -0.19004342481E+04  0.19004342481E+04  0.25500000920E-02 0. -1.
    10030    2    1    2    0    0  0.00000000000E+00  0.00000000000E+00 -0.14195476115E+04  0.23813208847E+04  0.19119554740E+04 0.  0.
        3    1    3    3  502    0 -0.53931732981E+03  0.73939192556E+03 -0.10538758640E+04  0.13957857818E+04  0.10100000352E+00 0.  1.
       -3    1    3    3    0  502  0.53931732981E+03 -0.73939192556E+03 -0.36567174751E+03  0.98553510285E+03  0.10100000352E+00 0. -1.
</event>
<event>
 5   0  0.1790832E-04  0.1914757E+04  0.7818609E-02  0.8647546E-01
        2   -1    0    0  501    0  0.00000000000E+00  0.00000000000E+00  0.91958496360E+03  0.91958496360E+03  0.25500000920E-02 0.  1.
       -2   -1    0    0    0  501  0.00000000000E+00  0.00000000000E+00 -0.99672498081E+03  0.99672498081E+03  0.25500000920E-02 0. -1.
    10030    2    1    2    0    0  0.00000000000E+00  0.00000000000E+00 -0.77140017209E+02  0.19163099444E+04  0.19147567002E+04 0.  0.
        5    1    3    3  502    0 -0.46058209185E+03  0.23043652195E+03  0.76912515536E+03  0.92564164156E+03  0.46999998093E+01 0.  1.
       -5    1    3    3    0  502  0.46058209185E+03 -0.23043652195E+03 -0.84626517257E+03  0.99066830285E+03  0.46999998093E+01 0. -1.
</event>
<event>
 5   0  0.1810569E-04  0.1890606E+04  0.7818609E-02  0.8659546E-01
       -2   -1    0    0    0  501  0.00000000000E+00  0.00000000000E+00  0.90578118869E+03  0.90578118869E+03  0.25500000920E-02 0.  1.
        2   -1    0    0  501    0  0.00000000000E+00  0.00000000000E+00 -0.98654969670E+03  0.98654969670E+03  0.25500000920E-02 0. -1.
    10030    2    1    2    0    0  0.00000000000E+00  0.00000000000E+00 -0.80768508010E+02  0.18923308854E+04  0.18906064180E+04 0.  0.
        4    1    3    3  502    0  0.72780686149E+03  0.25784213752E+03 -0.58623583425E+03  0.96946349172E+03  0.12699999809E+01 0. -1.
       -4    1    3    3    0  502 -0.72780686149E+03 -0.25784213752E+03  0.50546732624E+03  0.92286739368E+03  0.12699999809E+01 0.  1.
</event>
<event>
 5   0  0.8567844E-05  0.1906645E+04  0.7818609E-02  0.8651556E-01
        1   -1    0    0  501    0  0.00000000000E+00  0.00000000000E+00  0.85828110992E+03  0.85828110994E+03  0.50400001928E-02 0.  1.
       -1   -1    0    0    0  501  0.00000000000E+00  0.00000000000E+00 -0.10588887967E+04  0.10588887967E+04  0.50400001928E-02 0. -1.
    10030    2    1    2    0    0  0.00000000000E+00  0.00000000000E+00 -0.20060768673E+03  0.19171699066E+04  0.19066454853E+04 0.  0.
        4    1    3    3  502    0  0.53001248076E+03  0.78638759057E+02 -0.89315185847E+03  0.10415465133E+04  0.12699999809E+01 0. -1.
       -4    1    3    3    0  502 -0.53001248076E+03 -0.78638759057E+02  0.69254417173E+03  0.87562339330E+03  0.12699999809E+01 0.  1.
</event>
<event>
 5   0  0.1799738E-04  0.1904860E+04  0.7818609E-02  0.8652441E-01
       -2   -1    0    0    0  501  0.00000000000E+00  0.00000000000E+00  0.30862547258E+03  0.30862547259E+03  0.25500000920E-02 0. -1.
        2   -1    0    0  501    0  0.00000000000E+00  0.00000000000E+00 -0.29392348593E+04  0.29392348593E+04  0.25500000920E-02 0.  1.
    10030    2    1    2    0    0  0.00000000000E+00  0.00000000000E+00 -0.26306093867E+04  0.32478603319E+04  0.19048598347E+04 0.  0.
        1    1    3    3  502    0  0.79706835887E+03 -0.23493441956E+03 -0.21088544638E+04  0.22666670024E+04  0.50400001928E-02 0.  1.
       -1    1    3    3    0  502 -0.79706835887E+03  0.23493441956E+03 -0.52175492289E+03  0.98119332947E+03  0.50400001928E-02 0. -1.
</event>
<event>
 5   0  0.8567844E-05  0.1862147E+04  0.7818609E-02  0.8673931E-01
       -1   -1    0    0    0  501  0.00000000000E+00  0.00000000000E+00  0.58661316263E+03  0.58661316266E+03  0.50400001928E-02 0.  1.
        1   -1    0    0  501    0  0.00000000000E+00  0.00000000000E+00 -0.14778020796E+04  0.14778020796E+04  0.50400001928E-02 0. -1.
    10030    2    1    2    0    0  0.00000000000E+00  0.00000000000E+00 -0.89118891693E+03  0.20644152422E+04  0.18621473107E+04 0.  0.
        4    1    3    3  502    0 -0.28231010609E+03  0.83085821126E+03 -0.10054404719E+03  0.88325255819E+03  0.12699999809E+01 0.  1.
       -4    1    3    3    0  502  0.28231010609E+03 -0.83085821126E+03 -0.79064486975E+03  0.11811626840E+04  0.12699999809E+01 0. -1.
</event>
<event>
 5   0  0.1810569E-04  0.1888412E+04  0.7818609E-02  0.8660646E-01
       -2   -1    0    0    0  501  0.00000000000E+00  0.00000000000E+00  0.99008407081E+03  0.99008407081E+03  0.25500000920E-02 0.  1.
        2   -1    0    0  501    0  0.00000000000E+00  0.00000000000E+00 -0.90045411064E+03  0.90045411065E+03  0.25500000920E-02 0. -1.
    10030    2    1    2    0    0  0.00000000000E+00  0.00000000000E+00  0.89629960166E+02  0.18905381815E+04  0.18884123188E+04 0.  0.
        4    1    3    3  502    0  0.35787536009E+03 -0.12538174924E+03  0.91050126630E+03  0.98631106921E+03  0.12699999809E+01 0.  1.
       -4    1    3    3    0  502 -0.35787536009E+03  0.12538174924E+03 -0.82087130613E+03  0.90422711225E+03  0.12699999809E+01 0. -1.
</event>
<event>
 5   0  0.8905646E-05  0.1883990E+04  0.7818609E-02  0.8662867E-01
       -1   -1    0    0    0  501  0.00000000000E+00  0.00000000000E+00  0.77067806458E+03  0.77067806460E+03  0.50400001928E-02 0. -1.
        1   -1    0    0  501    0  0.00000000000E+00  0.00000000000E+00 -0.11513946111E+04  0.11513946111E+04  0.50400001928E-02 0.  1.
    10030    2    1    2    0    0  0.00000000000E+00  0.00000000000E+00 -0.38071654650E+03  0.19220726757E+04  0.18839899899E+04 0.  0.
        1    1    3    3  502    0  0.82957363365E+03  0.43659376470E+03 -0.96033770804E+02  0.94235291381E+03  0.50400001928E-02 0.  1.
       -1    1    3    3    0  502 -0.82957363365E+03 -0.43659376470E+03 -0.28468277570E+03  0.97971976188E+03  0.50400001928E-02 0. -1.
</event>
<event>
 5   0  0.1790832E-04  0.1877360E+04  0.7818609E-02  0.8666208E-01
       -2   -1    0    0    0  501  0.00000000000E+00  0.00000000000E+00  0.38752547637E+03  0.38752547637E+03  0.25500000920E-02 0.  1.
        2   -1    0    0  501    0  0.00000000000E+00  0.00000000000E+00 -0.22737101207E+04  0.22737101207E+04  0.25500000920E-02 0. -1.
    10030    2    1    2    0    0  0.00000000000E+00  0.00000000000E+00 -0.18861846444E+04  0.26612355971E+04  0.18773604850E+04 0.  0.
        5    1    3    3  502    0 -0.27585696200E+03  0.86073173348E+03 -0.13021035308E+04  0.15850715679E+04  0.46999998093E+01 0. -1.
       -5    1    3    3    0  502  0.27585696200E+03 -0.86073173348E+03 -0.58408111357E+03  0.10761640292E+04  0.46999998093E+01 0.  1.
</event>
<event>
 5   0  0.1790832E-04  0.1841554E+04  0.7818609E-02  0.8684509E-01
       -2   -1    0    0    0  501  0.00000000000E+00  0.00000000000E+00  0.43260988444E+03  0.43260988445E+03  0.25500000920E-02 0. -1.
        2   -1    0    0  501    0  0.00000000000E+00  0.00000000000E+00 -0.19598027509E+04  0.19598027509E+04  0.25500000920E-02 0.  1.
    10030    2    1    2    0    0  0.00000000000E+00  0.00000000000E+00 -0.15271928665E+04  0.23924126354E+04  0.18415537371E+04 0.  0.
        5    1    3    3  502    0  0.50688154867E+03  0.38631057232E+03  0.99754692816E+02  0.64508747578E+03  0.46999998093E+01 0. -1.
       -5    1    3    3    0  502 -0.50688154867E+03 -0.38631057232E+03 -0.16269475593E+04  0.17473251596E+04  0.46999998093E+01 0.  1.
</event>
<event>
 5   0  0.1658711E-04  0.1885319E+04  0.7818609E-02  0.8662199E-01
       -2   -1    0    0    0  501  0.00000000000E+00  0.00000000000E+00  0.39910635301E+03  0.39910635302E+03  0.25500000920E-02 0. -1.
        2   -1    0    0  501    0  0.00000000000E+00  0.00000000000E+00 -0.22264923346E+04  0.22264923346E+04  0.25500000920E-02 0.  1.
    10030    2    1    2    0    0  0.00000000000E+00  0.00000000000E+00 -0.18273859816E+04  0.26255986876E+04  0.18853193212E+04 0.  0.
        2    1    3    3  502    0 -0.12384755829E+03  0.36076295583E+03 -0.21142219554E+04  0.21483534636E+04  0.25500000920E-02 0.  1.
       -2    1    3    3    0  502  0.12384755829E+03 -0.36076295583E+03  0.28683597378E+03  0.47724522403E+03  0.25500000920E-02 0. -1.
</event>
<event>
 5   0  0.1658711E-04  0.1957710E+04  0.7818609E-02  0.8626652E-01
       -2   -1    0    0    0  501  0.00000000000E+00  0.00000000000E+00  0.76715981109E+03  0.76715981109E+03  0.25500000920E-02 0.  1.
        2   -1    0    0  501    0  0.00000000000E+00  0.00000000000E+00 -0.12489669455E+04  0.12489669455E+04  0.25500000920E-02 0. -1.
    10030    2    1    2    0    0  0.00000000000E+00  0.00000000000E+00 -0.48180713440E+03  0.20161267566E+04  0.19577101378E+04 0.  0.
        2    1    3    3  502    0  0.27949399294E+03 -0.89300088578E+03  0.55056131656E+02  0.93733593323E+03  0.25500000920E-02 0.  1.
       -2    1    3    3    0  502 -0.27949399294E+03  0.89300088578E+03 -0.53686326606E+03  0.10787908233E+04  0.25500000920E-02 0. -1.
</event>
<event>
 5   0  0.1799738E-04  0.1936074E+04  0.7818609E-02  0.8637105E-01
        2   -1    0    0  501    0  0.00000000000E+00  0.00000000000E+00  0.15863281935E+04  0.15863281935E+04  0.25500000920E-02 0. -1.
       -2   -1    0    0    0  501  0.00000000000E+00  0.00000000000E+00 -0.59073255374E+03  0.59073255375E+03  0.25500000920E-02 0.  1.
    10030    2    1    2    0    0  0.00000000000E+00  0.00000000000E+00  0.99559563972E+03  0.21770607472E+04  0.19360740738E+04 0.  0.
        1    1    3    3  502    0  0.92950889919E+03 -0.26105595927E+03  0.57698089686E+03  0.11247417317E+04  0.50400001928E-02 0. -1.
       -1    1    3    3    0  502 -0.92950889919E+03  0.26105595927E+03  0.41861474286E+03  0.10523190156E+04  0.50400001928E-02 0.  1.
</event>
<event>
 5   0  0.8587082E-05  0.1881522E+04  0.7818609E-02  0.8664109E-01
        1   -1    0    0  501    0  0.00000000000E+00  0.00000000000E+00  0.12386215269E+04  0.12386215269E+04  0.50400001928E-02 0.  1.
       -1   -1    0    0    0  501  0.00000000000E+00  0.00000000000E+00 -0.71452927811E+03  0.71452927813E+03  0.50400001928E-02 0. -1.
    10030    2    1    2    0    0  0.00000000000E+00  0.00000000000E+00  0.52409224883E+03  0.19531508051E+04  0.18815220918E+04 0.  0.
        5    1    3    3  502    0 -0.80266452272E+03  0.46934704682E+03  0.11359031251E+03  0.93674000421E+03  0.46999998093E+01 0. -1.
       -5    1    3    3    0  502  0.80266452272E+03 -0.46934704682E+03  0.41050193632E+03  0.10164108009E+04  0.46999998093E+01 0.  1.
</event>
<event>
 5   0  0.8681396E-05  0.1898588E+04  0.7818609E-02  0.8655560E-01
       -1   -1    0    0    0  501  0.00000000000E+00  0.00000000000E+00  0.13196576471E+04  0.13196576471E+04  0.50400001928E-02 0.  1.
        1   -1    0    0  501    0  0.00000000000E+00  0.00000000000E+00 -0.68287321553E+03  0.68287321555E+03  0.50400001928E-02 0. -1.
    10030    2    1    2    0    0  0.00000000000E+00  0.00000000000E+00  0.63678443155E+03  0.20025308626E+04  0.18985877498E+04 0.  0.
        3    1    3    3  502    0  0.74289210645E+03 -0.52910559338E+03  0.59608832893E+03  0.10895699688E+04  0.10100000352E+00 0.  1.
       -3    1    3    3    0  502 -0.74289210645E+03  0.52910559338E+03  0.40696102621E+02  0.91296089387E+03  0.10100000352E+00 0. -1.
</event>
<event>
 5   0  0.6375750E-05  0.1892334E+04  0.7818609E-02  0.8658682E-01
        3   -1    0    0  501    0  0.00000000000E+00  0.00000000000E+00  0.10901837016E+04  0.10901837062E+04  0.10100000352E+00 0. -1.
       -3   -1    0    0    0  501  0.00000000000E+00  0.00000000000E+00 -0.82117529549E+03  0.82117530170E+03  0.10100000352E+00 0.  1.
    10030    2    1    2    0    0  0.00000000000E+00  0.00000000000E+00  0.26900840607E+03  0.19113590079E+04  0.18923339385E+04 0.  0.
        5    1    3    3  502    0 -0.95324195350E+02  0.11006286957E+03 -0.80977955057E+03  0.82277916114E+03  0.46999998093E+01 0.  1.
       -5    1    3    3    0  502  0.95324195350E+02 -0.11006286957E+03  0.10787879566E+04  0.10885798468E+04  0.46999998093E+01 0. -1.
</event>
<event>
 5   0  0.1765328E-04  0.1723876E+04  0.7818609E-02  0.8747863E-01
       -2   -1    0    0    0  501  0.00000000000E+00  0.00000000000E+00  0.41917026008E+03  0.41917026009E+03  0.25500000920E-02 0.  1.
        2   -1    0    0  501    0  0.00000000000E+00  0.00000000000E+00 -0.17723992225E+04  0.17723992225E+04  0.25500000920E-02 0. -1.
    10030    2    1    2    0    0  0.00000000000E+00  0.00000000000E+00 -0.13532289624E+04  0.21915694826E+04  0.17238759156E+04 0.  0.
        3    1    3    3  502    0 -0.52676478629E+03 -0.37178422033E+03  0.50624888702E+02  0.64673606372E+03  0.10100000352E+00 0.  1.
       -3    1    3    3    0  502  0.52676478629E+03  0.37178422033E+03 -0.14038538511E+04  0.15448334189E+04  0.10100000352E+00 0. -1.
</event>
<event>
 5   0  0.8905646E-05  0.1883529E+04  0.7818609E-02  0.8663099E-01
        1   -1    0    0  501    0  0.00000000000E+00  0.00000000000E+00  0.91346207272E+03  0.91346207273E+03  0.50400001928E-02 0. -1.
       -1   -1    0    0    0  501  0.00000000000E+00  0.00000000000E+00 -0.97094423732E+03  0.97094423733E+03  0.50400001928E-02 0.  1.
    10030    2    1    2    0    0  0.00000000000E+00  0.00000000000E+00 -0.57482164599E+02  0.18844063101E+04  0.18835293845E+04 0.  0.
        1    1    3    3  502    0  0.81184108535E+03  0.12405542457E+03  0.43239111551E+03  0.92813672108E+03  0.50400001928E-02 0. -1.
       -1    1    3    3    0  502 -0.81184108535E+03 -0.12405542457E+03 -0.48987328011E+03  0.95626958898E+03  0.50400001928E-02 0.  1.
</event>
<event>
 5   0  0.1658711E-04  0.1906273E+04  0.7818609E-02  0.8651740E-01
       -2   -1    0    0    0  501  0.00000000000E+00  0.00000000000E+00  0.50231309256E+03  0.50231309257E+03  0.25500000920E-02 0. -1.
        2   -1    0    0  501    0  0.00000000000E+00  0.00000000000E+00 -0.18085716871E+04  0.18085716871E+04  0.25500000920E-02 0.  1.
    10030    2    1    2    0    0  0.00000000000E+00  0.00000000000E+00 -0.13062585945E+04  0.23108847797E+04  0.19062730521E+04 0.  0.
        2    1    3    3  502    0 -0.39558396927E+03  0.46142457052E+03  0.23692343071E+03  0.65232815595E+03  0.25500000920E-02 0. -1.
       -2    1    3    3    0  502  0.39558396927E+03 -0.46142457052E+03 -0.15431820252E+04  0.16585566237E+04  0.25500000920E-02 0.  1.
</event>
<event>
 5   0  0.8567844E-05  0.1905434E+04  0.7818609E-02  0.8652156E-01
       -1   -1    0    0    0  501  0.00000000000E+00  0.00000000000E+00  0.11070841239E+04  0.11070841239E+04  0.50400001928E-02 0. -1.
        1   -1    0    0  501    0  0.00000000000E+00  0.00000000000E+00 -0.81987391507E+03  0.81987391508E+03  0.50400001928E-02 0.  1.
    10030    2    1    2    0    0  0.00000000000E+00  0.00000000000E+00  0.28721020886E+03  0.19269580390E+04  0.19054336987E+04 0.  0.
        4    1    3    3  502    0  0.91463944566E+03  0.25033692538E+03  0.23647872822E+03  0.97732169400E+03  0.12699999809E+01 0. -1.
       -4    1    3    3    0  502 -0.91463944566E+03 -0.25033692538E+03  0.50731480639E+02  0.94963634502E+03  0.12699999809E+01 0.  1.
</event>
<event>
 5   0  0.8905646E-05  0.1895355E+04  0.7818609E-02  0.8657172E-01
        1   -1    0    0  501    0  0.00000000000E+00  0.00000000000E+00  0.97978333670E+03  0.97978333671E+03  0.50400001928E-02 0. -1.
       -1   -1    0    0    0  501  0.00000000000E+00  0.00000000000E+00 -0.91662340243E+03  0.91662340245E+03  0.50400001928E-02 0.  1.
    10030    2    1    2    0    0  0.00000000000E+00  0.00000000000E+00  0.63159934266E+02  0.18964067392E+04  0.18953546747E+04 0.  0.
        1    1    3    3  502    0 -0.80039607831E+03 -0.50358543487E+03 -0.30584732580E+02  0.94613297072E+03  0.50400001928E-02 0. -1.
       -1    1    3    3    0  502  0.80039607831E+03  0.50358543487E+03  0.93744666846E+02  0.95027376844E+03  0.50400001928E-02 0.  1.
</event>
<event>
 5   0  0.8602017E-05  0.1897189E+04  0.7818609E-02  0.8656257E-01
        1   -1    0    0  501    0  0.00000000000E+00  0.00000000000E+00  0.10060070946E+04  0.10060070946E+04  0.50400001928E-02 0.  1.
       -1   -1    0    0    0  501  0.00000000000E+00  0.00000000000E+00 -0.89445796678E+03  0.89445796680E+03  0.50400001928E-02 0. -1.
    10030    2    1    2    0    0  0.00000000000E+00  0.00000000000E+00  0.11154912779E+03  0.19004650614E+04  0.18971885098E+04 0.  0.
        2    1    3    3  502    0 -0.84387425253E+03 -0.83976431410E+02  0.48154422910E+03  0.97522337938E+03  0.25500000920E-02 0.  1.
       -2    1    3    3    0  502  0.84387425253E+03  0.83976431410E+02 -0.36999510131E+03  0.92524168200E+03  0.25500000920E-02 0. -1.
</event>
<event>
 5   0  0.8681396E-05  0.1896097E+04  0.7818609E-02  0.8656802E-01
        1   -1    0    0  501    0  0.00000000000E+00  0.00000000000E+00  0.79746672208E+03  0.79746672210E+03  0.50400001928E-02 0.  1.
       -1   -1    0    0    0  501  0.00000000000E+00  0.00000000000E+00 -0.11270638119E+04  0.11270638119E+04  0.50400001928E-02 0. -1.
    10030    2    1    2    0    0  0.00000000000E+00  0.00000000000E+00 -0.32959708985E+03  0.19245305340E+04  0.18960969213E+04 0.  0.
        3    1    3    3  502    0 -0.77119326260E+03  0.42989388955E+03 -0.51530010094E+03  0.10222925260E+04  0.10100000352E+00 0. -1.
       -3    1    3    3    0  502  0.77119326260E+03 -0.42989388955E+03  0.18570301109E+03  0.90223800800E+03  0.10100000352E+00 0.  1.
</event>
<event>
 5   0  0.1810569E-04  0.1783383E+04  0.7818609E-02  0.8715186E-01
       -2   -1    0    0    0  501  0.00000000000E+00  0.00000000000E+00  0.38770773522E+03  0.38770773522E+03  0.25500000920E-02 0.  1.
        2   -1    0    0  501    0  0.00000000000E+00  0.00000000000E+00 -0.20508072156E+04  0.20508072157E+04  0.25500000920E-02 0. -1.
    10030    2    1    2    0    0  0.00000000000E+00  0.00000000000E+00 -0.16630994804E+04  0.24385149509E+04  0.17833831007E+04 0.  0.
        4    1    3    3  502    0 -0.63105657953E+02 -0.66026858057E+02  0.38129375919E+03  0.39208215179E+03  0.12699999809E+01 0.  1.
       -4    1    3    3    0  502  0.63105657953E+02  0.66026858057E+02 -0.20443932396E+04  0.20464327991E+04  0.12699999809E+01 0. -1.
</event>
<event>
 5   0  0.1810569E-04  0.1920615E+04  0.7818609E-02  0.8644662E-01
       -2   -1    0    0    0  501  0.00000000000E+00  0.00000000000E+00  0.88431035889E+03  0.88431035890E+03  0.25500000920E-02 0.  1.
        2   -1    0    0  501    0  0.00000000000E+00  0.00000000000E+00 -0.10428363111E+04  0.10428363111E+04  0.25500000920E-02 0. -1.
    10030    2    1    2    0    0  0.00000000000E+00  0.00000000000E+00 -0.15852595218E+03  0.19271466700E+04  0.19206154769E+04 0.  0.
        4    1    3    3  502    0  0.31226732880E+03 -0.64249100494E+03 -0.72322711183E+03  0.10165454462E+04  0.12699999809E+01 0. -1.
       -4    1    3    3    0  502 -0.31226732880E+03  0.64249100494E+03  0.56470115966E+03  0.91060122374E+03  0.12699999809E+01 0.  1.
</event>
<event>
 5   0  0.8602017E-05  0.2006679E+04  0.7818609E-02  0.8603505E-01
       -1   -1    0    0    0  501  0.00000000000E+00  0.00000000000E+00  0.62549469267E+03  0.62549469269E+03  0.50400001928E-02 0.  1.
        1   -1    0    0  501    0  0.00000000000E+00  0.00000000000E+00 -0.16094298869E+04  0.16094298869E+04  0.50400001928E-02 0. -1.
    10030    2    1    2    0    0  0.00000000000E+00  0.00000000000E+00 -0.98393519422E+03  0.22349245796E+04  0.20066787013E+04 0.  0.
        2    1    3    3  502    0  0.12398571405E+03 -0.98944817369E+03 -0.61553641306E+03  0.11718639945E+04  0.25500000920E-02 0. -1.
       -2    1    3    3    0  502 -0.12398571405E+03  0.98944817369E+03 -0.36839878117E+03  0.10630605851E+04  0.25500000920E-02 0.  1.
</event>
<event>
 5   0  0.1810569E-04  0.1908811E+04  0.7818609E-02  0.8650483E-01
       -2   -1    0    0    0  501  0.00000000000E+00  0.00000000000E+00  0.79704514403E+03  0.79704514403E+03  0.25500000920E-02 0.  1.
        2   -1    0    0  501    0  0.00000000000E+00  0.00000000000E+00 -0.11428333882E+04  0.11428333882E+04  0.25500000920E-02 0. -1.
    10030    2    1    2    0    0  0.00000000000E+00  0.00000000000E+00 -0.34578824413E+03  0.19398785322E+04  0.19088109414E+04 0.  0.
        4    1    3    3  502    0  0.45683913744E+03 -0.51554268659E+03  0.49846509032E+03  0.85026779215E+03  0.12699999809E+01 0.  1.
       -4    1    3    3    0  502 -0.45683913744E+03  0.51554268659E+03 -0.84425333445E+03  0.10896107400E+04  0.12699999809E+01 0. -1.
</event>
<event>
 5   0  0.1799738E-04  0.1901819E+04  0.7818609E-02  0.8653951E-01
        2   -1    0    0  501    0  0.00000000000E+00  0.00000000000E+00  0.97532151109E+03  0.97532151110E+03  0.25500000920E-02 0.  1.
       -2   -1    0    0    0  501  0.00000000000E+00  0.00000000000E+00 -0.92710860098E+03  0.92710860099E+03  0.25500000920E-02 0. -1.
    10030    2    1    2    0    0  0.00000000000E+00  0.00000000000E+00  0.48212910108E+02  0.19024301121E+04  0.19018190888E+04 0.  0.
        1    1    3    3  502    0  0.55424873501E+03 -0.53483218078E+03  0.58195204751E+03  0.96535242657E+03  0.50400001928E-02 0.  1.
       -1    1    3    3    0  502 -0.55424873501E+03  0.53483218078E+03 -0.53373913740E+03  0.93707768551E+03  0.50400001928E-02 0. -1.
</event>
<event>
 5   0  0.1810569E-04  0.1909863E+04  0.7818609E-02  0.8649963E-01
        2   -1    0    0  501    0  0.00000000000E+00  0.00000000000E+00  0.85521447442E+03  0.85521447442E+03  0.25500000920E-02 0. -1.
       -2   -1    0    0    0  501  0.00000000000E+00  0.00000000000E+00 -0.10662749283E+04  0.10662749283E+04  0.25500000920E-02 0.  1.
    10030    2    1    2    0    0  0.00000000000E+00  0.00000000000E+00 -0.21106045384E+03  0.19214894027E+04  0.19098625630E+04 0.  0.
        4    1    3    3  502    0  0.56858754724E+03 -0.22690763540E+03  0.63181150915E+03  0.87975352792E+03  0.12699999809E+01 0. -1.
       -4    1    3    3    0  502 -0.56858754724E+03  0.22690763540E+03 -0.84287196299E+03  0.10417358748E+04  0.12699999809E+01 0.  1.
</event>
<event>
 5   0  0.8681396E-05  0.1920693E+04  0.7818609E-02  0.8644624E-01
        1   -1    0    0  501    0  0.00000000000E+00  0.00000000000E+00  0.11134711341E+04  0.11134711341E+04  0.50400001928E-02 0.  1.
       -1   -1    0    0    0  501  0.00000000000E+00  0.00000000000E+00 -0.82827970583E+03  0.82827970584E+03  0.50400001928E-02 0. -1.
    10030    2    1    2    0    0  0.00000000000E+00  0.00000000000E+00  0.28519142831E+03  0.19417508400E+04  0.19206931493E+04 0.  0.
        3    1    3    3  502    0  0.76004230357E+03 -0.58663564885E+03  0.12091660162E+03  0.96769133636E+03  0.10100000352E+00 0. -1.
       -3    1    3    3    0  502 -0.76004230357E+03  0.58663564885E+03  0.16427482669E+03  0.97405950363E+03  0.10100000352E+00 0.  1.
</event>
<event>
 5   0  0.1790832E-04  0.1901151E+04  0.7818609E-02  0.8654284E-01
        2   -1    0    0  501    0  0.00000000000E+00  0.00000000000E+00  0.12757245877E+04  0.12757245877E+04  0.25500000920E-02 0.  1.
       -2   -1    0    0    0  501  0.00000000000E+00  0.00000000000E+00 -0.70829830057E+03  0.70829830058E+03  0.25500000920E-02 0. -1.
    10030    2    1    2    0    0  0.00000000000E+00  0.00000000000E+00  0.56742628717E+03  0.19840228883E+04  0.19011507647E+04 0.  0.
        5    1    3    3  502    0 -0.76537485010E+03  0.56352281812E+03  0.26841680494E+03  0.98763672414E+03  0.46999998093E+01 0.  1.
       -5    1    3    3    0  502  0.76537485010E+03 -0.56352281812E+03  0.29900948224E+03  0.99638616418E+03  0.46999998093E+01 0. -1.
</event>
<event>
 5   0  0.8587082E-05  0.1867672E+04  0.7818609E-02  0.8671117E-01
       -1   -1    0    0    0  501  0.00000000000E+00  0.00000000000E+00  0.14978449139E+04  0.14978449139E+04  0.50400001928E-02 0. -1.
        1   -1    0    0  501    0  0.00000000000E+00  0.00000000000E+00 -0.58220320401E+03  0.58220320403E+03  0.50400001928E-02 0.  1.
    10030    2    1    2    0    0  0.00000000000E+00  0.00000000000E+00  0.91564170989E+03  0.20800481179E+04  0.18676724638E+04 0.  0.
        5    1    3    3  502    0 -0.64901308722E+03 -0.48649904578E+03 -0.57538442308E+02  0.81316177435E+03  0.46999998093E+01 0.  1.
       -5    1    3    3    0  502  0.64901308722E+03  0.48649904578E+03  0.97318015219E+03  0.12668863436E+04  0.46999998093E+01 0. -1.
</event>
<event>
 5   0  0.8681396E-05  0.1907181E+04  0.7818609E-02  0.8651290E-01
       -1   -1    0    0    0  501  0.00000000000E+00  0.00000000000E+00  0.39124862861E+03  0.39124862864E+03  0.50400001928E-02 0.  1.
        1   -1    0    0  501    0  0.00000000000E+00  0.00000000000E+00 -0.23241869514E+04  0.23241869514E+04  0.50400001928E-02 0. -1.
    10030    2    1    2    0    0  0.00000000000E+00  0.00000000000E+00 -0.19329383227E+04  0.27154355800E+04  0.19071811213E+04 0.  0.
        3    1    3    3  502    0 -0.66511694256E+03  0.41696094237E+03 -0.19564739064E+03  0.80902094312E+03  0.10100000352E+00 0.  1.
       -3    1    3    3    0  502  0.66511694256E+03 -0.41696094237E+03 -0.17372909321E+04  0.19064146369E+04  0.10100000352E+00 0. -1.
</event>
<event>
 5   0  0.1765328E-04  0.1657313E+04  0.7818609E-02  0.8786092E-01
       -2   -1    0    0    0  501  0.00000000000E+00  0.00000000000E+00  0.42305707093E+03  0.42305707093E+03  0.25500000920E-02 0. -1.
        2   -1    0    0  501    0  0.00000000000E+00  0.00000000000E+00 -0.16231181487E+04  0.16231181487E+04  0.25500000920E-02 0.  1.
    10030    2    1    2    0    0  0.00000000000E+00  0.00000000000E+00 -0.12000610778E+04  0.20461752196E+04  0.16573130178E+04 0.  0.
        3    1    3    3  502    0 -0.36291771470E+03 -0.10376165611E+03  0.31075450874E+03  0.48892138818E+03  0.10100000352E+00 0. -1.
       -3    1    3    3    0  502  0.36291771470E+03  0.10376165611E+03 -0.15108155865E+04  0.15572538314E+04  0.10100000352E+00 0.  1.
</event>
<event>
 5   0  0.8905646E-05  0.1907085E+04  0.7818609E-02  0.8651338E-01
       -1   -1    0    0    0  501  0.00000000000E+00  0.00000000000E+00  0.57701864902E+03  0.57701864904E+03  0.50400001928E-02 0. -1.
        1   -1    0    0  501    0  0.00000000000E+00  0.00000000000E+00 -0.15757599108E+04  0.15757599108E+04  0.50400001928E-02 0.  1.
    10030    2    1    2    0    0  0.00000000000E+00  0.00000000000E+00 -0.99874126179E+03  0.21527785599E+04  0.19070845340E+04 0.  0.
        1    1    3    3  502    0 -0.36969939445E+03 -0.51986378030E+03 -0.12994148126E+04  0.14475547822E+04  0.50400001928E-02 0.  1.
       -1    1    3    3    0  502  0.36969939445E+03  0.51986378030E+03  0.30067355083E+03  0.70522377761E+03  0.50400001928E-02 0. -1.
</event>
<event>
 5   0  0.8567844E-05  0.1780897E+04  0.7818609E-02  0.8716525E-01
        1   -1    0    0  501    0  0.00000000000E+00  0.00000000000E+00  0.12284894485E+04  0.12284894485E+04  0.50400001928E-02 0. -1.
       -1   -1    0    0    0  501  0.00000000000E+00  0.00000000000E+00 -0.64542570425E+03  0.64542570427E+03  0.50400001928E-02 0.  1.
    10030    2    1    2    0    0  0.00000000000E+00  0.00000000000E+00  0.58306374421E+03  0.18739151527E+04  0.17808971531E+04 0.  0.
        4    1    3    3  502    0 -0.77172611774E+03  0.36220729184E+03  0.20918742834E+02  0.85275701683E+03  0.12699999809E+01 0.  1.
       -4    1    3    3    0  502  0.77172611774E+03 -0.36220729184E+03  0.56214500138E+03  0.10211581359E+04  0.12699999809E+01 0. -1.
</event>
<event>
 5   0  0.8587082E-05  0.1888171E+04  0.7818609E-02  0.8660767E-01
        1   -1    0    0  501    0  0.00000000000E+00  0.00000000000E+00  0.19821962336E+04  0.19821962336E+04  0.50400001928E-02 0. -1.
       -1   -1    0    0    0  501  0.00000000000E+00  0.00000000000E+00 -0.44965161194E+03  0.44965161196E+03  0.50400001928E-02 0.  1.
    10030    2    1    2    0    0  0.00000000000E+00  0.00000000000E+00  0.15325446217E+04  0.24318478456E+04  0.18881713181E+04 0.  0.
        5    1    3    3  502    0  0.45828847302E+03  0.75396527728E+03  0.11988041967E+04  0.14885044695E+04  0.46999998093E+01 0. -1.
       -5    1    3    3    0  502 -0.45828847302E+03 -0.75396527728E+03  0.33374042499E+03  0.94334337604E+03  0.46999998093E+01 0.  1.
</event>
<event>
 5   0  0.8567844E-05  0.1866491E+04  0.7818609E-02  0.8671718E-01
        1   -1    0    0  501    0  0.00000000000E+00  0.00000000000E+00  0.12992900386E+04  0.12992900386E+04  0.50400001928E-02 0. -1.
       -1   -1    0    0    0  501  0.00000000000E+00  0.00000000000E+00 -0.67032542550E+03  0.67032542552E+03  0.50400001928E-02 0.  1.
    10030    2    1    2    0    0  0.00000000000E+00  0.00000000000E+00  0.62896461309E+03  0.19696154641E+04  0.18664909836E+04 0.  0.
        4    1    3    3  502    0  0.29219475036E+03  0.35953945660E+03 -0.54040027308E+03  0.71181490644E+03  0.12699999809E+01 0.  1.
       -4    1    3    3    0  502 -0.29219475036E+03 -0.35953945660E+03  0.11693648862E+04  0.12578005577E+04  0.12699999809E+01 0. -1.
</event>
<event>
 5   0  0.8905646E-05  0.1923436E+04  0.7818609E-02  0.8643278E-01
       -1   -1    0    0    0  501  0.00000000000E+00  0.00000000000E+00  0.57936266238E+03  0.57936266240E+03  0.50400001928E-02 0. -1.
        1   -1    0    0  501    0  0.00000000000E+00  0.00000000000E+00 -0.15964117428E+04  0.15964117428E+04  0.50400001928E-02 0.  1.
    10030    2    1    2    0    0  0.00000000000E+00  0.00000000000E+00 -0.10170490804E+04  0.21757744052E+04  0.19234358399E+04 0.  0.
        1    1    3    3  502    0 -0.84241774895E+03  0.35912958474E+03 -0.84075539840E+03  0.12431859726E+04  0.50400001928E-02 0.  1.
       -1    1    3    3    0  502  0.84241774895E+03 -0.35912958474E+03 -0.17629368203E+03  0.93258843266E+03  0.50400001928E-02 0. -1.
</event>
<event>
 5   0  0.1810569E-04  0.1916619E+04  0.7818609E-02  0.8646628E-01
        2   -1    0    0  501    0  0.00000000000E+00  0.00000000000E+00  0.68638669265E+03  0.68638669265E+03  0.25500000920E-02 0. -1.
       -2   -1    0    0    0  501  0.00000000000E+00  0.00000000000E+00 -0.13379590372E+04  0.13379590372E+04  0.25500000920E-02 0.  1.
    10030    2    1    2    0    0  0.00000000000E+00  0.00000000000E+00 -0.65157234458E+03  0.20243457299E+04  0.19166191885E+04 0.  0.
        4    1    3    3  502    0 -0.26507053381E+03  0.50033110379E+01 -0.12984533362E+04  0.13252434117E+04  0.12699999809E+01 0.  1.
       -4    1    3    3    0  502  0.26507053381E+03 -0.50033110379E+01  0.64688099165E+03  0.69910231817E+03  0.12699999809E+01 0. -1.
</event>
<event>
 5   0  0.8567844E-05  0.1865634E+04  0.7818609E-02  0.8672154E-01
        1   -1    0    0  501    0  0.00000000000E+00  0.00000000000E+00  0.17307984767E+04  0.17307984767E+04  0.50400001928E-02 0.  1.
       -1   -1    0    0    0  501  0.00000000000E+00  0.00000000000E+00 -0.50274318874E+03  0.50274318877E+03  0.50400001928E-02 0. -1.
    10030    2    1    2    0    0  0.00000000000E+00  0.00000000000E+00  0.12280552880E+04  0.22335416655E+04  0.18656335602E+04 0.  0.
        4    1    3    3  502    0  0.82063929249E+03  0.32012997788E+03  0.98149963182E+03  0.13188158292E+04  0.12699999809E+01 0.  1.
       -4    1    3    3    0  502 -0.82063929249E+03 -0.32012997788E+03  0.24655565614E+03  0.91472583630E+03  0.12699999809E+01 0. -1.
</event>
<event>
 5   0  0.8905646E-05  0.1830917E+04  0.7818609E-02  0.8690029E-01
       -1   -1    0    0    0  501  0.00000000000E+00  0.00000000000E+00  0.10042015871E+04  0.10042015871E+04  0.50400001928E-02 0.  1.
        1   -1    0    0  501    0  0.00000000000E+00  0.00000000000E+00 -0.83455750889E+03  0.83455750891E+03  0.50400001928E-02 0. -1.
    10030    2    1    2    0    0  0.00000000000E+00  0.00000000000E+00  0.16964407824E+03  0.18387590961E+04  0.18309166830E+04 0.  0.
        1    1    3    3  502    0 -0.70425072865E+03 -0.54414049644E+03  0.30023087789E+03  0.93925318671E+03  0.50400001928E-02 0. -1.
       -1    1    3    3    0  502  0.70425072865E+03  0.54414049644E+03 -0.13058679965E+03  0.89950590934E+03  0.50400001928E-02 0.  1.
</event>
<event>
 5   0  0.8681396E-05  0.1880928E+04  0.7818609E-02  0.8664408E-01
       -1   -1    0    0    0  501  0.00000000000E+00  0.00000000000E+00  0.81533167426E+03  0.81533167428E+03  0.50400001928E-02 0.  1.
        1   -1    0    0  501    0  0.00000000000E+00  0.00000000000E+00 -0.10848011079E+04  0.10848011079E+04  0.50400001928E-02 0. -1.
    10030    2    1    2    0    0  0.00000000000E+00  0.00000000000E+00 -0.26946943359E+03  0.19001327821E+04  0.18809281789E+04 0.  0.
        3    1    3    3  502    0 -0.40929575671E+03  0.77518418983E+03 -0.47885795812E+03  0.99886860942E+03  0.10100000352E+00 0. -1.
       -3    1    3    3    0  502  0.40929575671E+03 -0.77518418983E+03  0.20938852453E+03  0.90126417272E+03  0.10100000352E+00 0.  1.
</event>
<event>
 5   0  0.8681396E-05  0.1901034E+04  0.7818609E-02  0.8654342E-01
        1   -1    0    0  501    0  0.00000000000E+00  0.00000000000E+00  0.83219815449E+03  0.83219815450E+03  0.50400001928E-02 0.  1.
       -1   -1    0    0    0  501  0.00000000000E+00  0.00000000000E+00 -0.10856583099E+04  0.10856583099E+04  0.50400001928E-02 0. -1.
    10030    2    1    2    0    0  0.00000000000E+00  0.00000000000E+00 -0.25346015543E+03  0.19178564644E+04  0.19010342890E+04 0.  0.
        3    1    3    3  502    0 -0.54674895899E+03  0.56251176162E+03  0.41479625562E+03  0.88736117224E+03  0.10100000352E+00 0.  1.
       -3    1    3    3    0  502  0.54674895899E+03 -0.56251176162E+03 -0.66825641105E+03  0.10304952922E+04  0.10100000352E+00 0. -1.
</event>
<event>
 5   0  0.1810569E-04  0.1865407E+04  0.7818609E-02  0.8672270E-01
        2   -1    0    0  501    0  0.00000000000E+00  0.00000000000E+00  0.21796702051E+04  0.21796702051E+04  0.25500000920E-02 0.  1.
       -2   -1    0    0    0  501  0.00000000000E+00  0.00000000000E+00 -0.39911350680E+03  0.39911350680E+03  0.25500000920E-02 0. -1.
    10030    2    1    2    0    0  0.00000000000E+00  0.00000000000E+00  0.17805566983E+04  0.25787837119E+04  0.18654070003E+04 0.  0.
        4    1    3    3  502    0 -0.97873023175E+02  0.65836093092E+03  0.17935377971E+04  0.19130597707E+04  0.12699999809E+01 0.  1.
       -4    1    3    3    0  502  0.97873023175E+02 -0.65836093092E+03 -0.12981098747E+02  0.66572394118E+03  0.12699999809E+01 0. -1.
</event>
<event>
 5   0  0.8602017E-05  0.1910929E+04  0.7818609E-02  0.8649435E-01
        1   -1    0    0  501    0  0.00000000000E+00  0.00000000000E+00  0.67883837944E+03  0.67883837946E+03  0.50400001928E-02 0. -1.
       -1   -1    0    0    0  501  0.00000000000E+00  0.00000000000E+00 -0.13448153562E+04  0.13448153562E+04  0.50400001928E-02 0.  1.
    10030    2    1    2    0    0  0.00000000000E+00  0.00000000000E+00 -0.66597697672E+03  0.20236537356E+04  0.19109288601E+04 0.  0.
        2    1    3    3  502    0  0.92911463296E+02 -0.66742201114E+03  0.38433730751E+03  0.77575759546E+03  0.25500000920E-02 0. -1.
       -2    1    3    3    0  502 -0.92911463296E+02  0.66742201114E+03 -0.10503142842E+04  0.12478961402E+04  0.25500000920E-02 0.  1.
</event>
<event>
 5   0  0.8567844E-05  0.1929054E+04  0.7818609E-02  0.8640528E-01
       -1   -1    0    0    0  501  0.00000000000E+00  0.00000000000E+00  0.53562305069E+03  0.53562305071E+03  0.50400001928E-02 0.  1.
        1   -1    0    0  501    0  0.00000000000E+00  0.00000000000E+00 -0.17368791181E+04  0.17368791181E+04  0.50400001928E-02 0. -1.
    10030    2    1    2    0    0  0.00000000000E+00  0.00000000000E+00 -0.12012560674E+04  0.22725021688E+04  0.19290541641E+04 0.  0.
        4    1    3    3  502    0  0.10586747806E+03  0.40319584593E+03 -0.16252760481E+04  0.16778851745E+04  0.12699999809E+01 0. -1.
       -4    1    3    3    0  502 -0.10586747806E+03 -0.40319584593E+03  0.42401998070E+03  0.59461699439E+03  0.12699999809E+01 0.  1.
</event>
<event>
 5   0  0.1810569E-04  0.1900573E+04  0.7818609E-02  0.8654571E-01
        2   -1    0    0  501    0  0.00000000000E+00  0.00000000000E+00  0.84142271446E+03  0.84142271446E+03  0.25500000920E-02 0.  1.
       -2   -1    0    0    0  501  0.00000000000E+00  0.00000000000E+00 -0.10732352652E+04  0.10732352652E+04  0.25500000920E-02 0. -1.
    10030    2    1    2    0    0  0.00000000000E+00  0.00000000000E+00 -0.23181255075E+03  0.19146579797E+04  0.19005731032E+04 0.  0.
        4    1    3    3  502    0 -0.86646979747E+03  0.78242866687E+02 -0.50103650948E+03  0.10039576947E+04  0.12699999809E+01 0. -1.
       -4    1    3    3    0  502  0.86646979747E+03 -0.78242866687E+02  0.26922395873E+03  0.91070028492E+03  0.12699999809E+01 0.  1.
</event>
<event>
 5   0  0.1790832E-04  0.1945791E+04  0.7818609E-02  0.8632393E-01
        2   -1    0    0  501    0  0.00000000000E+00  0.00000000000E+00  0.95732285567E+03  0.95732285567E+03  0.25500000920E-02 0. -1.
       -2   -1    0    0    0  501  0.00000000000E+00  0.00000000000E+00 -0.98872134463E+03  0.98872134463E+03  0.25500000920E-02 0.  1.
    10030    2    1    2    0    0  0.00000000000E+00  0.00000000000E+00 -0.31398488956E+02  0.19460442003E+04  0.19457908840E+04 0.  0.
        5    1    3    3  502    0 -0.33708502509E+03  0.78965961215E+03  0.44186969842E+03  0.96563944492E+03  0.46999998093E+01 0. -1.
       -5    1    3    3    0  502  0.33708502509E+03 -0.78965961215E+03 -0.47326818738E+03  0.98040475538E+03  0.46999998093E+01 0.  1.
</event>
<event>
 5   0  0.8567844E-05  0.1957668E+04  0.7818609E-02  0.8626672E-01
       -1   -1    0    0    0  501  0.00000000000E+00  0.00000000000E+00  0.29609418602E+03  0.29609418606E+03  0.50400001928E-02 0.  1.
        1   -1    0    0  501    0  0.00000000000E+00  0.00000000000E+00 -0.32358488211E+04  0.32358488211E+04  0.50400001928E-02 0. -1.
    10030    2    1    2    0    0  0.00000000000E+00  0.00000000000E+00 -0.29397546351E+04  0.35319430072E+04  0.19576680238E+04 0.  0.
        4    1    3    3  502    0  0.68683401678E+03  0.58533009280E+03 -0.21539415495E+04  0.23353411091E+04  0.12699999809E+01 0.  1.
       -4    1    3    3    0  502 -0.68683401678E+03 -0.58533009280E+03 -0.78581308556E+03  0.11966018981E+04  0.12699999809E+01 0. -1.
</event>
<event>
 5   0  0.1810569E-04  0.1897161E+04  0.7818609E-02  0.8656271E-01
       -2   -1    0    0    0  501  0.00000000000E+00  0.00000000000E+00  0.84225792449E+03  0.84225792450E+03  0.25500000920E-02 0. -1.
        2   -1    0    0  501    0  0.00000000000E+00  0.00000000000E+00 -0.10683245695E+04  0.10683245695E+04  0.25500000920E-02 0.  1.
    10030    2    1    2    0    0  0.00000000000E+00  0.00000000000E+00 -0.22606664500E+03  0.19105824940E+04  0.18971608625E+04 0.  0.
        4    1    3    3  502    0 -0.96053870944E+02  0.11518544573E+02  0.83727600446E+03  0.84284740229E+03  0.12699999809E+01 0. -1.
       -4    1    3    3    0  502  0.96053870944E+02 -0.11518544573E+02 -0.10633426495E+04  0.10677350917E+04  0.12699999809E+01 0.  1.
</event>
<event>
 5   0  0.1765328E-04  0.1915215E+04  0.7818609E-02  0.8647320E-01
       -2   -1    0    0    0  501  0.00000000000E+00  0.00000000000E+00  0.51788270000E+03  0.51788270001E+03  0.25500000920E-02 0.  1.
        2   -1    0    0  501    0  0.00000000000E+00  0.00000000000E+00 -0.17706944646E+04  0.17706944646E+04  0.25500000920E-02 0. -1.
    10030    2    1    2    0    0  0.00000000000E+00  0.00000000000E+00 -0.12528117646E+04  0.22885771646E+04  0.19152149020E+04 0.  0.
        3    1    3    3  502    0  0.36930315565E+03  0.53879971502E+03 -0.14631424847E+04  0.16023345139E+04  0.10100000352E+00 0. -1.
       -3    1    3    3    0  502 -0.36930315565E+03 -0.53879971502E+03  0.21033072008E+03  0.68624265073E+03  0.10100000352E+00 0.  1.
</event>
<event>
 5   0  0.8587082E-05  0.1897052E+04  0.7818609E-02  0.8656325E-01
        1   -1    0    0  501    0  0.00000000000E+00  0.00000000000E+00  0.10207538674E+04  0.10207538675E+04  0.50400001928E-02 0. -1.
       -1   -1    0    0    0  501  0.00000000000E+00  0.00000000000E+00 -0.88140929748E+03  0.88140929749E+03  0.50400001928E-02 0.  1.
    10030    2    1    2    0    0  0.00000000000E+00  0.00000000000E+00  0.13934456997E+03  0.19021631649E+04  0.18970523970E+04 0.  0.
        5    1    3    3  502    0  0.45864085702E+02 -0.44822203363E+03 -0.76724597016E+03  0.88977242850E+03  0.46999998093E+01 0.  1.
       -5    1    3    3    0  502 -0.45864085702E+02  0.44822203363E+03  0.90659054013E+03  0.10123907364E+04  0.46999998093E+01 0. -1.
</event>
<event>
 5   0  0.1658711E-04  0.1905462E+04  0.7818609E-02  0.8652142E-01
        2   -1    0    0  501    0  0.00000000000E+00  0.00000000000E+00  0.12551332440E+04  0.12551332441E+04  0.25500000920E-02 0.  1.
       -2   -1    0    0    0  501  0.00000000000E+00  0.00000000000E+00 -0.72318722158E+03  0.72318722158E+03  0.25500000920E-02 0. -1.
    10030    2    1    2    0    0  0.00000000000E+00  0.00000000000E+00  0.53194602247E+03  0.19783204656E+04  0.19054619634E+04 0.  0.
        2    1    3    3  502    0  0.69809564555E+02 -0.29584913652E+02 -0.72004996072E+03  0.72403079241E+03  0.25500000920E-02 0. -1.
       -2    1    3    3    0  502 -0.69809564555E+02  0.29584913652E+02  0.12519959832E+04  0.12542896732E+04  0.25500000920E-02 0.  1.
</event>
<event>
 5   0  0.8587082E-05  0.1876008E+04  0.7818609E-02  0.8666892E-01
       -1   -1    0    0    0  501  0.00000000000E+00  0.00000000000E+00  0.63724557852E+03  0.63724557854E+03  0.50400001928E-02 0. -1.
        1   -1    0    0  501    0  0.00000000000E+00  0.00000000000E+00 -0.13807109292E+04  0.13807109292E+04  0.50400001928E-02 0.  1.
    10030    2    1    2    0    0  0.00000000000E+00  0.00000000000E+00 -0.74346535066E+03  0.20179565077E+04  0.18760084593E+04 0.  0.
        5    1    3    3  502    0  0.32395308423E+03  0.72914177280E+03 -0.90224001817E+03  0.12044303492E+04  0.46999998093E+01 0.  1.
       -5    1    3    3    0  502 -0.32395308423E+03 -0.72914177280E+03  0.15877466751E+03  0.81352615856E+03  0.46999998093E+01 0. -1.
</event>
<event>
 5   0  0.1658711E-04  0.2011916E+04  0.7818609E-02  0.8601070E-01
        2   -1    0    0  501    0  0.00000000000E+00  0.00000000000E+00  0.14804254087E+04  0.14804254087E+04  0.25500000920E-02 0. -1.
       -2   -1    0    0    0  501  0.00000000000E+00  0.00000000000E+00 -0.68355422223E+03  0.68355422223E+03  0.25500000920E-02 0.  1.
    10030    2    1    2    0    0  0.00000000000E+00  0.00000000000E+00  0.79687118651E+03  0.21639796310E+04  0.20119155438E+04 0.  0.
        2    1    3    3  502    0  0.56788101088E+03  0.55747902682E+03 -0.26344435331E+03  0.83825690284E+03  0.25500000920E-02 0.  1.
       -2    1    3    3    0  502 -0.56788101088E+03 -0.55747902682E+03  0.10603155398E+04  0.13257227281E+04  0.25500000920E-02 0. -1.
</event>
<event>
 5   0  0.8681396E-05  0.1890233E+04  0.7818609E-02  0.8659734E-01
        1   -1    0    0  501    0  0.00000000000E+00  0.00000000000E+00  0.16910696866E+04  0.16910696866E+04  0.50400001928E-02 0. -1.
       -1   -1    0    0    0  501  0.00000000000E+00  0.00000000000E+00 -0.52821289665E+03  0.52821289667E+03  0.50400001928E-02 0.  1.
    10030    2    1    2    0    0  0.00000000000E+00  0.00000000000E+00  0.11628567899E+04  0.22192825832E+04  0.18902325969E+04 0.  0.
        3    1    3    3  502    0  0.32684763919E+03  0.22948189145E+03  0.15871376493E+04  0.16366115134E+04  0.10100000352E+00 0. -1.
       -3    1    3    3    0  502 -0.32684763919E+03 -0.22948189145E+03 -0.42428085941E+03  0.58267106982E+03  0.10100000352E+00 0.  1.
</event>
<event>
 5   0  0.1765328E-04  0.1894200E+04  0.7818609E-02  0.8657749E-01
       -2   -1    0    0    0  501  0.00000000000E+00  0.00000000000E+00  0.84700355772E+03  0.84700355772E+03  0.25500000920E-02 0. -1.
        2   -1    0    0  501    0  0.00000000000E+00  0.00000000000E+00 -0.10590258916E+04  0.10590258916E+04  0.25500000920E-02 0.  1.
    10030    2    1    2    0    0  0.00000000000E+00  0.00000000000E+00 -0.21202233392E+03  0.19060294494E+04  0.18942003040E+04 0.  0.
        3    1    3    3  502    0 -0.63944584856E+03  0.13764684056E+03  0.58321963104E+03  0.87634627528E+03  0.10100000352E+00 0. -1.
       -3    1    3    3    0  502  0.63944584856E+03 -0.13764684056E+03 -0.79524196496E+03  0.10296831741E+04  0.10100000352E+00 0.  1.
</event>
<event>
 5   0  0.8602017E-05  0.1960347E+04  0.7818609E-02  0.8625387E-01
       -1   -1    0    0    0  501  0.00000000000E+00  0.00000000000E+00  0.12128345964E+04  0.12128345964E+04  0.50400001928E-02 0.  1.
        1   -1    0    0  501    0  0.00000000000E+00  0.00000000000E+00 -0.79214426350E+03  0.79214426352E+03  0.50400001928E-02 0. -1.
    10030    2    1    2    0    0  0.00000000000E+00  0.00000000000E+00  0.42069033290E+03  0.20049788599E+04  0.19603468756E+04 0.  0.
        2    1    3    3  502    0  0.40094113791E+03 -0.65760795521E+02  0.11226523551E+04  0.11939123036E+04  0.25500000920E-02 0.  1.
       -2    1    3    3    0  502 -0.40094113791E+03  0.65760795521E+02 -0.70196202215E+03  0.81106655636E+03  0.25500000920E-02 0. -1.
</event>
<event>
 5   0  0.8905646E-05  0.1904645E+04  0.7818609E-02  0.8652548E-01
        1   -1    0    0  501    0  0.00000000000E+00  0.00000000000E+00  0.12243861223E+04  0.12243861223E+04  0.50400001928E-02 0. -1.
       -1   -1    0    0    0  501  0.00000000000E+00  0.00000000000E+00 -0.74071274786E+03  0.74071274787E+03  0.50400001928E-02 0.  1.
    10030    2    1    2    0    0  0.00000000000E+00  0.00000000000E+00  0.48367337447E+03  0.19650988702E+04  0.19046452784E+04 0.  0.
        1    1    3    3  502    0 -0.81340693629E+03 -0.37924327190E+03 -0.86804686601E+02  0.90166033345E+03  0.50400001928E-02 0.  1.
       -1    1    3    3    0  502  0.81340693629E+03  0.37924327190E+03  0.57047806107E+03  0.10634385368E+04  0.50400001928E-02 0. -1.
</event>
<event>
 5   0  0.1658711E-04  0.1918723E+04  0.7818609E-02  0.8645592E-01
        2   -1    0    0  501    0  0.00000000000E+00  0.00000000000E+00  0.14245413451E+04  0.14245413451E+04  0.25500000920E-02 0. -1.
       -2   -1    0    0    0  501  0.00000000000E+00  0.00000000000E+00 -0.64608481833E+03  0.64608481834E+03  0.25500000920E-02 0.  1.
    10030    2    1    2    0    0  0.00000000000E+00  0.00000000000E+00  0.77845652677E+03  0.20706261634E+04  0.19187230505E+04 0.  0.
        2    1    3    3  502    0 -0.83331724837E+03 -0.16533485776E+03 -0.91724359390E+02  0.85449786994E+03  0.25500000920E-02 0.  1.
       -2    1    3    3    0  502  0.83331724837E+03  0.16533485776E+03  0.87018088616E+03  0.12161282935E+04  0.25500000920E-02 0. -1.
</event>
<event>
 5   0  0.8681396E-05  0.1887890E+04  0.7818609E-02  0.8660908E-01
       -1   -1    0    0    0  501  0.00000000000E+00  0.00000000000E+00  0.13661969465E+04  0.13661969465E+04  0.50400001928E-02 0.  1.
        1   -1    0    0  501    0  0.00000000000E+00  0.00000000000E+00 -0.65219885813E+03  0.65219885815E+03  0.50400001928E-02 0. -1.
    10030    2    1    2    0    0  0.00000000000E+00  0.00000000000E+00  0.71399808834E+03  0.20183958046E+04  0.18878899211E+04 0.  0.
        3    1    3    3  502    0 -0.66559952388E+03 -0.66562429367E+03  0.43224660118E+03  0.10358163741E+04  0.10100000352E+00 0.  1.
       -3    1    3    3    0  502  0.66559952388E+03  0.66562429367E+03  0.28175148716E+03  0.98257943049E+03  0.10100000352E+00 0. -1.
</event>
<event>
 5   0  0.1810569E-04  0.1894264E+04  0.7818609E-02  0.8657717E-01
       -2   -1    0    0    0  501  0.00000000000E+00  0.00000000000E+00  0.52167990342E+03  0.52167990343E+03  0.25500000920E-02 0. -1.
        2   -1    0    0  501    0  0.00000000000E+00  0.00000000000E+00 -0.17195589570E+04  0.17195589570E+04  0.25500000920E-02 0.  1.
    10030    2    1    2    0    0  0.00000000000E+00  0.00000000000E+00 -0.11978790536E+04  0.22412388605E+04  0.18942643434E+04 0.  0.
        4    1    3    3  502    0 -0.15929358298E+02  0.40617542231E+03 -0.16111045708E+04  0.16615931419E+04  0.12699999809E+01 0.  1.
       -4    1    3    3    0  502  0.15929358298E+02 -0.40617542231E+03  0.41322551718E+03  0.57964571861E+03  0.12699999809E+01 0. -1.
</event>
<event>
 5   0  0.1765328E-04  0.1850982E+04  0.7818609E-02  0.8679648E-01
       -2   -1    0    0    0  501  0.00000000000E+00  0.00000000000E+00  0.65059069785E+03  0.65059069785E+03  0.25500000920E-02 0. -1.
        2   -1    0    0  501    0  0.00000000000E+00  0.00000000000E+00 -0.13165478001E+04  0.13165478001E+04  0.25500000920E-02 0.  1.
    10030    2    1    2    0    0  0.00000000000E+00  0.00000000000E+00 -0.66595710228E+03  0.19671384980E+04  0.18509821739E+04 0.  0.
        3    1    3    3  502    0  0.46723784753E+03  0.15656462990E+02  0.51588004788E+03  0.69619578066E+03  0.10100000352E+00 0. -1.
       -3    1    3    3    0  502 -0.46723784753E+03 -0.15656462990E+02 -0.11818371502E+04  0.12709427173E+04  0.10100000352E+00 0.  1.
</event>
<event>
 5   0  0.1790832E-04  0.1858910E+04  0.7818609E-02  0.8675584E-01
        2   -1    0    0  501    0  0.00000000000E+00  0.00000000000E+00  0.19820919732E+04  0.19820919732E+04  0.25500000920E-02 0. -1.
       -2   -1    0    0    0  501  0.00000000000E+00  0.00000000000E+00 -0.43584579531E+03  0.43584579532E+03  0.25500000920E-02 0.  1.
    10030    2    1    2    0    0  0.00000000000E+00  0.00000000000E+00  0.15462461779E+04  0.24179377685E+04  0.18589098445E+04 0.  0.
        5    1    3    3  502    0 -0.92094559331E+03  0.74419463999E+02  0.90439570212E+03  0.12929163617E+04  0.46999998093E+01 0.  1.
       -5    1    3    3    0  502  0.92094559331E+03 -0.74419463999E+02  0.64185047576E+03  0.11250214068E+04  0.46999998093E+01 0. -1.
</event>
<event>
 5   0  0.8567844E-05  0.1838837E+04  0.7818609E-02  0.8685915E-01
        1   -1    0    0  501    0  0.00000000000E+00  0.00000000000E+00  0.21242171148E+04  0.21242171148E+04  0.50400001928E-02 0.  1.
       -1   -1    0    0    0  501  0.00000000000E+00  0.00000000000E+00 -0.39794900182E+03  0.39794900186E+03  0.50400001928E-02 0. -1.
    10030    2    1    2    0    0  0.00000000000E+00  0.00000000000E+00  0.17262681130E+04  0.25221661167E+04  0.18388366763E+04 0.  0.
        4    1    3    3  502    0  0.25580166476E+03 -0.82960408609E+03  0.12783740921E+04  0.15452894109E+04  0.12699999809E+01 0. -1.
       -4    1    3    3    0  502 -0.25580166476E+03  0.82960408609E+03  0.44789402090E+03  0.97687670573E+03  0.12699999809E+01 0.  1.
</event>
<event>
 5   0  0.8681396E-05  0.1978596E+04  0.7818609E-02  0.8616694E-01
       -1   -1    0    0    0  501  0.00000000000E+00  0.00000000000E+00  0.64502633768E+03  0.64502633770E+03  0.50400001928E-02 0. -1.
        1   -1    0    0  501    0  0.00000000000E+00  0.00000000000E+00 -0.15173180128E+04  0.15173180128E+04  0.50400001928E-02 0.  1.
    10030    2    1    2    0    0  0.00000000000E+00  0.00000000000E+00 -0.87229167508E+03  0.21623443505E+04  0.19785955432E+04 0.  0.
        3    1    3    3  502    0  0.88670101825E+03 -0.19743885192E+03 -0.79850935714E+01  0.90845174221E+03  0.10100000352E+00 0. -1.
       -3    1    3    3    0  502 -0.88670101825E+03  0.19743885192E+03 -0.86430658150E+03  0.12538926083E+04  0.10100000352E+00 0.  1.
</event>
<event>
 5   0  0.8587082E-05  0.1903469E+04  0.7818609E-02  0.8653132E-01
        1   -1    0    0  501    0  0.00000000000E+00  0.00000000000E+00  0.76566544059E+03  0.76566544060E+03  0.50400001928E-02 0. -1.
       -1   -1    0    0    0  501  0.00000000000E+00  0.00000000000E+00 -0.11830208366E+04  0.11830208366E+04  0.50400001928E-02 0.  1.
    10030    2    1    2    0    0  0.00000000000E+00  0.00000000000E+00 -0.41735539600E+03  0.19486862772E+04  0.19034685919E+04 0.  0.
        5    1    3    3  502    0 -0.35379902933E+03 -0.73002630589E+03  0.30080282114E+03  0.86522632164E+03  0.46999998093E+01 0. -1.
       -5    1    3    3    0  502  0.35379902933E+03  0.73002630589E+03 -0.71815821714E+03  0.10834599556E+04  0.46999998093E+01 0.  1.
</event>
<event>
 5   0  0.1658711E-04  0.2153638E+04  0.7818609E-02  0.8537977E-01
       -2   -1    0    0    0  501  0.00000000000E+00  0.00000000000E+00  0.11966344365E+04  0.11966344365E+04  0.25500000920E-02 0. -1.
        2   -1    0    0  501    0  0.00000000000E+00  0.00000000000E+00 -0.96900039376E+03  0.96900039376E+03  0.25500000920E-02 0.  1.
    10030    2    1    2    0    0  0.00000000000E+00  0.00000000000E+00  0.22763404270E+03  0.21656348302E+04  0.21536380755E+04 0.  0.
        2    1    3    3  502    0 -0.64244993366E+03 -0.68344083973E+03 -0.41800137078E+03  0.10269169609E+04  0.25500000920E-02 0.  1.
       -2    1    3    3    0  502  0.64244993366E+03  0.68344083973E+03  0.64563541348E+03  0.11387178693E+04  0.25500000920E-02 0. -1.
</event>
<event>
 5   0  0.1799738E-04  0.1886144E+04  0.7818609E-02  0.8661784E-01
       -2   -1    0    0    0  501  0.00000000000E+00  0.00000000000E+00  0.79997903799E+03  0.79997903800E+03  0.25500000920E-02 0. -1.
        2   -1    0    0  501    0  0.00000000000E+00  0.00000000000E+00 -0.11117607064E+04  0.11117607064E+04  0.25500000920E-02 0.  1.
    10030    2    1    2    0    0  0.00000000000E+00  0.00000000000E+00 -0.31178166844E+03  0.19117397444E+04  0.18861444912E+04 0.  0.
        1    1    3    3  502    0  0.96550552344E+01  0.69500459394E+03  0.49014438051E+03  0.85050932944E+03  0.50400001928E-02 0. -1.
       -1    1    3    3    0  502 -0.96550552344E+01 -0.69500459394E+03 -0.80192604895E+03  0.10612304150E+04  0.50400001928E-02 0.  1.
</event>
<event>
 5   0  0.1790832E-04  0.1900560E+04  0.7818609E-02  0.8654578E-01
        2   -1    0    0  501    0  0.00000000000E+00  0.00000000000E+00  0.13429770246E+04  0.13429770246E+04  0.25500000920E-02 0. -1.
       -2   -1    0    0    0  501  0.00000000000E+00  0.00000000000E+00 -0.67241037809E+03  0.67241037809E+03  0.25500000920E-02 0.  1.
    10030    2    1    2    0    0  0.00000000000E+00  0.00000000000E+00  0.67056664647E+03  0.20153874027E+04  0.19005595901E+04 0.  0.
        5    1    3    3  502    0 -0.70759696836E+03 -0.28018869767E+03  0.93870715814E+03  0.12084669605E+04  0.46999998093E+01 0. -1.
       -5    1    3    3    0  502  0.70759696836E+03  0.28018869767E+03 -0.26814051167E+03  0.80692044213E+03  0.46999998093E+01 0.  1.
</event>
<event>
 5   0  0.1810569E-04  0.1893959E+04  0.7818609E-02  0.8657869E-01
        2   -1    0    0  501    0  0.00000000000E+00  0.00000000000E+00  0.20760347666E+04  0.20760347666E+04  0.25500000920E-02 0.  1.
       -2   -1    0    0    0  501  0.00000000000E+00  0.00000000000E+00 -0.43196291657E+03  0.43196291658E+03  0.25500000920E-02 0. -1.
    10030    2    1    2    0    0  0.00000000000E+00  0.00000000000E+00  0.16440718501E+04  0.25079976832E+04  0.18939588514E+04 0.  0.
        4    1    3    3  502    0 -0.33102155607E+03  0.18030479713E+03 -0.32833784355E+03  0.49989243129E+03  0.12699999809E+01 0. -1.
       -4    1    3    3    0  502  0.33102155607E+03 -0.18030479713E+03  0.19724096936E+04  0.20081052519E+04  0.12699999809E+01 0.  1.
</event>
<event>
 5   0  0.1658711E-04  0.1898616E+04  0.7818609E-02  0.8655546E-01
        2   -1    0    0  501    0  0.00000000000E+00  0.00000000000E+00  0.18948049728E+04  0.18948049728E+04  0.25500000920E-02 0. -1.
       -2   -1    0    0    0  501  0.00000000000E+00  0.00000000000E+00 -0.47560867528E+03  0.47560867529E+03  0.25500000920E-02 0.  1.
    10030    2    1    2    0    0  0.00000000000E+00  0.00000000000E+00  0.14191962975E+04  0.23704136481E+04  0.18986160044E+04 0.  0.
        2    1    3    3  502    0  0.48274145346E+03 -0.81270769728E+03  0.60038103798E+03  0.11198171739E+04  0.25500000920E-02 0.  1.
       -2    1    3    3    0  502 -0.48274145346E+03  0.81270769728E+03  0.81881525956E+03  0.12505964742E+04  0.25500000920E-02 0. -1.
</event>
<event>
 5   0  0.1790832E-04  0.1862556E+04  0.7818609E-02  0.8673723E-01
        2   -1    0    0  501    0  0.00000000000E+00  0.00000000000E+00  0.70675073663E+03  0.70675073664E+03  0.25500000920E-02 0.  1.
       -2   -1    0    0    0  501  0.00000000000E+00  0.00000000000E+00 -0.12271348734E+04  0.12271348734E+04  0.25500000920E-02 0. -1.
    10030    2    1    2    0    0  0.00000000000E+00  0.00000000000E+00 -0.52038413675E+03  0.19338856100E+04  0.18625557449E+04 0.  0.
        5    1    3    3  502    0  0.11467773359E+03 -0.76493773396E+03  0.27829837237E+03  0.82204184412E+03  0.46999998093E+01 0.  1.
       -5    1    3    3    0  502 -0.11467773359E+03  0.76493773396E+03 -0.79868250912E+03  0.11118437659E+04  0.46999998093E+01 0. -1.
</event>
<event>
 5   0  0.1790832E-04  0.1926876E+04  0.7818609E-02  0.8641593E-01
        2   -1    0    0  501    0  0.00000000000E+00  0.00000000000E+00  0.68595641618E+03  0.68595641618E+03  0.25500000920E-02 0. -1.
       -2   -1    0    0    0  501  0.00000000000E+00  0.00000000000E+00 -0.13531662503E+04  0.13531662503E+04  0.25500000920E-02 0.  1.
    10030    2    1    2    0    0  0.00000000000E+00  0.00000000000E+00 -0.66720983413E+03  0.20391226665E+04  0.19268763028E+04 0.  0.
        5    1    3    3  502    0  0.52235904048E+02  0.68508070459E+03  0.38110913547E+03  0.78570377662E+03  0.46999998093E+01 0. -1.
       -5    1    3    3    0  502 -0.52235904048E+02 -0.68508070459E+03 -0.10483189696E+04  0.12534188899E+04  0.46999998093E+01 0.  1.
</event>
<event>
 5   0  0.8602017E-05  0.1904788E+04  0.7818609E-02  0.8652477E-01
       -1   -1    0    0    0  501  0.00000000000E+00  0.00000000000E+00  0.72338222481E+03  0.72338222483E+03  0.50400001928E-02 0. -1.
        1   -1    0    0  501    0  0.00000000000E+00  0.00000000000E+00 -0.12539072971E+04  0.12539072971E+04  0.50400001928E-02 0.  1.
    10030    2    1    2    0    0  0.00000000000E+00  0.00000000000E+00 -0.53052507226E+03  0.19772895219E+04  0.19047879150E+04 0.  0.
        2    1    3    3  502    0  0.12260846092E+03  0.90261041664E+03 -0.55390346217E+03  0.10660897919E+04  0.25500000920E-02 0.  1.
       -2    1    3    3    0  502 -0.12260846092E+03 -0.90261041664E+03  0.23378389910E+02  0.91119973005E+03  0.25500000920E-02 0. -1.
</event>
<event>
 5   0  0.8602017E-05  0.1882425E+04  0.7818609E-02  0.8663654E-01
        1   -1    0    0  501    0  0.00000000000E+00  0.00000000000E+00  0.10727988918E+04  0.10727988918E+04  0.50400001928E-02 0.  1.
       -1   -1    0    0    0  501  0.00000000000E+00  0.00000000000E+00 -0.82576588781E+03  0.82576588782E+03  0.50400001928E-02 0. -1.
    10030    2    1    2    0    0  0.00000000000E+00  0.00000000000E+00  0.24703300398E+03  0.18985647796E+04  0.18824247441E+04 0.  0.
        2    1    3    3  502    0 -0.46740490092E+03  0.67575496759E+03 -0.33951524055E+03  0.88903471034E+03  0.25500000920E-02 0. -1.
       -2    1    3    3    0  502  0.46740490092E+03 -0.67575496759E+03  0.58654824453E+03  0.10095300693E+04  0.25500000920E-02 0.  1.
</event>
<event>
 5   0  0.6375750E-05  0.1900552E+04  0.7818609E-02  0.8654582E-01
        4   -1    0    0  501    0  0.00000000000E+00  0.00000000000E+00  0.16212066788E+04  0.16212071763E+04  0.12699999809E+01 0. -1.
       -4   -1    0    0    0  501  0.00000000000E+00  0.00000000000E+00 -0.55700627877E+03  0.55700772660E+03  0.12699999809E+01 0.  1.
    10030    2    1    2    0    0  0.00000000000E+00  0.00000000000E+00  0.10642004001E+04  0.21782149029E+04  0.19005519387E+04 0.  0.
        5    1    3    3  502    0 -0.54854158957E+03  0.60152260893E+03  0.10938918482E+04  0.13635794036E+04  0.46999998093E+01 0. -1.
       -5    1    3    3    0  502  0.54854158957E+03 -0.60152260893E+03 -0.29691448085E+02  0.81463549925E+03  0.46999998093E+01 0.  1.
</event>
<event>
 5   0  0.8587082E-05  0.1902128E+04  0.7818609E-02  0.8653798E-01
        1   -1    0    0  501    0  0.00000000000E+00  0.00000000000E+00  0.12363687825E+04  0.12363687825E+04  0.50400001928E-02 0. -1.
       -1   -1    0    0    0  501  0.00000000000E+00  0.00000000000E+00 -0.73159618511E+03  0.73159618512E+03  0.50400001928E-02 0.  1.
    10030    2    1    2    0    0  0.00000000000E+00  0.00000000000E+00  0.50477259735E+03  0.19679649676E+04  0.19021279501E+04 0.  0.
        5    1    3    3  502    0  0.11074341009E+03  0.94005299467E+03  0.15679316694E+03  0.95946335150E+03  0.46999998093E+01 0.  1.
       -5    1    3    3    0  502 -0.11074341009E+03 -0.94005299467E+03  0.34797943041E+03  0.10085016161E+04  0.46999998093E+01 0. -1.
</event>
<event>
 5   0  0.1765328E-04  0.1851082E+04  0.7818609E-02  0.8679597E-01
       -2   -1    0    0    0  501  0.00000000000E+00  0.00000000000E+00  0.91077585079E+03  0.91077585079E+03  0.25500000920E-02 0. -1.
        2   -1    0    0  501    0  0.00000000000E+00  0.00000000000E+00 -0.94054502326E+03  0.94054502326E+03  0.25500000920E-02 0.  1.
    10030    2    1    2    0    0  0.00000000000E+00  0.00000000000E+00 -0.29769172472E+02  0.18513208741E+04  0.18510815150E+04 0.  0.
        3    1    3    3  502    0 -0.29421386913E+02 -0.49913257814E+03  0.76407858886E+03  0.91313473744E+03  0.10100000352E+00 0. -1.
       -3    1    3    3    0  502  0.29421386913E+02  0.49913257814E+03 -0.79384776133E+03  0.93818613662E+03  0.10100000352E+00 0.  1.
</event>
<event>
 5   0  0.8905646E-05  0.1903345E+04  0.7818609E-02  0.8653193E-01
       -1   -1    0    0    0  501  0.00000000000E+00  0.00000000000E+00  0.73180565754E+03  0.73180565756E+03  0.50400001928E-02 0. -1.
        1   -1    0    0  501    0  0.00000000000E+00  0.00000000000E+00 -0.12375965434E+04  0.12375965434E+04  0.50400001928E-02 0.  1.
    10030    2    1    2    0    0  0.00000000000E+00  0.00000000000E+00 -0.50579088582E+03  0.19694022009E+04  0.19033445849E+04 0.  0.
        1    1    3    3  502    0  0.12586349551E+03 -0.43563694981E+03 -0.11186291236E+04  0.12070427862E+04  0.50400001928E-02 0.  1.
       -1    1    3    3    0  502 -0.12586349551E+03  0.43563694981E+03  0.61283823777E+03  0.76235941474E+03  0.50400001928E-02 0. -1.
</event>
<event>
 5   0  0.8602017E-05  0.1893243E+04  0.7818609E-02  0.8658227E-01
        1   -1    0    0  501    0  0.00000000000E+00  0.00000000000E+00  0.11419507488E+04  0.11419507488E+04  0.50400001928E-02 0.  1.
       -1   -1    0    0    0  501  0.00000000000E+00  0.00000000000E+00 -0.78470325905E+03  0.78470325906E+03  0.50400001928E-02 0. -1.
    10030    2    1    2    0    0  0.00000000000E+00  0.00000000000E+00  0.35724748979E+03  0.19266540079E+04  0.18932432219E+04 0.  0.
        2    1    3    3  502    0  0.69172474659E+03 -0.54683913915E+03 -0.17180221880E+03  0.89834969336E+03  0.25500000920E-02 0.  1.
       -2    1    3    3    0  502 -0.69172474659E+03  0.54683913915E+03  0.52904970860E+03  0.10283043146E+04  0.25500000920E-02 0. -1.
</event>
<event>
 5   0  0.8587082E-05  0.1901641E+04  0.7818609E-02  0.8654040E-01
       -1   -1    0    0    0  501  0.00000000000E+00  0.00000000000E+00  0.71255664414E+03  0.71255664415E+03  0.50400001928E-02 0.  1.
        1   -1    0    0  501    0  0.00000000000E+00  0.00000000000E+00 -0.12687545694E+04  0.12687545694E+04  0.50400001928E-02 0. -1.
    10030    2    1    2    0    0  0.00000000000E+00  0.00000000000E+00 -0.55619792527E+03  0.19813112136E+04  0.19016408686E+04 0.  0.
        5    1    3    3  502    0 -0.75338913004E+03 -0.20161590079E+03  0.28855552017E+03  0.83158314733E+03  0.46999998093E+01 0.  1.
       -5    1    3    3    0  502  0.75338913004E+03  0.20161590079E+03 -0.84475344544E+03  0.11497280662E+04  0.46999998093E+01 0. -1.
</event>
<event>
 5   0  0.1658711E-04  0.1876443E+04  0.7818609E-02  0.8666672E-01
       -2   -1    0    0    0  501  0.00000000000E+00  0.00000000000E+00  0.91291276540E+03  0.91291276540E+03  0.25500000920E-02 0. -1.
        2   -1    0    0  501    0  0.00000000000E+00  0.00000000000E+00 -0.96423202121E+03  0.96423202121E+03  0.25500000920E-02 0.  1.
    10030    2    1    2    0    0  0.00000000000E+00  0.00000000000E+00 -0.51319255812E+02  0.18771447866E+04  0.18764431470E+04 0.  0.
        2    1    3    3  502    0  0.59766010519E+03  0.19080673576E+03 -0.72352703457E+03  0.95765138829E+03  0.25500000920E-02 0.  1.
       -2    1    3    3    0  502 -0.59766010519E+03 -0.19080673576E+03  0.67220777875E+03  0.91949339833E+03  0.25500000920E-02 0. -1.
</event>
<event>
 5   0  0.1810569E-04  0.1655170E+04  0.7818609E-02  0.8787354E-01
        2   -1    0    0  501    0  0.00000000000E+00  0.00000000000E+00  0.13941677689E+04  0.13941677689E+04  0.25500000920E-02 0. -1.
       -2   -1    0    0    0  501  0.00000000000E+00  0.00000000000E+00 -0.49125871351E+03  0.49125871352E+03  0.25500000920E-02 0.  1.
    10030    2    1    2    0    0  0.00000000000E+00  0.00000000000E+00  0.90290905539E+03  0.18854264824E+04  0.16551701599E+04 0.  0.
        4    1    3    3  502    0 -0.26666658028E+03 -0.26291316622E+03  0.12921333665E+04  0.13453046672E+04  0.12699999809E+01 0. -1.
       -4    1    3    3    0  502  0.26666658028E+03  0.26291316622E+03 -0.38922431108E+03  0.54012181520E+03  0.12699999809E+01 0.  1.
</event>
<event>
 5   0  0.8681396E-05  0.1864435E+04  0.7818609E-02  0.8672765E-01
       -1   -1    0    0    0  501  0.00000000000E+00  0.00000000000E+00  0.69866818556E+03  0.69866818558E+03  0.50400001928E-02 0. -1.
        1   -1    0    0  501    0  0.00000000000E+00  0.00000000000E+00 -0.12438372363E+04  0.12438372363E+04  0.50400001928E-02 0.  1.
    10030    2    1    2    0    0  0.00000000000E+00  0.00000000000E+00 -0.54516905075E+03  0.19425054219E+04  0.18644350405E+04 0.  0.
        3    1    3    3  502    0  0.87359546472E+03  0.98628335445E+02  0.50451552238E+02  0.88059182023E+03  0.10100000352E+00 0. -1.
       -3    1    3    3    0  502 -0.87359546472E+03 -0.98628335445E+02 -0.59562060299E+03  0.10619136017E+04  0.10100000352E+00 0.  1.
</event>
<event>
 5   0  0.1658711E-04  0.1919801E+04  0.7818609E-02  0.8645062E-01
        2   -1    0    0  501    0  0.00000000000E+00  0.00000000000E+00  0.79779349526E+03  0.79779349527E+03  0.25500000920E-02 0. -1.
       -2   -1    0    0    0  501  0.00000000000E+00  0.00000000000E+00 -0.11549466933E+04  0.11549466933E+04  0.25500000920E-02 0.  1.
    10030    2    1    2    0    0  0.00000000000E+00  0.00000000000E+00 -0.35715319806E+03  0.19527401886E+04  0.19198009890E+04 0.  0.
        2    1    3    3  502    0  0.10235319708E+03 -0.83542790175E+03  0.29085348885E+03  0.89051204819E+03  0.25500000920E-02 0. -1.
       -2    1    3    3    0  502 -0.10235319708E+03  0.83542790175E+03 -0.64800668692E+03  0.10622281404E+04  0.25500000920E-02 0.  1.
</event>
<event>
 5   0  0.8587082E-05  0.1939639E+04  0.7818609E-02  0.8635373E-01
       -1   -1    0    0    0  501  0.00000000000E+00  0.00000000000E+00  0.42142531700E+03  0.42142531703E+03  0.50400001928E-02 0.  1.
        1   -1    0    0  501    0  0.00000000000E+00  0.00000000000E+00 -0.22318293272E+04  0.22318293272E+04  0.50400001928E-02 0. -1.
    10030    2    1    2    0    0  0.00000000000E+00  0.00000000000E+00 -0.18104040102E+04  0.26532546442E+04  0.19396385042E+04 0.  0.
        5    1    3    3  502    0 -0.13939618170E+03  0.44296907574E+03 -0.20698361420E+04  0.21212959818E+04  0.46999998093E+01 0. -1.
       -5    1    3    3    0  502  0.13939618170E+03 -0.44296907574E+03  0.25943213182E+03  0.53195866245E+03  0.46999998093E+01 0.  1.
</event>
<event>
 5   0  0.6375750E-05  0.1931709E+04  0.7818609E-02  0.8639232E-01
       -3   -1    0    0    0  501  0.00000000000E+00  0.00000000000E+00  0.10890371839E+04  0.10890371886E+04  0.10100000352E+00 0.  1.
        3   -1    0    0  501    0  0.00000000000E+00  0.00000000000E+00 -0.85660562088E+03  0.85660562683E+03  0.10100000352E+00 0. -1.
    10030    2    1    2    0    0  0.00000000000E+00  0.00000000000E+00  0.23243156299E+03  0.19456428154E+04  0.19317094848E+04 0.  0.
        5    1    3    3  502    0  0.17029058981E+03 -0.33761122094E+03  0.10113743160E+04  0.10797593799E+04  0.46999998093E+01 0.  1.
       -5    1    3    3    0  502 -0.17029058981E+03  0.33761122094E+03 -0.77894275296E+03  0.86588343550E+03  0.46999998093E+01 0. -1.
</event>
<event>
 5   0  0.8567844E-05  0.1871206E+04  0.7818609E-02  0.8669323E-01
        1   -1    0    0  501    0  0.00000000000E+00  0.00000000000E+00  0.10092424728E+04  0.10092424728E+04  0.50400001928E-02 0.  1.
       -1   -1    0    0    0  501  0.00000000000E+00  0.00000000000E+00 -0.86733666974E+03  0.86733666976E+03  0.50400001928E-02 0. -1.
    10030    2    1    2    0    0  0.00000000000E+00  0.00000000000E+00  0.14190580301E+03  0.18765791425E+04  0.18712060339E+04 0.  0.
        4    1    3    3  502    0 -0.11477060837E+03  0.33255859294E+03  0.94038166664E+03  0.10040352594E+04  0.12699999809E+01 0.  1.
       -4    1    3    3    0  502  0.11477060837E+03 -0.33255859294E+03 -0.79847586362E+03  0.87254388312E+03  0.12699999809E+01 0. -1.
</event>
<event>
 5   0  0.8602017E-05  0.1886004E+04  0.7818609E-02  0.8661855E-01
       -1   -1    0    0    0  501  0.00000000000E+00  0.00000000000E+00  0.91513531871E+03  0.91513531873E+03  0.50400001928E-02 0. -1.
        1   -1    0    0  501    0  0.00000000000E+00  0.00000000000E+00 -0.97171737331E+03  0.97171737332E+03  0.50400001928E-02 0.  1.
    10030    2    1    2    0    0  0.00000000000E+00  0.00000000000E+00 -0.56582054593E+02  0.18868526920E+04  0.18860041232E+04 0.  0.
        2    1    3    3  502    0  0.40872840210E+02 -0.66009291590E+03 -0.70079853126E+03  0.96359318600E+03  0.25500000920E-02 0.  1.
       -2    1    3    3    0  502 -0.40872840210E+02  0.66009291590E+03  0.64421647667E+03  0.92325950604E+03  0.25500000920E-02 0. -1.
</event>
<event>
 5   0  0.8587082E-05  0.1891282E+04  0.7818609E-02  0.8659208E-01
        1   -1    0    0  501    0  0.00000000000E+00  0.00000000000E+00  0.10737880148E+04  0.10737880148E+04  0.50400001928E-02 0.  1.
       -1   -1    0    0    0  501  0.00000000000E+00  0.00000000000E+00 -0.83278690439E+03  0.83278690441E+03  0.50400001928E-02 0. -1.
    10030    2    1    2    0    0  0.00000000000E+00  0.00000000000E+00  0.24100111043E+03  0.19065749192E+04  0.18912816785E+04 0.  0.
        5    1    3    3  502    0  0.92237818515E+03 -0.20023346779E+03  0.62244435159E+02  0.94592357925E+03  0.46999998093E+01 0. -1.
       -5    1    3    3    0  502 -0.92237818515E+03  0.20023346779E+03  0.17875667527E+03  0.96065133999E+03  0.46999998093E+01 0.  1.
</event>
<event>
 5   0  0.8905646E-05  0.1947451E+04  0.7818609E-02  0.8631591E-01
       -1   -1    0    0    0  501  0.00000000000E+00  0.00000000000E+00  0.78363576973E+03  0.78363576974E+03  0.50400001928E-02 0. -1.
        1   -1    0    0  501    0  0.00000000000E+00  0.00000000000E+00 -0.12099265020E+04  0.12099265020E+04  0.50400001928E-02 0.  1.
    10030    2    1    2    0    0  0.00000000000E+00  0.00000000000E+00 -0.42629073228E+03  0.19935622718E+04  0.19474513455E+04 0.  0.
        1    1    3    3  502    0 -0.63449775028E+03 -0.23905281125E+03 -0.92855468657E+03  0.11497597347E+04  0.50400001928E-02 0.  1.
       -1    1    3    3    0  502  0.63449775028E+03  0.23905281125E+03  0.50226395429E+03  0.84380253702E+03  0.50400001928E-02 0. -1.
</event>
<event>
 5   0  0.1765328E-04  0.1633067E+04  0.7818609E-02  0.8800487E-01
        2   -1    0    0  501    0  0.00000000000E+00  0.00000000000E+00  0.18174661413E+04  0.18174661413E+04  0.25500000920E-02 0. -1.
       -2   -1    0    0    0  501  0.00000000000E+00  0.00000000000E+00 -0.36684436878E+03  0.36684436879E+03  0.25500000920E-02 0.  1.
    10030    2    1    2    0    0  0.00000000000E+00  0.00000000000E+00  0.14506217726E+04  0.21843105101E+04  0.16330673218E+04 0.  0.
        3    1    3    3  502    0 -0.72562243008E+02 -0.63105169981E+03  0.39060398341E+02  0.63640965726E+03  0.10100000352E+00 0.  1.
       -3    1    3    3    0  502  0.72562243008E+02  0.63105169981E+03  0.14115613742E+04  0.15479008529E+04  0.10100000352E+00 0. -1.
</event>
<event>
 5   0  0.1765328E-04  0.1923085E+04  0.7818609E-02  0.8643450E-01
        2   -1    0    0  501    0  0.00000000000E+00  0.00000000000E+00  0.15938655512E+04  0.15938655512E+04  0.25500000920E-02 0. -1.
       -2   -1    0    0    0  501  0.00000000000E+00  0.00000000000E+00 -0.58007648313E+03  0.58007648313E+03  0.25500000920E-02 0.  1.
    10030    2    1    2    0    0  0.00000000000E+00  0.00000000000E+00  0.10137890681E+04  0.21739420344E+04  0.19230849420E+04 0.  0.
        3    1    3    3  502    0 -0.41792553111E+03 -0.25531384928E+03 -0.42852201412E+03  0.65075190201E+03  0.10100000352E+00 0.  1.
       -3    1    3    3    0  502  0.41792553111E+03  0.25531384928E+03  0.14423110822E+04  0.15231901324E+04  0.10100000352E+00 0. -1.
</event>
<event>
 5   0  0.8587082E-05  0.1906210E+04  0.7818609E-02  0.8651771E-01
        1   -1    0    0  501    0  0.00000000000E+00  0.00000000000E+00  0.71015028847E+03  0.71015028849E+03  0.50400001928E-02 0. -1.
       -1   -1    0    0    0  501  0.00000000000E+00  0.00000000000E+00 -0.12791787722E+04  0.12791787722E+04  0.50400001928E-02 0.  1.
    10030    2    1    2    0    0  0.00000000000E+00  0.00000000000E+00 -0.56902848368E+03  0.19893290607E+04  0.19062100347E+04 0.  0.
        5    1    3    3  502    0  0.41399081090E+03  0.59493499386E+03 -0.93041263131E+03  0.11794175651E+04  0.46999998093E+01 0.  1.
       -5    1    3    3    0  502 -0.41399081090E+03 -0.59493499386E+03  0.36138414763E+03  0.80991149553E+03  0.46999998093E+01 0. -1.
</event>
<event>
 5   0  0.8681396E-05  0.1968002E+04  0.7818609E-02  0.8621729E-01
        1   -1    0    0  501    0  0.00000000000E+00  0.00000000000E+00  0.14092110646E+04  0.14092110646E+04  0.50400001928E-02 0. -1.
       -1   -1    0    0    0  501  0.00000000000E+00  0.00000000000E+00 -0.68709209628E+03  0.68709209630E+03  0.50400001928E-02 0.  1.
    10030    2    1    2    0    0  0.00000000000E+00  0.00000000000E+00  0.72211896833E+03  0.20963031609E+04  0.19680018135E+04 0.  0.
        3    1    3    3  502    0 -0.96079520625E+03  0.87600243531E+02  0.56721380550E+03  0.11191660924E+04  0.10100000352E+00 0. -1.
       -3    1    3    3    0  502  0.96079520625E+03 -0.87600243531E+02  0.15490516283E+03  0.97713706853E+03  0.10100000352E+00 0.  1.
</event>
<event>
 5   0  0.8681396E-05  0.1915410E+04  0.7818609E-02  0.8647224E-01
       -1   -1    0    0    0  501  0.00000000000E+00  0.00000000000E+00  0.65045357309E+03  0.65045357311E+03  0.50400001928E-02 0. -1.
        1   -1    0    0  501    0  0.00000000000E+00  0.00000000000E+00 -0.14100912713E+04  0.14100912713E+04  0.50400001928E-02 0.  1.
    10030    2    1    2    0    0  0.00000000000E+00  0.00000000000E+00 -0.75963769821E+03  0.20605448444E+04  0.19154100405E+04 0.  0.
        3    1    3    3  502    0  0.86772199568E+02 -0.37108192399E+03 -0.13250104896E+04  0.13787255045E+04  0.10100000352E+00 0.  1.
       -3    1    3    3    0  502 -0.86772199568E+02  0.37108192399E+03  0.56537279137E+03  0.68181933997E+03  0.10100000352E+00 0. -1.
</event>
<event>
 5   0  0.1658711E-04  0.1906573E+04  0.7818609E-02  0.8651591E-01
        2   -1    0    0  501    0  0.00000000000E+00  0.00000000000E+00  0.14467620591E+04  0.14467620591E+04  0.25500000920E-02 0. -1.
       -2   -1    0    0    0  501  0.00000000000E+00  0.00000000000E+00 -0.62813048962E+03  0.62813048963E+03  0.25500000920E-02 0.  1.
    10030    2    1    2    0    0  0.00000000000E+00  0.00000000000E+00  0.81863156949E+03  0.20748925487E+04  0.19065732197E+04 0.  0.
        2    1    3    3  502    0  0.63705642583E+03 -0.59914857302E+03  0.82219785156E+03  0.12003454542E+04  0.25500000920E-02 0. -1.
       -2    1    3    3    0  502 -0.63705642583E+03  0.59914857302E+03 -0.35662820663E+01  0.87454709457E+03  0.25500000920E-02 0.  1.
</event>
<event>
 5   0  0.1658711E-04  0.1915180E+04  0.7818609E-02  0.8647337E-01
        2   -1    0    0  501    0  0.00000000000E+00  0.00000000000E+00  0.18761909667E+04  0.18761909667E+04  0.25500000920E-02 0.  1.
       -2   -1    0    0    0  501  0.00000000000E+00  0.00000000000E+00 -0.48874459140E+03  0.48874459140E+03  0.25500000920E-02 0. -1.
    10030    2    1    2    0    0  0.00000000000E+00  0.00000000000E+00  0.13874463753E+04  0.23649355581E+04  0.19151795607E+04 0.  0.
        2    1    3    3  502    0  0.13375291417E+03  0.43951271804E+03 -0.34377323417E+03  0.57379552796E+03  0.25500000920E-02 0. -1.
       -2    1    3    3    0  502 -0.13375291417E+03 -0.43951271804E+03  0.17312196095E+04  0.17911400301E+04  0.25500000920E-02 0.  1.
</event>
<event>
 5   0  0.8567844E-05  0.1892284E+04  0.7818609E-02  0.8658707E-01
       -1   -1    0    0    0  501  0.00000000000E+00  0.00000000000E+00  0.11013737315E+04  0.11013737315E+04  0.50400001928E-02 0. -1.
        1   -1    0    0  501    0  0.00000000000E+00  0.00000000000E+00 -0.81278923465E+03  0.81278923466E+03  0.50400001928E-02 0.  1.
    10030    2    1    2    0    0  0.00000000000E+00  0.00000000000E+00  0.28858449686E+03  0.19141629662E+04  0.18922840298E+04 0.  0.
        4    1    3    3  502    0 -0.88799833062E+03 -0.28234348587E+03  0.31027545582E+03  0.98210556998E+03  0.12699999809E+01 0.  1.
       -4    1    3    3    0  502  0.88799833062E+03  0.28234348587E+03 -0.21690958967E+02  0.93205739620E+03  0.12699999809E+01 0. -1.
</event>
<event>
 5   0  0.1799738E-04  0.1890407E+04  0.7818609E-02  0.8659646E-01
        2   -1    0    0  501    0  0.00000000000E+00  0.00000000000E+00  0.41648431795E+03  0.41648431796E+03  0.25500000920E-02 0.  1.
       -2   -1    0    0    0  501  0.00000000000E+00  0.00000000000E+00 -0.21451210274E+04  0.21451210274E+04  0.25500000920E-02 0. -1.
    10030    2    1    2    0    0  0.00000000000E+00  0.00000000000E+00 -0.17286367095E+04  0.25616053454E+04  0.18904065891E+04 0.  0.
        1    1    3    3  502    0 -0.27963899294E+03 -0.90066547727E+03 -0.95015872097E+03  0.13387299442E+04  0.50400001928E-02 0. -1.
       -1    1    3    3    0  502  0.27963899294E+03  0.90066547727E+03 -0.77847798849E+03  0.12228754012E+04  0.50400001928E-02 0.  1.
</event>
<event>
 5   0  0.6375750E-05  0.1804217E+04  0.7818609E-02  0.8704060E-01
       -3   -1    0    0    0  501  0.00000000000E+00  0.00000000000E+00  0.10466318582E+04  0.10466318631E+04  0.10100000352E+00 0.  1.
        3   -1    0    0  501    0  0.00000000000E+00  0.00000000000E+00 -0.77754145853E+03  0.77754146509E+03  0.10100000352E+00 0. -1.
    10030    2    1    2    0    0  0.00000000000E+00  0.00000000000E+00  0.26909039969E+03  0.18241733282E+04  0.18042169182E+04 0.  0.
        3    1    3    3  502    0  0.47492223142E+03  0.34092215434E+03  0.82918207822E+03  0.10145550602E+04  0.10100000352E+00 0.  1.
       -3    1    3    3    0  502 -0.47492223142E+03 -0.34092215434E+03 -0.56009167853E+03  0.80961826794E+03  0.10100000352E+00 0. -1.
</event>
<event>
 5   0  0.1790832E-04  0.1890644E+04  0.7818609E-02  0.8659527E-01
       -2   -1    0    0    0  501  0.00000000000E+00  0.00000000000E+00  0.13319547232E+04  0.13319547232E+04  0.25500000920E-02 0.  1.
        2   -1    0    0  501    0  0.00000000000E+00  0.00000000000E+00 -0.67091925819E+03  0.67091925819E+03  0.25500000920E-02 0. -1.
    10030    2    1    2    0    0  0.00000000000E+00  0.00000000000E+00  0.66103546504E+03  0.20028739814E+04  0.18906444138E+04 0.  0.
        5    1    3    3  502    0  0.56696281424E+03  0.56973454209E+03 -0.19657953299E+03  0.82747198379E+03  0.46999998093E+01 0. -1.
       -5    1    3    3    0  502 -0.56696281424E+03 -0.56973454209E+03  0.85761499804E+03  0.11754019976E+04  0.46999998093E+01 0.  1.
</event>
<event>
 5   0  0.1790832E-04  0.1881924E+04  0.7818609E-02  0.8663907E-01
       -2   -1    0    0    0  501  0.00000000000E+00  0.00000000000E+00  0.33410540072E+03  0.33410540073E+03  0.25500000920E-02 0.  1.
        2   -1    0    0  501    0  0.00000000000E+00  0.00000000000E+00 -0.26500901678E+04  0.26500901678E+04  0.25500000920E-02 0. -1.
    10030    2    1    2    0    0  0.00000000000E+00  0.00000000000E+00 -0.23159847670E+04  0.29841955685E+04  0.18819239490E+04 0.  0.
        5    1    3    3  502    0 -0.25324262989E+03 -0.40502546692E+03 -0.24435077041E+04  0.24897649384E+04  0.46999998093E+01 0. -1.
       -5    1    3    3    0  502  0.25324262989E+03  0.40502546692E+03  0.12752293711E+03  0.49443063005E+03  0.46999998093E+01 0.  1.
</event>
<event>
 5   0  0.1658711E-04  0.1918599E+04  0.7818609E-02  0.8645654E-01
       -2   -1    0    0    0  501  0.00000000000E+00  0.00000000000E+00  0.38262451233E+03  0.38262451234E+03  0.25500000920E-02 0.  1.
        2   -1    0    0  501    0  0.00000000000E+00  0.00000000000E+00 -0.24051131303E+04  0.24051131303E+04  0.25500000920E-02 0. -1.
    10030    2    1    2    0    0  0.00000000000E+00  0.00000000000E+00 -0.20224886180E+04  0.27877376426E+04  0.19185986955E+04 0.  0.
        2    1    3    3  502    0 -0.41170181209E+03  0.86017937645E+03 -0.11625824988E+04  0.15036638614E+04  0.25500000920E-02 0. -1.
       -2    1    3    3    0  502  0.41170181209E+03 -0.86017937645E+03 -0.85990611920E+03  0.12840737812E+04  0.25500000920E-02 0.  1.
</event>
<event>
 5   0  0.8587082E-05  0.1908511E+04  0.7818609E-02  0.8650631E-01
        1   -1    0    0  501    0  0.00000000000E+00  0.00000000000E+00  0.13307510511E+04  0.13307510511E+04  0.50400001928E-02 0. -1.
       -1   -1    0    0    0  501  0.00000000000E+00  0.00000000000E+00 -0.68427816147E+03  0.68427816149E+03  0.50400001928E-02 0.  1.
    10030    2    1    2    0    0  0.00000000000E+00  0.00000000000E+00  0.64647288962E+03  0.20150292126E+04  0.19085113389E+04 0.  0.
        5    1    3    3  502    0  0.13410241179E+03  0.13535866921E+03  0.13104496852E+04  0.13242378539E+04  0.46999998093E+01 0. -1.
       -5    1    3    3    0  502 -0.13410241179E+03 -0.13535866921E+03 -0.66397679560E+03  0.69079135871E+03  0.46999998093E+01 0.  1.
</event>
<event>
 5   0  0.1765328E-04  0.1864055E+04  0.7818609E-02  0.8672959E-01
       -2   -1    0    0    0  501  0.00000000000E+00  0.00000000000E+00  0.12769568927E+04  0.12769568927E+04  0.25500000920E-02 0.  1.
        2   -1    0    0  501    0  0.00000000000E+00  0.00000000000E+00 -0.68026952933E+03  0.68026952934E+03  0.25500000920E-02 0. -1.
    10030    2    1    2    0    0  0.00000000000E+00  0.00000000000E+00  0.59668736341E+03  0.19572264221E+04  0.18640545747E+04 0.  0.
        3    1    3    3  502    0  0.90844781540E+03  0.18690447316E+03  0.20174441375E+03  0.94916359711E+03  0.10100000352E+00 0. -1.
       -3    1    3    3    0  502 -0.90844781540E+03 -0.18690447316E+03  0.39494294967E+03  0.10080628250E+04  0.10100000352E+00 0.  1.
</event>
<event>
 5   0  0.8681396E-05  0.1946132E+04  0.7818609E-02  0.8632228E-01
       -1   -1    0    0    0  501  0.00000000000E+00  0.00000000000E+00  0.45242869936E+03  0.45242869939E+03  0.50400001928E-02 0.  1.
        1   -1    0    0  501    0  0.00000000000E+00  0.00000000000E+00 -0.20928330757E+04  0.20928330757E+04  0.50400001928E-02 0. -1.
    10030    2    1    2    0    0  0.00000000000E+00  0.00000000000E+00 -0.16404043764E+04  0.25452617751E+04  0.19461323146E+04 0.  0.
        3    1    3    3  502    0 -0.36516731849E+03 -0.55189719998E+03  0.11280474370E+03  0.67131409209E+03  0.10100000352E+00 0.  1.
       -3    1    3    3    0  502  0.36516731849E+03  0.55189719998E+03 -0.17532091201E+04  0.18739476830E+04  0.10100000352E+00 0. -1.
</event>
<event>
 5   0  0.1810569E-04  0.1901627E+04  0.7818609E-02  0.8654047E-01
       -2   -1    0    0    0  501  0.00000000000E+00  0.00000000000E+00  0.74057946217E+03  0.74057946218E+03  0.25500000920E-02 0.  1.
        2   -1    0    0  501    0  0.00000000000E+00  0.00000000000E+00 -0.12207289326E+04  0.12207289326E+04  0.25500000920E-02 0. -1.
    10030    2    1    2    0    0  0.00000000000E+00  0.00000000000E+00 -0.48014947039E+03  0.19613083947E+04  0.19016274886E+04 0.  0.
        4    1    3    3  502    0  0.61626485246E+03  0.57000249119E+03  0.22043562405E+03  0.86791628950E+03  0.12699999809E+01 0.  1.
       -4    1    3    3    0  502 -0.61626485246E+03 -0.57000249119E+03 -0.70058509443E+03  0.10933921052E+04  0.12699999809E+01 0. -1.
</event>
<event>
 5   0  0.8602017E-05  0.2005620E+04  0.7818609E-02  0.8603998E-01
       -1   -1    0    0    0  501  0.00000000000E+00  0.00000000000E+00  0.44100346703E+03  0.44100346705E+03  0.50400001928E-02 0. -1.
        1   -1    0    0  501    0  0.00000000000E+00  0.00000000000E+00 -0.22803175041E+04  0.22803175041E+04  0.50400001928E-02 0.  1.
    10030    2    1    2    0    0  0.00000000000E+00  0.00000000000E+00 -0.18393140371E+04  0.27213209711E+04  0.20056200291E+04 0.  0.
        2    1    3    3  502    0  0.99817345158E+03  0.64634197816E+02 -0.10165563373E+04  0.14261537806E+04  0.25500000920E-02 0. -1.
       -2    1    3    3    0  502 -0.99817345158E+03 -0.64634197816E+02 -0.82275769972E+03  0.12951671905E+04  0.25500000920E-02 0.  1.
</event>
<event>
 5   0  0.8905646E-05  0.1895438E+04  0.7818609E-02  0.8657130E-01
       -1   -1    0    0    0  501  0.00000000000E+00  0.00000000000E+00  0.12438720304E+04  0.12438720304E+04  0.50400001928E-02 0. -1.
        1   -1    0    0  501    0  0.00000000000E+00  0.00000000000E+00 -0.72207712103E+03  0.72207712105E+03  0.50400001928E-02 0.  1.
    10030    2    1    2    0    0  0.00000000000E+00  0.00000000000E+00  0.52179490934E+03  0.19659491514E+04  0.18954382445E+04 0.  0.
        1    1    3    3  502    0 -0.28340624807E+03 -0.76723056231E+02  0.11955099116E+04  0.12310359368E+04  0.50400001928E-02 0. -1.
       -1    1    3    3    0  502  0.28340624807E+03  0.76723056231E+02 -0.67371500227E+03  0.73491321468E+03  0.50400001928E-02 0.  1.
</event>
<event>
 5   0  0.1790832E-04  0.1916235E+04  0.7818609E-02  0.8646817E-01
        2   -1    0    0  501    0  0.00000000000E+00  0.00000000000E+00  0.11126441803E+04  0.11126441803E+04  0.25500000920E-02 0. -1.
       -2   -1    0    0    0  501  0.00000000000E+00  0.00000000000E+00 -0.82505163215E+03  0.82505163215E+03  0.25500000920E-02 0.  1.
    10030    2    1    2    0    0  0.00000000000E+00  0.00000000000E+00  0.28759254812E+03  0.19376958124E+04  0.19162347423E+04 0.  0.
        5    1    3    3  502    0 -0.45077822414E+03  0.64747186458E+03  0.69352625390E+03  0.10504387548E+04  0.46999998093E+01 0. -1.
       -5    1    3    3    0  502  0.45077822414E+03 -0.64747186458E+03 -0.40593370578E+03  0.88725705760E+03  0.46999998093E+01 0.  1.
</event>
<event>
 5   0  0.8587082E-05  0.1917887E+04  0.7818609E-02  0.8646004E-01
       -1   -1    0    0    0  501  0.00000000000E+00  0.00000000000E+00  0.53402494046E+03  0.53402494049E+03  0.50400001928E-02 0. -1.
        1   -1    0    0  501    0  0.00000000000E+00  0.00000000000E+00 -0.17219658386E+04  0.17219658387E+04  0.50400001928E-02 0.  1.
    10030    2    1    2    0    0  0.00000000000E+00  0.00000000000E+00 -0.11879408982E+04  0.22559907791E+04  0.19178870712E+04 0.  0.
        5    1    3    3  502    0 -0.51060916253E+03  0.22264513989E+03  0.32418226634E+03  0.64452215399E+03  0.46999998093E+01 0. -1.
       -5    1    3    3    0  502  0.51060916253E+03 -0.22264513989E+03 -0.15121231645E+04  0.16114686252E+04  0.46999998093E+01 0.  1.
</event>
<event>
 5   0  0.1765328E-04  0.1880568E+04  0.7818609E-02  0.8664590E-01
       -2   -1    0    0    0  501  0.00000000000E+00  0.00000000000E+00  0.91994146216E+03  0.91994146216E+03  0.25500000920E-02 0. -1.
        2   -1    0    0  501    0  0.00000000000E+00  0.00000000000E+00 -0.96107649234E+03  0.96107649234E+03  0.25500000920E-02 0.  1.
    10030    2    1    2    0    0  0.00000000000E+00  0.00000000000E+00 -0.41135030179E+02  0.18810179545E+04  0.18805681201E+04 0.  0.
        3    1    3    3  502    0  0.78998747460E+03 -0.17200150439E+03 -0.50075461010E+03  0.95100994594E+03  0.10100000352E+00 0.  1.
       -3    1    3    3    0  502 -0.78998747460E+03  0.17200150439E+03  0.45961957992E+03  0.93000800856E+03  0.10100000352E+00 0. -1.
</event>
<event>
 5   0  0.1799738E-04  0.1892621E+04  0.7818609E-02  0.8658538E-01
       -2   -1    0    0    0  501  0.00000000000E+00  0.00000000000E+00  0.20061204476E+04  0.20061204476E+04  0.25500000920E-02 0. -1.
        2   -1    0    0  501    0  0.00000000000E+00  0.00000000000E+00 -0.44638579808E+03  0.44638579809E+03  0.25500000920E-02 0.  1.
    10030    2    1    2    0    0  0.00000000000E+00  0.00000000000E+00  0.15597346495E+04  0.24525062457E+04  0.18926211211E+04 0.  0.
        1    1    3    3  502    0  0.18250272778E+03 -0.40723803838E+03 -0.30147040317E+03  0.53854848395E+03  0.50400001928E-02 0.  1.
       -1    1    3    3    0  502 -0.18250272778E+03  0.40723803838E+03  0.18612050527E+04  0.19139577617E+04  0.50400001928E-02 0. -1.
</event>
<event>
 5   0  0.8602017E-05  0.1938497E+04  0.7818609E-02  0.8635928E-01
        1   -1    0    0  501    0  0.00000000000E+00  0.00000000000E+00  0.17793232080E+04  0.17793232080E+04  0.50400001928E-02 0.  1.
       -1   -1    0    0    0  501  0.00000000000E+00  0.00000000000E+00 -0.52797744174E+03  0.52797744176E+03  0.50400001928E-02 0. -1.
    10030    2    1    2    0    0  0.00000000000E+00  0.00000000000E+00  0.12513457663E+04  0.23073006498E+04  0.19384968562E+04 0.  0.
        2    1    3    3  502    0 -0.84047113178E+03 -0.30939671695E+03  0.10667484927E+04  0.13928640991E+04  0.25500000920E-02 0.  1.
       -2    1    3    3    0  502  0.84047113178E+03  0.30939671695E+03  0.18459727356E+03  0.91443655069E+03  0.25500000920E-02 0. -1.
</event>
<event>
 5   0  0.8602017E-05  0.1909100E+04  0.7818609E-02  0.8650340E-01
        1   -1    0    0  501    0  0.00000000000E+00  0.00000000000E+00  0.24021566652E+04  0.24021566652E+04  0.50400001928E-02 0.  1.
       -1   -1    0    0    0  501  0.00000000000E+00  0.00000000000E+00 -0.37931161448E+03  0.37931161452E+03  0.50400001928E-02 0. -1.
    10030    2    1    2    0    0  0.00000000000E+00  0.00000000000E+00  0.20228450507E+04  0.27814682797E+04  0.19091002310E+04 0.  0.
        2    1    3    3  502    0  0.36300328072E+03 -0.29990303486E+03  0.22211780752E+04  0.22705385383E+04  0.25500000920E-02 0.  1.
       -2    1    3    3    0  502 -0.36300328072E+03  0.29990303486E+03 -0.19833302444E+03  0.51092974147E+03  0.25500000920E-02 0. -1.
</event>
<event>
 5   0  0.1765328E-04  0.1886218E+04  0.7818609E-02  0.8661747E-01
       -2   -1    0    0    0  501  0.00000000000E+00  0.00000000000E+00  0.91196601087E+03  0.91196601087E+03  0.25500000920E-02 0.  1.
        2   -1    0    0  501    0  0.00000000000E+00  0.00000000000E+00 -0.97531577185E+03  0.97531577185E+03  0.25500000920E-02 0. -1.
    10030    2    1    2    0    0  0.00000000000E+00  0.00000000000E+00 -0.63349760975E+02  0.18872817827E+04  0.18862182629E+04 0.  0.
        3    1    3    3  502    0 -0.29838150254E+03 -0.47864587290E+03 -0.78795913721E+03  0.96902683390E+03  0.10100000352E+00 0. -1.
       -3    1    3    3    0  502  0.29838150254E+03  0.47864587290E+03  0.72460937624E+03  0.91825494882E+03  0.10100000352E+00 0.  1.
</event>
<event>
 5   0  0.1765328E-04  0.1893928E+04  0.7818609E-02  0.8657885E-01
        2   -1    0    0  501    0  0.00000000000E+00  0.00000000000E+00  0.36558388562E+03  0.36558388563E+03  0.25500000920E-02 0.  1.
       -2   -1    0    0    0  501  0.00000000000E+00  0.00000000000E+00 -0.24528995649E+04  0.24528995649E+04  0.25500000920E-02 0. -1.
    10030    2    1    2    0    0  0.00000000000E+00  0.00000000000E+00 -0.20873156793E+04  0.28184834505E+04  0.18939277219E+04 0.  0.
        3    1    3    3  502    0 -0.34775214573E+03 -0.73956772200E+03 -0.17555696420E+04  0.19364701776E+04  0.10100000352E+00 0. -1.
       -3    1    3    3    0  502  0.34775214573E+03  0.73956772200E+03 -0.33174603725E+03  0.88201327298E+03  0.10100000352E+00 0.  1.
</event>
<event>
 5   0  0.8567844E-05  0.1905931E+04  0.7818609E-02  0.8651910E-01
        1   -1    0    0  501    0  0.00000000000E+00  0.00000000000E+00  0.84744940848E+03  0.84744940850E+03  0.50400001928E-02 0. -1.
       -1   -1    0    0    0  501  0.00000000000E+00  0.00000000000E+00 -0.10716191993E+04  0.10716191993E+04  0.50400001928E-02 0.  1.
    10030    2    1    2    0    0  0.00000000000E+00  0.00000000000E+00 -0.22416979078E+03  0.19190686078E+04  0.19059308031E+04 0.  0.
        4    1    3    3  502    0 -0.80806430209E+03  0.21895387687E+03 -0.57045105125E+03  0.10130768635E+04  0.12699999809E+01 0.  1.
       -4    1    3    3    0  502  0.80806430209E+03 -0.21895387687E+03  0.34628126046E+03  0.90599174431E+03  0.12699999809E+01 0. -1.
</event>
<event>
 5   0  0.8567844E-05  0.1905392E+04  0.7818609E-02  0.8652177E-01
       -1   -1    0    0    0  501  0.00000000000E+00  0.00000000000E+00  0.54593285067E+03  0.54593285069E+03  0.50400001928E-02 0.  1.
        1   -1    0    0  501    0  0.00000000000E+00  0.00000000000E+00 -0.16625305228E+04  0.16625305228E+04  0.50400001928E-02 0. -1.
    10030    2    1    2    0    0  0.00000000000E+00  0.00000000000E+00 -0.11165976721E+04  0.22084633735E+04  0.19053923771E+04 0.  0.
        4    1    3    3  502    0 -0.87130227967E+03 -0.93852652516E+02 -0.12515710391E+03  0.88523550341E+03  0.12699999809E+01 0.  1.
       -4    1    3    3    0  502  0.87130227967E+03  0.93852652516E+02 -0.99144056823E+03  0.13232278701E+04  0.12699999809E+01 0. -1.
</event>
<event>
 5   0  0.8905646E-05  0.1899510E+04  0.7818609E-02  0.8655100E-01
        1   -1    0    0  501    0  0.00000000000E+00  0.00000000000E+00  0.80404846555E+03  0.80404846557E+03  0.50400001928E-02 0. -1.
       -1   -1    0    0    0  501  0.00000000000E+00  0.00000000000E+00 -0.11218659793E+04  0.11218659793E+04  0.50400001928E-02 0.  1.
    10030    2    1    2    0    0  0.00000000000E+00  0.00000000000E+00 -0.31781751372E+03  0.19259144449E+04  0.18995100623E+04 0.  0.
        1    1    3    3  502    0 -0.70735459609E+03 -0.62996658395E+03 -0.88472228021E+02  0.95133367262E+03  0.50400001928E-02 0.  1.
       -1    1    3    3    0  502  0.70735459609E+03  0.62996658395E+03 -0.22934528570E+03  0.97458077223E+03  0.50400001928E-02 0. -1.
</event>
<event>
 5   0  0.8905646E-05  0.1852227E+04  0.7818609E-02  0.8679008E-01
       -1   -1    0    0    0  501  0.00000000000E+00  0.00000000000E+00  0.79866516802E+03  0.79866516804E+03  0.50400001928E-02 0. -1.
        1   -1    0    0  501    0  0.00000000000E+00  0.00000000000E+00 -0.10738996427E+04  0.10738996428E+04  0.50400001928E-02 0.  1.
    10030    2    1    2    0    0  0.00000000000E+00  0.00000000000E+00 -0.27523447472E+03  0.18725648108E+04  0.18522270256E+04 0.  0.
        1    1    3    3  502    0  0.44082439441E+03 -0.13697723933E+03  0.67406658775E+03  0.81697899333E+03  0.50400001928E-02 0. -1.
       -1    1    3    3    0  502 -0.44082439441E+03  0.13697723933E+03 -0.94930106246E+03  0.10555858175E+04  0.50400001928E-02 0.  1.
</event>
<event>
 5   0  0.8602017E-05  0.1839935E+04  0.7818609E-02  0.8685346E-01
       -1   -1    0    0    0  501  0.00000000000E+00  0.00000000000E+00  0.13991171001E+04  0.13991171001E+04  0.50400001928E-02 0. -1.
        1   -1    0    0  501    0  0.00000000000E+00  0.00000000000E+00 -0.60491049085E+03  0.60491049087E+03  0.50400001928E-02 0.  1.
    10030    2    1    2    0    0  0.00000000000E+00  0.00000000000E+00  0.79420660928E+03  0.20040275910E+04  0.18399354465E+04 0.  0.
        2    1    3    3  502    0 -0.10059324139E+03 -0.87142717374E+03  0.95188568635E+02  0.88236340753E+03  0.25500000920E-02 0.  1.
       -2    1    3    3    0  502  0.10059324139E+03  0.87142717374E+03  0.69901804065E+03  0.11216641835E+04  0.25500000920E-02 0. -1.
</event>
<event>
 5   0  0.8587082E-05  0.1894443E+04  0.7818609E-02  0.8657627E-01
       -1   -1    0    0    0  501  0.00000000000E+00  0.00000000000E+00  0.11175032121E+04  0.11175032121E+04  0.50400001928E-02 0.  1.
        1   -1    0    0  501    0  0.00000000000E+00  0.00000000000E+00 -0.80288714529E+03  0.80288714530E+03  0.50400001928E-02 0. -1.
    10030    2    1    2    0    0  0.00000000000E+00  0.00000000000E+00  0.31461606684E+03  0.19203903574E+04  0.18944434157E+04 0.  0.
        5    1    3    3  502    0  0.25168422060E+03  0.56020417361E+03 -0.57370213571E+03  0.84043434815E+03  0.46999998093E+01 0. -1.
       -5    1    3    3    0  502 -0.25168422060E+03 -0.56020417361E+03  0.88831820255E+03  0.10799560093E+04  0.46999998093E+01 0.  1.
</event>
<event>
 5   0  0.8602017E-05  0.1898226E+04  0.7818609E-02  0.8655740E-01
        1   -1    0    0  501    0  0.00000000000E+00  0.00000000000E+00  0.23254742956E+04  0.23254742956E+04  0.50400001928E-02 0. -1.
       -1   -1    0    0    0  501  0.00000000000E+00  0.00000000000E+00 -0.38736843786E+03  0.38736843790E+03  0.50400001928E-02 0.  1.
    10030    2    1    2    0    0  0.00000000000E+00  0.00000000000E+00  0.19381058577E+04  0.27128427335E+04  0.18982258509E+04 0.  0.
        2    1    3    3  502    0  0.48774366660E+03  0.15569693737E+03 -0.17308450825E+03  0.54045690634E+03  0.25500000920E-02 0.  1.
       -2    1    3    3    0  502 -0.48774366660E+03 -0.15569693737E+03  0.21111903660E+04  0.21723858271E+04  0.25500000920E-02 0. -1.
</event>
<event>
 5   0  0.1799738E-04  0.1904723E+04  0.7818609E-02  0.8652509E-01
       -2   -1    0    0    0  501  0.00000000000E+00  0.00000000000E+00  0.47839714711E+03  0.47839714712E+03  0.25500000920E-02 0.  1.
        2   -1    0    0  501    0  0.00000000000E+00  0.00000000000E+00 -0.18958978913E+04  0.18958978913E+04  0.25500000920E-02 0. -1.
    10030    2    1    2    0    0  0.00000000000E+00  0.00000000000E+00 -0.14175007442E+04  0.23742950385E+04  0.19047227015E+04 0.  0.
        1    1    3    3  502    0 -0.68450929042E+03  0.49867677842E+03 -0.16574265687E+03  0.86296125425E+03  0.50400001928E-02 0.  1.
       -1    1    3    3    0  502  0.68450929042E+03 -0.49867677842E+03 -0.12517580873E+04  0.15113337842E+04  0.50400001928E-02 0. -1.
</event>
<event>
 5   0  0.1799738E-04  0.1892576E+04  0.7818609E-02  0.8658560E-01
       -2   -1    0    0    0  501  0.00000000000E+00  0.00000000000E+00  0.95784146210E+03  0.95784146211E+03  0.25500000920E-02 0. -1.
        2   -1    0    0  501    0  0.00000000000E+00  0.00000000000E+00 -0.93487418724E+03  0.93487418724E+03  0.25500000920E-02 0.  1.
    10030    2    1    2    0    0  0.00000000000E+00  0.00000000000E+00  0.22967274867E+02  0.18927156493E+04  0.18925762953E+04 0.  0.
        1    1    3    3  502    0  0.47485807003E+03  0.31142962921E+03 -0.74552827825E+03  0.93717181686E+03  0.50400001928E-02 0.  1.
       -1    1    3    3    0  502 -0.47485807003E+03 -0.31142962921E+03  0.76849555311E+03  0.95554383249E+03  0.50400001928E-02 0. -1.
</event>
<event>
 5   0  0.1658711E-04  0.1869934E+04  0.7818609E-02  0.8669969E-01
        2   -1    0    0  501    0  0.00000000000E+00  0.00000000000E+00  0.77766709435E+03  0.77766709436E+03  0.25500000920E-02 0. -1.
       -2   -1    0    0    0  501  0.00000000000E+00  0.00000000000E+00 -0.11240842623E+04  0.11240842623E+04  0.25500000920E-02 0.  1.
    10030    2    1    2    0    0  0.00000000000E+00  0.00000000000E+00 -0.34641716798E+03  0.19017513567E+04  0.18699340546E+04 0.  0.
        2    1    3    3  502    0 -0.39386703316E+03  0.53309128082E+02 -0.10338884483E+04  0.11076544707E+04  0.25500000920E-02 0.  1.
       -2    1    3    3    0  502  0.39386703316E+03 -0.53309128082E+02  0.68747128036E+03  0.79409688595E+03  0.25500000920E-02 0. -1.
</event>
<event>
 5   0  0.8567844E-05  0.1924006E+04  0.7818609E-02  0.8642999E-01
       -1   -1    0    0    0  501  0.00000000000E+00  0.00000000000E+00  0.14000362597E+04  0.14000362597E+04  0.50400001928E-02 0.  1.
        1   -1    0    0  501    0  0.00000000000E+00  0.00000000000E+00 -0.66101838142E+03  0.66101838143E+03  0.50400001928E-02 0. -1.
    10030    2    1    2    0    0  0.00000000000E+00  0.00000000000E+00  0.73901787826E+03  0.20610546411E+04  0.19240059276E+04 0.  0.
        4    1    3    3  502    0  0.65213405117E+03 -0.47011742420E+03 -0.19648114233E+03  0.82758423464E+03  0.12699999809E+01 0. -1.
       -4    1    3    3    0  502 -0.65213405117E+03  0.47011742420E+03  0.93549902059E+03  0.12334704065E+04  0.12699999809E+01 0.  1.
</event>
<event>
 5   0  0.8567844E-05  0.1904806E+04  0.7818609E-02  0.8652468E-01
        1   -1    0    0  501    0  0.00000000000E+00  0.00000000000E+00  0.56919685615E+03  0.56919685617E+03  0.50400001928E-02 0.  1.
       -1   -1    0    0    0  501  0.00000000000E+00  0.00000000000E+00 -0.15935996988E+04  0.15935996988E+04  0.50400001928E-02 0. -1.
    10030    2    1    2    0    0  0.00000000000E+00  0.00000000000E+00 -0.10244028427E+04  0.21627965550E+04  0.19048064873E+04 0.  0.
        4    1    3    3  502    0  0.54795152699E+02 -0.94011888938E+03 -0.67375481692E+03  0.11579176141E+04  0.12699999809E+01 0.  1.
       -4    1    3    3    0  502 -0.54795152699E+02  0.94011888938E+03 -0.35064802577E+03  0.10048789409E+04  0.12699999809E+01 0. -1.
</event>
<event>
 5   0  0.8905646E-05  0.1908108E+04  0.7818609E-02  0.8650831E-01
       -1   -1    0    0    0  501  0.00000000000E+00  0.00000000000E+00  0.15787461365E+04  0.15787461365E+04  0.50400001928E-02 0.  1.
        1   -1    0    0  501    0  0.00000000000E+00  0.00000000000E+00 -0.57654566216E+03  0.57654566218E+03  0.50400001928E-02 0. -1.
    10030    2    1    2    0    0  0.00000000000E+00  0.00000000000E+00  0.10022004743E+04  0.21552917987E+04  0.19081082115E+04 0.  0.
        1    1    3    3  502    0 -0.66523300687E+03 -0.67493435551E+03  0.62559573948E+03  0.11355357180E+04  0.50400001928E-02 0.  1.
       -1    1    3    3    0  502  0.66523300687E+03  0.67493435551E+03  0.37660473486E+03  0.10197560807E+04  0.50400001928E-02 0. -1.
</event>
<event>
 5   0  0.8602017E-05  0.2013420E+04  0.7818609E-02  0.8600372E-01
        1   -1    0    0  501    0  0.00000000000E+00  0.00000000000E+00  0.13945162902E+04  0.13945162902E+04  0.50400001928E-02 0.  1.
       -1   -1    0    0    0  501  0.00000000000E+00  0.00000000000E+00 -0.72675046067E+03  0.72675046068E+03  0.50400001928E-02 0. -1.
    10030    2    1    2    0    0  0.00000000000E+00  0.00000000000E+00  0.66776582957E+03  0.21212667509E+04  0.20134203300E+04 0.  0.
        2    1    3    3  502    0  0.53532724793E+03 -0.78817743341E+03  0.67635828789E+03  0.11684431790E+04  0.25500000920E-02 0.  1.
       -2    1    3    3    0  502 -0.53532724793E+03  0.78817743341E+03 -0.85924583189E+01  0.95282357195E+03  0.25500000920E-02 0. -1.
</event>
<event>
 5   0  0.8602017E-05  0.1898809E+04  0.7818609E-02  0.8655449E-01
       -1   -1    0    0    0  501  0.00000000000E+00  0.00000000000E+00  0.47949519686E+03  0.47949519689E+03  0.50400001928E-02 0.  1.
        1   -1    0    0  501    0  0.00000000000E+00  0.00000000000E+00 -0.18798298153E+04  0.18798298153E+04  0.50400001928E-02 0. -1.
    10030    2    1    2    0    0  0.00000000000E+00  0.00000000000E+00 -0.14003346184E+04  0.23593250122E+04  0.18988094874E+04 0.  0.
        2    1    3    3  502    0 -0.20521299018E+03  0.67362528249E+02  0.44856313363E+03  0.49785436265E+03  0.25500000920E-02 0.  1.
       -2    1    3    3    0  502  0.20521299018E+03 -0.67362528249E+02 -0.18488977520E+04  0.18614706495E+04  0.25500000920E-02 0. -1.
</event>
<event>
 5   0  0.1765328E-04  0.1809443E+04  0.7818609E-02  0.8701294E-01
       -2   -1    0    0    0  501  0.00000000000E+00  0.00000000000E+00  0.59350217502E+03  0.59350217503E+03  0.25500000920E-02 0. -1.
        2   -1    0    0  501    0  0.00000000000E+00  0.00000000000E+00 -0.13791377585E+04  0.13791377585E+04  0.25500000920E-02 0.  1.
    10030    2    1    2    0    0  0.00000000000E+00  0.00000000000E+00 -0.78563558348E+03  0.19726399335E+04  0.18094432949E+04 0.  0.
        3    1    3    3  502    0  0.17150629003E+03 -0.70936880617E+03 -0.97574187803E+03  0.12184788605E+04  0.10100000352E+00 0.  1.
       -3    1    3    3    0  502 -0.17150629003E+03  0.70936880617E+03  0.19010629455E+03  0.75416107305E+03  0.10100000352E+00 0. -1.
</event>
<event>
 5   0  0.1799738E-04  0.1886240E+04  0.7818609E-02  0.8661736E-01
       -2   -1    0    0    0  501  0.00000000000E+00  0.00000000000E+00  0.83281404811E+03  0.83281404812E+03  0.25500000920E-02 0.  1.
        2   -1    0    0  501    0  0.00000000000E+00  0.00000000000E+00 -0.10680356072E+04  0.10680356072E+04  0.25500000920E-02 0. -1.
    10030    2    1    2    0    0  0.00000000000E+00  0.00000000000E+00 -0.23522155910E+03  0.19008496553E+04  0.18862397065E+04 0.  0.
        1    1    3    3  502    0  0.24334875604E+03 -0.74900338875E+03 -0.64052329362E+03  0.10151328894E+04  0.50400001928E-02 0. -1.
       -1    1    3    3    0  502 -0.24334875604E+03  0.74900338875E+03  0.40530173453E+03  0.88571676594E+03  0.50400001928E-02 0.  1.
</event>
<event>
 5   0  0.1765328E-04  0.1998619E+04  0.7818609E-02  0.8607267E-01
        2   -1    0    0  501    0  0.00000000000E+00  0.00000000000E+00  0.10657088342E+04  0.10657088342E+04  0.25500000920E-02 0.  1.
       -2   -1    0    0    0  501  0.00000000000E+00  0.00000000000E+00 -0.93704720203E+03  0.93704720203E+03  0.25500000920E-02 0. -1.
    10030    2    1    2    0    0  0.00000000000E+00  0.00000000000E+00  0.12866163215E+03  0.20027560362E+04  0.19986190045E+04 0.  0.
        3    1    3    3  502    0  0.85967660122E+02 -0.49031611728E+03  0.93262262389E+03  0.10571590714E+04  0.10100000352E+00 0.  1.
       -3    1    3    3    0  502 -0.85967660122E+02  0.49031611728E+03 -0.80396099173E+03  0.94559696482E+03  0.10100000352E+00 0. -1.
</event>
<event>
 5   0  0.8905646E-05  0.1899433E+04  0.7818609E-02  0.8655139E-01
       -1   -1    0    0    0  501  0.00000000000E+00  0.00000000000E+00  0.14695525774E+04  0.14695525774E+04  0.50400001928E-02 0.  1.
        1   -1    0    0  501    0  0.00000000000E+00  0.00000000000E+00 -0.61376574506E+03  0.61376574508E+03  0.50400001928E-02 0. -1.
    10030    2    1    2    0    0  0.00000000000E+00  0.00000000000E+00  0.85578683234E+03  0.20833183225E+04  0.18994325812E+04 0.  0.
        1    1    3    3  502    0 -0.84251754955E+03  0.98485483602E+02  0.89635599488E+03  0.12340945188E+04  0.50400001928E-02 0.  1.
       -1    1    3    3    0  502  0.84251754955E+03 -0.98485483602E+02 -0.40569162541E+02  0.84922380369E+03  0.50400001928E-02 0. -1.
</event>
<event>
 5   0  0.1658711E-04  0.1903646E+04  0.7818609E-02  0.8653044E-01
       -2   -1    0    0    0  501  0.00000000000E+00  0.00000000000E+00  0.44036556039E+03  0.44036556040E+03  0.25500000920E-02 0.  1.
        2   -1    0    0  501    0  0.00000000000E+00  0.00000000000E+00 -0.20573057433E+04  0.20573057433E+04  0.25500000920E-02 0. -1.
    10030    2    1    2    0    0  0.00000000000E+00  0.00000000000E+00 -0.16169401829E+04  0.24976713037E+04  0.19036455516E+04 0.  0.
        2    1    3    3  502    0  0.75702933634E+03  0.42655358219E+02 -0.15633857253E+04  0.17375522501E+04  0.25500000920E-02 0.  1.
       -2    1    3    3    0  502 -0.75702933634E+03 -0.42655358219E+02 -0.53554457554E+02  0.76011905357E+03  0.25500000920E-02 0. -1.
</event>
<event>
 5   0  0.1658711E-04  0.1901083E+04  0.7818609E-02  0.8654317E-01
        2   -1    0    0  501    0  0.00000000000E+00  0.00000000000E+00  0.83044339809E+03  0.83044339810E+03  0.25500000920E-02 0. -1.
       -2   -1    0    0    0  501  0.00000000000E+00  0.00000000000E+00 -0.10880082704E+04  0.10880082704E+04  0.25500000920E-02 0.  1.
    10030    2    1    2    0    0  0.00000000000E+00  0.00000000000E+00 -0.25756487231E+03  0.19184516685E+04  0.19010831494E+04 0.  0.
        2    1    3    3  502    0 -0.21570736973E+03 -0.87027193216E+03  0.18973772378E+03  0.91646238825E+03  0.25500000920E-02 0. -1.
       -2    1    3    3    0  502  0.21570736973E+03  0.87027193216E+03 -0.44730259609E+03  0.10019892802E+04  0.25500000920E-02 0.  1.
</event>
<event>
 5   0  0.8905646E-05  0.2038056E+04  0.7818609E-02  0.8589032E-01
        1   -1    0    0  501    0  0.00000000000E+00  0.00000000000E+00  0.65297971646E+03  0.65297971648E+03  0.50400001928E-02 0.  1.
       -1   -1    0    0    0  501  0.00000000000E+00  0.00000000000E+00 -0.15902762138E+04  0.15902762138E+04  0.50400001928E-02 0. -1.
    10030    2    1    2    0    0  0.00000000000E+00  0.00000000000E+00 -0.93729649736E+03  0.22432559303E+04  0.20380560456E+04 0.  0.
        1    1    3    3  502    0  0.35239765919E+03 -0.73303575661E+03  0.20707909901E+03  0.83928974970E+03  0.50400001928E-02 0.  1.
       -1    1    3    3    0  502 -0.35239765919E+03  0.73303575661E+03 -0.11443755964E+04  0.14039661806E+04  0.50400001928E-02 0. -1.
</event>
<event>
 5   0  0.8567844E-05  0.1914255E+04  0.7818609E-02  0.8647793E-01
       -1   -1    0    0    0  501  0.00000000000E+00  0.00000000000E+00  0.14569104196E+04  0.14569104196E+04  0.50400001928E-02 0. -1.
        1   -1    0    0  501    0  0.00000000000E+00  0.00000000000E+00 -0.62879170963E+03  0.62879170965E+03  0.50400001928E-02 0.  1.
    10030    2    1    2    0    0  0.00000000000E+00  0.00000000000E+00  0.82811870999E+03  0.20857021293E+04  0.19142551487E+04 0.  0.
        4    1    3    3  502    0  0.81860722426E+03 -0.13900410258E+03 -0.10465934596E+03  0.83689612244E+03  0.12699999809E+01 0.  1.
       -4    1    3    3    0  502 -0.81860722426E+03  0.13900410258E+03  0.93277805595E+03  0.12488060068E+04  0.12699999809E+01 0. -1.
</event>
<event>
 5   0  0.8587082E-05  0.1900640E+04  0.7818609E-02  0.8654538E-01
        1   -1    0    0  501    0  0.00000000000E+00  0.00000000000E+00  0.77514876942E+03  0.77514876944E+03  0.50400001928E-02 0.  1.
       -1   -1    0    0    0  501  0.00000000000E+00  0.00000000000E+00 -0.11650769216E+04  0.11650769216E+04  0.50400001928E-02 0. -1.
    10030    2    1    2    0    0  0.00000000000E+00  0.00000000000E+00 -0.38992815216E+03  0.19402256910E+04  0.19006398313E+04 0.  0.
        5    1    3    3  502    0 -0.14164476872E+03  0.27011128928E+03  0.72381625464E+03  0.78546509126E+03  0.46999998093E+01 0.  1.
       -5    1    3    3    0  502  0.14164476872E+03 -0.27011128928E+03 -0.11137444068E+04  0.11547605998E+04  0.46999998093E+01 0. -1.
</event>
<event>
 5   0  0.1810569E-04  0.1916044E+04  0.7818609E-02  0.8646911E-01
        2   -1    0    0  501    0  0.00000000000E+00  0.00000000000E+00  0.12247720804E+04  0.12247720804E+04  0.25500000920E-02 0.  1.
       -2   -1    0    0    0  501  0.00000000000E+00  0.00000000000E+00 -0.74936932837E+03  0.74936932837E+03  0.25500000920E-02 0. -1.
    10030    2    1    2    0    0  0.00000000000E+00  0.00000000000E+00  0.47540275201E+03  0.19741414087E+04  0.19160444998E+04 0.  0.
        4    1    3    3  502    0  0.68398290277E+03 -0.51108397103E+03  0.68534672052E+03  0.10948703928E+04  0.12699999809E+01 0.  1.
       -4    1    3    3    0  502 -0.68398290277E+03  0.51108397103E+03 -0.20994396851E+03  0.87927101598E+03  0.12699999809E+01 0. -1.
</event>
<event>
 5   0  0.8587082E-05  0.1901306E+04  0.7818609E-02  0.8654207E-01
       -1   -1    0    0    0  501  0.00000000000E+00  0.00000000000E+00  0.11028312660E+04  0.11028312660E+04  0.50400001928E-02 0.  1.
        1   -1    0    0  501    0  0.00000000000E+00  0.00000000000E+00 -0.81947361733E+03  0.81947361735E+03  0.50400001928E-02 0. -1.
    10030    2    1    2    0    0  0.00000000000E+00  0.00000000000E+00  0.28335764868E+03  0.19223048834E+04  0.19013060005E+04 0.  0.
        5    1    3    3  502    0 -0.14423806216E+03  0.38318567567E+03  0.10091073308E+04  0.10890158749E+04  0.46999998093E+01 0.  1.
       -5    1    3    3    0  502  0.14423806216E+03 -0.38318567567E+03 -0.72574968212E+03  0.83328900852E+03  0.46999998093E+01 0. -1.
</event>
<event>
 5   0  0.1799738E-04  0.1904305E+04  0.7818609E-02  0.8652716E-01
        2   -1    0    0  501    0  0.00000000000E+00  0.00000000000E+00  0.81779088652E+03  0.81779088652E+03  0.25500000920E-02 0.  1.
       -2   -1    0    0    0  501  0.00000000000E+00  0.00000000000E+00 -0.11085900089E+04  0.11085900089E+04  0.25500000920E-02 0. -1.
    10030    2    1    2    0    0  0.00000000000E+00  0.00000000000E+00 -0.29079912241E+03  0.19263808955E+04  0.19043054442E+04 0.  0.
        1    1    3    3  502    0  0.49411223330E+03 -0.65023659915E+03 -0.64060505678E+03  0.10379447831E+04  0.50400001928E-02 0. -1.
       -1    1    3    3    0  502 -0.49411223330E+03  0.65023659915E+03  0.34980593438E+03  0.88843611235E+03  0.50400001928E-02 0.  1.
</event>
<event>
 5   0  0.8587082E-05  0.1880655E+04  0.7818609E-02  0.8664546E-01
       -1   -1    0    0    0  501  0.00000000000E+00  0.00000000000E+00  0.63942504762E+03  0.63942504764E+03  0.50400001928E-02 0.  1.
        1   -1    0    0  501    0  0.00000000000E+00  0.00000000000E+00 -0.13828290224E+04  0.13828290225E+04  0.50400001928E-02 0. -1.
    10030    2    1    2    0    0  0.00000000000E+00  0.00000000000E+00 -0.74340397483E+03  0.20222540701E+04  0.18806546877E+04 0.  0.
        5    1    3    3  502    0  0.58486964439E+03 -0.10623224709E+03 -0.11551437001E+04  0.12991292658E+04  0.46999998093E+01 0. -1.
       -5    1    3    3    0  502 -0.58486964439E+03  0.10623224709E+03  0.41173972528E+03  0.72312480433E+03  0.46999998093E+01 0.  1.
</event>
<event>
 5   0  0.8681396E-05  0.1889713E+04  0.7818609E-02  0.8659994E-01
        1   -1    0    0  501    0  0.00000000000E+00  0.00000000000E+00  0.60945339996E+03  0.60945339998E+03  0.50400001928E-02 0. -1.
       -1   -1    0    0    0  501  0.00000000000E+00  0.00000000000E+00 -0.14648436221E+04  0.14648436221E+04  0.50400001928E-02 0.  1.
    10030    2    1    2    0    0  0.00000000000E+00  0.00000000000E+00 -0.85539022212E+03  0.20742970221E+04  0.18897131274E+04 0.  0.
        3    1    3    3  502    0  0.38798476402E+03  0.82148328631E+03 -0.14274885147E+03  0.91964352420E+03  0.10100000352E+00 0. -1.
       -3    1    3    3    0  502 -0.38798476402E+03 -0.82148328631E+03 -0.71264137065E+03  0.11546534979E+04  0.10100000352E+00 0.  1.
</event>
<event>
 5   0  0.8681396E-05  0.1886801E+04  0.7818609E-02  0.8661455E-01
        1   -1    0    0  501    0  0.00000000000E+00  0.00000000000E+00  0.11069086334E+04  0.11069086334E+04  0.50400001928E-02 0.  1.
       -1   -1    0    0    0  501  0.00000000000E+00  0.00000000000E+00 -0.80404474972E+03  0.80404474974E+03  0.50400001928E-02 0. -1.
    10030    2    1    2    0    0  0.00000000000E+00  0.00000000000E+00  0.30286388369E+03  0.19109533832E+04  0.18868005460E+04 0.  0.
        3    1    3    3  502    0  0.87011781796E+02 -0.49068309684E+02 -0.79867323045E+03  0.80489607306E+03  0.10100000352E+00 0. -1.
       -3    1    3    3    0  502 -0.87011781796E+02  0.49068309684E+02  0.11015371141E+04  0.11060573101E+04  0.10100000352E+00 0.  1.
</event>
<event>
 5   0  0.8587082E-05  0.1898699E+04  0.7818609E-02  0.8655504E-01
       -1   -1    0    0    0  501  0.00000000000E+00  0.00000000000E+00  0.73666379220E+03  0.73666379222E+03  0.50400001928E-02 0.  1.
        1   -1    0    0  501    0  0.00000000000E+00  0.00000000000E+00 -0.12234405612E+04  0.12234405612E+04  0.50400001928E-02 0. -1.
    10030    2    1    2    0    0  0.00000000000E+00  0.00000000000E+00 -0.48677676896E+03  0.19601043534E+04  0.18986988843E+04 0.  0.
        5    1    3    3  502    0 -0.80370470832E+03 -0.45672111325E+03 -0.20281310611E+02  0.92464525901E+03  0.46999998093E+01 0.  1.
       -5    1    3    3    0  502  0.80370470832E+03  0.45672111325E+03 -0.46649545835E+03  0.10354590944E+04  0.46999998093E+01 0. -1.
</event>
<event>
 5   0  0.1810569E-04  0.1813213E+04  0.7818609E-02  0.8699304E-01
        2   -1    0    0  501    0  0.00000000000E+00  0.00000000000E+00  0.10591925992E+04  0.10591925992E+04  0.25500000920E-02 0.  1.
       -2   -1    0    0    0  501  0.00000000000E+00  0.00000000000E+00 -0.77600155836E+03  0.77600155837E+03  0.25500000920E-02 0. -1.
    10030    2    1    2    0    0  0.00000000000E+00  0.00000000000E+00  0.28319104080E+03  0.18351941575E+04  0.18132127372E+04 0.  0.
        4    1    3    3  502    0  0.68443624185E+03  0.23577124309E+03 -0.41081635010E+03  0.83235373167E+03  0.12699999809E+01 0. -1.
       -4    1    3    3    0  502 -0.68443624185E+03 -0.23577124309E+03  0.69400739089E+03  0.10028404259E+04  0.12699999809E+01 0.  1.
</event>
<event>
 5   0  0.1765328E-04  0.1903048E+04  0.7818609E-02  0.8653341E-01
       -2   -1    0    0    0  501  0.00000000000E+00  0.00000000000E+00  0.49105358197E+03  0.49105358198E+03  0.25500000920E-02 0. -1.
        2   -1    0    0  501    0  0.00000000000E+00  0.00000000000E+00 -0.18437860434E+04  0.18437860434E+04  0.25500000920E-02 0.  1.
    10030    2    1    2    0    0  0.00000000000E+00  0.00000000000E+00 -0.13527324615E+04  0.23348396254E+04  0.19030478092E+04 0.  0.
        3    1    3    3  502    0  0.20244184196E+03  0.88857417045E+03 -0.10120312523E+04  0.13618935427E+04  0.10100000352E+00 0.  1.
       -3    1    3    3    0  502 -0.20244184196E+03 -0.88857417045E+03 -0.34070120914E+03  0.97294608272E+03  0.10100000352E+00 0. -1.
</event>
<event>
 5   0  0.1658711E-04  0.1901597E+04  0.7818609E-02  0.8654062E-01
        2   -1    0    0  501    0  0.00000000000E+00  0.00000000000E+00  0.13797831342E+04  0.13797831342E+04  0.25500000920E-02 0.  1.
       -2   -1    0    0    0  501  0.00000000000E+00  0.00000000000E+00 -0.65518844298E+03  0.65518844298E+03  0.25500000920E-02 0. -1.
    10030    2    1    2    0    0  0.00000000000E+00  0.00000000000E+00  0.72459469123E+03  0.20349715772E+04  0.19015971848E+04 0.  0.
        2    1    3    3  502    0 -0.76516406200E+03 -0.54277705738E+03  0.19673696163E+03  0.95853451052E+03  0.25500000920E-02 0. -1.
       -2    1    3    3    0  502  0.76516406200E+03  0.54277705738E+03  0.52785772960E+03  0.10764370667E+04  0.25500000920E-02 0.  1.
</event>
<event>
 5   0  0.1799738E-04  0.1875112E+04  0.7818609E-02  0.8667345E-01
        2   -1    0    0  501    0  0.00000000000E+00  0.00000000000E+00  0.14331782031E+04  0.14331782031E+04  0.25500000920E-02 0. -1.
       -2   -1    0    0    0  501  0.00000000000E+00  0.00000000000E+00 -0.61332993667E+03  0.61332993667E+03  0.25500000920E-02 0.  1.
    10030    2    1    2    0    0  0.00000000000E+00  0.00000000000E+00  0.81984826641E+03  0.20465081398E+04  0.18751118330E+04 0.  0.
        1    1    3    3  502    0  0.31545212765E+03 -0.84554967893E+03  0.68720738187E+03  0.11343360569E+04  0.50400001928E-02 0. -1.
       -1    1    3    3    0  502 -0.31545212765E+03  0.84554967893E+03  0.13264088454E+03  0.91217208280E+03  0.50400001928E-02 0.  1.
</event>
<event>
 5   0  0.1790832E-04  0.1684549E+04  0.7818609E-02  0.8770226E-01
       -2   -1    0    0    0  501  0.00000000000E+00  0.00000000000E+00  0.63993533739E+03  0.63993533740E+03  0.25500000920E-02 0.  1.
        2   -1    0    0  501    0  0.00000000000E+00  0.00000000000E+00 -0.11085912857E+04  0.11085912857E+04  0.25500000920E-02 0. -1.
    10030    2    1    2    0    0  0.00000000000E+00  0.00000000000E+00 -0.46865594832E+03  0.17485266231E+04  0.16845494810E+04 0.  0.
        5    1    3    3  502    0 -0.24833620097E+03 -0.58193282922E+03  0.34274338814E+03  0.71959141639E+03  0.46999998093E+01 0.  1.
       -5    1    3    3    0  502  0.24833620097E+03  0.58193282922E+03 -0.81139933646E+03  0.10289352067E+04  0.46999998093E+01 0. -1.
</event>
<event>
 5   0  0.1765328E-04  0.1907015E+04  0.7818609E-02  0.8651372E-01
       -2   -1    0    0    0  501  0.00000000000E+00  0.00000000000E+00  0.38831555207E+03  0.38831555208E+03  0.25500000920E-02 0.  1.
        2   -1    0    0  501    0  0.00000000000E+00  0.00000000000E+00 -0.23413346611E+04  0.23413346611E+04  0.25500000920E-02 0. -1.
    10030    2    1    2    0    0  0.00000000000E+00  0.00000000000E+00 -0.19530191090E+04  0.27296502131E+04  0.19070151143E+04 0.  0.
        3    1    3    3  502    0 -0.75151012563E+02  0.87971087978E+03 -0.14918789166E+04  0.17335632722E+04  0.10100000352E+00 0. -1.
       -3    1    3    3    0  502  0.75151012563E+02 -0.87971087978E+03 -0.46114019239E+03  0.99608694095E+03  0.10100000352E+00 0.  1.
</event>
<event>
 5   0  0.8905646E-05  0.1867444E+04  0.7818609E-02  0.8671234E-01
       -1   -1    0    0    0  501  0.00000000000E+00  0.00000000000E+00  0.31927686602E+03  0.31927686606E+03  0.50400001928E-02 0.  1.
        1   -1    0    0  501    0  0.00000000000E+00  0.00000000000E+00 -0.27306600418E+04  0.27306600418E+04  0.50400001928E-02 0. -1.
    10030    2    1    2    0    0  0.00000000000E+00  0.00000000000E+00 -0.24113831758E+04  0.30499369079E+04  0.18674437934E+04 0.  0.
        1    1    3    3  502    0  0.61098686546E+03 -0.41745596930E+02 -0.23568345792E+04  0.24351009996E+04  0.50400001928E-02 0. -1.
       -1    1    3    3    0  502 -0.61098686546E+03  0.41745596930E+02 -0.54548596566E+02  0.61483590823E+03  0.50400001928E-02 0.  1.
</event>
<event>
 5   0  0.8681396E-05  0.1865406E+04  0.7818609E-02  0.8672270E-01
       -1   -1    0    0    0  501  0.00000000000E+00  0.00000000000E+00  0.73455335913E+03  0.73455335914E+03  0.50400001928E-02 0.  1.
        1   -1    0    0  501    0  0.00000000000E+00  0.00000000000E+00 -0.11843043397E+04  0.11843043397E+04  0.50400001928E-02 0. -1.
    10030    2    1    2    0    0  0.00000000000E+00  0.00000000000E+00 -0.44975098055E+03  0.19188576988E+04  0.18654058335E+04 0.  0.
        3    1    3    3  502    0  0.15839401453E+03 -0.47084047164E+03 -0.10368971009E+04  0.11497543310E+04  0.10100000352E+00 0. -1.
       -3    1    3    3    0  502 -0.15839401453E+03  0.47084047164E+03  0.58714612035E+03  0.76910336784E+03  0.10100000352E+00 0.  1.
</event>
<event>
 5   0  0.8587082E-05  0.1775664E+04  0.7818609E-02  0.8719349E-01
       -1   -1    0    0    0  501  0.00000000000E+00  0.00000000000E+00  0.96610871717E+03  0.96610871718E+03  0.50400001928E-02 0.  1.
        1   -1    0    0  501    0  0.00000000000E+00  0.00000000000E+00 -0.81589786878E+03  0.81589786880E+03  0.50400001928E-02 0. -1.
    10030    2    1    2    0    0  0.00000000000E+00  0.00000000000E+00  0.15021084839E+03  0.17820065860E+04  0.17756644316E+04 0.  0.
        5    1    3    3  502    0 -0.22866907258E+02 -0.63394349323E+03  0.69846541349E+03  0.94354823506E+03  0.46999998093E+01 0.  1.
       -5    1    3    3    0  502  0.22866907258E+02  0.63394349323E+03 -0.54825456510E+03  0.83845835091E+03  0.46999998093E+01 0. -1.
</event>
<event>
 5   0  0.8681396E-05  0.1913591E+04  0.7818609E-02  0.8648121E-01
       -1   -1    0    0    0  501  0.00000000000E+00  0.00000000000E+00  0.17754233235E+04  0.17754233235E+04  0.50400001928E-02 0.  1.
        1   -1    0    0  501    0  0.00000000000E+00  0.00000000000E+00 -0.51562794345E+03  0.51562794347E+03  0.50400001928E-02 0. -1.
    10030    2    1    2    0    0  0.00000000000E+00  0.00000000000E+00  0.12597953800E+04  0.22910512670E+04  0.19135912595E+04 0.  0.
        3    1    3    3  502    0  0.60536134341E+03 -0.61135424013E+03  0.11310896721E+04  0.14211193544E+04  0.10100000352E+00 0.  1.
       -3    1    3    3    0  502 -0.60536134341E+03  0.61135424013E+03  0.12870570797E+03  0.86993191256E+03  0.10100000352E+00 0. -1.
</event>
<event>
 5   0  0.1658711E-04  0.1900675E+04  0.7818609E-02  0.8654521E-01
        2   -1    0    0  501    0  0.00000000000E+00  0.00000000000E+00  0.89559401054E+03  0.89559401054E+03  0.25500000920E-02 0. -1.
       -2   -1    0    0    0  501  0.00000000000E+00  0.00000000000E+00 -0.10084267937E+04  0.10084267937E+04  0.25500000920E-02 0.  1.
    10030    2    1    2    0    0  0.00000000000E+00  0.00000000000E+00 -0.11283278320E+03  0.19040208043E+04  0.19006746134E+04 0.  0.
        2    1    3    3  502    0  0.47634088105E+02 -0.55749415207E+03 -0.82593037260E+03  0.99761200691E+03  0.25500000920E-02 0.  1.
       -2    1    3    3    0  502 -0.47634088105E+02  0.55749415207E+03  0.71309758940E+03  0.90640879738E+03  0.25500000920E-02 0. -1.
</event>
<event>
 5   0  0.1765328E-04  0.1981260E+04  0.7818609E-02  0.8615433E-01
       -2   -1    0    0    0  501  0.00000000000E+00  0.00000000000E+00  0.84217731602E+03  0.84217731602E+03  0.25500000920E-02 0. -1.
        2   -1    0    0  501    0  0.00000000000E+00  0.00000000000E+00 -0.11652508239E+04  0.11652508240E+04  0.25500000920E-02 0.  1.
    10030    2    1    2    0    0  0.00000000000E+00  0.00000000000E+00 -0.32307350793E+03  0.20074281400E+04  0.19812600146E+04 0.  0.
        3    1    3    3  502    0  0.98385734769E+03 -0.19231131557E+02 -0.27707214536E+03  0.10223082221E+04  0.10100000352E+00 0.  1.
       -3    1    3    3    0  502 -0.98385734769E+03  0.19231131557E+02 -0.46001362572E+02  0.98511991787E+03  0.10100000352E+00 0. -1.
</event>
<event>
 5   0  0.8681396E-05  0.1944140E+04  0.7818609E-02  0.8633192E-01
       -1   -1    0    0    0  501  0.00000000000E+00  0.00000000000E+00  0.64112837413E+03  0.64112837415E+03  0.50400001928E-02 0. -1.
        1   -1    0    0  501    0  0.00000000000E+00  0.00000000000E+00 -0.14738385085E+04  0.14738385085E+04  0.50400001928E-02 0.  1.
    10030    2    1    2    0    0  0.00000000000E+00  0.00000000000E+00 -0.83271013434E+03  0.21149668826E+04  0.19441395904E+04 0.  0.
        3    1    3    3  502    0 -0.39770568142E+03 -0.23354382806E+03 -0.13472338016E+04  0.14239913816E+04  0.10100000352E+00 0.  1.
       -3    1    3    3    0  502  0.39770568142E+03  0.23354382806E+03  0.51452366723E+03  0.69097550101E+03  0.10100000352E+00 0. -1.
</event>
<event>
 5   0  0.8602017E-05  0.1884265E+04  0.7818609E-02  0.8662728E-01
       -1   -1    0    0    0  501  0.00000000000E+00  0.00000000000E+00  0.94314780104E+03  0.94314780106E+03  0.50400001928E-02 0. -1.
        1   -1    0    0  501    0  0.00000000000E+00  0.00000000000E+00 -0.94111867545E+03  0.94111867547E+03  0.50400001928E-02 0.  1.
    10030    2    1    2    0    0  0.00000000000E+00  0.00000000000E+00  0.20291255897E+01  0.18842664765E+04  0.18842653840E+04 0.  0.
        2    1    3    3  502    0  0.45775342667E+03 -0.20623047323E+03  0.79822566319E+03  0.94299173756E+03  0.25500000920E-02 0. -1.
       -2    1    3    3    0  502 -0.45775342667E+03  0.20623047323E+03 -0.79619653760E+03  0.94127473897E+03  0.25500000920E-02 0.  1.
</event>
<event>
 5   0  0.1658711E-04  0.1909908E+04  0.7818609E-02  0.8649940E-01
       -2   -1    0    0    0  501  0.00000000000E+00  0.00000000000E+00  0.52980563555E+03  0.52980563555E+03  0.25500000920E-02 0.  1.
        2   -1    0    0  501    0  0.00000000000E+00  0.00000000000E+00 -0.17212680453E+04  0.17212680453E+04  0.25500000920E-02 0. -1.
    10030    2    1    2    0    0  0.00000000000E+00  0.00000000000E+00 -0.11914624098E+04  0.22510736809E+04  0.19099083860E+04 0.  0.
        2    1    3    3  502    0 -0.66000038311E+03  0.69001433451E+03 -0.57835998795E+03  0.11163424937E+04  0.25500000920E-02 0. -1.
       -2    1    3    3    0  502  0.66000038311E+03 -0.69001433451E+03 -0.61310242181E+03  0.11347311872E+04  0.25500000920E-02 0.  1.
</event>
<event>
 5   0  0.8567844E-05  0.1909100E+04  0.7818609E-02  0.8650340E-01
        1   -1    0    0  501    0  0.00000000000E+00  0.00000000000E+00  0.99420140879E+03  0.99420140880E+03  0.50400001928E-02 0. -1.
       -1   -1    0    0    0  501  0.00000000000E+00  0.00000000000E+00 -0.91647985453E+03  0.91647985455E+03  0.50400001928E-02 0.  1.
    10030    2    1    2    0    0  0.00000000000E+00  0.00000000000E+00  0.77721554256E+02  0.19106812634E+04  0.19090998534E+04 0.  0.
        4    1    3    3  502    0 -0.63559488880E+03  0.63539245063E+03  0.36077845884E+03  0.96843540737E+03  0.12699999809E+01 0.  1.
       -4    1    3    3    0  502  0.63559488880E+03 -0.63539245063E+03 -0.28305690458E+03  0.94224585598E+03  0.12699999809E+01 0. -1.
</event>
<event>
 5   0  0.1799738E-04  0.1921677E+04  0.7818609E-02  0.8644141E-01
       -2   -1    0    0    0  501  0.00000000000E+00  0.00000000000E+00  0.37054466622E+03  0.37054466623E+03  0.25500000920E-02 0. -1.
        2   -1    0    0  501    0  0.00000000000E+00  0.00000000000E+00 -0.24914957765E+04  0.24914957765E+04  0.25500000920E-02 0.  1.
    10030    2    1    2    0    0  0.00000000000E+00  0.00000000000E+00 -0.21209511102E+04  0.28620404427E+04  0.19216768416E+04 0.  0.
        1    1    3    3  502    0  0.59011111862E+03 -0.22621257807E+03 -0.21383821900E+04  0.22298165066E+04  0.50400001928E-02 0.  1.
       -1    1    3    3    0  502 -0.59011111862E+03  0.22621257807E+03  0.17431079716E+02  0.63222393609E+03  0.50400001928E-02 0. -1.
</event>
<event>
 5   0  0.8567844E-05  0.1903376E+04  0.7818609E-02  0.8653178E-01
        1   -1    0    0  501    0  0.00000000000E+00  0.00000000000E+00  0.25342590288E+04  0.25342590288E+04  0.50400001928E-02 0. -1.
       -1   -1    0    0    0  501  0.00000000000E+00  0.00000000000E+00 -0.35738653625E+03  0.35738653629E+03  0.50400001928E-02 0.  1.
    10030    2    1    2    0    0  0.00000000000E+00  0.00000000000E+00  0.21768724925E+04  0.28916455650E+04  0.19033760073E+04 0.  0.
        4    1    3    3  502    0 -0.88212760535E+02 -0.76015044373E+03  0.22890410287E+03  0.79875458649E+03  0.12699999809E+01 0. -1.
       -4    1    3    3    0  502  0.88212760535E+02  0.76015044373E+03  0.19479683896E+04  0.20928909786E+04  0.12699999809E+01 0.  1.
</event>
<event>
 5   0  0.8681396E-05  0.1876415E+04  0.7818609E-02  0.8666686E-01
       -1   -1    0    0    0  501  0.00000000000E+00  0.00000000000E+00  0.70269854228E+03  0.70269854230E+03  0.50400001928E-02 0. -1.
        1   -1    0    0  501    0  0.00000000000E+00  0.00000000000E+00 -0.12526470637E+04  0.12526470637E+04  0.50400001928E-02 0.  1.
    10030    2    1    2    0    0  0.00000000000E+00  0.00000000000E+00 -0.54994852145E+03  0.19553456060E+04  0.18764149495E+04 0.  0.
        3    1    3    3  502    0 -0.74402263567E+03 -0.53831348242E+03 -0.74848560297E+02  0.92138667503E+03  0.10100000352E+00 0. -1.
       -3    1    3    3    0  502  0.74402263567E+03  0.53831348242E+03 -0.47509996115E+03  0.10339589310E+04  0.10100000352E+00 0.  1.
</event>
<event>
 5   0  0.8602017E-05  0.1912354E+04  0.7818609E-02  0.8648731E-01
       -1   -1    0    0    0  501  0.00000000000E+00  0.00000000000E+00  0.10252039731E+04  0.10252039731E+04  0.50400001928E-02 0. -1.
        1   -1    0    0  501    0  0.00000000000E+00  0.00000000000E+00 -0.89179779093E+03  0.89179779094E+03  0.50400001928E-02 0.  1.
    10030    2    1    2    0    0  0.00000000000E+00  0.00000000000E+00  0.13340618217E+03  0.19170017641E+04  0.19123541915E+04 0.  0.
        2    1    3    3  502    0 -0.31176683879E+03 -0.25426162617E+03  0.93623674551E+03  0.10190126496E+04  0.25500000920E-02 0. -1.
       -2    1    3    3    0  502  0.31176683879E+03  0.25426162617E+03 -0.80283056334E+03  0.89798911449E+03  0.25500000920E-02 0.  1.
</event>
<event>
 5   0  0.1799738E-04  0.1896727E+04  0.7818609E-02  0.8656487E-01
       -2   -1    0    0    0  501  0.00000000000E+00  0.00000000000E+00  0.41901209143E+03  0.41901209143E+03  0.25500000920E-02 0. -1.
        2   -1    0    0  501    0  0.00000000000E+00  0.00000000000E+00 -0.21464618097E+04  0.21464618097E+04  0.25500000920E-02 0.  1.
    10030    2    1    2    0    0  0.00000000000E+00  0.00000000000E+00 -0.17274497183E+04  0.25654739012E+04  0.18967271307E+04 0.  0.
        1    1    3    3  502    0  0.77396727670E+03  0.54434790019E+03 -0.77761036846E+03  0.12247521655E+04  0.50400001928E-02 0. -1.
       -1    1    3    3    0  502 -0.77396727670E+03 -0.54434790019E+03 -0.94983934987E+03  0.13407217356E+04  0.50400001928E-02 0.  1.
</event>
<event>
 5   0  0.1790832E-04  0.1904906E+04  0.7818609E-02  0.8652418E-01
        2   -1    0    0  501    0  0.00000000000E+00  0.00000000000E+00  0.13872356945E+04  0.13872356945E+04  0.25500000920E-02 0. -1.
       -2   -1    0    0    0  501  0.00000000000E+00  0.00000000000E+00 -0.65393870469E+03  0.65393870470E+03  0.25500000920E-02 0.  1.
    10030    2    1    2    0    0  0.00000000000E+00  0.00000000000E+00  0.73329698980E+03  0.20411743992E+04  0.19049064157E+04 0.  0.
        5    1    3    3  502    0  0.17168179968E+03  0.71231302626E+03  0.10186849981E+04  0.12548329384E+04  0.46999998093E+01 0. -1.
       -5    1    3    3    0  502 -0.17168179968E+03 -0.71231302626E+03 -0.28538800834E+03  0.78634146084E+03  0.46999998093E+01 0.  1.
</event>
<event>
 5   0  0.8587082E-05  0.1890181E+04  0.7818609E-02  0.8659760E-01
        1   -1    0    0  501    0  0.00000000000E+00  0.00000000000E+00  0.65775945559E+03  0.65775945561E+03  0.50400001928E-02 0. -1.
       -1   -1    0    0    0  501  0.00000000000E+00  0.00000000000E+00 -0.13579366320E+04  0.13579366320E+04  0.50400001928E-02 0.  1.
    10030    2    1    2    0    0  0.00000000000E+00  0.00000000000E+00 -0.70017717640E+03  0.20156960876E+04  0.18901805838E+04 0.  0.
        5    1    3    3  502    0 -0.50944947915E+03 -0.13573162200E+03  0.48634999363E+03  0.71730067009E+03  0.46999998093E+01 0. -1.
       -5    1    3    3    0  502  0.50944947915E+03  0.13573162200E+03 -0.11865271700E+04  0.12983954175E+04  0.46999998093E+01 0.  1.
</event>
<event>
 5   0  0.1810569E-04  0.1887539E+04  0.7818609E-02  0.8661084E-01
        2   -1    0    0  501    0  0.00000000000E+00  0.00000000000E+00  0.13609980502E+04  0.13609980502E+04  0.25500000920E-02 0. -1.
       -2   -1    0    0    0  501  0.00000000000E+00  0.00000000000E+00 -0.65444652105E+03  0.65444652106E+03  0.25500000920E-02 0.  1.
    10030    2    1    2    0    0  0.00000000000E+00  0.00000000000E+00  0.70655152917E+03  0.20154445713E+04  0.18875385444E+04 0.  0.
        4    1    3    3  502    0 -0.68907402426E+03 -0.32126988299E+03  0.95032784753E+03  0.12170299829E+04  0.12699999809E+01 0. -1.
       -4    1    3    3    0  502  0.68907402426E+03  0.32126988299E+03 -0.24377631835E+03  0.79841458837E+03  0.12699999809E+01 0.  1.
</event>
<event>
 5   0  0.8905646E-05  0.2025619E+04  0.7818609E-02  0.8594736E-01
        1   -1    0    0  501    0  0.00000000000E+00  0.00000000000E+00  0.11077508120E+04  0.11077508120E+04  0.50400001928E-02 0.  1.
       -1   -1    0    0    0  501  0.00000000000E+00  0.00000000000E+00 -0.92600485381E+03  0.92600485382E+03  0.50400001928E-02 0. -1.
    10030    2    1    2    0    0  0.00000000000E+00  0.00000000000E+00  0.18174595821E+03  0.20337556658E+04  0.20256185512E+04 0.  0.
        1    1    3    3  502    0  0.23121698159E+03  0.29875480929E+03 -0.85261835014E+03  0.93256301646E+03  0.50400001928E-02 0. -1.
       -1    1    3    3    0  502 -0.23121698159E+03 -0.29875480929E+03  0.10343643083E+04  0.11011926494E+04  0.50400001928E-02 0.  1.
</event>
<event>
 5   0  0.8587082E-05  0.1894529E+04  0.7818609E-02  0.8657585E-01
        1   -1    0    0  501    0  0.00000000000E+00  0.00000000000E+00  0.10147658802E+04  0.10147658802E+04  0.50400001928E-02 0. -1.
       -1   -1    0    0    0  501  0.00000000000E+00  0.00000000000E+00 -0.88425285878E+03  0.88425285880E+03  0.50400001928E-02 0.  1.
    10030    2    1    2    0    0  0.00000000000E+00  0.00000000000E+00  0.13051302144E+03  0.18990187390E+04  0.18945285753E+04 0.  0.
        5    1    3    3  502    0  0.22145418013E+03 -0.35450281900E+03  0.91731431069E+03  0.10080683693E+04  0.46999998093E+01 0. -1.
       -5    1    3    3    0  502 -0.22145418013E+03  0.35450281900E+03 -0.78680128925E+03  0.89095036974E+03  0.46999998093E+01 0.  1.
</event>
<event>
 5   0  0.8602017E-05  0.1897192E+04  0.7818609E-02  0.8656255E-01
        1   -1    0    0  501    0  0.00000000000E+00  0.00000000000E+00  0.11932323911E+04  0.11932323911E+04  0.50400001928E-02 0. -1.
       -1   -1    0    0    0  501  0.00000000000E+00  0.00000000000E+00 -0.75411495454E+03  0.75411495456E+03  0.50400001928E-02 0.  1.
    10030    2    1    2    0    0  0.00000000000E+00  0.00000000000E+00  0.43911743651E+03  0.19473473456E+04  0.18971920202E+04 0.  0.
        2    1    3    3  502    0 -0.50054270175E+03  0.55303310515E+03 -0.38197672973E+03  0.83803032984E+03  0.25500000920E-02 0.  1.
       -2    1    3    3    0  502  0.50054270175E+03 -0.55303310515E+03  0.82109416624E+03  0.11093170158E+04  0.25500000920E-02 0. -1.
</event>
<event>
 5   0  0.8602017E-05  0.1886933E+04  0.7818609E-02  0.8661388E-01
       -1   -1    0    0    0  501  0.00000000000E+00  0.00000000000E+00  0.13989331807E+04  0.13989331807E+04  0.50400001928E-02 0.  1.
        1   -1    0    0  501    0  0.00000000000E+00  0.00000000000E+00 -0.63629142195E+03  0.63629142197E+03  0.50400001928E-02 0. -1.
    10030    2    1    2    0    0  0.00000000000E+00  0.00000000000E+00  0.76264175879E+03  0.20352246027E+04  0.18869331549E+04 0.  0.
        2    1    3    3  502    0 -0.58764832952E+02 -0.94140485544E+03  0.35888272713E+03  0.10092042505E+04  0.25500000920E-02 0.  1.
       -2    1    3    3    0  502  0.58764832952E+02  0.94140485544E+03  0.40375903166E+03  0.10260203522E+04  0.25500000920E-02 0. -1.
</event>
<event>
 5   0  0.8587082E-05  0.1918154E+04  0.7818609E-02  0.8645872E-01
        1   -1    0    0  501    0  0.00000000000E+00  0.00000000000E+00  0.19538715127E+04  0.19538715127E+04  0.50400001928E-02 0. -1.
       -1   -1    0    0    0  501  0.00000000000E+00  0.00000000000E+00 -0.47077224383E+03  0.47077224386E+03  0.50400001928E-02 0.  1.
    10030    2    1    2    0    0  0.00000000000E+00  0.00000000000E+00  0.14830992688E+04  0.24246437565E+04  0.19181537751E+04 0.  0.
        5    1    3    3  502    0 -0.42492124208E+03 -0.25885193212E+02 -0.34478289355E+03  0.54783705504E+03  0.46999998093E+01 0.  1.
       -5    1    3    3    0  502  0.42492124208E+03  0.25885193212E+02  0.18278821624E+04  0.18768067015E+04  0.46999998093E+01 0. -1.
</event>
<event>
 5   0  0.8587082E-05  0.1903006E+04  0.7818609E-02  0.8653362E-01
       -1   -1    0    0    0  501  0.00000000000E+00  0.00000000000E+00  0.74531703466E+03  0.74531703468E+03  0.50400001928E-02 0. -1.
        1   -1    0    0  501    0  0.00000000000E+00  0.00000000000E+00 -0.12147281178E+04  0.12147281178E+04  0.50400001928E-02 0.  1.
    10030    2    1    2    0    0  0.00000000000E+00  0.00000000000E+00 -0.46941108316E+03  0.19600451525E+04  0.19030055793E+04 0.  0.
        5    1    3    3  502    0  0.84747664733E+03 -0.15770632488E+03  0.18016733521E+03  0.88066469860E+03  0.46999998093E+01 0.  1.
       -5    1    3    3    0  502 -0.84747664733E+03  0.15770632488E+03 -0.64957841837E+03  0.10793804539E+04  0.46999998093E+01 0. -1.
</event>
<event>
 5   0  0.8602017E-05  0.1856584E+04  0.7818609E-02  0.8676774E-01
        1   -1    0    0  501    0  0.00000000000E+00  0.00000000000E+00  0.15940105623E+04  0.15940105623E+04  0.50400001928E-02 0.  1.
       -1   -1    0    0    0  501  0.00000000000E+00  0.00000000000E+00 -0.54060263933E+03  0.54060263935E+03  0.50400001928E-02 0. -1.
    10030    2    1    2    0    0  0.00000000000E+00  0.00000000000E+00  0.10534079230E+04  0.21346132017E+04  0.18565843015E+04 0.  0.
        2    1    3    3  502    0  0.34756020064E+03 -0.86016139545E+03  0.56397081865E+03  0.10856973812E+04  0.25500000920E-02 0. -1.
       -2    1    3    3    0  502 -0.34756020064E+03  0.86016139545E+03  0.48943710433E+03  0.10489158204E+04  0.25500000920E-02 0.  1.
</event>
<event>
 5   0  0.8602017E-05  0.1901756E+04  0.7818609E-02  0.8653983E-01
        1   -1    0    0  501    0  0.00000000000E+00  0.00000000000E+00  0.89014225418E+03  0.89014225420E+03  0.50400001928E-02 0. -1.
       -1   -1    0    0    0  501  0.00000000000E+00  0.00000000000E+00 -0.10157582895E+04  0.10157582895E+04  0.50400001928E-02 0.  1.
    10030    2    1    2    0    0  0.00000000000E+00  0.00000000000E+00 -0.12561603527E+03  0.19059005437E+04  0.19017564234E+04 0.  0.
        2    1    3    3  502    0 -0.26868240011E+02 -0.84283982059E+03 -0.50316112201E+03  0.98197351298E+03  0.25500000920E-02 0.  1.
       -2    1    3    3    0  502  0.26868240011E+02  0.84283982059E+03  0.37754508673E+03  0.92392703068E+03  0.25500000920E-02 0. -1.
</event>
<event>
 5   0  0.6375750E-05  0.1898574E+04  0.7818609E-02  0.8655566E-01
        4   -1    0    0  501    0  0.00000000000E+00  0.00000000000E+00  0.21294477867E+04  0.21294481654E+04  0.12699999809E+01 0.  1.
       -4   -1    0    0    0  501  0.00000000000E+00  0.00000000000E+00 -0.42318163842E+03  0.42318354409E+03  0.12699999809E+01 0. -1.
    10030    2    1    2    0    0  0.00000000000E+00  0.00000000000E+00  0.17062661483E+04  0.25526317095E+04  0.18985743271E+04 0.  0.
        5    1    3    3  502    0 -0.14943134575E+03 -0.31083254165E+03  0.20422188848E+04  0.20711413905E+04  0.46999998093E+01 0.  1.
       -5    1    3    3    0  502  0.14943134575E+03  0.31083254165E+03 -0.33595273656E+03  0.48149031895E+03  0.46999998093E+01 0. -1.
</event>
<event>
 5   0  0.1799738E-04  0.1910199E+04  0.7818609E-02  0.8649796E-01
       -2   -1    0    0    0  501  0.00000000000E+00  0.00000000000E+00  0.41168270983E+03  0.41168270984E+03  0.25500000920E-02 0.  1.
        2   -1    0    0  501    0  0.00000000000E+00  0.00000000000E+00 -0.22158214332E+04  0.22158214332E+04  0.25500000920E-02 0. -1.
    10030    2    1    2    0    0  0.00000000000E+00  0.00000000000E+00 -0.18041387234E+04  0.26275041431E+04  0.19101993322E+04 0.  0.
        1    1    3    3  502    0  0.85159074724E+03  0.24468223703E+03 -0.41160843570E+03  0.97698398260E+03  0.50400001928E-02 0.  1.
       -1    1    3    3    0  502 -0.85159074724E+03 -0.24468223703E+03 -0.13925302877E+04  0.16505201605E+04  0.50400001928E-02 0. -1.
</event>
<event>
 5   0  0.8587082E-05  0.1909650E+04  0.7818609E-02  0.8650068E-01
        1   -1    0    0  501    0  0.00000000000E+00  0.00000000000E+00  0.64069001600E+03  0.64069001602E+03  0.50400001928E-02 0. -1.
       -1   -1    0    0    0  501  0.00000000000E+00  0.00000000000E+00 -0.14229821173E+04  0.14229821173E+04  0.50400001928E-02 0.  1.
    10030    2    1    2    0    0  0.00000000000E+00  0.00000000000E+00 -0.78229210132E+03  0.20636721333E+04  0.19096496386E+04 0.  0.
        5    1    3    3  502    0 -0.21098074443E+03  0.82358862726E+03 -0.86077388446E+03  0.12098615093E+04  0.46999998093E+01 0.  1.
       -5    1    3    3    0  502  0.21098074443E+03 -0.82358862726E+03  0.78481783139E+02  0.85381062406E+03  0.46999998093E+01 0. -1.
</event>
<event>
 5   0  0.8602017E-05  0.1892859E+04  0.7818609E-02  0.8658419E-01
        1   -1    0    0  501    0  0.00000000000E+00  0.00000000000E+00  0.69342679662E+03  0.69342679664E+03  0.50400001928E-02 0.  1.
       -1   -1    0    0    0  501  0.00000000000E+00  0.00000000000E+00 -0.12917421764E+04  0.12917421764E+04  0.50400001928E-02 0. -1.
    10030    2    1    2    0    0  0.00000000000E+00  0.00000000000E+00 -0.59831537978E+03  0.19851689730E+04  0.18928588320E+04 0.  0.
        2    1    3    3  502    0  0.85837371269E+03 -0.58942203120E+02  0.11434015933E+03  0.86795926517E+03  0.25500000920E-02 0.  1.
       -2    1    3    3    0  502 -0.85837371269E+03  0.58942203120E+02 -0.71265553911E+03  0.11172097079E+04  0.25500000920E-02 0. -1.
</event>
<event>
 5   0  0.8905646E-05  0.1885248E+04  0.7818609E-02  0.8662235E-01
       -1   -1    0    0    0  501  0.00000000000E+00  0.00000000000E+00  0.10536363785E+04  0.10536363785E+04  0.50400001928E-02 0.  1.
        1   -1    0    0  501    0  0.00000000000E+00  0.00000000000E+00 -0.84330781651E+03  0.84330781652E+03  0.50400001928E-02 0. -1.
    10030    2    1    2    0    0  0.00000000000E+00  0.00000000000E+00  0.21032856196E+03  0.18969441950E+04  0.18852477755E+04 0.  0.
        1    1    3    3  502    0  0.14325032074E+03 -0.82830218891E+03 -0.32401998836E+03  0.90088518881E+03  0.50400001928E-02 0. -1.
       -1    1    3    3    0  502 -0.14325032074E+03  0.82830218891E+03  0.53434855032E+03  0.99605900618E+03  0.50400001928E-02 0.  1.
</event>
<event>
 5   0  0.1790832E-04  0.1726567E+04  0.7818609E-02  0.8746356E-01
        2   -1    0    0  501    0  0.00000000000E+00  0.00000000000E+00  0.14818243046E+04  0.14818243046E+04  0.25500000920E-02 0.  1.
       -2   -1    0    0    0  501  0.00000000000E+00  0.00000000000E+00 -0.50293295739E+03  0.50293295740E+03  0.25500000920E-02 0. -1.
    10030    2    1    2    0    0  0.00000000000E+00  0.00000000000E+00  0.97889134719E+03  0.19847572620E+04  0.17265668592E+04 0.  0.
        5    1    3    3  502    0  0.83446382454E+03  0.15602053691E+03  0.66961162742E+03  0.10812373023E+04  0.46999998093E+01 0. -1.
       -5    1    3    3    0  502 -0.83446382454E+03 -0.15602053691E+03  0.30927971977E+03  0.90351995964E+03  0.46999998093E+01 0.  1.
</event>
<event>
 5   0  0.1790832E-04  0.1899007E+04  0.7818609E-02  0.8655351E-01
        2   -1    0    0  501    0  0.00000000000E+00  0.00000000000E+00  0.49743604845E+03  0.49743604845E+03  0.25500000920E-02 0.  1.
       -2   -1    0    0    0  501  0.00000000000E+00  0.00000000000E+00 -0.18124080524E+04  0.18124080524E+04  0.25500000920E-02 0. -1.
    10030    2    1    2    0    0  0.00000000000E+00  0.00000000000E+00 -0.13149720039E+04  0.23098441008E+04  0.18990072140E+04 0.  0.
        5    1    3    3  502    0 -0.34568699209E+03  0.55763526347E+03 -0.14923248729E+04  0.16301877805E+04  0.46999998093E+01 0. -1.
       -5    1    3    3    0  502  0.34568699209E+03 -0.55763526347E+03  0.17735286898E+03  0.67965632028E+03  0.46999998093E+01 0.  1.
</event>
<event>
 5   0  0.1810569E-04  0.1910690E+04  0.7818609E-02  0.8649553E-01
       -2   -1    0    0    0  501  0.00000000000E+00  0.00000000000E+00  0.70705543384E+03  0.70705543384E+03  0.25500000920E-02 0. -1.
        2   -1    0    0  501    0  0.00000000000E+00  0.00000000000E+00 -0.12908243871E+04  0.12908243871E+04  0.25500000920E-02 0.  1.
    10030    2    1    2    0    0  0.00000000000E+00  0.00000000000E+00 -0.58376895323E+03  0.19978798209E+04  0.19106903433E+04 0.  0.
        4    1    3    3  502    0 -0.28208291670E+03  0.22551108587E+03  0.63292807383E+03  0.72871502062E+03  0.12699999809E+01 0. -1.
       -4    1    3    3    0  502  0.28208291670E+03 -0.22551108587E+03 -0.12166970271E+04  0.12691648003E+04  0.12699999809E+01 0.  1.
</event>
<event>
 5   0  0.8587082E-05  0.1844311E+04  0.7818609E-02  0.8683084E-01
       -1   -1    0    0    0  501  0.00000000000E+00  0.00000000000E+00  0.71536724186E+03  0.71536724188E+03  0.50400001928E-02 0.  1.
        1   -1    0    0  501    0  0.00000000000E+00  0.00000000000E+00 -0.11887191275E+04  0.11887191275E+04  0.50400001928E-02 0. -1.
    10030    2    1    2    0    0  0.00000000000E+00  0.00000000000E+00 -0.47335188560E+03  0.19040863693E+04  0.18443109538E+04 0.  0.
        5    1    3    3  502    0  0.27123187819E+03 -0.84120338255E+03 -0.50817988009E+03  0.10195384951E+04  0.46999998093E+01 0. -1.
       -5    1    3    3    0  502 -0.27123187819E+03  0.84120338255E+03  0.34827994489E+02  0.88454787420E+03  0.46999998093E+01 0.  1.
</event>
<event>
 5   0  0.1658711E-04  0.1887865E+04  0.7818609E-02  0.8660921E-01
       -2   -1    0    0    0  501  0.00000000000E+00  0.00000000000E+00  0.59069271988E+03  0.59069271988E+03  0.25500000920E-02 0. -1.
        2   -1    0    0  501    0  0.00000000000E+00  0.00000000000E+00 -0.15084123025E+04  0.15084123025E+04  0.25500000920E-02 0.  1.
    10030    2    1    2    0    0  0.00000000000E+00  0.00000000000E+00 -0.91771958265E+03  0.20991050224E+04  0.18878645774E+04 0.  0.
        2    1    3    3  502    0 -0.65887000136E+03  0.59736094329E+03 -0.81057413987E+03  0.12033204941E+04  0.25500000920E-02 0.  1.
       -2    1    3    3    0  502  0.65887000136E+03 -0.59736094329E+03 -0.10714544277E+03  0.89578452832E+03  0.25500000920E-02 0. -1.
</event>
<event>
 5   0  0.8602017E-05  0.1889189E+04  0.7818609E-02  0.8660256E-01
        1   -1    0    0  501    0  0.00000000000E+00  0.00000000000E+00  0.65524844043E+03  0.65524844045E+03  0.50400001928E-02 0.  1.
       -1   -1    0    0    0  501  0.00000000000E+00  0.00000000000E+00 -0.13617112177E+04  0.13617112177E+04  0.50400001928E-02 0. -1.
    10030    2    1    2    0    0  0.00000000000E+00  0.00000000000E+00 -0.70646277731E+03  0.20169596582E+04  0.18891894048E+04 0.  0.
        2    1    3    3  502    0  0.93682539198E+03 -0.11498584723E+03 -0.31334718833E+03  0.99450993990E+03  0.25500000920E-02 0. -1.
       -2    1    3    3    0  502 -0.93682539198E+03  0.11498584723E+03 -0.39311558898E+03  0.10224497183E+04  0.25500000920E-02 0.  1.
</event>
<event>
 5   0  0.1658711E-04  0.1889096E+04  0.7818609E-02  0.8660303E-01
       -2   -1    0    0    0  501  0.00000000000E+00  0.00000000000E+00  0.72334995143E+03  0.72334995144E+03  0.25500000920E-02 0.  1.
        2   -1    0    0  501    0  0.00000000000E+00  0.00000000000E+00 -0.12333881305E+04  0.12333881305E+04  0.25500000920E-02 0. -1.
    10030    2    1    2    0    0  0.00000000000E+00  0.00000000000E+00 -0.51003817907E+03  0.19567380819E+04  0.18890963388E+04 0.  0.
        2    1    3    3  502    0 -0.50344374982E+03 -0.74841965239E+03  0.35346209980E+02  0.90268318910E+03  0.25500000920E-02 0.  1.
       -2    1    3    3    0  502  0.50344374982E+03  0.74841965239E+03 -0.54538438905E+03  0.10540548929E+04  0.25500000920E-02 0. -1.
</event>
<event>
 5   0  0.8587082E-05  0.1892498E+04  0.7818609E-02  0.8658600E-01
        1   -1    0    0  501    0  0.00000000000E+00  0.00000000000E+00  0.20207927887E+04  0.20207927887E+04  0.50400001928E-02 0. -1.
       -1   -1    0    0    0  501  0.00000000000E+00  0.00000000000E+00 -0.44308709222E+03  0.44308709225E+03  0.50400001928E-02 0.  1.
    10030    2    1    2    0    0  0.00000000000E+00  0.00000000000E+00  0.15777056964E+04  0.24638798809E+04  0.18924980325E+04 0.  0.
        5    1    3    3  502    0  0.79708253984E+03  0.48840013717E+03  0.59799909711E+03  0.11097298227E+04  0.46999998093E+01 0. -1.
       -5    1    3    3    0  502 -0.79708253984E+03 -0.48840013717E+03  0.97970659934E+03  0.13541500582E+04  0.46999998093E+01 0.  1.
</event>
<event>
 5   0  0.1810569E-04  0.1865027E+04  0.7818609E-02  0.8672463E-01
       -2   -1    0    0    0  501  0.00000000000E+00  0.00000000000E+00  0.50093324151E+03  0.50093324152E+03  0.25500000920E-02 0. -1.
        2   -1    0    0  501    0  0.00000000000E+00  0.00000000000E+00 -0.17359220029E+04  0.17359220029E+04  0.25500000920E-02 0.  1.
    10030    2    1    2    0    0  0.00000000000E+00  0.00000000000E+00 -0.12349887614E+04  0.22368552444E+04  0.18650265799E+04 0.  0.
        4    1    3    3  502    0 -0.70606962370E+01  0.90983184501E+03 -0.86251695526E+03  0.12537068839E+04  0.12699999809E+01 0.  1.
       -4    1    3    3    0  502  0.70606962370E+01 -0.90983184501E+03 -0.37247180615E+03  0.98314836058E+03  0.12699999809E+01 0. -1.
</event>
<event>
 5   0  0.8905646E-05  0.1903806E+04  0.7818609E-02  0.8652964E-01
        1   -1    0    0  501    0  0.00000000000E+00  0.00000000000E+00  0.14064280956E+04  0.14064280956E+04  0.50400001928E-02 0.  1.
       -1   -1    0    0    0  501  0.00000000000E+00  0.00000000000E+00 -0.64427013916E+03  0.64427013918E+03  0.50400001928E-02 0. -1.
    10030    2    1    2    0    0  0.00000000000E+00  0.00000000000E+00  0.76215795646E+03  0.20506982348E+04  0.19038063188E+04 0.  0.
        1    1    3    3  502    0  0.81265039733E+03  0.37805618922E+03  0.72642913213E+03  0.11537011894E+04  0.50400001928E-02 0. -1.
       -1    1    3    3    0  502 -0.81265039733E+03 -0.37805618922E+03  0.35728824330E+02  0.89699704536E+03  0.50400001928E-02 0.  1.
</event>
<event>
 5   0  0.8587082E-05  0.1864650E+04  0.7818609E-02  0.8672655E-01
        1   -1    0    0  501    0  0.00000000000E+00  0.00000000000E+00  0.19142922685E+04  0.19142922685E+04  0.50400001928E-02 0.  1.
       -1   -1    0    0    0  501  0.00000000000E+00  0.00000000000E+00 -0.45407360339E+03  0.45407360342E+03  0.50400001928E-02 0. -1.
    10030    2    1    2    0    0  0.00000000000E+00  0.00000000000E+00  0.14602186651E+04  0.23683658719E+04  0.18646496597E+04 0.  0.
        5    1    3    3  502    0  0.88037148443E+02  0.15059130257E+03  0.18933655407E+04  0.19013898707E+04  0.46999998093E+01 0.  1.
       -5    1    3    3    0  502 -0.88037148443E+02 -0.15059130257E+03 -0.43314687555E+03  0.46697600122E+03  0.46999998093E+01 0. -1.
</event>
<event>
 5   0  0.8905646E-05  0.1914147E+04  0.7818609E-02  0.8647846E-01
        1   -1    0    0  501    0  0.00000000000E+00  0.00000000000E+00  0.14431856140E+04  0.14431856140E+04  0.50400001928E-02 0.  1.
       -1   -1    0    0    0  501  0.00000000000E+00  0.00000000000E+00 -0.63469990166E+03  0.63469990168E+03  0.50400001928E-02 0. -1.
    10030    2    1    2    0    0  0.00000000000E+00  0.00000000000E+00  0.80848571233E+03  0.20778855157E+04  0.19141470866E+04 0.  0.
        1    1    3    3  502    0  0.55354732216E+03  0.69646295535E+03  0.78729353895E+03  0.11879841760E+04  0.50400001928E-02 0.  1.
       -1    1    3    3    0  502 -0.55354732216E+03 -0.69646295535E+03  0.21192173379E+02  0.88990133963E+03  0.50400001928E-02 0. -1.
</event>
<event>
 5   0  0.1658711E-04  0.1919908E+04  0.7818609E-02  0.8645010E-01
       -2   -1    0    0    0  501  0.00000000000E+00  0.00000000000E+00  0.51696254468E+03  0.51696254468E+03  0.25500000920E-02 0.  1.
        2   -1    0    0  501    0  0.00000000000E+00  0.00000000000E+00 -0.17825502505E+04  0.17825502505E+04  0.25500000920E-02 0. -1.
    10030    2    1    2    0    0  0.00000000000E+00  0.00000000000E+00 -0.12655877058E+04  0.22995127952E+04  0.19199080327E+04 0.  0.
        2    1    3    3  502    0  0.19248668415E+03 -0.93750532385E+03 -0.54361106905E+03  0.11006726808E+04  0.25500000920E-02 0.  1.
       -2    1    3    3    0  502 -0.19248668415E+03  0.93750532385E+03 -0.72197663677E+03  0.11988401144E+04  0.25500000920E-02 0. -1.
</event>
<event>
 5   0  0.1765328E-04  0.1894152E+04  0.7818609E-02  0.8657773E-01
       -2   -1    0    0    0  501  0.00000000000E+00  0.00000000000E+00  0.10200770570E+04  0.10200770570E+04  0.25500000920E-02 0. -1.
        2   -1    0    0  501    0  0.00000000000E+00  0.00000000000E+00 -0.87929956823E+03  0.87929956824E+03  0.25500000920E-02 0.  1.
    10030    2    1    2    0    0  0.00000000000E+00  0.00000000000E+00  0.14077748872E+03  0.18993766252E+04  0.18941523864E+04 0.  0.
        3    1    3    3  502    0 -0.50318039392E+03  0.12930064799E+03 -0.72365646519E+03  0.89083548212E+03  0.10100000352E+00 0.  1.
       -3    1    3    3    0  502  0.50318039392E+03 -0.12930064799E+03  0.86443395391E+03  0.10085411431E+04  0.10100000352E+00 0. -1.
</event>
<event>
 5   0  0.8587082E-05  0.1894764E+04  0.7818609E-02  0.8657467E-01
       -1   -1    0    0    0  501  0.00000000000E+00  0.00000000000E+00  0.54300817011E+03  0.54300817013E+03  0.50400001928E-02 0. -1.
        1   -1    0    0  501    0  0.00000000000E+00  0.00000000000E+00 -0.16528904457E+04  0.16528904457E+04  0.50400001928E-02 0.  1.
    10030    2    1    2    0    0  0.00000000000E+00  0.00000000000E+00 -0.11098822756E+04  0.21958986159E+04  0.18947643826E+04 0.  0.
        5    1    3    3  502    0  0.80771087228E+03  0.48549635873E+03 -0.44253476672E+03  0.10411352829E+04  0.46999998093E+01 0.  1.
       -5    1    3    3    0  502 -0.80771087228E+03 -0.48549635873E+03 -0.66734750888E+03  0.11547633330E+04  0.46999998093E+01 0. -1.
</event>
<event>
 5   0  0.1790832E-04  0.1927726E+04  0.7818609E-02  0.8641177E-01
        2   -1    0    0  501    0  0.00000000000E+00  0.00000000000E+00  0.21762544741E+04  0.21762544741E+04  0.25500000920E-02 0. -1.
       -2   -1    0    0    0  501  0.00000000000E+00  0.00000000000E+00 -0.42689466391E+03  0.42689466392E+03  0.25500000920E-02 0.  1.
    10030    2    1    2    0    0  0.00000000000E+00  0.00000000000E+00  0.17493598102E+04  0.26031491380E+04  0.19277255223E+04 0.  0.
        5    1    3    3  502    0 -0.14079239821E+03 -0.88976717405E+03  0.13375669438E+04  0.16126424100E+04  0.46999998093E+01 0.  1.
       -5    1    3    3    0  502  0.14079239821E+03  0.88976717405E+03  0.41179286637E+03  0.99050672799E+03  0.46999998093E+01 0. -1.
</event>
<event>
 5   0  0.1790832E-04  0.1900395E+04  0.7818609E-02  0.8654660E-01
        2   -1    0    0  501    0  0.00000000000E+00  0.00000000000E+00  0.16253254288E+04  0.16253254288E+04  0.25500000920E-02 0.  1.
       -2   -1    0    0    0  501  0.00000000000E+00  0.00000000000E+00 -0.55550405959E+03  0.55550405959E+03  0.25500000920E-02 0. -1.
    10030    2    1    2    0    0  0.00000000000E+00  0.00000000000E+00  0.10698213693E+04  0.21808294884E+04  0.19003945631E+04 0.  0.
        5    1    3    3  502    0  0.75864808094E+03  0.34807623647E+03  0.13873948907E+02  0.83481647897E+03  0.46999998093E+01 0. -1.
       -5    1    3    3    0  502 -0.75864808094E+03 -0.34807623647E+03  0.10559474203E+04  0.13460130095E+04  0.46999998093E+01 0.  1.
</event>
<event>
 5   0  0.1790832E-04  0.1922923E+04  0.7818609E-02  0.8643529E-01
        2   -1    0    0  501    0  0.00000000000E+00  0.00000000000E+00  0.51506422030E+03  0.51506422030E+03  0.25500000920E-02 0.  1.
       -2   -1    0    0    0  501  0.00000000000E+00  0.00000000000E+00 -0.17947443530E+04  0.17947443530E+04  0.25500000920E-02 0. -1.
    10030    2    1    2    0    0  0.00000000000E+00  0.00000000000E+00 -0.12796801327E+04  0.23098085733E+04  0.19229234003E+04 0.  0.
        5    1    3    3  502    0 -0.89210623515E+03  0.19015164154E+03 -0.10049233972E+04  0.13571677516E+04  0.46999998093E+01 0. -1.
       -5    1    3    3    0  502  0.89210623515E+03 -0.19015164154E+03 -0.27475673549E+03  0.95264082176E+03  0.46999998093E+01 0.  1.
</event>
<event>
 5   0  0.8905646E-05  0.1907940E+04  0.7818609E-02  0.8650914E-01
       -1   -1    0    0    0  501  0.00000000000E+00  0.00000000000E+00  0.91612603483E+03  0.91612603485E+03  0.50400001928E-02 0.  1.
        1   -1    0    0  501    0  0.00000000000E+00  0.00000000000E+00 -0.99337772227E+03  0.99337772229E+03  0.50400001928E-02 0. -1.
    10030    2    1    2    0    0  0.00000000000E+00  0.00000000000E+00 -0.77251687440E+02  0.19095037571E+04  0.19079404538E+04 0.  0.
        1    1    3    3  502    0 -0.10912269747E+03 -0.90571118979E+03 -0.31785027049E+03  0.96604829946E+03  0.50400001928E-02 0.  1.
       -1    1    3    3    0  502  0.10912269747E+03  0.90571118979E+03  0.24059858305E+03  0.94345545767E+03  0.50400001928E-02 0. -1.
</event>
<event>
 5   0  0.1810569E-04  0.1905866E+04  0.7818609E-02  0.8651942E-01
        2   -1    0    0  501    0  0.00000000000E+00  0.00000000000E+00  0.78757783006E+03  0.78757783007E+03  0.25500000920E-02 0.  1.
       -2   -1    0    0    0  501  0.00000000000E+00  0.00000000000E+00 -0.11530052126E+04  0.11530052126E+04  0.25500000920E-02 0. -1.
    10030    2    1    2    0    0  0.00000000000E+00  0.00000000000E+00 -0.36542738253E+03  0.19405830427E+04  0.19058660429E+04 0.  0.
        4    1    3    3  502    0  0.57886579218E+02  0.55619607818E+02  0.78412789268E+03  0.78822748100E+03  0.12699999809E+01 0.  1.
       -4    1    3    3    0  502 -0.57886579218E+02 -0.55619607818E+02 -0.11495552752E+04  0.11523555617E+04  0.12699999809E+01 0. -1.
</event>
<event>
 5   0  0.8905646E-05  0.1910319E+04  0.7818609E-02  0.8649737E-01
        1   -1    0    0  501    0  0.00000000000E+00  0.00000000000E+00  0.17900679295E+04  0.17900679295E+04  0.50400001928E-02 0. -1.
       -1   -1    0    0    0  501  0.00000000000E+00  0.00000000000E+00 -0.50966195984E+03  0.50966195986E+03  0.50400001928E-02 0.  1.
    10030    2    1    2    0    0  0.00000000000E+00  0.00000000000E+00  0.12804059697E+04  0.22997298894E+04  0.19103188522E+04 0.  0.
        1    1    3    3  502    0 -0.75846971680E+03 -0.11288599642E+03 -0.45365930745E+02  0.76816510412E+03  0.50400001928E-02 0.  1.
       -1    1    3    3    0  502  0.75846971680E+03  0.11288599642E+03  0.13257719004E+04  0.15315647853E+04  0.50400001928E-02 0. -1.
</event>
<event>
 5   0  0.8681396E-05  0.1911733E+04  0.7818609E-02  0.8649038E-01
        1   -1    0    0  501    0  0.00000000000E+00  0.00000000000E+00  0.78266618395E+03  0.78266618397E+03  0.50400001928E-02 0. -1.
       -1   -1    0    0    0  501  0.00000000000E+00  0.00000000000E+00 -0.11673953760E+04  0.11673953760E+04  0.50400001928E-02 0.  1.
    10030    2    1    2    0    0  0.00000000000E+00  0.00000000000E+00 -0.38472919204E+03  0.19500615600E+04  0.19117331238E+04 0.  0.
        3    1    3    3  502    0 -0.39174849850E+03 -0.17283308248E+03  0.67937025064E+03  0.80304552059E+03  0.10100000352E+00 0. -1.
       -3    1    3    3    0  502  0.39174849850E+03  0.17283308248E+03 -0.10640994427E+04  0.11470160394E+04  0.10100000352E+00 0.  1.
</event>
<event>
 5   0  0.8602017E-05  0.1924392E+04  0.7818609E-02  0.8642809E-01
        1   -1    0    0  501    0  0.00000000000E+00  0.00000000000E+00  0.72829695887E+03  0.72829695888E+03  0.50400001928E-02 0.  1.
       -1   -1    0    0    0  501  0.00000000000E+00  0.00000000000E+00 -0.12712142748E+04  0.12712142748E+04  0.50400001928E-02 0. -1.
    10030    2    1    2    0    0  0.00000000000E+00  0.00000000000E+00 -0.54291731589E+03  0.19995112336E+04  0.19243923617E+04 0.  0.
        2    1    3    3  502    0  0.66758438352E+03  0.14161225076E+03  0.43332472691E+03  0.80838929832E+03  0.25500000920E-02 0.  1.
       -2    1    3    3    0  502 -0.66758438352E+03 -0.14161225076E+03 -0.97624204279E+03  0.11911219353E+04  0.25500000920E-02 0. -1.
</event>
<event>
 5   0  0.1810569E-04  0.1908599E+04  0.7818609E-02  0.8650588E-01
        2   -1    0    0  501    0  0.00000000000E+00  0.00000000000E+00  0.16206366837E+04  0.16206366837E+04  0.25500000920E-02 0. -1.
       -2   -1    0    0    0  501  0.00000000000E+00  0.00000000000E+00 -0.56193192821E+03  0.56193192821E+03  0.25500000920E-02 0.  1.
    10030    2    1    2    0    0  0.00000000000E+00  0.00000000000E+00  0.10587047555E+04  0.21825686119E+04  0.19085989590E+04 0.  0.
        4    1    3    3  502    0  0.90622839761E+03 -0.11542808310E+03  0.21386590772E+03  0.93825038789E+03  0.12699999809E+01 0.  1.
       -4    1    3    3    0  502 -0.90622839761E+03  0.11542808310E+03  0.84483884774E+03  0.12443182240E+04  0.12699999809E+01 0. -1.
</event>
<event>
 5   0  0.8567844E-05  0.1863063E+04  0.7818609E-02  0.8673464E-01
       -1   -1    0    0    0  501  0.00000000000E+00  0.00000000000E+00  0.13139362279E+04  0.13139362280E+04  0.50400001928E-02 0. -1.
        1   -1    0    0  501    0  0.00000000000E+00  0.00000000000E+00 -0.66042114523E+03  0.66042114525E+03  0.50400001928E-02 0.  1.
    10030    2    1    2    0    0  0.00000000000E+00  0.00000000000E+00  0.65351508272E+03  0.19743573732E+04  0.18630633574E+04 0.  0.
        4    1    3    3  502    0  0.19789522892E+03  0.86471342635E+03  0.62809919493E+03  0.10869232001E+04  0.12699999809E+01 0. -1.
       -4    1    3    3    0  502 -0.19789522892E+03 -0.86471342635E+03  0.25415887790E+02  0.88743417311E+03  0.12699999809E+01 0.  1.
</event>
<event>
 5   0  0.8681396E-05  0.1939141E+04  0.7818609E-02  0.8635615E-01
        1   -1    0    0  501    0  0.00000000000E+00  0.00000000000E+00  0.11736178322E+04  0.11736178322E+04  0.50400001928E-02 0. -1.
       -1   -1    0    0    0  501  0.00000000000E+00  0.00000000000E+00 -0.80099882183E+03  0.80099882184E+03  0.50400001928E-02 0.  1.
    10030    2    1    2    0    0  0.00000000000E+00  0.00000000000E+00  0.37261901040E+03  0.19746166541E+04  0.19391405322E+04 0.  0.
        3    1    3    3  502    0 -0.15068077872E+03 -0.64335317417E+03 -0.53621959727E+03  0.85096384793E+03  0.10100000352E+00 0.  1.
       -3    1    3    3    0  502  0.15068077872E+03  0.64335317417E+03  0.90883860767E+03  0.11236528062E+04  0.10100000352E+00 0. -1.
</event>
<event>
 5   0  0.1799738E-04  0.1882402E+04  0.7818609E-02  0.8663666E-01
        2   -1    0    0  501    0  0.00000000000E+00  0.00000000000E+00  0.13472875405E+04  0.13472875405E+04  0.25500000920E-02 0. -1.
       -2   -1    0    0    0  501  0.00000000000E+00  0.00000000000E+00 -0.65751326253E+03  0.65751326254E+03  0.25500000920E-02 0.  1.
    10030    2    1    2    0    0  0.00000000000E+00  0.00000000000E+00  0.68977427793E+03  0.20048008030E+04  0.18824021104E+04 0.  0.
        1    1    3    3  502    0 -0.36535479880E+03 -0.67498807594E+03  0.92507172532E+03  0.12020194377E+04  0.50400001928E-02 0. -1.
       -1    1    3    3    0  502  0.36535479880E+03  0.67498807594E+03 -0.23529744738E+03  0.80278136528E+03  0.50400001928E-02 0.  1.
</event>
<event>
 5   0  0.1790832E-04  0.1902879E+04  0.7818609E-02  0.8653424E-01
       -2   -1    0    0    0  501  0.00000000000E+00  0.00000000000E+00  0.12411874141E+04  0.12411874141E+04  0.25500000920E-02 0.  1.
        2   -1    0    0  501    0  0.00000000000E+00  0.00000000000E+00 -0.72933178758E+03  0.72933178758E+03  0.25500000920E-02 0. -1.
    10030    2    1    2    0    0  0.00000000000E+00  0.00000000000E+00  0.51185562656E+03  0.19705192017E+04  0.19028793293E+04 0.  0.
        5    1    3    3  502    0 -0.43855147179E+03 -0.58229660442E+03  0.88906800834E+03  0.11497220283E+04  0.46999998093E+01 0.  1.
       -5    1    3    3    0  502  0.43855147179E+03  0.58229660442E+03 -0.37721238178E+03  0.82079717342E+03  0.46999998093E+01 0. -1.
</event>
<event>
 5   0  0.8567844E-05  0.1822336E+04  0.7818609E-02  0.8694511E-01
        1   -1    0    0  501    0  0.00000000000E+00  0.00000000000E+00  0.14017093806E+04  0.14017093806E+04  0.50400001928E-02 0.  1.
       -1   -1    0    0    0  501  0.00000000000E+00  0.00000000000E+00 -0.59229646387E+03  0.59229646390E+03  0.50400001928E-02 0. -1.
    10030    2    1    2    0    0  0.00000000000E+00  0.00000000000E+00  0.80941291674E+03  0.19940058445E+04  0.18223364229E+04 0.  0.
        4    1    3    3  502    0  0.34639027695E+03  0.38571051820E+03 -0.41519189838E+03  0.66418728774E+03  0.12699999809E+01 0. -1.
       -4    1    3    3    0  502 -0.34639027695E+03 -0.38571051820E+03  0.12246048151E+04  0.13298185568E+04  0.12699999809E+01 0.  1.
</event>
<event>
 5   0  0.1810569E-04  0.1889167E+04  0.7818609E-02  0.8660267E-01
       -2   -1    0    0    0  501  0.00000000000E+00  0.00000000000E+00  0.80914133974E+03  0.80914133974E+03  0.25500000920E-02 0. -1.
        2   -1    0    0  501    0  0.00000000000E+00  0.00000000000E+00 -0.11026974347E+04  0.11026974347E+04  0.25500000920E-02 0.  1.
    10030    2    1    2    0    0  0.00000000000E+00  0.00000000000E+00 -0.29355609497E+03  0.19118387745E+04  0.18891670965E+04 0.  0.
        4    1    3    3  502    0  0.20302078997E+02  0.93972932353E+03 -0.24135055005E+03  0.97044066115E+03  0.12699999809E+01 0. -1.
       -4    1    3    3    0  502 -0.20302078997E+02 -0.93972932353E+03 -0.52205544916E+02  0.94139811330E+03  0.12699999809E+01 0.  1.
</event>
<event>
 5   0  0.1658711E-04  0.1894500E+04  0.7818609E-02  0.8657599E-01
        2   -1    0    0  501    0  0.00000000000E+00  0.00000000000E+00  0.13250933695E+04  0.13250933695E+04  0.25500000920E-02 0.  1.
       -2   -1    0    0    0  501  0.00000000000E+00  0.00000000000E+00 -0.67714695108E+03  0.67714695108E+03  0.25500000920E-02 0. -1.
    10030    2    1    2    0    0  0.00000000000E+00  0.00000000000E+00  0.64794641846E+03  0.20022403206E+04  0.18945003933E+04 0.  0.
        2    1    3    3  502    0 -0.22585845470E+03 -0.44489941490E+03 -0.52701074659E+03  0.72573263532E+03  0.25500000920E-02 0. -1.
       -2    1    3    3    0  502  0.22585845470E+03  0.44489941490E+03  0.11749571651E+04  0.12765076853E+04  0.25500000920E-02 0.  1.
</event>
<event>
 5   0  0.8905646E-05  0.1906633E+04  0.7818609E-02  0.8651562E-01
       -1   -1    0    0    0  501  0.00000000000E+00  0.00000000000E+00  0.12380416114E+04  0.12380416114E+04  0.50400001928E-02 0.  1.
        1   -1    0    0  501    0  0.00000000000E+00  0.00000000000E+00 -0.73407219744E+03  0.73407219746E+03  0.50400001928E-02 0. -1.
    10030    2    1    2    0    0  0.00000000000E+00  0.00000000000E+00  0.50396941395E+03  0.19721138089E+04  0.19066325563E+04 0.  0.
        1    1    3    3  502    0  0.23809558096E+03 -0.14595041770E+03 -0.69081334195E+03  0.74512690432E+03  0.50400001928E-02 0. -1.
       -1    1    3    3    0  502 -0.23809558096E+03  0.14595041770E+03  0.11947827559E+04  0.12269869045E+04  0.50400001928E-02 0.  1.
</event>
<event>
 5   0  0.1658711E-04  0.1653822E+04  0.7818609E-02  0.8788149E-01
        2   -1    0    0  501    0  0.00000000000E+00  0.00000000000E+00  0.16680499621E+04  0.16680499621E+04  0.25500000920E-02 0.  1.
       -2   -1    0    0    0  501  0.00000000000E+00  0.00000000000E+00 -0.40992891532E+03  0.40992891533E+03  0.25500000920E-02 0. -1.
    10030    2    1    2    0    0  0.00000000000E+00  0.00000000000E+00  0.12581210468E+04  0.20779788774E+04  0.16538221327E+04 0.  0.
        2    1    3    3  502    0 -0.76559554315E+02 -0.61682320107E+03  0.13143263673E+04  0.14538865246E+04  0.25500000920E-02 0.  1.
       -2    1    3    3    0  502  0.76559554315E+02  0.61682320107E+03 -0.56205320535E+02  0.62409235278E+03  0.25500000920E-02 0. -1.
</event>
<event>
 5   0  0.8602017E-05  0.1908931E+04  0.7818609E-02  0.8650424E-01
        1   -1    0    0  501    0  0.00000000000E+00  0.00000000000E+00  0.15956995268E+04  0.15956995268E+04  0.50400001928E-02 0. -1.
       -1   -1    0    0    0  501  0.00000000000E+00  0.00000000000E+00 -0.57091216287E+03  0.57091216289E+03  0.50400001928E-02 0.  1.
    10030    2    1    2    0    0  0.00000000000E+00  0.00000000000E+00  0.10247873640E+04  0.21666116897E+04  0.19089308717E+04 0.  0.
        2    1    3    3  502    0 -0.86891638417E+02  0.90067375735E+03  0.85710269001E+03  0.12463500292E+04  0.25500000920E-02 0. -1.
       -2    1    3    3    0  502  0.86891638417E+02 -0.90067375735E+03  0.16768467395E+03  0.92026166055E+03  0.25500000920E-02 0.  1.
</event>
<event>
 5   0  0.8567844E-05  0.1832020E+04  0.7818609E-02  0.8689455E-01
        1   -1    0    0  501    0  0.00000000000E+00  0.00000000000E+00  0.17692547432E+04  0.17692547432E+04  0.50400001928E-02 0. -1.
       -1   -1    0    0    0  501  0.00000000000E+00  0.00000000000E+00 -0.47425279778E+03  0.47425279781E+03  0.50400001928E-02 0.  1.
    10030    2    1    2    0    0  0.00000000000E+00  0.00000000000E+00  0.12950019454E+04  0.22435075410E+04  0.18320196636E+04 0.  0.
        4    1    3    3  502    0  0.65524212330E+03 -0.10591448694E+03  0.14205699708E+04  0.15679862160E+04  0.12699999809E+01 0. -1.
       -4    1    3    3    0  502 -0.65524212330E+03  0.10591448694E+03 -0.12556802537E+03  0.67552132504E+03  0.12699999809E+01 0.  1.
</event>
<event>
 5   0  0.1799738E-04  0.1906031E+04  0.7818609E-02  0.8651860E-01
       -2   -1    0    0    0  501  0.00000000000E+00  0.00000000000E+00  0.62359840457E+03  0.62359840457E+03  0.25500000920E-02 0.  1.
        2   -1    0    0  501    0  0.00000000000E+00  0.00000000000E+00 -0.14564475835E+04  0.14564475835E+04  0.25500000920E-02 0. -1.
    10030    2    1    2    0    0  0.00000000000E+00  0.00000000000E+00 -0.83284917889E+03  0.20800459880E+04  0.19060308386E+04 0.  0.
        1    1    3    3  502    0  0.98045528303E+02  0.90204657078E+03 -0.98376626908E+02  0.91267677861E+03  0.50400001928E-02 0. -1.
       -1    1    3    3    0  502 -0.98045528303E+02 -0.90204657078E+03 -0.73447255198E+03  0.11673692094E+04  0.50400001928E-02 0.  1.
</event>
<event>
 5   0  0.1658711E-04  0.1827251E+04  0.7818609E-02  0.8691940E-01
        2   -1    0    0  501    0  0.00000000000E+00  0.00000000000E+00  0.11748535147E+04  0.11748535147E+04  0.25500000920E-02 0. -1.
       -2   -1    0    0    0  501  0.00000000000E+00  0.00000000000E+00 -0.71048142537E+03  0.71048142537E+03  0.25500000920E-02 0.  1.
    10030    2    1    2    0    0  0.00000000000E+00  0.00000000000E+00  0.46437208936E+03  0.18853349401E+04  0.18272510498E+04 0.  0.
        2    1    3    3  502    0  0.52912347883E+03  0.73202426922E+03  0.90412224087E+02  0.90774751823E+03  0.25500000920E-02 0.  1.
       -2    1    3    3    0  502 -0.52912347883E+03 -0.73202426922E+03  0.37395986527E+03  0.97758742188E+03  0.25500000920E-02 0. -1.
</event>
<event>
 5   0  0.8905646E-05  0.1913759E+04  0.7818609E-02  0.8648038E-01
       -1   -1    0    0    0  501  0.00000000000E+00  0.00000000000E+00  0.62478109213E+03  0.62478109215E+03  0.50400001928E-02 0. -1.
        1   -1    0    0  501    0  0.00000000000E+00  0.00000000000E+00 -0.14655030649E+04  0.14655030649E+04  0.50400001928E-02 0.  1.
    10030    2    1    2    0    0  0.00000000000E+00  0.00000000000E+00 -0.84072197275E+03  0.20902841570E+04  0.19137592382E+04 0.  0.
        1    1    3    3  502    0 -0.81335518054E+03  0.38199592113E+03 -0.77955860013E+03  0.11896130230E+04  0.50400001928E-02 0.  1.
       -1    1    3    3    0  502  0.81335518054E+03 -0.38199592113E+03 -0.61163372613E+02  0.90067113401E+03  0.50400001928E-02 0. -1.
</event>
<event>
 5   0  0.8602017E-05  0.1957967E+04  0.7818609E-02  0.8626529E-01
        1   -1    0    0  501    0  0.00000000000E+00  0.00000000000E+00  0.58607201228E+03  0.58607201230E+03  0.50400001928E-02 0. -1.
       -1   -1    0    0    0  501  0.00000000000E+00  0.00000000000E+00 -0.16353081923E+04  0.16353081923E+04  0.50400001928E-02 0.  1.
    10030    2    1    2    0    0  0.00000000000E+00  0.00000000000E+00 -0.10492361800E+04  0.22213802046E+04  0.19579666626E+04 0.  0.
        2    1    3    3  502    0  0.64903740222E+03  0.66220416954E+03 -0.16828682043E+03  0.94238228208E+03  0.25500000920E-02 0. -1.
       -2    1    3    3    0  502 -0.64903740222E+03 -0.66220416954E+03 -0.88094935959E+03  0.12789979225E+04  0.25500000920E-02 0.  1.
</event>
<event>
 5   0  0.1799738E-04  0.1898606E+04  0.7818609E-02  0.8655551E-01
        2   -1    0    0  501    0  0.00000000000E+00  0.00000000000E+00  0.10326142051E+04  0.10326142051E+04  0.25500000920E-02 0.  1.
       -2   -1    0    0    0  501  0.00000000000E+00  0.00000000000E+00 -0.87271327414E+03  0.87271327414E+03  0.25500000920E-02 0. -1.
    10030    2    1    2    0    0  0.00000000000E+00  0.00000000000E+00  0.15990093092E+03  0.19053274792E+04  0.18986059347E+04 0.  0.
        1    1    3    3  502    0 -0.58131710280E+01 -0.93908348565E+03 -0.59337660140E+02  0.94097425252E+03  0.50400001928E-02 0. -1.
       -1    1    3    3    0  502  0.58131710280E+01  0.93908348565E+03  0.21923859106E+03  0.96435322668E+03  0.50400001928E-02 0.  1.
</event>
<event>
 5   0  0.8602017E-05  0.1889162E+04  0.7818609E-02  0.8660270E-01
        1   -1    0    0  501    0  0.00000000000E+00  0.00000000000E+00  0.16851774381E+04  0.16851774382E+04  0.50400001928E-02 0. -1.
       -1   -1    0    0    0  501  0.00000000000E+00  0.00000000000E+00 -0.52945975753E+03  0.52945975755E+03  0.50400001928E-02 0.  1.
    10030    2    1    2    0    0  0.00000000000E+00  0.00000000000E+00  0.11557176806E+04  0.22146371957E+04  0.18891623941E+04 0.  0.
        2    1    3    3  502    0  0.15475808369E+03 -0.67016067446E+03 -0.18111618344E+03  0.71124430822E+03  0.25500000920E-02 0.  1.
       -2    1    3    3    0  502 -0.15475808369E+03  0.67016067446E+03  0.13368338641E+04  0.15033928875E+04  0.25500000920E-02 0. -1.
</event>
<event>
 5   0  0.8681396E-05  0.1907777E+04  0.7818609E-02  0.8650995E-01
       -1   -1    0    0    0  501  0.00000000000E+00  0.00000000000E+00  0.72629526567E+03  0.72629526568E+03  0.50400001928E-02 0.  1.
        1   -1    0    0  501    0  0.00000000000E+00  0.00000000000E+00 -0.12528009213E+04  0.12528009213E+04  0.50400001928E-02 0. -1.
    10030    2    1    2    0    0  0.00000000000E+00  0.00000000000E+00 -0.52650565559E+03  0.19790961870E+04  0.19077771127E+04 0.  0.
        3    1    3    3  502    0 -0.59274027156E+03  0.22889073704E+03  0.47480103181E+03  0.79320112774E+03  0.10100000352E+00 0.  1.
       -3    1    3    3    0  502  0.59274027156E+03 -0.22889073704E+03 -0.10013066874E+04  0.11858950592E+04  0.10100000352E+00 0. -1.
</event>
<event>
 5   0  0.1810569E-04  0.1919102E+04  0.7818609E-02  0.8645406E-01
       -2   -1    0    0    0  501  0.00000000000E+00  0.00000000000E+00  0.11518687094E+04  0.11518687094E+04  0.25500000920E-02 0.  1.
        2   -1    0    0  501    0  0.00000000000E+00  0.00000000000E+00 -0.79934276124E+03  0.79934276125E+03  0.25500000920E-02 0. -1.
    10030    2    1    2    0    0  0.00000000000E+00  0.00000000000E+00  0.35252594811E+03  0.19512114706E+04  0.19191017844E+04 0.  0.
        4    1    3    3  502    0 -0.54488890376E+03  0.76692636697E+03 -0.15725282052E+02  0.94091916082E+03  0.12699999809E+01 0. -1.
       -4    1    3    3    0  502  0.54488890376E+03 -0.76692636697E+03  0.36825123016E+03  0.10102923098E+04  0.12699999809E+01 0.  1.
</event>
<event>
 5   0  0.1810569E-04  0.1899556E+04  0.7818609E-02  0.8655077E-01
       -2   -1    0    0    0  501  0.00000000000E+00  0.00000000000E+00  0.36144056337E+03  0.36144056338E+03  0.25500000920E-02 0. -1.
        2   -1    0    0  501    0  0.00000000000E+00  0.00000000000E+00 -0.24957857045E+04  0.24957857045E+04  0.25500000920E-02 0.  1.
    10030    2    1    2    0    0  0.00000000000E+00  0.00000000000E+00 -0.21343451411E+04  0.28572262679E+04  0.18995559387E+04 0.  0.
        4    1    3    3  502    0  0.49428588221E+02 -0.84774791328E+03 -0.42731975878E+03  0.95064372871E+03  0.12699999809E+01 0. -1.
       -4    1    3    3    0  502 -0.49428588221E+02  0.84774791328E+03 -0.17070253823E+04  0.19065825392E+04  0.12699999809E+01 0.  1.
</event>
<event>
 5   0  0.1810569E-04  0.1894296E+04  0.7818609E-02  0.8657701E-01
       -2   -1    0    0    0  501  0.00000000000E+00  0.00000000000E+00  0.86132967833E+03  0.86132967834E+03  0.25500000920E-02 0.  1.
        2   -1    0    0  501    0  0.00000000000E+00  0.00000000000E+00 -0.10415171159E+04  0.10415171159E+04  0.25500000920E-02 0. -1.
    10030    2    1    2    0    0  0.00000000000E+00  0.00000000000E+00 -0.18018743759E+03  0.19028467943E+04  0.18942962835E+04 0.  0.
        4    1    3    3  502    0 -0.83112339382E+03  0.43980866248E+03 -0.20414136317E+03  0.96222298061E+03  0.12699999809E+01 0.  1.
       -4    1    3    3    0  502  0.83112339382E+03 -0.43980866248E+03  0.23953925585E+02  0.94062381365E+03  0.12699999809E+01 0. -1.
</event>
<event>
 5   0  0.1765328E-04  0.1810483E+04  0.7818609E-02  0.8700745E-01
        2   -1    0    0  501    0  0.00000000000E+00  0.00000000000E+00  0.17016086906E+04  0.17016086906E+04  0.25500000920E-02 0.  1.
       -2   -1    0    0    0  501  0.00000000000E+00  0.00000000000E+00 -0.48158086132E+03  0.48158086132E+03  0.25500000920E-02 0. -1.
    10030    2    1    2    0    0  0.00000000000E+00  0.00000000000E+00  0.12200278293E+04  0.21831895519E+04  0.18104830061E+04 0.  0.
        3    1    3    3  502    0 -0.14498209381E+03 -0.80580780832E+03  0.10756636001E+04  0.13518129391E+04  0.10100000352E+00 0.  1.
       -3    1    3    3    0  502  0.14498209381E+03  0.80580780832E+03  0.14436422914E+03  0.83137661281E+03  0.10100000352E+00 0. -1.
</event>
<event>
 5   0  0.8905646E-05  0.1865666E+04  0.7818609E-02  0.8672138E-01
        1   -1    0    0  501    0  0.00000000000E+00  0.00000000000E+00  0.13543864135E+04  0.13543864135E+04  0.50400001928E-02 0. -1.
       -1   -1    0    0    0  501  0.00000000000E+00  0.00000000000E+00 -0.64248822587E+03  0.64248822589E+03  0.50400001928E-02 0.  1.
    10030    2    1    2    0    0  0.00000000000E+00  0.00000000000E+00  0.71189818758E+03  0.19968746394E+04  0.18656659122E+04 0.  0.
        1    1    3    3  502    0  0.48970466745E+03 -0.74896987823E+03  0.73961241304E+02  0.89790690222E+03  0.50400001928E-02 0.  1.
       -1    1    3    3    0  502 -0.48970466745E+03  0.74896987823E+03  0.63793694628E+03  0.10989677371E+04  0.50400001928E-02 0. -1.
</event>
<event>
 5   0  0.1658711E-04  0.1884819E+04  0.7818609E-02  0.8662450E-01
        2   -1    0    0  501    0  0.00000000000E+00  0.00000000000E+00  0.16110001427E+04  0.16110001427E+04  0.25500000920E-02 0.  1.
       -2   -1    0    0    0  501  0.00000000000E+00  0.00000000000E+00 -0.55129430544E+03  0.55129430544E+03  0.25500000920E-02 0. -1.
    10030    2    1    2    0    0  0.00000000000E+00  0.00000000000E+00  0.10597058372E+04  0.21622944481E+04  0.18848185109E+04 0.  0.
        2    1    3    3  502    0  0.38250210627E+02  0.67811783673E+03  0.12793533916E+04  0.14484653879E+04  0.25500000920E-02 0.  1.
       -2    1    3    3    0  502 -0.38250210627E+02 -0.67811783673E+03 -0.21964755441E+03  0.71382906026E+03  0.25500000920E-02 0. -1.
</event>
<event>
 5   0  0.1799738E-04  0.1999292E+04  0.7818609E-02  0.8606952E-01
       -2   -1    0    0    0  501  0.00000000000E+00  0.00000000000E+00  0.10516753436E+04  0.10516753436E+04  0.25500000920E-02 0. -1.
        2   -1    0    0  501    0  0.00000000000E+00  0.00000000000E+00 -0.95019082790E+03  0.95019082790E+03  0.25500000920E-02 0.  1.
    10030    2    1    2    0    0  0.00000000000E+00  0.00000000000E+00  0.10148451574E+03  0.20018661715E+04  0.19992921402E+04 0.  0.
        1    1    3    3  502    0 -0.57301958509E+03 -0.59760766016E+03  0.61164729211E+03  0.10293681413E+04  0.50400001928E-02 0. -1.
       -1    1    3    3    0  502  0.57301958509E+03  0.59760766016E+03 -0.51016277637E+03  0.97249803023E+03  0.50400001928E-02 0.  1.
</event>
<event>
 5   0  0.8602017E-05  0.2044537E+04  0.7818609E-02  0.8586077E-01
       -1   -1    0    0    0  501  0.00000000000E+00  0.00000000000E+00  0.66984592197E+03  0.66984592199E+03  0.50400001928E-02 0. -1.
        1   -1    0    0  501    0  0.00000000000E+00  0.00000000000E+00 -0.15601098006E+04  0.15601098006E+04  0.50400001928E-02 0.  1.
    10030    2    1    2    0    0  0.00000000000E+00  0.00000000000E+00 -0.89026387865E+03  0.22299557226E+04  0.20445372951E+04 0.  0.
        2    1    3    3  502    0 -0.20276414150E+02  0.17291998390E+03 -0.15438201643E+04  0.15536064990E+04  0.25500000920E-02 0.  1.
       -2    1    3    3    0  502  0.20276414150E+02 -0.17291998390E+03  0.65355628568E+03  0.67634922367E+03  0.25500000920E-02 0. -1.
</event>
<event>
 5   0  0.8602017E-05  0.1905375E+04  0.7818609E-02  0.8652185E-01
        1   -1    0    0  501    0  0.00000000000E+00  0.00000000000E+00  0.87336556761E+03  0.87336556763E+03  0.50400001928E-02 0.  1.
       -1   -1    0    0    0  501  0.00000000000E+00  0.00000000000E+00 -0.10392138814E+04  0.10392138814E+04  0.50400001928E-02 0. -1.
    10030    2    1    2    0    0  0.00000000000E+00  0.00000000000E+00 -0.16584831374E+03  0.19125794490E+04  0.19053751561E+04 0.  0.
        2    1    3    3  502    0  0.69321013796E+03 -0.54739039354E+03 -0.44125723299E+03  0.98736238736E+03  0.25500000920E-02 0. -1.
       -2    1    3    3    0  502 -0.69321013796E+03  0.54739039354E+03  0.27540891925E+03  0.92521706162E+03  0.25500000920E-02 0.  1.
</event>
<event>
 5   0  0.1810569E-04  0.1899755E+04  0.7818609E-02  0.8654978E-01
        2   -1    0    0  501    0  0.00000000000E+00  0.00000000000E+00  0.16962491730E+04  0.16962491730E+04  0.25500000920E-02 0.  1.
       -2   -1    0    0    0  501  0.00000000000E+00  0.00000000000E+00 -0.53191909545E+03  0.53191909546E+03  0.25500000920E-02 0. -1.
    10030    2    1    2    0    0  0.00000000000E+00  0.00000000000E+00  0.11643300775E+04  0.22281682685E+04  0.18997550640E+04 0.  0.
        4    1    3    3  502    0 -0.44027714186E+03  0.79125957814E+03  0.91869947799E+03  0.12899403185E+04  0.12699999809E+01 0.  1.
       -4    1    3    3    0  502  0.44027714186E+03 -0.79125957814E+03  0.24563059955E+03  0.93822794991E+03  0.12699999809E+01 0. -1.
</event>
<event>
 5   0  0.1810569E-04  0.1903060E+04  0.7818609E-02  0.8653335E-01
       -2   -1    0    0    0  501  0.00000000000E+00  0.00000000000E+00  0.58688692043E+03  0.58688692043E+03  0.25500000920E-02 0.  1.
        2   -1    0    0  501    0  0.00000000000E+00  0.00000000000E+00 -0.15427316141E+04  0.15427316141E+04  0.25500000920E-02 0. -1.
    10030    2    1    2    0    0  0.00000000000E+00  0.00000000000E+00 -0.95584469371E+03  0.21296185346E+04  0.19030596481E+04 0.  0.
        4    1    3    3  502    0 -0.54321427431E+03  0.55870847315E+03  0.13313468307E+03  0.79054624312E+03  0.12699999809E+01 0.  1.
       -4    1    3    3    0  502  0.54321427431E+03 -0.55870847315E+03 -0.10889793768E+04  0.13390722915E+04  0.12699999809E+01 0. -1.
</event>
<event>
 5   0  0.1810569E-04  0.1792838E+04  0.7818609E-02  0.8710117E-01
       -2   -1    0    0    0  501  0.00000000000E+00  0.00000000000E+00  0.54202196875E+03  0.54202196876E+03  0.25500000920E-02 0.  1.
        2   -1    0    0  501    0  0.00000000000E+00  0.00000000000E+00 -0.14825360911E+04  0.14825360911E+04  0.25500000920E-02 0. -1.
    10030    2    1    2    0    0  0.00000000000E+00  0.00000000000E+00 -0.94051412232E+03  0.20245580598E+04  0.17928381197E+04 0.  0.
        4    1    3    3  502    0  0.45842761209E+02  0.49353580889E+03 -0.13137122836E+04  0.14041085180E+04  0.12699999809E+01 0. -1.
       -4    1    3    3    0  502 -0.45842761209E+02 -0.49353580889E+03  0.37319816130E+03  0.62044954179E+03  0.12699999809E+01 0.  1.
</event>
<event>
 5   0  0.8681396E-05  0.1917170E+04  0.7818609E-02  0.8646357E-01
        1   -1    0    0  501    0  0.00000000000E+00  0.00000000000E+00  0.59780302748E+03  0.59780302751E+03  0.50400001928E-02 0.  1.
       -1   -1    0    0    0  501  0.00000000000E+00  0.00000000000E+00 -0.15371032903E+04  0.15371032904E+04  0.50400001928E-02 0. -1.
    10030    2    1    2    0    0  0.00000000000E+00  0.00000000000E+00 -0.93930026286E+03  0.21349063179E+04  0.19171697896E+04 0.  0.
        3    1    3    3  502    0 -0.94558589968E+02  0.87491140858E+03 -0.46384867211E+02  0.88122804422E+03  0.10100000352E+00 0.  1.
       -3    1    3    3    0  502  0.94558589968E+02 -0.87491140858E+03 -0.89291539565E+03  0.12536782736E+04  0.10100000352E+00 0. -1.
</event>
<event>
 5   0  0.8587082E-05  0.1886846E+04  0.7818609E-02  0.8661432E-01
       -1   -1    0    0    0  501  0.00000000000E+00  0.00000000000E+00  0.81454976023E+03  0.81454976024E+03  0.50400001928E-02 0. -1.
        1   -1    0    0  501    0  0.00000000000E+00  0.00000000000E+00 -0.10926853743E+04  0.10926853743E+04  0.50400001928E-02 0.  1.
    10030    2    1    2    0    0  0.00000000000E+00  0.00000000000E+00 -0.27813561407E+03  0.19072351345E+04  0.18868456319E+04 0.  0.
        5    1    3    3  502    0  0.92828847663E+03 -0.16667422635E+03 -0.16222224226E+03  0.95699422123E+03  0.46999998093E+01 0.  1.
       -5    1    3    3    0  502 -0.92828847663E+03  0.16667422635E+03 -0.11591337181E+03  0.95024091332E+03  0.46999998093E+01 0. -1.
</event>
<event>
 5   0  0.1658711E-04  0.1924664E+04  0.7818609E-02  0.8642676E-01
        2   -1    0    0  501    0  0.00000000000E+00  0.00000000000E+00  0.67413814021E+03  0.67413814021E+03  0.25500000920E-02 0. -1.
       -2   -1    0    0    0  501  0.00000000000E+00  0.00000000000E+00 -0.13737292205E+04  0.13737292205E+04  0.25500000920E-02 0.  1.
    10030    2    1    2    0    0  0.00000000000E+00  0.00000000000E+00 -0.69959108031E+03  0.20478673607E+04  0.19246643987E+04 0.  0.
        2    1    3    3  502    0  0.12518983435E+03 -0.91634984008E+03 -0.66852700300E+02  0.92727493635E+03  0.25500000920E-02 0.  1.
       -2    1    3    3    0  502 -0.12518983435E+03  0.91634984008E+03 -0.63273838001E+03  0.11205924244E+04  0.25500000920E-02 0. -1.
</event>
<event>
 5   0  0.8602017E-05  0.1900989E+04  0.7818609E-02  0.8654364E-01
        1   -1    0    0  501    0  0.00000000000E+00  0.00000000000E+00  0.25225033726E+04  0.25225033726E+04  0.50400001928E-02 0.  1.
       -1   -1    0    0    0  501  0.00000000000E+00  0.00000000000E+00 -0.35815198912E+03  0.35815198916E+03  0.50400001928E-02 0. -1.
    10030    2    1    2    0    0  0.00000000000E+00  0.00000000000E+00  0.21643513835E+04  0.28806553618E+04  0.19009887959E+04 0.  0.
        2    1    3    3  502    0  0.40105768100E+03 -0.85966347065E+03  0.11727301778E+04  0.15083648817E+04  0.25500000920E-02 0. -1.
       -2    1    3    3    0  502 -0.40105768100E+03  0.85966347065E+03  0.99162120566E+03  0.13722904801E+04  0.25500000920E-02 0.  1.
</event>
<event>
 5   0  0.8602017E-05  0.1769661E+04  0.7818609E-02  0.8722602E-01
       -1   -1    0    0    0  501  0.00000000000E+00  0.00000000000E+00  0.95267991598E+03  0.95267991600E+03  0.50400001928E-02 0.  1.
        1   -1    0    0  501    0  0.00000000000E+00  0.00000000000E+00 -0.82181360236E+03  0.82181360237E+03  0.50400001928E-02 0. -1.
    10030    2    1    2    0    0  0.00000000000E+00  0.00000000000E+00  0.13086631362E+03  0.17744935184E+04  0.17696613390E+04 0.  0.
        2    1    3    3  502    0 -0.59391117613E+03  0.59287916667E+03  0.34671493876E+03  0.90799088111E+03  0.25500000920E-02 0.  1.
       -2    1    3    3    0  502  0.59391117613E+03 -0.59287916667E+03 -0.21584862513E+03  0.86650263726E+03  0.25500000920E-02 0. -1.
</event>
<event>
 5   0  0.8905646E-05  0.1828173E+04  0.7818609E-02  0.8691459E-01
        1   -1    0    0  501    0  0.00000000000E+00  0.00000000000E+00  0.48781345673E+03  0.48781345676E+03  0.50400001928E-02 0.  1.
       -1   -1    0    0    0  501  0.00000000000E+00  0.00000000000E+00 -0.17128564566E+04  0.17128564566E+04  0.50400001928E-02 0. -1.
    10030    2    1    2    0    0  0.00000000000E+00  0.00000000000E+00 -0.12250429999E+04  0.22006699134E+04  0.18281733277E+04 0.  0.
        1    1    3    3  502    0 -0.36692929684E+03  0.41456248189E+03  0.26304282819E+03  0.61293612209E+03  0.50400001928E-02 0.  1.
       -1    1    3    3    0  502  0.36692929684E+03 -0.41456248189E+03 -0.14880858281E+04  0.15877337913E+04  0.50400001928E-02 0. -1.
</event>
<event>
 5   0  0.1658711E-04  0.1860933E+04  0.7818609E-02  0.8674551E-01
       -2   -1    0    0    0  501  0.00000000000E+00  0.00000000000E+00  0.15441527025E+04  0.15441527025E+04  0.25500000920E-02 0.  1.
        2   -1    0    0  501    0  0.00000000000E+00  0.00000000000E+00 -0.56067486981E+03  0.56067486982E+03  0.25500000920E-02 0. -1.
    10030    2    1    2    0    0  0.00000000000E+00  0.00000000000E+00  0.98347783265E+03  0.21048275723E+04  0.18609326860E+04 0.  0.
        2    1    3    3  502    0 -0.87645293621E+03  0.31206975526E+03  0.50814256582E+03  0.10600783692E+04  0.25500000920E-02 0.  1.
       -2    1    3    3    0  502  0.87645293621E+03 -0.31206975526E+03  0.47533526683E+03  0.10447492031E+04  0.25500000920E-02 0. -1.
</event>
<event>
 5   0  0.1810569E-04  0.1911567E+04  0.7818609E-02  0.8649120E-01
       -2   -1    0    0    0  501  0.00000000000E+00  0.00000000000E+00  0.68080819731E+03  0.68080819732E+03  0.25500000920E-02 0.  1.
        2   -1    0    0  501    0  0.00000000000E+00  0.00000000000E+00 -0.13418200065E+04  0.13418200065E+04  0.25500000920E-02 0. -1.
    10030    2    1    2    0    0  0.00000000000E+00  0.00000000000E+00 -0.66101180920E+03  0.20226282038E+04  0.19115669591E+04 0.  0.
        4    1    3    3  502    0 -0.42767831667E+03 -0.10451623322E+03 -0.12281386616E+04  0.13046679924E+04  0.12699999809E+01 0. -1.
       -4    1    3    3    0  502  0.42767831667E+03  0.10451623322E+03  0.56712685237E+03  0.71796021139E+03  0.12699999809E+01 0.  1.
</event>
<event>
 5   0  0.8905646E-05  0.1887907E+04  0.7818609E-02  0.8660899E-01
        1   -1    0    0  501    0  0.00000000000E+00  0.00000000000E+00  0.10525948999E+04  0.10525948999E+04  0.50400001928E-02 0. -1.
       -1   -1    0    0    0  501  0.00000000000E+00  0.00000000000E+00 -0.84652560856E+03  0.84652560858E+03  0.50400001928E-02 0.  1.
    10030    2    1    2    0    0  0.00000000000E+00  0.00000000000E+00  0.20606929131E+03  0.18991205085E+04  0.18879073475E+04 0.  0.
        1    1    3    3  502    0  0.91198302924E+03  0.24050461966E+03  0.14190376763E+03  0.95377785516E+03  0.50400001928E-02 0.  1.
       -1    1    3    3    0  502 -0.91198302924E+03 -0.24050461966E+03  0.64165523679E+02  0.94534265330E+03  0.50400001928E-02 0. -1.
</event>
<event>
 5   0  0.1799738E-04  0.1940633E+04  0.7818609E-02  0.8634891E-01
        2   -1    0    0  501    0  0.00000000000E+00  0.00000000000E+00  0.24493294872E+04  0.24493294872E+04  0.25500000920E-02 0.  1.
       -2   -1    0    0    0  501  0.00000000000E+00  0.00000000000E+00 -0.38439678262E+03  0.38439678263E+03  0.25500000920E-02 0. -1.
    10030    2    1    2    0    0  0.00000000000E+00  0.00000000000E+00  0.20649327046E+04  0.28337262699E+04  0.19406332724E+04 0.  0.
        1    1    3    3  502    0  0.83002251588E+03  0.49983126067E+03  0.11089804803E+04  0.14726188820E+04  0.50400001928E-02 0.  1.
       -1    1    3    3    0  502 -0.83002251588E+03 -0.49983126067E+03  0.95595222432E+03  0.13611073878E+04  0.50400001928E-02 0. -1.
</event>
<event>
 5   0  0.8602017E-05  0.1959191E+04  0.7818609E-02  0.8625942E-01
       -1   -1    0    0    0  501  0.00000000000E+00  0.00000000000E+00  0.80824107895E+03  0.80824107896E+03  0.50400001928E-02 0. -1.
        1   -1    0    0  501    0  0.00000000000E+00  0.00000000000E+00 -0.11872780438E+04  0.11872780438E+04  0.50400001928E-02 0.  1.
    10030    2    1    2    0    0  0.00000000000E+00  0.00000000000E+00 -0.37903696481E+03  0.19955191227E+04  0.19591905340E+04 0.  0.
        2    1    3    3  502    0 -0.19303922697E+03  0.71884308750E+03 -0.83820091002E+03  0.11209729226E+04  0.25500000920E-02 0.  1.
       -2    1    3    3    0  502  0.19303922697E+03 -0.71884308750E+03  0.45916394521E+03  0.87454620014E+03  0.25500000920E-02 0. -1.
</event>
<event>
 5   0  0.8905646E-05  0.1906244E+04  0.7818609E-02  0.8651755E-01
       -1   -1    0    0    0  501  0.00000000000E+00  0.00000000000E+00  0.99502539704E+03  0.99502539706E+03  0.50400001928E-02 0.  1.
        1   -1    0    0  501    0  0.00000000000E+00  0.00000000000E+00 -0.91298308129E+03  0.91298308130E+03  0.50400001928E-02 0. -1.
    10030    2    1    2    0    0  0.00000000000E+00  0.00000000000E+00  0.82042315757E+02  0.19080084784E+04  0.19062437966E+04 0.  0.
        1    1    3    3  502    0  0.13615406011E+02 -0.56747086290E+03  0.80738836194E+03  0.98695720603E+03  0.50400001928E-02 0.  1.
       -1    1    3    3    0  502 -0.13615406011E+02  0.56747086290E+03 -0.72534604618E+03  0.92105127233E+03  0.50400001928E-02 0. -1.
</event>
<event>
 5   0  0.8905646E-05  0.1897574E+04  0.7818609E-02  0.8656065E-01
        1   -1    0    0  501    0  0.00000000000E+00  0.00000000000E+00  0.10786065121E+04  0.10786065121E+04  0.50400001928E-02 0. -1.
       -1   -1    0    0    0  501  0.00000000000E+00  0.00000000000E+00 -0.83459244666E+03  0.83459244667E+03  0.50400001928E-02 0.  1.
    10030    2    1    2    0    0  0.00000000000E+00  0.00000000000E+00  0.24401406548E+03  0.19131989588E+04  0.18975740807E+04 0.  0.
        1    1    3    3  502    0 -0.38232367777E+03  0.43786515337E+03  0.87804789436E+03  0.10530267765E+04  0.50400001928E-02 0. -1.
       -1    1    3    3    0  502  0.38232367777E+03 -0.43786515337E+03 -0.63403382888E+03  0.86017218236E+03  0.50400001928E-02 0.  1.
</event>
<event>
 5   0  0.8905646E-05  0.1857407E+04  0.7818609E-02  0.8676353E-01
        1   -1    0    0  501    0  0.00000000000E+00  0.00000000000E+00  0.81467813127E+03  0.81467813128E+03  0.50400001928E-02 0. -1.
       -1   -1    0    0    0  501  0.00000000000E+00  0.00000000000E+00 -0.10586877608E+04  0.10586877608E+04  0.50400001928E-02 0.  1.
    10030    2    1    2    0    0  0.00000000000E+00  0.00000000000E+00 -0.24400962949E+03  0.18733658920E+04  0.18574065431E+04 0.  0.
        1    1    3    3  502    0  0.98852211896E+02  0.50479565929E+03  0.65787858830E+03  0.83510158329E+03  0.50400001928E-02 0. -1.
       -1    1    3    3    0  502 -0.98852211896E+02 -0.50479565929E+03 -0.90188821779E+03  0.10382643088E+04  0.50400001928E-02 0.  1.
</event>
<event>
 5   0  0.8905646E-05  0.1912787E+04  0.7818609E-02  0.8648517E-01
       -1   -1    0    0    0  501  0.00000000000E+00  0.00000000000E+00  0.43629279871E+03  0.43629279874E+03  0.50400001928E-02 0.  1.
        1   -1    0    0  501    0  0.00000000000E+00  0.00000000000E+00 -0.20965022058E+04  0.20965022058E+04  0.50400001928E-02 0. -1.
    10030    2    1    2    0    0  0.00000000000E+00  0.00000000000E+00 -0.16602094071E+04  0.25327950046E+04  0.19127873012E+04 0.  0.
        1    1    3    3  502    0 -0.44127795525E+03  0.70635477639E+03 -0.20758290616E+03  0.85834373469E+03  0.50400001928E-02 0.  1.
       -1    1    3    3    0  502  0.44127795525E+03 -0.70635477639E+03 -0.14526265010E+04  0.16744512699E+04  0.50400001928E-02 0. -1.
</event>
<event>
 5   0  0.8602017E-05  0.1882458E+04  0.7818609E-02  0.8663638E-01
       -1   -1    0    0    0  501  0.00000000000E+00  0.00000000000E+00  0.34286127928E+03  0.34286127931E+03  0.50400001928E-02 0. -1.
        1   -1    0    0  501    0  0.00000000000E+00  0.00000000000E+00 -0.25838781675E+04  0.25838781675E+04  0.50400001928E-02 0.  1.
    10030    2    1    2    0    0  0.00000000000E+00  0.00000000000E+00 -0.22410168882E+04  0.29267394468E+04  0.18824577276E+04 0.  0.
        2    1    3    3  502    0 -0.53517795636E+03  0.34424587119E+03 -0.21987780238E+04  0.22890053435E+04  0.25500000920E-02 0.  1.
       -2    1    3    3    0  502  0.53517795636E+03 -0.34424587119E+03 -0.42238864418E+02  0.63773410327E+03  0.25500000920E-02 0. -1.
</event>
<event>
 5   0  0.8567844E-05  0.1923913E+04  0.7818609E-02  0.8643044E-01
        1   -1    0    0  501    0  0.00000000000E+00  0.00000000000E+00  0.12308469531E+04  0.12308469532E+04  0.50400001928E-02 0. -1.
       -1   -1    0    0    0  501  0.00000000000E+00  0.00000000000E+00 -0.75180790409E+03  0.75180790411E+03  0.50400001928E-02 0.  1.
    10030    2    1    2    0    0  0.00000000000E+00  0.00000000000E+00  0.47903904905E+03  0.19826548573E+04  0.19239131666E+04 0.  0.
        4    1    3    3  502    0  0.41161866607E+03  0.39925181496E+03  0.10354528230E+04  0.11836368107E+04  0.12699999809E+01 0. -1.
       -4    1    3    3    0  502 -0.41161866607E+03 -0.39925181496E+03 -0.55641377396E+03  0.79901804658E+03  0.12699999809E+01 0.  1.
</event>
<event>
 5   0  0.1658711E-04  0.1913128E+04  0.7818609E-02  0.8648349E-01
        2   -1    0    0  501    0  0.00000000000E+00  0.00000000000E+00  0.77494449400E+03  0.77494449400E+03  0.25500000920E-02 0.  1.
       -2   -1    0    0    0  501  0.00000000000E+00  0.00000000000E+00 -0.11807486737E+04  0.11807486737E+04  0.25500000920E-02 0. -1.
    10030    2    1    2    0    0  0.00000000000E+00  0.00000000000E+00 -0.40580417968E+03  0.19556931677E+04  0.19131279972E+04 0.  0.
        2    1    3    3  502    0  0.13930068368E+03 -0.52398761701E+03 -0.10085010897E+04  0.11450074896E+04  0.25500000920E-02 0. -1.
       -2    1    3    3    0  502 -0.13930068368E+03  0.52398761701E+03  0.60269691004E+03  0.81068567808E+03  0.25500000920E-02 0.  1.
</event>
<event>
 5   0  0.8602017E-05  0.1872489E+04  0.7818609E-02  0.8668673E-01
       -1   -1    0    0    0  501  0.00000000000E+00  0.00000000000E+00  0.47653750329E+03  0.47653750332E+03  0.50400001928E-02 0. -1.
        1   -1    0    0  501    0  0.00000000000E+00  0.00000000000E+00 -0.18394218525E+04  0.18394218525E+04  0.50400001928E-02 0.  1.
    10030    2    1    2    0    0  0.00000000000E+00  0.00000000000E+00 -0.13628843492E+04  0.23159593559E+04  0.18724887152E+04 0.  0.
        2    1    3    3  502    0  0.75313249077E+03 -0.20910499547E+03 -0.43998008358E+02  0.78285967614E+03  0.25500000920E-02 0.  1.
       -2    1    3    3    0  502 -0.75313249077E+03  0.20910499547E+03 -0.13188863409E+04  0.15330996797E+04  0.25500000920E-02 0. -1.
</event>
<event>
 5   0  0.8587082E-05  0.1902372E+04  0.7818609E-02  0.8653677E-01
        1   -1    0    0  501    0  0.00000000000E+00  0.00000000000E+00  0.98850463131E+03  0.98850463132E+03  0.50400001928E-02 0. -1.
       -1   -1    0    0    0  501  0.00000000000E+00  0.00000000000E+00 -0.91527627052E+03  0.91527627054E+03  0.50400001928E-02 0.  1.
    10030    2    1    2    0    0  0.00000000000E+00  0.00000000000E+00  0.73228360788E+02  0.19037809019E+04  0.19023720271E+04 0.  0.
        5    1    3    3  502    0 -0.48781014752E+03  0.21275443409E+03 -0.75232844084E+03  0.92154400988E+03  0.46999998093E+01 0.  1.
       -5    1    3    3    0  502  0.48781014752E+03 -0.21275443409E+03  0.82555680163E+03  0.98223689198E+03  0.46999998093E+01 0. -1.
</event>
<event>
 5   0  0.1799738E-04  0.1922918E+04  0.7818609E-02  0.8643532E-01
       -2   -1    0    0    0  501  0.00000000000E+00  0.00000000000E+00  0.76670112408E+03  0.76670112408E+03  0.25500000920E-02 0. -1.
        2   -1    0    0  501    0  0.00000000000E+00  0.00000000000E+00 -0.12056897543E+04  0.12056897543E+04  0.25500000920E-02 0.  1.
    10030    2    1    2    0    0  0.00000000000E+00  0.00000000000E+00 -0.43898863021E+03  0.19723908784E+04  0.19229182925E+04 0.  0.
        1    1    3    3  502    0 -0.36386581507E+03  0.62307456637E+02 -0.11300975606E+04  0.11888654453E+04  0.50400001928E-02 0.  1.
       -1    1    3    3    0  502  0.36386581507E+03 -0.62307456637E+02  0.69110893041E+03  0.78352543305E+03  0.50400001928E-02 0. -1.
</event>
<event>
 5   0  0.1799738E-04  0.1925793E+04  0.7818609E-02  0.8642123E-01
        2   -1    0    0  501    0  0.00000000000E+00  0.00000000000E+00  0.19065165151E+04  0.19065165151E+04  0.25500000920E-02 0. -1.
       -2   -1    0    0    0  501  0.00000000000E+00  0.00000000000E+00 -0.48631633681E+03  0.48631633682E+03  0.25500000920E-02 0.  1.
    10030    2    1    2    0    0  0.00000000000E+00  0.00000000000E+00  0.14202001783E+04  0.23928328519E+04  0.19257934756E+04 0.  0.
        1    1    3    3  502    0 -0.71219085535E+03 -0.18502154154E+03 -0.61583894193E+02  0.73840460544E+03  0.50400001928E-02 0.  1.
       -1    1    3    3    0  502  0.71219085535E+03  0.18502154154E+03  0.14817840725E+04  0.16544282465E+04  0.50400001928E-02 0. -1.
</event>
<event>
 5   0  0.1658711E-04  0.1888743E+04  0.7818609E-02  0.8660480E-01
       -2   -1    0    0    0  501  0.00000000000E+00  0.00000000000E+00  0.63224584791E+03  0.63224584791E+03  0.25500000920E-02 0. -1.
        2   -1    0    0  501    0  0.00000000000E+00  0.00000000000E+00 -0.14105866193E+04  0.14105866193E+04  0.25500000920E-02 0.  1.
    10030    2    1    2    0    0  0.00000000000E+00  0.00000000000E+00 -0.77834077135E+03  0.20428324672E+04  0.18887430033E+04 0.  0.
        2    1    3    3  502    0 -0.71748669030E+03  0.56959881367E+02 -0.10504467352E+04  0.12733695152E+04  0.25500000920E-02 0.  1.
       -2    1    3    3    0  502  0.71748669030E+03 -0.56959881367E+02  0.27210596384E+03  0.76946295194E+03  0.25500000920E-02 0. -1.
</event>
<event>
 5   0  0.1790832E-04  0.1918621E+04  0.7818609E-02  0.8645643E-01
       -2   -1    0    0    0  501  0.00000000000E+00  0.00000000000E+00  0.63101827785E+03  0.63101827786E+03  0.25500000920E-02 0.  1.
        2   -1    0    0  501    0  0.00000000000E+00  0.00000000000E+00 -0.14583991924E+04  0.14583991924E+04  0.25500000920E-02 0. -1.
    10030    2    1    2    0    0  0.00000000000E+00  0.00000000000E+00 -0.82738091452E+03  0.20894174702E+04  0.19186209076E+04 0.  0.
        5    1    3    3  502    0  0.25443234893E+03 -0.88486964743E+03 -0.70696742171E+03  0.11608424262E+04  0.46999998093E+01 0. -1.
       -5    1    3    3    0  502 -0.25443234893E+03  0.88486964743E+03 -0.12041349281E+03  0.92857504402E+03  0.46999998093E+01 0.  1.
</event>
<event>
 5   0  0.8567844E-05  0.1875299E+04  0.7818609E-02  0.8667250E-01
       -1   -1    0    0    0  501  0.00000000000E+00  0.00000000000E+00  0.49131621610E+03  0.49131621612E+03  0.50400001928E-02 0. -1.
        1   -1    0    0  501    0  0.00000000000E+00  0.00000000000E+00 -0.17894508274E+04  0.17894508274E+04  0.50400001928E-02 0.  1.
    10030    2    1    2    0    0  0.00000000000E+00  0.00000000000E+00 -0.12981346113E+04  0.22807670435E+04  0.18752985996E+04 0.  0.
        4    1    3    3  502    0 -0.25462383450E+03 -0.67124922193E+03 -0.13826133691E+04  0.15578928577E+04  0.12699999809E+01 0.  1.
       -4    1    3    3    0  502  0.25462383450E+03  0.67124922193E+03  0.84478757766E+02  0.72287418577E+03  0.12699999809E+01 0. -1.
</event>
<event>
 5   0  0.1799738E-04  0.1839627E+04  0.7818609E-02  0.8685505E-01
       -2   -1    0    0    0  501  0.00000000000E+00  0.00000000000E+00  0.33340794966E+03  0.33340794967E+03  0.25500000920E-02 0. -1.
        2   -1    0    0  501    0  0.00000000000E+00  0.00000000000E+00 -0.25376034684E+04  0.25376034684E+04  0.25500000920E-02 0.  1.
    10030    2    1    2    0    0  0.00000000000E+00  0.00000000000E+00 -0.22041955187E+04  0.28710114181E+04  0.18396273204E+04 0.  0.
        1    1    3    3  502    0  0.49998264562E+02  0.48410221472E+01  0.33126574120E+03  0.33505261269E+03  0.50400001928E-02 0. -1.
       -1    1    3    3    0  502 -0.49998264562E+02 -0.48410221472E+01 -0.25354612599E+04  0.25359588054E+04  0.50400001928E-02 0.  1.
</event>
<event>
 5   0  0.8905646E-05  0.1909591E+04  0.7818609E-02  0.8650097E-01
       -1   -1    0    0    0  501  0.00000000000E+00  0.00000000000E+00  0.63639009626E+03  0.63639009628E+03  0.50400001928E-02 0. -1.
        1   -1    0    0  501    0  0.00000000000E+00  0.00000000000E+00 -0.14325095091E+04  0.14325095091E+04  0.50400001928E-02 0.  1.
    10030    2    1    2    0    0  0.00000000000E+00  0.00000000000E+00 -0.79611941281E+03  0.20688996054E+04  0.19095914373E+04 0.  0.
        1    1    3    3  502    0 -0.57029915301E+03  0.46265701202E+03 -0.10591641948E+04  0.12888449970E+04  0.50400001928E-02 0.  1.
       -1    1    3    3    0  502  0.57029915301E+03 -0.46265701202E+03  0.26304478197E+03  0.78005460838E+03  0.50400001928E-02 0. -1.
</event>
<event>
 5   0  0.8602017E-05  0.1899557E+04  0.7818609E-02  0.8655077E-01
        1   -1    0    0  501    0  0.00000000000E+00  0.00000000000E+00  0.12253851697E+04  0.12253851697E+04  0.50400001928E-02 0.  1.
       -1   -1    0    0    0  501  0.00000000000E+00  0.00000000000E+00 -0.73615951993E+03  0.73615951994E+03  0.50400001928E-02 0. -1.
    10030    2    1    2    0    0  0.00000000000E+00  0.00000000000E+00  0.48922564981E+03  0.19615446897E+04  0.18995567465E+04 0.  0.
        2    1    3    3  502    0  0.68160689310E+03 -0.40218053287E+02  0.92636443587E+03  0.11508068980E+04  0.25500000920E-02 0.  1.
       -2    1    3    3    0  502 -0.68160689310E+03  0.40218053287E+02 -0.43713878606E+03  0.81073779165E+03  0.25500000920E-02 0. -1.
</event>
<event>
 5   0  0.8905646E-05  0.1897796E+04  0.7818609E-02  0.8655954E-01
       -1   -1    0    0    0  501  0.00000000000E+00  0.00000000000E+00  0.51317262215E+03  0.51317262218E+03  0.50400001928E-02 0.  1.
        1   -1    0    0  501    0  0.00000000000E+00  0.00000000000E+00 -0.17545895753E+04  0.17545895753E+04  0.50400001928E-02 0. -1.
    10030    2    1    2    0    0  0.00000000000E+00  0.00000000000E+00 -0.12414169532E+04  0.22677621975E+04  0.18977959144E+04 0.  0.
        1    1    3    3  502    0 -0.85041686267E+03 -0.12687506035E+03 -0.14108834051E+03  0.87132774609E+03  0.50400001928E-02 0.  1.
       -1    1    3    3    0  502  0.85041686267E+03  0.12687506035E+03 -0.11003286127E+04  0.13964344514E+04  0.50400001928E-02 0. -1.
</event>
<event>
 5   0  0.8587082E-05  0.1932132E+04  0.7818609E-02  0.8639026E-01
       -1   -1    0    0    0  501  0.00000000000E+00  0.00000000000E+00  0.74813776646E+03  0.74813776647E+03  0.50400001928E-02 0. -1.
        1   -1    0    0  501    0  0.00000000000E+00  0.00000000000E+00 -0.12474750652E+04  0.12474750652E+04  0.50400001928E-02 0.  1.
    10030    2    1    2    0    0  0.00000000000E+00  0.00000000000E+00 -0.49933729878E+03  0.19956128317E+04  0.19321316819E+04 0.  0.
        5    1    3    3  502    0  0.14097140329E+03 -0.13274104987E+03  0.72787765210E+03  0.75320720209E+03  0.46999998093E+01 0. -1.
       -5    1    3    3    0  502 -0.14097140329E+03  0.13274104987E+03 -0.12272149509E+04  0.12424056296E+04  0.46999998093E+01 0.  1.
</event>
<event>
 5   0  0.8602017E-05  0.1887988E+04  0.7818609E-02  0.8660859E-01
        1   -1    0    0  501    0  0.00000000000E+00  0.00000000000E+00  0.14953360252E+04  0.14953360252E+04  0.50400001928E-02 0. -1.
       -1   -1    0    0    0  501  0.00000000000E+00  0.00000000000E+00 -0.59593593373E+03  0.59593593375E+03  0.50400001928E-02 0.  1.
    10030    2    1    2    0    0  0.00000000000E+00  0.00000000000E+00  0.89940009147E+03  0.20912719590E+04  0.18879877864E+04 0.  0.
        2    1    3    3  502    0  0.19843508364E+03  0.73004958806E+03 -0.17569417093E+03  0.77667066712E+03  0.25500000920E-02 0.  1.
       -2    1    3    3    0  502 -0.19843508364E+03 -0.73004958806E+03  0.10750942624E+04  0.13146012918E+04  0.25500000920E-02 0. -1.
</event>
<event>
 5   0  0.1799738E-04  0.1900458E+04  0.7818609E-02  0.8654629E-01
        2   -1    0    0  501    0  0.00000000000E+00  0.00000000000E+00  0.19422965524E+04  0.19422965524E+04  0.25500000920E-02 0. -1.
       -2   -1    0    0    0  501  0.00000000000E+00  0.00000000000E+00 -0.46487997344E+03  0.46487997345E+03  0.25500000920E-02 0.  1.
    10030    2    1    2    0    0  0.00000000000E+00  0.00000000000E+00  0.14774165790E+04  0.24071765258E+04  0.19004575972E+04 0.  0.
        1    1    3    3  502    0 -0.46965220912E+03  0.35915896110E+03 -0.20352003026E+03  0.62529093998E+03  0.50400001928E-02 0.  1.
       -1    1    3    3    0  502  0.46965220912E+03 -0.35915896110E+03  0.16809366092E+04  0.17818855859E+04  0.50400001928E-02 0. -1.
</event>
<event>
 5   0  0.1765328E-04  0.1897968E+04  0.7818609E-02  0.8655868E-01
       -2   -1    0    0    0  501  0.00000000000E+00  0.00000000000E+00  0.28490284360E+03  0.28490284361E+03  0.25500000920E-02 0. -1.
        2   -1    0    0  501    0  0.00000000000E+00  0.00000000000E+00 -0.31609757518E+04  0.31609757518E+04  0.25500000920E-02 0.  1.
    10030    2    1    2    0    0  0.00000000000E+00  0.00000000000E+00 -0.28760729082E+04  0.34458785954E+04  0.18979683667E+04 0.  0.
        3    1    3    3  502    0 -0.18224880303E+03  0.36175989623E+03 -0.29961291304E+04  0.30233879382E+04  0.10100000352E+00 0.  1.
       -3    1    3    3    0  502  0.18224880303E+03 -0.36175989623E+03  0.12005622221E+03  0.42249065719E+03  0.10100000352E+00 0. -1.
</event>
<event>
 5   0  0.8905646E-05  0.1861469E+04  0.7818609E-02  0.8674277E-01
        1   -1    0    0  501    0  0.00000000000E+00  0.00000000000E+00  0.65996704813E+03  0.65996704815E+03  0.50400001928E-02 0.  1.
       -1   -1    0    0    0  501  0.00000000000E+00  0.00000000000E+00 -0.13125901898E+04  0.13125901898E+04  0.50400001928E-02 0. -1.
    10030    2    1    2    0    0  0.00000000000E+00  0.00000000000E+00 -0.65262314167E+03  0.19725572380E+04  0.18614685310E+04 0.  0.
        1    1    3    3  502    0 -0.43544665792E+03 -0.80854951337E+03 -0.48667052897E+03  0.10393335900E+04  0.50400001928E-02 0. -1.
       -1    1    3    3    0  502  0.43544665792E+03  0.80854951337E+03 -0.16595261271E+03  0.93322364798E+03  0.50400001928E-02 0.  1.
</event>
<event>
 5   0  0.8602017E-05  0.1955757E+04  0.7818609E-02  0.8627590E-01
       -1   -1    0    0    0  501  0.00000000000E+00  0.00000000000E+00  0.77064302141E+03  0.77064302143E+03  0.50400001928E-02 0.  1.
        1   -1    0    0  501    0  0.00000000000E+00  0.00000000000E+00 -0.12408421113E+04  0.12408421113E+04  0.50400001928E-02 0. -1.
    10030    2    1    2    0    0  0.00000000000E+00  0.00000000000E+00 -0.47019908986E+03  0.20114851327E+04  0.19557569519E+04 0.  0.
        2    1    3    3  502    0  0.16838213986E+03 -0.41863663781E+03  0.65716731987E+03  0.79716878128E+03  0.25500000920E-02 0.  1.
       -2    1    3    3    0  502 -0.16838213986E+03  0.41863663781E+03 -0.11273664097E+04  0.12143163514E+04  0.25500000920E-02 0. -1.
</event>
<event>
 5   0  0.8905646E-05  0.1837949E+04  0.7818609E-02  0.8686375E-01
       -1   -1    0    0    0  501  0.00000000000E+00  0.00000000000E+00  0.10306397046E+04  0.10306397047E+04  0.50400001928E-02 0.  1.
        1   -1    0    0  501    0  0.00000000000E+00  0.00000000000E+00 -0.81940759205E+03  0.81940759207E+03  0.50400001928E-02 0. -1.
    10030    2    1    2    0    0  0.00000000000E+00  0.00000000000E+00  0.21123211259E+03  0.18500472967E+04  0.18379488553E+04 0.  0.
        1    1    3    3  502    0  0.13823455444E+03  0.87808819887E+03 -0.12908464337E+03  0.89822632015E+03  0.50400001928E-02 0. -1.
       -1    1    3    3    0  502 -0.13823455444E+03 -0.87808819887E+03  0.34031675596E+03  0.95182097657E+03  0.50400001928E-02 0.  1.
</event>
<event>
 5   0  0.8602017E-05  0.1897263E+04  0.7818609E-02  0.8656220E-01
        1   -1    0    0  501    0  0.00000000000E+00  0.00000000000E+00  0.84211884135E+03  0.84211884137E+03  0.50400001928E-02 0.  1.
       -1   -1    0    0    0  501  0.00000000000E+00  0.00000000000E+00 -0.10686156640E+04  0.10686156640E+04  0.50400001928E-02 0. -1.
    10030    2    1    2    0    0  0.00000000000E+00  0.00000000000E+00 -0.22649682265E+03  0.19107345054E+04  0.18972626437E+04 0.  0.
        2    1    3    3  502    0 -0.15137887600E+01  0.28943294296E+03 -0.10230609977E+04  0.10632156531E+04  0.25500000920E-02 0. -1.
       -2    1    3    3    0  502  0.15137887600E+01 -0.28943294296E+03  0.79656417502E+03  0.84751885228E+03  0.25500000920E-02 0.  1.
</event>
<event>
 5   0  0.8681396E-05  0.1890348E+04  0.7818609E-02  0.8659676E-01
        1   -1    0    0  501    0  0.00000000000E+00  0.00000000000E+00  0.58866015935E+03  0.58866015937E+03  0.50400001928E-02 0. -1.
       -1   -1    0    0    0  501  0.00000000000E+00  0.00000000000E+00 -0.15176055550E+04  0.15176055550E+04  0.50400001928E-02 0.  1.
    10030    2    1    2    0    0  0.00000000000E+00  0.00000000000E+00 -0.92894539565E+03  0.21062657144E+04  0.18903480398E+04 0.  0.
        3    1    3    3  502    0  0.10682726589E+03  0.88583237401E+03 -0.81192904092E+03  0.12063746670E+04  0.10100000352E+00 0.  1.
       -3    1    3    3    0  502 -0.10682726589E+03 -0.88583237401E+03 -0.11701635473E+03  0.89989104733E+03  0.10100000352E+00 0. -1.
</event>
<event>
 5   0  0.1799738E-04  0.1896900E+04  0.7818609E-02  0.8656401E-01
       -2   -1    0    0    0  501  0.00000000000E+00  0.00000000000E+00  0.52551808505E+03  0.52551808506E+03  0.25500000920E-02 0. -1.
        2   -1    0    0  501    0  0.00000000000E+00  0.00000000000E+00 -0.17117536270E+04  0.17117536270E+04  0.25500000920E-02 0.  1.
    10030    2    1    2    0    0  0.00000000000E+00  0.00000000000E+00 -0.11862355420E+04  0.22372717121E+04  0.18969000903E+04 0.  0.
        1    1    3    3  502    0  0.70046108923E+03  0.97112205575E+02  0.15233875697E+03  0.72338344943E+03  0.50400001928E-02 0. -1.
       -1    1    3    3    0  502 -0.70046108923E+03 -0.97112205575E+02 -0.13385742990E+04  0.15138882627E+04  0.50400001928E-02 0.  1.
</event>
<event>
 5   0  0.8587082E-05  0.1888405E+04  0.7818609E-02  0.8660650E-01
       -1   -1    0    0    0  501  0.00000000000E+00  0.00000000000E+00  0.81699824298E+03  0.81699824299E+03  0.50400001928E-02 0. -1.
        1   -1    0    0  501    0  0.00000000000E+00  0.00000000000E+00 -0.10912117415E+04  0.10912117416E+04  0.50400001928E-02 0.  1.
    10030    2    1    2    0    0  0.00000000000E+00  0.00000000000E+00 -0.27421349857E+03  0.19082099846E+04  0.18884046977E+04 0.  0.
        5    1    3    3  502    0 -0.48937408046E+03 -0.53740659234E+03  0.47187726788E+03  0.86659280060E+03  0.46999998093E+01 0. -1.
       -5    1    3    3    0  502  0.48937408046E+03  0.53740659234E+03 -0.74609076645E+03  0.10416171840E+04  0.46999998093E+01 0.  1.
</event>
<event>
 5   0  0.1658711E-04  0.1907128E+04  0.7818609E-02  0.8651317E-01
        2   -1    0    0  501    0  0.00000000000E+00  0.00000000000E+00  0.17610723363E+04  0.17610723363E+04  0.25500000920E-02 0.  1.
       -2   -1    0    0    0  501  0.00000000000E+00  0.00000000000E+00 -0.51632406695E+03  0.51632406696E+03  0.25500000920E-02 0. -1.
    10030    2    1    2    0    0  0.00000000000E+00  0.00000000000E+00  0.12447482693E+04  0.22773964033E+04  0.19071277156E+04 0.  0.
        2    1    3    3  502    0  0.10795855900E+02 -0.31040060639E+03 -0.45422930060E+03  0.55026297757E+03  0.25500000920E-02 0. -1.
       -2    1    3    3    0  502 -0.10795855900E+02  0.31040060639E+03  0.16989775699E+04  0.17271334257E+04  0.25500000920E-02 0.  1.
</event>
<event>
 5   0  0.8602017E-05  0.1885500E+04  0.7818609E-02  0.8662108E-01
       -1   -1    0    0    0  501  0.00000000000E+00  0.00000000000E+00  0.73548395272E+03  0.73548395274E+03  0.50400001928E-02 0.  1.
        1   -1    0    0  501    0  0.00000000000E+00  0.00000000000E+00 -0.12084249677E+04  0.12084249678E+04  0.50400001928E-02 0. -1.
    10030    2    1    2    0    0  0.00000000000E+00  0.00000000000E+00 -0.47294101503E+03  0.19439089205E+04  0.18854995856E+04 0.  0.
        2    1    3    3  502    0 -0.61341146649E+03 -0.69763633664E+03 -0.70848150980E+02  0.93165956547E+03  0.25500000920E-02 0.  1.
       -2    1    3    3    0  502  0.61341146649E+03  0.69763633664E+03 -0.40209286405E+03  0.10122493550E+04  0.25500000920E-02 0. -1.
</event>
<event>
 5   0  0.1765328E-04  0.1893087E+04  0.7818609E-02  0.8658305E-01
        2   -1    0    0  501    0  0.00000000000E+00  0.00000000000E+00  0.11975914152E+04  0.11975914152E+04  0.25500000920E-02 0. -1.
       -2   -1    0    0    0  501  0.00000000000E+00  0.00000000000E+00 -0.74812215929E+03  0.74812215930E+03  0.25500000920E-02 0.  1.
    10030    2    1    2    0    0  0.00000000000E+00  0.00000000000E+00  0.44946925593E+03  0.19457135745E+04  0.18930870825E+04 0.  0.
        3    1    3    3  502    0 -0.86868888820E+03  0.31001664456E+03  0.61877564078E+01  0.92237140183E+03  0.10100000352E+00 0. -1.
       -3    1    3    3    0  502  0.86868888820E+03 -0.31001664456E+03  0.44328149952E+03  0.10233421727E+04  0.10100000352E+00 0.  1.
</event>
<event>
 5   0  0.8905646E-05  0.1911407E+04  0.7818609E-02  0.8649199E-01
        1   -1    0    0  501    0  0.00000000000E+00  0.00000000000E+00  0.68014522646E+03  0.68014522648E+03  0.50400001928E-02 0. -1.
       -1   -1    0    0    0  501  0.00000000000E+00  0.00000000000E+00 -0.13429031481E+04  0.13429031482E+04  0.50400001928E-02 0.  1.
    10030    2    1    2    0    0  0.00000000000E+00  0.00000000000E+00 -0.66275792168E+03  0.20230483746E+04  0.19114069853E+04 0.  0.
        1    1    3    3  502    0 -0.84672167768E+03  0.35872758488E+03 -0.55895706943E+02  0.92127488280E+03  0.50400001928E-02 0. -1.
       -1    1    3    3    0  502  0.84672167768E+03 -0.35872758488E+03 -0.60686221474E+03  0.11017734918E+04  0.50400001928E-02 0.  1.
</event>
<event>
 5   0  0.1765328E-04  0.1776925E+04  0.7818609E-02  0.8718667E-01
       -2   -1    0    0    0  501  0.00000000000E+00  0.00000000000E+00  0.48770215082E+03  0.48770215083E+03  0.25500000920E-02 0. -1.
        2   -1    0    0  501    0  0.00000000000E+00  0.00000000000E+00 -0.16185410944E+04  0.16185410944E+04  0.25500000920E-02 0.  1.
    10030    2    1    2    0    0  0.00000000000E+00  0.00000000000E+00 -0.11308389435E+04  0.21062432452E+04  0.17769254041E+04 0.  0.
        3    1    3    3  502    0  0.53451397639E+03  0.20684076547E+03 -0.13701160639E+04  0.14851620558E+04  0.10100000352E+00 0.  1.
       -3    1    3    3    0  502 -0.53451397639E+03 -0.20684076547E+03  0.23927712041E+03  0.62108118935E+03  0.10100000352E+00 0. -1.
</event>
<event>
 5   0  0.8681396E-05  0.1895461E+04  0.7818609E-02  0.8657119E-01
        1   -1    0    0  501    0  0.00000000000E+00  0.00000000000E+00  0.99793098115E+03  0.99793098116E+03  0.50400001928E-02 0.  1.
       -1   -1    0    0    0  501  0.00000000000E+00  0.00000000000E+00 -0.90005510910E+03  0.90005510912E+03  0.50400001928E-02 0. -1.
    10030    2    1    2    0    0  0.00000000000E+00  0.00000000000E+00  0.97875872040E+02  0.18979860903E+04  0.18954607652E+04 0.  0.
        3    1    3    3  502    0  0.31980193679E+03  0.74513301140E+02 -0.84127258690E+03  0.90308642249E+03  0.10100000352E+00 0. -1.
       -3    1    3    3    0  502 -0.31980193679E+03 -0.74513301140E+02  0.93914845894E+03  0.99489966778E+03  0.10100000352E+00 0.  1.
</event>
<event>
 5   0  0.8587082E-05  0.1993776E+04  0.7818609E-02  0.8609536E-01
        1   -1    0    0  501    0  0.00000000000E+00  0.00000000000E+00  0.90001600101E+03  0.90001600102E+03  0.50400001928E-02 0.  1.
       -1   -1    0    0    0  501  0.00000000000E+00  0.00000000000E+00 -0.11041869757E+04  0.11041869757E+04  0.50400001928E-02 0. -1.
    10030    2    1    2    0    0  0.00000000000E+00  0.00000000000E+00 -0.20417097469E+03  0.20042029767E+04  0.19937762625E+04 0.  0.
        5    1    3    3  502    0  0.89935173715E+03 -0.23922661204E+03 -0.46130698906E+03  0.10386958877E+04  0.46999998093E+01 0. -1.
       -5    1    3    3    0  502 -0.89935173715E+03  0.23922661204E+03  0.25713601438E+03  0.96550708900E+03  0.46999998093E+01 0.  1.
</event>
<event>
 5   0  0.8681396E-05  0.1669001E+04  0.7818609E-02  0.8779244E-01
        1   -1    0    0  501    0  0.00000000000E+00  0.00000000000E+00  0.91566211523E+03  0.91566211524E+03  0.50400001928E-02 0.  1.
       -1   -1    0    0    0  501  0.00000000000E+00  0.00000000000E+00 -0.76053299147E+03  0.76053299149E+03  0.50400001928E-02 0. -1.
    10030    2    1    2    0    0  0.00000000000E+00  0.00000000000E+00  0.15512912375E+03  0.16761951067E+04  0.16690011956E+04 0.  0.
        3    1    3    3  502    0 -0.29427886428E+03  0.34778017158E+03 -0.62462011904E+03  0.77311150620E+03  0.10100000352E+00 0. -1.
       -3    1    3    3    0  502  0.29427886428E+03 -0.34778017158E+03  0.77974924280E+03  0.90308360053E+03  0.10100000352E+00 0.  1.
</event>
<event>
 5   0  0.1790832E-04  0.1652063E+04  0.7818609E-02  0.8789187E-01
        2   -1    0    0  501    0  0.00000000000E+00  0.00000000000E+00  0.16406958163E+04  0.16406958163E+04  0.25500000920E-02 0.  1.
       -2   -1    0    0    0  501  0.00000000000E+00  0.00000000000E+00 -0.41587719421E+03  0.41587719422E+03  0.25500000920E-02 0. -1.
    10030    2    1    2    0    0  0.00000000000E+00  0.00000000000E+00  0.12248186221E+04  0.20565730105E+04  0.16520629197E+04 0.  0.
        5    1    3    3  502    0 -0.86198422517E+02  0.70217787774E+03  0.11432212656E+04  0.13444184215E+04  0.46999998093E+01 0.  1.
       -5    1    3    3    0  502  0.86198422517E+02 -0.70217787774E+03  0.81597356499E+02  0.71215458899E+03  0.46999998093E+01 0. -1.
</event>
<event>
 5   0  0.1799738E-04  0.1905821E+04  0.7818609E-02  0.8651964E-01
        2   -1    0    0  501    0  0.00000000000E+00  0.00000000000E+00  0.47340999044E+03  0.47340999045E+03  0.25500000920E-02 0.  1.
       -2   -1    0    0    0  501  0.00000000000E+00  0.00000000000E+00 -0.19180808121E+04  0.19180808121E+04  0.25500000920E-02 0. -1.
    10030    2    1    2    0    0  0.00000000000E+00  0.00000000000E+00 -0.14446708217E+04  0.23914908026E+04  0.19058212077E+04 0.  0.
        1    1    3    3  502    0 -0.13601454230E+03  0.88640370033E+03 -0.31799978181E+03  0.95149111238E+03  0.50400001928E-02 0.  1.
       -1    1    3    3    0  502  0.13601454230E+03 -0.88640370033E+03 -0.11266710399E+04  0.14399996902E+04  0.50400001928E-02 0. -1.
</event>
<event>
 5   0  0.1799738E-04  0.1901974E+04  0.7818609E-02  0.8653874E-01
       -2   -1    0    0    0  501  0.00000000000E+00  0.00000000000E+00  0.78860466793E+03  0.78860466794E+03  0.25500000920E-02 0.  1.
        2   -1    0    0  501    0  0.00000000000E+00  0.00000000000E+00 -0.11468056171E+04  0.11468056171E+04  0.25500000920E-02 0. -1.
    10030    2    1    2    0    0  0.00000000000E+00  0.00000000000E+00 -0.35820094919E+03  0.19354102851E+04  0.19019739881E+04 0.  0.
        1    1    3    3  502    0 -0.43275791037E+03 -0.72250494739E+03 -0.62854768643E+03  0.10508877210E+04  0.50400001928E-02 0. -1.
       -1    1    3    3    0  502  0.43275791037E+03  0.72250494739E+03  0.27034673724E+03  0.88452256407E+03  0.50400001928E-02 0.  1.
</event>
<event>
 5   0  0.8602017E-05  0.1899476E+04  0.7818609E-02  0.8655117E-01
       -1   -1    0    0    0  501  0.00000000000E+00  0.00000000000E+00  0.80379989533E+03  0.80379989534E+03  0.50400001928E-02 0.  1.
        1   -1    0    0  501    0  0.00000000000E+00  0.00000000000E+00 -0.11221726776E+04  0.11221726776E+04  0.50400001928E-02 0. -1.
    10030    2    1    2    0    0  0.00000000000E+00  0.00000000000E+00 -0.31837278227E+03  0.19259725730E+04  0.18994760128E+04 0.  0.
        2    1    3    3  502    0  0.25714782090E+03  0.66971358051E+03  0.47187880754E+03  0.85866809113E+03  0.25500000920E-02 0.  1.
       -2    1    3    3    0  502 -0.25714782090E+03 -0.66971358051E+03 -0.79025158981E+03  0.10673044818E+04  0.25500000920E-02 0. -1.
</event>
<event>
 5   0  0.6375750E-05  0.1936476E+04  0.7818609E-02  0.8636910E-01
       -4   -1    0    0    0  501  0.00000000000E+00  0.00000000000E+00  0.12903715766E+04  0.12903722016E+04  0.12699999809E+01 0.  1.
        4   -1    0    0  501    0  0.00000000000E+00  0.00000000000E+00 -0.72652190506E+03  0.72652301508E+03  0.12699999809E+01 0. -1.
    10030    2    1    2    0    0  0.00000000000E+00  0.00000000000E+00  0.56384967152E+03  0.20168952166E+04  0.19364761457E+04 0.  0.
        1    1    3    3  502    0 -0.41340329023E+03 -0.30948723505E+03 -0.57111206904E+03  0.76996988543E+03  0.50400001928E-02 0. -1.
       -1    1    3    3    0  502  0.41340329023E+03  0.30948723505E+03  0.11349617406E+04  0.12469253312E+04  0.50400001928E-02 0.  1.
</event>
<event>
 5   0  0.1658711E-04  0.1907840E+04  0.7818609E-02  0.8650964E-01
        2   -1    0    0  501    0  0.00000000000E+00  0.00000000000E+00  0.16064115728E+04  0.16064115728E+04  0.25500000920E-02 0.  1.
       -2   -1    0    0    0  501  0.00000000000E+00  0.00000000000E+00 -0.56645722841E+03  0.56645722842E+03  0.25500000920E-02 0. -1.
    10030    2    1    2    0    0  0.00000000000E+00  0.00000000000E+00  0.10399543444E+04  0.21728688012E+04  0.19078400847E+04 0.  0.
        2    1    3    3  502    0  0.38351737364E+02 -0.67252013615E+03  0.12892379365E+04  0.14546094480E+04  0.25500000920E-02 0.  1.
       -2    1    3    3    0  502 -0.38351737364E+02  0.67252013615E+03 -0.24928359206E+03  0.71825935327E+03  0.25500000920E-02 0. -1.
</event>
<event>
 5   0  0.8587082E-05  0.2008449E+04  0.7818609E-02  0.8602681E-01
       -1   -1    0    0    0  501  0.00000000000E+00  0.00000000000E+00  0.52244991605E+03  0.52244991607E+03  0.50400001928E-02 0. -1.
        1   -1    0    0  501    0  0.00000000000E+00  0.00000000000E+00 -0.19302654600E+04  0.19302654600E+04  0.50400001928E-02 0.  1.
    10030    2    1    2    0    0  0.00000000000E+00  0.00000000000E+00 -0.14078155440E+04  0.24527153761E+04  0.20084491804E+04 0.  0.
        5    1    3    3  502    0 -0.73275979875E+03 -0.12158267257E+03 -0.15292118984E+04  0.17000677602E+04  0.46999998093E+01 0.  1.
       -5    1    3    3    0  502  0.73275979875E+03  0.12158267257E+03  0.12139635441E+03  0.75264761595E+03  0.46999998093E+01 0. -1.
</event>
<event>
 5   0  0.8567844E-05  0.1903325E+04  0.7818609E-02  0.8653203E-01
       -1   -1    0    0    0  501  0.00000000000E+00  0.00000000000E+00  0.53648194455E+03  0.53648194457E+03  0.50400001928E-02 0.  1.
        1   -1    0    0  501    0  0.00000000000E+00  0.00000000000E+00 -0.16881497042E+04  0.16881497042E+04  0.50400001928E-02 0. -1.
    10030    2    1    2    0    0  0.00000000000E+00  0.00000000000E+00 -0.11516677596E+04  0.22246316488E+04  0.19033253385E+04 0.  0.
        4    1    3    3  502    0  0.23481339469E+02  0.94117763300E+03 -0.73818329841E+03  0.11963623636E+04  0.12699999809E+01 0.  1.
       -4    1    3    3    0  502 -0.23481339469E+02 -0.94117763300E+03 -0.41348446122E+03  0.10282692851E+04  0.12699999809E+01 0. -1.
</event>
<event>
 5   0  0.8681396E-05  0.1903647E+04  0.7818609E-02  0.8653043E-01
       -1   -1    0    0    0  501  0.00000000000E+00  0.00000000000E+00  0.52442867265E+03  0.52442867267E+03  0.50400001928E-02 0.  1.
        1   -1    0    0  501    0  0.00000000000E+00  0.00000000000E+00 -0.17275325001E+04  0.17275325001E+04  0.50400001928E-02 0. -1.
    10030    2    1    2    0    0  0.00000000000E+00  0.00000000000E+00 -0.12031038274E+04  0.22519611728E+04  0.19036465807E+04 0.  0.
        3    1    3    3  502    0  0.69452560029E+03  0.17480967362E+03  0.14009090015E+03  0.72976003039E+03  0.10100000352E+00 0.  1.
       -3    1    3    3    0  502 -0.69452560029E+03 -0.17480967362E+03 -0.13431947276E+04  0.15222011424E+04  0.10100000352E+00 0. -1.
</event>
<event>
 5   0  0.8587082E-05  0.1908437E+04  0.7818609E-02  0.8650668E-01
       -1   -1    0    0    0  501  0.00000000000E+00  0.00000000000E+00  0.11623130252E+04  0.11623130253E+04  0.50400001928E-02 0.  1.
        1   -1    0    0  501    0  0.00000000000E+00  0.00000000000E+00 -0.78338033266E+03  0.78338033268E+03  0.50400001928E-02 0. -1.
    10030    2    1    2    0    0  0.00000000000E+00  0.00000000000E+00  0.37893269258E+03  0.19456933579E+04  0.19084372291E+04 0.  0.
        5    1    3    3  502    0  0.81149851960E+03  0.50040207889E+03  0.14895415560E+03  0.96495674429E+03  0.46999998093E+01 0.  1.
       -5    1    3    3    0  502 -0.81149851960E+03 -0.50040207889E+03  0.22997853699E+03  0.98073661365E+03  0.46999998093E+01 0. -1.
</event>
<event>
 5   0  0.1658711E-04  0.1956095E+04  0.7818609E-02  0.8627427E-01
       -2   -1    0    0    0  501  0.00000000000E+00  0.00000000000E+00  0.51887509858E+03  0.51887509859E+03  0.25500000920E-02 0.  1.
        2   -1    0    0  501    0  0.00000000000E+00  0.00000000000E+00 -0.18435594508E+04  0.18435594508E+04  0.25500000920E-02 0. -1.
    10030    2    1    2    0    0  0.00000000000E+00  0.00000000000E+00 -0.13246843522E+04  0.23624345494E+04  0.19560951835E+04 0.  0.
        2    1    3    3  502    0  0.88110798488E+02  0.94320902611E+03 -0.36856251106E+03  0.10164866474E+04  0.25500000920E-02 0.  1.
       -2    1    3    3    0  502 -0.88110798488E+02 -0.94320902611E+03 -0.95612184114E+03  0.13459479020E+04  0.25500000920E-02 0. -1.
</event>
<event>
 5   0  0.1658711E-04  0.1898567E+04  0.7818609E-02  0.8655570E-01
       -2   -1    0    0    0  501  0.00000000000E+00  0.00000000000E+00  0.39592306039E+03  0.39592306040E+03  0.25500000920E-02 0.  1.
        2   -1    0    0  501    0  0.00000000000E+00  0.00000000000E+00 -0.22760457624E+04  0.22760457624E+04  0.25500000920E-02 0. -1.
    10030    2    1    2    0    0  0.00000000000E+00  0.00000000000E+00 -0.18801227020E+04  0.26719688228E+04  0.18985668320E+04 0.  0.
        2    1    3    3  502    0  0.15456897233E+03  0.66748651193E+03 -0.15360738422E+02  0.68532164938E+03  0.25500000920E-02 0.  1.
       -2    1    3    3    0  502 -0.15456897233E+03 -0.66748651193E+03 -0.18647619636E+04  0.19866471734E+04  0.25500000920E-02 0. -1.
</event>
<event>
 5   0  0.8567844E-05  0.1914446E+04  0.7818609E-02  0.8647699E-01
       -1   -1    0    0    0  501  0.00000000000E+00  0.00000000000E+00  0.72006374013E+03  0.72006374015E+03  0.50400001928E-02 0. -1.
        1   -1    0    0  501    0  0.00000000000E+00  0.00000000000E+00 -0.12724927733E+04  0.12724927733E+04  0.50400001928E-02 0.  1.
    10030    2    1    2    0    0  0.00000000000E+00  0.00000000000E+00 -0.55242903313E+03  0.19925565134E+04  0.19144460354E+04 0.  0.
        4    1    3    3  502    0 -0.17281959615E+03 -0.57513772009E+03  0.49960040405E+03  0.78118639678E+03  0.12699999809E+01 0. -1.
       -4    1    3    3    0  502  0.17281959615E+03  0.57513772009E+03 -0.10520294372E+04  0.12113701166E+04  0.12699999809E+01 0.  1.
</event>
<event>
 5   0  0.8905646E-05  0.1915397E+04  0.7818609E-02  0.8647230E-01
       -1   -1    0    0    0  501  0.00000000000E+00  0.00000000000E+00  0.13962779710E+04  0.13962779710E+04  0.50400001928E-02 0.  1.
        1   -1    0    0  501    0  0.00000000000E+00  0.00000000000E+00 -0.65687934071E+03  0.65687934073E+03  0.50400001928E-02 0. -1.
    10030    2    1    2    0    0  0.00000000000E+00  0.00000000000E+00  0.73939863027E+03  0.20531573117E+04  0.19153967245E+04 0.  0.
        1    1    3    3  502    0  0.78280189744E+03 -0.46722002282E+03  0.55143786661E+02  0.91329852600E+03  0.50400001928E-02 0. -1.
       -1    1    3    3    0  502 -0.78280189744E+03  0.46722002282E+03  0.68425484360E+03  0.11398587857E+04  0.50400001928E-02 0.  1.
</event>
<event>
 5   0  0.8905646E-05  0.2011832E+04  0.7818609E-02  0.8601109E-01
        1   -1    0    0  501    0  0.00000000000E+00  0.00000000000E+00  0.11845053531E+04  0.11845053531E+04  0.50400001928E-02 0. -1.
       -1   -1    0    0    0  501  0.00000000000E+00  0.00000000000E+00 -0.85425301368E+03  0.85425301369E+03  0.50400001928E-02 0.  1.
    10030    2    1    2    0    0  0.00000000000E+00  0.00000000000E+00  0.33025233939E+03  0.20387583668E+04  0.20118322670E+04 0.  0.
        1    1    3    3  502    0 -0.99813587827E+03  0.98606709301E+02  0.24275926485E+03  0.10319547351E+04  0.50400001928E-02 0. -1.
       -1    1    3    3    0  502  0.99813587827E+03 -0.98606709301E+02  0.87493074541E+02  0.10068036317E+04  0.50400001928E-02 0.  1.
</event>
<event>
 5   0  0.8587082E-05  0.1917435E+04  0.7818609E-02  0.8646226E-01
       -1   -1    0    0    0  501  0.00000000000E+00  0.00000000000E+00  0.47532761311E+03  0.47532761314E+03  0.50400001928E-02 0. -1.
        1   -1    0    0  501    0  0.00000000000E+00  0.00000000000E+00 -0.19336970296E+04  0.19336970296E+04  0.50400001928E-02 0.  1.
    10030    2    1    2    0    0  0.00000000000E+00  0.00000000000E+00 -0.14583694165E+04  0.24090246428E+04  0.19174353638E+04 0.  0.
        5    1    3    3  502    0 -0.99094409943E+02 -0.25415941893E+03 -0.18838921379E+04  0.19035462667E+04  0.46999998093E+01 0.  1.
       -5    1    3    3    0  502  0.99094409943E+02  0.25415941893E+03  0.42552272135E+03  0.50547837609E+03  0.46999998093E+01 0. -1.
</event>
<event>
 5   0  0.1810569E-04  0.1902440E+04  0.7818609E-02  0.8653643E-01
       -2   -1    0    0    0  501  0.00000000000E+00  0.00000000000E+00  0.13013349423E+04  0.13013349423E+04  0.25500000920E-02 0. -1.
        2   -1    0    0  501    0  0.00000000000E+00  0.00000000000E+00 -0.69530135198E+03  0.69530135198E+03  0.25500000920E-02 0.  1.
    10030    2    1    2    0    0  0.00000000000E+00  0.00000000000E+00  0.60603359033E+03  0.19966362943E+04  0.19024404798E+04 0.  0.
        4    1    3    3  502    0 -0.89529637104E+03 -0.98310553120E+02  0.62410225969E+03  0.10957763459E+04  0.12699999809E+01 0. -1.
       -4    1    3    3    0  502  0.89529637104E+03  0.98310553120E+02 -0.18068669359E+02  0.90085994836E+03  0.12699999809E+01 0.  1.
</event>
<event>
 5   0  0.1765328E-04  0.1922730E+04  0.7818609E-02  0.8643624E-01
       -2   -1    0    0    0  501  0.00000000000E+00  0.00000000000E+00  0.59700669730E+03  0.59700669731E+03  0.25500000920E-02 0.  1.
        2   -1    0    0  501    0  0.00000000000E+00  0.00000000000E+00 -0.15480950279E+04  0.15480950279E+04  0.25500000920E-02 0. -1.
    10030    2    1    2    0    0  0.00000000000E+00  0.00000000000E+00 -0.95108833060E+03  0.21451017252E+04  0.19227304540E+04 0.  0.
        3    1    3    3  502    0 -0.39792086404E+03 -0.84138826703E+03 -0.74410840642E+03  0.11916260154E+04  0.10100000352E+00 0. -1.
       -3    1    3    3    0  502  0.39792086404E+03  0.84138826703E+03 -0.20697992418E+03  0.95347570978E+03  0.10100000352E+00 0.  1.
</event>
<event>
 5   0  0.1799738E-04  0.1913052E+04  0.7818609E-02  0.8648387E-01
       -2   -1    0    0    0  501  0.00000000000E+00  0.00000000000E+00  0.66005921345E+03  0.66005921346E+03  0.25500000920E-02 0. -1.
        2   -1    0    0  501    0  0.00000000000E+00  0.00000000000E+00 -0.13861510624E+04  0.13861510624E+04  0.25500000920E-02 0.  1.
    10030    2    1    2    0    0  0.00000000000E+00  0.00000000000E+00 -0.72609184894E+03  0.20462102759E+04  0.19130517818E+04 0.  0.
        1    1    3    3  502    0  0.73277909068E+03 -0.52838571126E+03 -0.69922394158E+03  0.11423969433E+04  0.50400001928E-02 0. -1.
       -1    1    3    3    0  502 -0.73277909068E+03  0.52838571126E+03 -0.26867907362E+02  0.90381333254E+03  0.50400001928E-02 0.  1.
</event>
<event>
 5   0  0.1765328E-04  0.1905453E+04  0.7818609E-02  0.8652147E-01
       -2   -1    0    0    0  501  0.00000000000E+00  0.00000000000E+00  0.54636462214E+03  0.54636462214E+03  0.25500000920E-02 0.  1.
        2   -1    0    0  501    0  0.00000000000E+00  0.00000000000E+00 -0.16613215935E+04  0.16613215935E+04  0.25500000920E-02 0. -1.
    10030    2    1    2    0    0  0.00000000000E+00  0.00000000000E+00 -0.11149569714E+04  0.22076862156E+04  0.19054525391E+04 0.  0.
        3    1    3    3  502    0 -0.88985580971E+03  0.18280011544E+03 -0.89012029099E+03  0.12718385852E+04  0.10100000352E+00 0. -1.
       -3    1    3    3    0  502  0.88985580971E+03 -0.18280011544E+03 -0.22483668037E+03  0.93584763040E+03  0.10100000352E+00 0.  1.
</event>
<event>
 5   0  0.1790832E-04  0.1896204E+04  0.7818609E-02  0.8656748E-01
       -2   -1    0    0    0  501  0.00000000000E+00  0.00000000000E+00  0.67849076979E+03  0.67849076979E+03  0.25500000920E-02 0. -1.
        2   -1    0    0  501    0  0.00000000000E+00  0.00000000000E+00 -0.13248488873E+04  0.13248488873E+04  0.25500000920E-02 0.  1.
    10030    2    1    2    0    0  0.00000000000E+00  0.00000000000E+00 -0.64635811756E+03  0.20033396571E+04  0.18962043576E+04 0.  0.
        5    1    3    3  502    0 -0.15859521185E+03 -0.55888739158E+03 -0.11147563205E+04  0.12570645576E+04  0.46999998093E+01 0.  1.
       -5    1    3    3    0  502  0.15859521185E+03  0.55888739158E+03  0.46839820299E+03  0.74627509958E+03  0.46999998093E+01 0. -1.
</event>
<event>
 5   0  0.6375750E-05  0.1963171E+04  0.7818609E-02  0.8624035E-01
       -4   -1    0    0    0  501  0.00000000000E+00  0.00000000000E+00  0.70762219863E+03  0.70762333829E+03  0.12699999809E+01 0.  1.
        4   -1    0    0  501    0  0.00000000000E+00  0.00000000000E+00 -0.13616146371E+04  0.13616152294E+04  0.12699999809E+01 0. -1.
    10030    2    1    2    0    0  0.00000000000E+00  0.00000000000E+00 -0.65399243851E+03  0.20692385677E+04  0.19631714496E+04 0.  0.
        4    1    3    3  502    0  0.27839845058E+03 -0.79577954876E+03  0.20289622010E+03  0.86714432279E+03  0.12699999809E+01 0.  1.
       -4    1    3    3    0  502 -0.27839845058E+03  0.79577954876E+03 -0.85688865861E+03  0.12020942449E+04  0.12699999809E+01 0. -1.
</event>
<event>
 5   0  0.8681396E-05  0.1898558E+04  0.7818609E-02  0.8655574E-01
        1   -1    0    0  501    0  0.00000000000E+00  0.00000000000E+00  0.61946691915E+03  0.61946691917E+03  0.50400001928E-02 0. -1.
       -1   -1    0    0    0  501  0.00000000000E+00  0.00000000000E+00 -0.14546877220E+04  0.14546877220E+04  0.50400001928E-02 0.  1.
    10030    2    1    2    0    0  0.00000000000E+00  0.00000000000E+00 -0.83522080282E+03  0.20741546411E+04  0.18985583178E+04 0.  0.
        3    1    3    3  502    0 -0.61748526859E+03 -0.16060198898E+03 -0.11855067086E+04  0.13462938840E+04  0.10100000352E+00 0.  1.
       -3    1    3    3    0  502  0.61748526859E+03  0.16060198898E+03  0.35028590578E+03  0.72786075713E+03  0.10100000352E+00 0. -1.
</event>
<event>
 5   0  0.1799738E-04  0.1791438E+04  0.7818609E-02  0.8710866E-01
        2   -1    0    0  501    0  0.00000000000E+00  0.00000000000E+00  0.75277046775E+03  0.75277046775E+03  0.25500000920E-02 0.  1.
       -2   -1    0    0    0  501  0.00000000000E+00  0.00000000000E+00 -0.10658135397E+04  0.10658135397E+04  0.25500000920E-02 0. -1.
    10030    2    1    2    0    0  0.00000000000E+00  0.00000000000E+00 -0.31304307191E+03  0.18185840074E+04  0.17914384799E+04 0.  0.
        1    1    3    3  502    0  0.69830798846E+03  0.27939478848E+03  0.33728276137E+03  0.82429069855E+03  0.50400001928E-02 0.  1.
       -1    1    3    3    0  502 -0.69830798846E+03 -0.27939478848E+03 -0.65032583327E+03  0.99429330885E+03  0.50400001928E-02 0. -1.
</event>
<event>
 5   0  0.8681396E-05  0.1896763E+04  0.7818609E-02  0.8656469E-01
       -1   -1    0    0    0  501  0.00000000000E+00  0.00000000000E+00  0.51495737860E+03  0.51495737863E+03  0.50400001928E-02 0.  1.
        1   -1    0    0  501    0  0.00000000000E+00  0.00000000000E+00 -0.17466060922E+04  0.17466060922E+04  0.50400001928E-02 0. -1.
    10030    2    1    2    0    0  0.00000000000E+00  0.00000000000E+00 -0.12316487136E+04  0.22615634709E+04  0.18967632375E+04 0.  0.
        3    1    3    3  502    0  0.87132795103E+03  0.33430382781E+03 -0.81695784792E+03  0.12403191456E+04  0.10100000352E+00 0. -1.
       -3    1    3    3    0  502 -0.87132795103E+03 -0.33430382781E+03 -0.41469086572E+03  0.10212443252E+04  0.10100000352E+00 0.  1.
</event>
<event>
 5   0  0.8602017E-05  0.1915965E+04  0.7818609E-02  0.8646950E-01
        1   -1    0    0  501    0  0.00000000000E+00  0.00000000000E+00  0.14289656495E+04  0.14289656495E+04  0.50400001928E-02 0.  1.
       -1   -1    0    0    0  501  0.00000000000E+00  0.00000000000E+00 -0.64223432468E+03  0.64223432470E+03  0.50400001928E-02 0. -1.
    10030    2    1    2    0    0  0.00000000000E+00  0.00000000000E+00  0.78673132486E+03  0.20711999742E+04  0.19159653326E+04 0.  0.
        2    1    3    3  502    0 -0.18972086105E+03  0.76337804222E+03 -0.19773746958E+03  0.81107345373E+03  0.25500000920E-02 0. -1.
       -2    1    3    3    0  502  0.18972086105E+03 -0.76337804222E+03  0.98446879444E+03  0.12601265205E+04  0.25500000920E-02 0.  1.
</event>
<event>
 5   0  0.8567844E-05  0.1927685E+04  0.7818609E-02  0.8641197E-01
       -1   -1    0    0    0  501  0.00000000000E+00  0.00000000000E+00  0.70594006147E+03  0.70594006149E+03  0.50400001928E-02 0.  1.
        1   -1    0    0  501    0  0.00000000000E+00  0.00000000000E+00 -0.13159645265E+04  0.13159645265E+04  0.50400001928E-02 0. -1.
    10030    2    1    2    0    0  0.00000000000E+00  0.00000000000E+00 -0.61002446504E+03  0.20219045880E+04  0.19276847032E+04 0.  0.
        4    1    3    3  502    0  0.29356336220E+02  0.84509887140E+03 -0.79015232856E+03  0.11573228643E+04  0.12699999809E+01 0. -1.
       -4    1    3    3    0  502 -0.29356336220E+02 -0.84509887140E+03  0.18012786352E+03  0.86458172375E+03  0.12699999809E+01 0.  1.
</event>
<event>
 5   0  0.1810569E-04  0.1979206E+04  0.7818609E-02  0.8616405E-01
        2   -1    0    0  501    0  0.00000000000E+00  0.00000000000E+00  0.21417472898E+04  0.21417472898E+04  0.25500000920E-02 0. -1.
       -2   -1    0    0    0  501  0.00000000000E+00  0.00000000000E+00 -0.45725006773E+03  0.45725006773E+03  0.25500000920E-02 0.  1.
    10030    2    1    2    0    0  0.00000000000E+00  0.00000000000E+00  0.16844972221E+04  0.25989973576E+04  0.19792059957E+04 0.  0.
        4    1    3    3  502    0  0.69391576605E+02 -0.94986762018E+03  0.11952123897E+04  0.15282663237E+04  0.12699999809E+01 0.  1.
       -4    1    3    3    0  502 -0.69391576605E+02  0.94986762018E+03  0.48928483242E+03  0.10707310339E+04  0.12699999809E+01 0. -1.
</event>
<event>
 5   0  0.8587082E-05  0.1897611E+04  0.7818609E-02  0.8656047E-01
       -1   -1    0    0    0  501  0.00000000000E+00  0.00000000000E+00  0.11074501750E+04  0.11074501751E+04  0.50400001928E-02 0. -1.
        1   -1    0    0  501    0  0.00000000000E+00  0.00000000000E+00 -0.81288682997E+03  0.81288682998E+03  0.50400001928E-02 0.  1.
    10030    2    1    2    0    0  0.00000000000E+00  0.00000000000E+00  0.29456334508E+03  0.19203370050E+04  0.18976107737E+04 0.  0.
        5    1    3    3  502    0  0.41136798614E+03  0.32554358422E+03 -0.65276047650E+03  0.83744884914E+03  0.46999998093E+01 0.  1.
       -5    1    3    3    0  502 -0.41136798614E+03 -0.32554358422E+03  0.94732382158E+03  0.10828881559E+04  0.46999998093E+01 0. -1.
</event>
<event>
 5   0  0.8587082E-05  0.1861442E+04  0.7818609E-02  0.8674291E-01
       -1   -1    0    0    0  501  0.00000000000E+00  0.00000000000E+00  0.91149444883E+03  0.91149444885E+03  0.50400001928E-02 0.  1.
        1   -1    0    0  501    0  0.00000000000E+00  0.00000000000E+00 -0.95035299593E+03  0.95035299594E+03  0.50400001928E-02 0. -1.
    10030    2    1    2    0    0  0.00000000000E+00  0.00000000000E+00 -0.38858547094E+02  0.18618474448E+04  0.18614418930E+04 0.  0.
        5    1    3    3  502    0  0.80297689439E+03 -0.47012205471E+03  0.13779265598E+01  0.93048945611E+03  0.46999998093E+01 0. -1.
       -5    1    3    3    0  502 -0.80297689439E+03  0.47012205471E+03 -0.40236473654E+02  0.93135798867E+03  0.46999998093E+01 0.  1.
</event>
<event>
 5   0  0.8587082E-05  0.1900493E+04  0.7818609E-02  0.8654611E-01
        1   -1    0    0  501    0  0.00000000000E+00  0.00000000000E+00  0.94564125305E+03  0.94564125307E+03  0.50400001928E-02 0. -1.
       -1   -1    0    0    0  501  0.00000000000E+00  0.00000000000E+00 -0.95487419781E+03  0.95487419783E+03  0.50400001928E-02 0.  1.
    10030    2    1    2    0    0  0.00000000000E+00  0.00000000000E+00 -0.92329447602E+01  0.19005154509E+04  0.19004930234E+04 0.  0.
        5    1    3    3  502    0  0.69134378726E+03 -0.58511032174E+03  0.28285173897E+03  0.94886116847E+03  0.46999998093E+01 0. -1.
       -5    1    3    3    0  502 -0.69134378726E+03  0.58511032174E+03 -0.29208468373E+03  0.95165428243E+03  0.46999998093E+01 0.  1.
</event>
<event>
 5   0  0.1790832E-04  0.1892013E+04  0.7818609E-02  0.8658842E-01
       -2   -1    0    0    0  501  0.00000000000E+00  0.00000000000E+00  0.88578391928E+03  0.88578391928E+03  0.25500000920E-02 0.  1.
        2   -1    0    0  501    0  0.00000000000E+00  0.00000000000E+00 -0.10103232409E+04  0.10103232409E+04  0.25500000920E-02 0. -1.
    10030    2    1    2    0    0  0.00000000000E+00  0.00000000000E+00 -0.12453932158E+03  0.18961071601E+04  0.18920127695E+04 0.  0.
        5    1    3    3  502    0 -0.53909133514E+02  0.93200493665E+03 -0.21546181236E+03  0.95811548323E+03  0.46999998093E+01 0. -1.
       -5    1    3    3    0  502  0.53909133514E+02 -0.93200493665E+03  0.90922490775E+02  0.93799167691E+03  0.46999998093E+01 0.  1.
</event>
<event>
 5   0  0.1799738E-04  0.1899658E+04  0.7818609E-02  0.8655027E-01
        2   -1    0    0  501    0  0.00000000000E+00  0.00000000000E+00  0.21256706487E+04  0.21256706487E+04  0.25500000920E-02 0. -1.
       -2   -1    0    0    0  501  0.00000000000E+00  0.00000000000E+00 -0.42441888071E+03  0.42441888072E+03  0.25500000920E-02 0.  1.
    10030    2    1    2    0    0  0.00000000000E+00  0.00000000000E+00  0.17012517680E+04  0.25500895294E+04  0.18996576086E+04 0.  0.
        1    1    3    3  502    0 -0.10079693927E+03  0.55018237947E+03  0.18811389598E+04  0.19625352124E+04  0.50400001928E-02 0. -1.
       -1    1    3    3    0  502  0.10079693927E+03 -0.55018237947E+03 -0.17988719184E+03  0.58755431703E+03  0.50400001928E-02 0.  1.
</event>
<event>
 5   0  0.8602017E-05  0.1946081E+04  0.7818609E-02  0.8632253E-01
        1   -1    0    0  501    0  0.00000000000E+00  0.00000000000E+00  0.11607147028E+04  0.11607147028E+04  0.50400001928E-02 0. -1.
       -1   -1    0    0    0  501  0.00000000000E+00  0.00000000000E+00 -0.81571075943E+03  0.81571075944E+03  0.50400001928E-02 0.  1.
    10030    2    1    2    0    0  0.00000000000E+00  0.00000000000E+00  0.34500394335E+03  0.19764254622E+04  0.19460806476E+04 0.  0.
        2    1    3    3  502    0  0.40960823033E+03 -0.83671327670E+03 -0.11284067638E+03  0.93840344629E+03  0.25500000920E-02 0.  1.
       -2    1    3    3    0  502 -0.40960823033E+03  0.83671327670E+03  0.45784461974E+03  0.10380220159E+04  0.25500000920E-02 0. -1.
</event>
<event>
 5   0  0.6375750E-05  0.1899268E+04  0.7818609E-02  0.8655221E-01
       -4   -1    0    0    0  501  0.00000000000E+00  0.00000000000E+00  0.75599725880E+03  0.75599832554E+03  0.12699999809E+01 0.  1.
        4   -1    0    0  501    0  0.00000000000E+00  0.00000000000E+00 -0.11928653216E+04  0.11928659977E+04  0.12699999809E+01 0. -1.
    10030    2    1    2    0    0  0.00000000000E+00  0.00000000000E+00 -0.43686806282E+03  0.19488643232E+04  0.18992678711E+04 0.  0.
        2    1    3    3  502    0 -0.37600568351E+03  0.35830640023E+03  0.59733640377E+03  0.79156460871E+03  0.25500000920E-02 0.  1.
       -2    1    3    3    0  502  0.37600568351E+03 -0.35830640023E+03 -0.10342044666E+04  0.11572997145E+04  0.25500000920E-02 0. -1.
</event>
<event>
 5   0  0.1799738E-04  0.1886678E+04  0.7818609E-02  0.8661516E-01
        2   -1    0    0  501    0  0.00000000000E+00  0.00000000000E+00  0.25514538651E+04  0.25514538651E+04  0.25500000920E-02 0. -1.
       -2   -1    0    0    0  501  0.00000000000E+00  0.00000000000E+00 -0.34877688749E+03  0.34877688750E+03  0.25500000920E-02 0.  1.
    10030    2    1    2    0    0  0.00000000000E+00  0.00000000000E+00  0.22026769776E+04  0.29002307526E+04  0.18866776488E+04 0.  0.
        1    1    3    3  502    0  0.33555320380E+03 -0.21652509280E+03 -0.21242723625E+03  0.45233217785E+03  0.50400001928E-02 0.  1.
       -1    1    3    3    0  502 -0.33555320380E+03  0.21652509280E+03  0.24151042139E+04  0.24478985748E+04  0.50400001928E-02 0. -1.
</event>
<event>
 5   0  0.6375750E-05  0.1908792E+04  0.7818609E-02  0.8650492E-01
       -3   -1    0    0    0  501  0.00000000000E+00  0.00000000000E+00  0.14110872493E+04  0.14110872530E+04  0.10100000352E+00 0.  1.
        3   -1    0    0  501    0  0.00000000000E+00  0.00000000000E+00 -0.64551060868E+03  0.64551061658E+03  0.10100000352E+00 0. -1.
    10030    2    1    2    0    0  0.00000000000E+00  0.00000000000E+00  0.76557664067E+03  0.20565978695E+04  0.19087920799E+04 0.  0.
        5    1    3    3  502    0 -0.43038819477E+03  0.34089487408E+03 -0.45830515087E+03  0.71519858408E+03  0.46999998093E+01 0. -1.
       -5    1    3    3    0  502  0.43038819477E+03 -0.34089487408E+03  0.12238817915E+04  0.13413992855E+04  0.46999998093E+01 0.  1.
</event>
<event>
 5   0  0.1799738E-04  0.1884504E+04  0.7818609E-02  0.8662609E-01
        2   -1    0    0  501    0  0.00000000000E+00  0.00000000000E+00  0.13272986976E+04  0.13272986976E+04  0.25500000920E-02 0.  1.
       -2   -1    0    0    0  501  0.00000000000E+00  0.00000000000E+00 -0.66890633626E+03  0.66890633626E+03  0.25500000920E-02 0. -1.
    10030    2    1    2    0    0  0.00000000000E+00  0.00000000000E+00  0.65839236132E+03  0.19962050338E+04  0.18845036576E+04 0.  0.
        1    1    3    3  502    0 -0.43910847333E+03 -0.42363100257E+03  0.10897804889E+04  0.12489599640E+04  0.50400001928E-02 0.  1.
       -1    1    3    3    0  502  0.43910847333E+03  0.42363100257E+03 -0.43138812761E+03  0.74724506981E+03  0.50400001928E-02 0. -1.
</event>
<event>
 5   0  0.1765328E-04  0.1888017E+04  0.7818609E-02  0.8660844E-01
       -2   -1    0    0    0  501  0.00000000000E+00  0.00000000000E+00  0.75011766116E+03  0.75011766117E+03  0.25500000920E-02 0.  1.
        2   -1    0    0  501    0  0.00000000000E+00  0.00000000000E+00 -0.11880168438E+04  0.11880168438E+04  0.25500000920E-02 0. -1.
    10030    2    1    2    0    0  0.00000000000E+00  0.00000000000E+00 -0.43789918265E+03  0.19381345050E+04  0.18880173901E+04 0.  0.
        3    1    3    3  502    0 -0.18505981182E+03  0.35668039698E+02  0.73060885752E+03  0.75452545079E+03  0.10100000352E+00 0.  1.
       -3    1    3    3    0  502  0.18505981182E+03 -0.35668039698E+02 -0.11685080402E+04  0.11836090542E+04  0.10100000352E+00 0. -1.
</event>
<event>
 5   0  0.8567844E-05  0.1932610E+04  0.7818609E-02  0.8638792E-01
        1   -1    0    0  501    0  0.00000000000E+00  0.00000000000E+00  0.20089233196E+04  0.20089233196E+04  0.50400001928E-02 0.  1.
       -1   -1    0    0    0  501  0.00000000000E+00  0.00000000000E+00 -0.46479891167E+03  0.46479891170E+03  0.50400001928E-02 0. -1.
    10030    2    1    2    0    0  0.00000000000E+00  0.00000000000E+00  0.15441244080E+04  0.24737222313E+04  0.19326100203E+04 0.  0.
        4    1    3    3  502    0  0.40680528295E+03  0.70678365146E+03  0.14355740693E+04  0.16510324617E+04  0.12699999809E+01 0. -1.
       -4    1    3    3    0  502 -0.40680528295E+03 -0.70678365146E+03  0.10855033871E+03  0.82268976968E+03  0.12699999809E+01 0.  1.
</event>
<event>
 5   0  0.8567844E-05  0.1834825E+04  0.7818609E-02  0.8687996E-01
        1   -1    0    0  501    0  0.00000000000E+00  0.00000000000E+00  0.17918272694E+04  0.17918272694E+04  0.50400001928E-02 0. -1.
       -1   -1    0    0    0  501  0.00000000000E+00  0.00000000000E+00 -0.46971371460E+03  0.46971371462E+03  0.50400001928E-02 0.  1.
    10030    2    1    2    0    0  0.00000000000E+00  0.00000000000E+00  0.13221135548E+04  0.22615409840E+04  0.18348251608E+04 0.  0.
        4    1    3    3  502    0 -0.72687610703E+03  0.50216860147E+03  0.96578223176E+03  0.13089152422E+04  0.12699999809E+01 0. -1.
       -4    1    3    3    0  502  0.72687610703E+03 -0.50216860147E+03  0.35633132306E+03  0.95262574181E+03  0.12699999809E+01 0.  1.
</event>
<event>
 5   0  0.8905646E-05  0.1922718E+04  0.7818609E-02  0.8643630E-01
       -1   -1    0    0    0  501  0.00000000000E+00  0.00000000000E+00  0.12693806879E+04  0.12693806879E+04  0.50400001928E-02 0.  1.
        1   -1    0    0  501    0  0.00000000000E+00  0.00000000000E+00 -0.72808070788E+03  0.72808070789E+03  0.50400001928E-02 0. -1.
    10030    2    1    2    0    0  0.00000000000E+00  0.00000000000E+00  0.54129998001E+03  0.19974613958E+04  0.19227184816E+04 0.  0.
        1    1    3    3  502    0  0.71424857059E+01  0.87407716338E+02 -0.72391639676E+03  0.72920921107E+03  0.50400001928E-02 0. -1.
       -1    1    3    3    0  502 -0.71424857059E+01 -0.87407716338E+02  0.12652163768E+04  0.12682521847E+04  0.50400001928E-02 0.  1.
</event>
<event>
 5   0  0.1790832E-04  0.1881954E+04  0.7818609E-02  0.8663892E-01
        2   -1    0    0  501    0  0.00000000000E+00  0.00000000000E+00  0.23793989136E+04  0.23793989136E+04  0.25500000920E-02 0.  1.
       -2   -1    0    0    0  501  0.00000000000E+00  0.00000000000E+00 -0.37212657940E+03  0.37212657940E+03  0.25500000920E-02 0. -1.
    10030    2    1    2    0    0  0.00000000000E+00  0.00000000000E+00  0.20072723342E+04  0.27515254930E+04  0.18819538557E+04 0.  0.
        5    1    3    3  502    0 -0.43151531643E+03  0.54413482720E+03  0.19319304607E+04  0.20529650687E+04  0.46999998093E+01 0.  1.
       -5    1    3    3    0  502  0.43151531643E+03 -0.54413482720E+03  0.75341873542E+02  0.69856042430E+03  0.46999998093E+01 0. -1.
</event>
<event>
 5   0  0.8905646E-05  0.1854379E+04  0.7818609E-02  0.8677904E-01
       -1   -1    0    0    0  501  0.00000000000E+00  0.00000000000E+00  0.12030246064E+04  0.12030246064E+04  0.50400001928E-02 0. -1.
        1   -1    0    0  501    0  0.00000000000E+00  0.00000000000E+00 -0.71459916492E+03  0.71459916494E+03  0.50400001928E-02 0.  1.
    10030    2    1    2    0    0  0.00000000000E+00  0.00000000000E+00  0.48842544150E+03  0.19176237714E+04  0.18543790110E+04 0.  0.
        1    1    3    3  502    0  0.34464881907E+02  0.90874919828E+03  0.57307044753E+02  0.91120636020E+03  0.50400001928E-02 0.  1.
       -1    1    3    3    0  502 -0.34464881907E+02 -0.90874919828E+03  0.43111839675E+03  0.10064174112E+04  0.50400001928E-02 0. -1.
</event>
<event>
 5   0  0.1790832E-04  0.1917497E+04  0.7818609E-02  0.8646196E-01
        2   -1    0    0  501    0  0.00000000000E+00  0.00000000000E+00  0.89347671220E+03  0.89347671220E+03  0.25500000920E-02 0.  1.
       -2   -1    0    0    0  501  0.00000000000E+00  0.00000000000E+00 -0.10287886081E+04  0.10287886081E+04  0.25500000920E-02 0. -1.
    10030    2    1    2    0    0  0.00000000000E+00  0.00000000000E+00 -0.13531189585E+03  0.19222653203E+04  0.19174969758E+04 0.  0.
        5    1    3    3  502    0 -0.62882651211E+03 -0.48026013788E+03  0.47508115108E+03  0.92292836801E+03  0.46999998093E+01 0.  1.
       -5    1    3    3    0  502  0.62882651211E+03  0.48026013788E+03 -0.61039304693E+03  0.99933695224E+03  0.46999998093E+01 0. -1.
</event>
<event>
 5   0  0.1799738E-04  0.1904074E+04  0.7818609E-02  0.8652831E-01
        2   -1    0    0  501    0  0.00000000000E+00  0.00000000000E+00  0.91390850446E+03  0.91390850446E+03  0.25500000920E-02 0. -1.
       -2   -1    0    0    0  501  0.00000000000E+00  0.00000000000E+00 -0.99175610067E+03  0.99175610067E+03  0.25500000920E-02 0.  1.
    10030    2    1    2    0    0  0.00000000000E+00  0.00000000000E+00 -0.77847596208E+02  0.19056646051E+04  0.19040738796E+04 0.  0.
        1    1    3    3  502    0 -0.50042501195E+03 -0.79722804982E+03  0.10394201115E+03  0.94699614451E+03  0.50400001928E-02 0. -1.
       -1    1    3    3    0  502  0.50042501195E+03  0.79722804982E+03 -0.18178960736E+03  0.95866846062E+03  0.50400001928E-02 0.  1.
</event>
<event>
 5   0  0.1810569E-04  0.1899368E+04  0.7818609E-02  0.8655171E-01
        2   -1    0    0  501    0  0.00000000000E+00  0.00000000000E+00  0.15558580365E+04  0.15558580365E+04  0.25500000920E-02 0.  1.
       -2   -1    0    0    0  501  0.00000000000E+00  0.00000000000E+00 -0.57967968609E+03  0.57967968610E+03  0.25500000920E-02 0. -1.
    10030    2    1    2    0    0  0.00000000000E+00  0.00000000000E+00  0.97617835044E+03  0.21355377226E+04  0.18993675771E+04 0.  0.
        4    1    3    3  502    0 -0.70312363941E+03 -0.34499313974E+03 -0.11581362896E+03  0.79171808639E+03  0.12699999809E+01 0. -1.
       -4    1    3    3    0  502  0.70312363941E+03  0.34499313974E+03  0.10919919794E+04  0.13438196362E+04  0.12699999809E+01 0.  1.
</event>
<event>
 5   0  0.1790832E-04  0.1859829E+04  0.7818609E-02  0.8675114E-01
       -2   -1    0    0    0  501  0.00000000000E+00  0.00000000000E+00  0.75969058116E+03  0.75969058117E+03  0.25500000920E-02 0. -1.
        2   -1    0    0  501    0  0.00000000000E+00  0.00000000000E+00 -0.11382809913E+04  0.11382809913E+04  0.25500000920E-02 0.  1.
    10030    2    1    2    0    0  0.00000000000E+00  0.00000000000E+00 -0.37859041012E+03  0.18979715725E+04  0.18598293984E+04 0.  0.
        5    1    3    3  502    0 -0.56481392355E+03 -0.26373595866E+03 -0.89348139123E+03  0.10894505545E+04  0.46999998093E+01 0.  1.
       -5    1    3    3    0  502  0.56481392355E+03  0.26373595866E+03  0.51489098110E+03  0.80852101800E+03  0.46999998093E+01 0. -1.
</event>
<event>
 5   0  0.8567844E-05  0.1888200E+04  0.7818609E-02  0.8660752E-01
       -1   -1    0    0    0  501  0.00000000000E+00  0.00000000000E+00  0.37942823418E+03  0.37942823421E+03  0.50400001928E-02 0. -1.
        1   -1    0    0  501    0  0.00000000000E+00  0.00000000000E+00 -0.23491268462E+04  0.23491268462E+04  0.50400001928E-02 0.  1.
    10030    2    1    2    0    0  0.00000000000E+00  0.00000000000E+00 -0.19696986120E+04  0.27285550804E+04  0.18882002554E+04 0.  0.
        4    1    3    3  502    0  0.15323075672E+03  0.90302542545E+03 -0.65409605304E+03  0.11255122582E+04  0.12699999809E+01 0. -1.
       -4    1    3    3    0  502 -0.15323075672E+03 -0.90302542545E+03 -0.13156025590E+04  0.16030428222E+04  0.12699999809E+01 0.  1.
</event>
<event>
 5   0  0.1799738E-04  0.1928862E+04  0.7818609E-02  0.8640622E-01
        2   -1    0    0  501    0  0.00000000000E+00  0.00000000000E+00  0.82492269732E+03  0.82492269732E+03  0.25500000920E-02 0.  1.
       -2   -1    0    0    0  501  0.00000000000E+00  0.00000000000E+00 -0.11275321906E+04  0.11275321906E+04  0.25500000920E-02 0. -1.
    10030    2    1    2    0    0  0.00000000000E+00  0.00000000000E+00 -0.30260949324E+03  0.19524548879E+04  0.19288617327E+04 0.  0.
        1    1    3    3  502    0 -0.80434156865E+03  0.47711349100E+03  0.87213317367E+02  0.93925971121E+03  0.50400001928E-02 0.  1.
       -1    1    3    3    0  502  0.80434156865E+03 -0.47711349100E+03 -0.38982281061E+03  0.10131951767E+04  0.50400001928E-02 0. -1.
</event>
<event>
 5   0  0.8567844E-05  0.2021917E+04  0.7818609E-02  0.8596442E-01
       -1   -1    0    0    0  501  0.00000000000E+00  0.00000000000E+00  0.15685713601E+04  0.15685713601E+04  0.50400001928E-02 0. -1.
        1   -1    0    0  501    0  0.00000000000E+00  0.00000000000E+00 -0.65157191358E+03  0.65157191360E+03  0.50400001928E-02 0.  1.
    10030    2    1    2    0    0  0.00000000000E+00  0.00000000000E+00  0.91699944651E+03  0.22201432737E+04  0.20219169545E+04 0.  0.
        4    1    3    3  502    0  0.39462676153E+03 -0.46605231055E+03  0.13431540865E+04  0.14754658756E+04  0.12699999809E+01 0. -1.
       -4    1    3    3    0  502 -0.39462676153E+03  0.46605231055E+03 -0.42615464003E+03  0.74467739807E+03  0.12699999809E+01 0.  1.
</event>
<event>
 5   0  0.8602017E-05  0.1886299E+04  0.7818609E-02  0.8661707E-01
        1   -1    0    0  501    0  0.00000000000E+00  0.00000000000E+00  0.29958396406E+04  0.29958396406E+04  0.50400001928E-02 0. -1.
       -1   -1    0    0    0  501  0.00000000000E+00  0.00000000000E+00 -0.29692201839E+03  0.29692201843E+03  0.50400001928E-02 0.  1.
    10030    2    1    2    0    0  0.00000000000E+00  0.00000000000E+00  0.26989176223E+04  0.32927616591E+04  0.18862987599E+04 0.  0.
        2    1    3    3  502    0 -0.23602496023E+03  0.76535162200E+03  0.22188756936E+04  0.23589998370E+04  0.25500000920E-02 0.  1.
       -2    1    3    3    0  502  0.23602496023E+03 -0.76535162200E+03  0.48004192864E+03  0.93376182210E+03  0.25500000920E-02 0. -1.
</event>
<event>
 5   0  0.8602017E-05  0.1888416E+04  0.7818609E-02  0.8660644E-01
        1   -1    0    0  501    0  0.00000000000E+00  0.00000000000E+00  0.53846190929E+03  0.53846190932E+03  0.50400001928E-02 0.  1.
       -1   -1    0    0    0  501  0.00000000000E+00  0.00000000000E+00 -0.16556950476E+04  0.16556950476E+04  0.50400001928E-02 0. -1.
    10030    2    1    2    0    0  0.00000000000E+00  0.00000000000E+00 -0.11172331383E+04  0.21941569569E+04  0.18884159675E+04 0.  0.
        2    1    3    3  502    0 -0.89709089530E+03  0.23293443042E+03 -0.34915727499E+03  0.99042482097E+03  0.25500000920E-02 0.  1.
       -2    1    3    3    0  502  0.89709089530E+03 -0.23293443042E+03 -0.76807586327E+03  0.12037321359E+04  0.25500000920E-02 0. -1.
</event>
<event>
 5   0  0.8905646E-05  0.1883911E+04  0.7818609E-02  0.8662907E-01
       -1   -1    0    0    0  501  0.00000000000E+00  0.00000000000E+00  0.51177980306E+03  0.51177980309E+03  0.50400001928E-02 0. -1.
        1   -1    0    0  501    0  0.00000000000E+00  0.00000000000E+00 -0.17337141646E+04  0.17337141646E+04  0.50400001928E-02 0.  1.
    10030    2    1    2    0    0  0.00000000000E+00  0.00000000000E+00 -0.12219343615E+04  0.22454939677E+04  0.18839107131E+04 0.  0.
        1    1    3    3  502    0  0.82701496779E+03 -0.44650782251E+03 -0.53598998719E+03  0.10819465139E+04  0.50400001928E-02 0. -1.
       -1    1    3    3    0  502 -0.82701496779E+03  0.44650782251E+03 -0.68594437433E+03  0.11635474538E+04  0.50400001928E-02 0.  1.
</event>
<event>
 5   0  0.8567844E-05  0.1896909E+04  0.7818609E-02  0.8656396E-01
        1   -1    0    0  501    0  0.00000000000E+00  0.00000000000E+00  0.98388738893E+03  0.98388738894E+03  0.50400001928E-02 0.  1.
       -1   -1    0    0    0  501  0.00000000000E+00  0.00000000000E+00 -0.91429799846E+03  0.91429799847E+03  0.50400001928E-02 0. -1.
    10030    2    1    2    0    0  0.00000000000E+00  0.00000000000E+00  0.69589390469E+02  0.18981853874E+04  0.18969093499E+04 0.  0.
        4    1    3    3  502    0 -0.74427593786E+03  0.23099938087E+03  0.57576660111E+03  0.96892526930E+03  0.12699999809E+01 0.  1.
       -4    1    3    3    0  502  0.74427593786E+03 -0.23099938087E+03 -0.50617721064E+03  0.92926011811E+03  0.12699999809E+01 0. -1.
</event>
<event>
 5   0  0.1810569E-04  0.1902305E+04  0.7818609E-02  0.8653710E-01
        2   -1    0    0  501    0  0.00000000000E+00  0.00000000000E+00  0.12338159127E+04  0.12338159128E+04  0.25500000920E-02 0.  1.
       -2   -1    0    0    0  501  0.00000000000E+00  0.00000000000E+00 -0.73324607529E+03  0.73324607529E+03  0.25500000920E-02 0. -1.
    10030    2    1    2    0    0  0.00000000000E+00  0.00000000000E+00  0.50056983746E+03  0.19670619880E+04  0.19023045767E+04 0.  0.
        4    1    3    3  502    0 -0.59811926151E+03 -0.42991210350E+03 -0.37196241854E+03  0.82518405306E+03  0.12699999809E+01 0. -1.
       -4    1    3    3    0  502  0.59811926151E+03  0.42991210350E+03  0.87253225600E+03  0.11418779350E+04  0.12699999809E+01 0.  1.
</event>
<event>
 5   0  0.1658711E-04  0.1925736E+04  0.7818609E-02  0.8642151E-01
        2   -1    0    0  501    0  0.00000000000E+00  0.00000000000E+00  0.20108783922E+04  0.20108783922E+04  0.25500000920E-02 0. -1.
       -2   -1    0    0    0  501  0.00000000000E+00  0.00000000000E+00 -0.46104983566E+03  0.46104983567E+03  0.25500000920E-02 0.  1.
    10030    2    1    2    0    0  0.00000000000E+00  0.00000000000E+00  0.15498285566E+04  0.24719282279E+04  0.19257363810E+04 0.  0.
        2    1    3    3  502    0 -0.20737299464E+03 -0.79643364570E+03  0.14164777386E+04  0.16382061210E+04  0.25500000920E-02 0. -1.
       -2    1    3    3    0  502  0.20737299464E+03  0.79643364570E+03  0.13335081799E+03  0.83372210692E+03  0.25500000920E-02 0.  1.
</event>
<event>
 5   0  0.8587082E-05  0.1895848E+04  0.7818609E-02  0.8656926E-01
       -1   -1    0    0    0  501  0.00000000000E+00  0.00000000000E+00  0.13614600970E+04  0.13614600970E+04  0.50400001928E-02 0.  1.
        1   -1    0    0  501    0  0.00000000000E+00  0.00000000000E+00 -0.65999702550E+03  0.65999702552E+03  0.50400001928E-02 0. -1.
    10030    2    1    2    0    0  0.00000000000E+00  0.00000000000E+00  0.70146307148E+03  0.20214571225E+04  0.18958476884E+04 0.  0.
        5    1    3    3  502    0  0.78361170882E+03 -0.52514671674E+03  0.45024883674E+03  0.10452619238E+04  0.46999998093E+01 0.  1.
       -5    1    3    3    0  502 -0.78361170882E+03  0.52514671674E+03  0.25121423474E+03  0.97619519874E+03  0.46999998093E+01 0. -1.
</event>
<event>
 5   0  0.1658711E-04  0.1902018E+04  0.7818609E-02  0.8653852E-01
       -2   -1    0    0    0  501  0.00000000000E+00  0.00000000000E+00  0.72678467713E+03  0.72678467714E+03  0.25500000920E-02 0. -1.
        2   -1    0    0  501    0  0.00000000000E+00  0.00000000000E+00 -0.12444103510E+04  0.12444103510E+04  0.25500000920E-02 0.  1.
    10030    2    1    2    0    0  0.00000000000E+00  0.00000000000E+00 -0.51762567391E+03  0.19711950282E+04  0.19020182704E+04 0.  0.
        2    1    3    3  502    0 -0.39430109039E+03  0.93344665589E+02 -0.11504718000E+04  0.12197425708E+04  0.25500000920E-02 0.  1.
       -2    1    3    3    0  502  0.39430109039E+03 -0.93344665589E+02  0.63284612605E+03  0.75145245740E+03  0.25500000920E-02 0. -1.
</event>
<event>
 5   0  0.8587082E-05  0.1904852E+04  0.7818609E-02  0.8652445E-01
        1   -1    0    0  501    0  0.00000000000E+00  0.00000000000E+00  0.10287628412E+04  0.10287628412E+04  0.50400001928E-02 0.  1.
       -1   -1    0    0    0  501  0.00000000000E+00  0.00000000000E+00 -0.88175377584E+03  0.88175377585E+03  0.50400001928E-02 0. -1.
    10030    2    1    2    0    0  0.00000000000E+00  0.00000000000E+00  0.14700906535E+03  0.19105166171E+04  0.19048522459E+04 0.  0.
        5    1    3    3  502    0 -0.84452155685E+03  0.27148391965E+03 -0.27418645228E+03  0.92850443145E+03  0.46999998093E+01 0. -1.
       -5    1    3    3    0  502  0.84452155685E+03 -0.27148391965E+03  0.42119551763E+03  0.98201218561E+03  0.46999998093E+01 0.  1.
</event>
<event>
 5   0  0.1799738E-04  0.1809948E+04  0.7818609E-02  0.8701027E-01
        2   -1    0    0  501    0  0.00000000000E+00  0.00000000000E+00  0.28117364944E+04  0.28117364944E+04  0.25500000920E-02 0.  1.
       -2   -1    0    0    0  501  0.00000000000E+00  0.00000000000E+00 -0.29127131769E+03  0.29127131770E+03  0.25500000920E-02 0. -1.
    10030    2    1    2    0    0  0.00000000000E+00  0.00000000000E+00  0.25204651767E+04  0.31030078121E+04  0.18099482796E+04 0.  0.
        1    1    3    3  502    0  0.10977760335E+03 -0.89392283855E+03  0.11085377898E+04  0.14282875043E+04  0.50400001928E-02 0. -1.
       -1    1    3    3    0  502 -0.10977760335E+03  0.89392283855E+03  0.14119273869E+04  0.16747203078E+04  0.50400001928E-02 0.  1.
</event>
<event>
 5   0  0.1810569E-04  0.1916422E+04  0.7818609E-02  0.8646725E-01
       -2   -1    0    0    0  501  0.00000000000E+00  0.00000000000E+00  0.10661733988E+04  0.10661733988E+04  0.25500000920E-02 0. -1.
        2   -1    0    0  501    0  0.00000000000E+00  0.00000000000E+00 -0.86118061187E+03  0.86118061187E+03  0.25500000920E-02 0.  1.
    10030    2    1    2    0    0  0.00000000000E+00  0.00000000000E+00  0.20499278690E+03  0.19273540107E+04  0.19164215193E+04 0.  0.
        4    1    3    3  502    0 -0.72651137972E+03  0.19229216892E+03 -0.49534505136E+03  0.90009077092E+03  0.12699999809E+01 0.  1.
       -4    1    3    3    0  502  0.72651137972E+03 -0.19229216892E+03  0.70033783827E+03  0.10272632397E+04  0.12699999809E+01 0. -1.
</event>
<event>
 5   0  0.8587082E-05  0.1896334E+04  0.7818609E-02  0.8656683E-01
        1   -1    0    0  501    0  0.00000000000E+00  0.00000000000E+00  0.92644049814E+03  0.92644049815E+03  0.50400001928E-02 0.  1.
       -1   -1    0    0    0  501  0.00000000000E+00  0.00000000000E+00 -0.97040309083E+03  0.97040309084E+03  0.50400001928E-02 0. -1.
    10030    2    1    2    0    0  0.00000000000E+00  0.00000000000E+00 -0.43962592691E+02  0.18968435890E+04  0.18963340664E+04 0.  0.
        5    1    3    3  502    0  0.67285621122E+02  0.85002896399E+03 -0.43672752925E+03  0.95803424742E+03  0.46999998093E+01 0. -1.
       -5    1    3    3    0  502 -0.67285621122E+02 -0.85002896399E+03  0.39276493656E+03  0.93880934157E+03  0.46999998093E+01 0.  1.
</event>
<event>
 5   0  0.1810569E-04  0.1896944E+04  0.7818609E-02  0.8656379E-01
       -2   -1    0    0    0  501  0.00000000000E+00  0.00000000000E+00  0.89403612405E+03  0.89403612406E+03  0.25500000920E-02 0.  1.
        2   -1    0    0  501    0  0.00000000000E+00  0.00000000000E+00 -0.10062219710E+04  0.10062219710E+04  0.25500000920E-02 0. -1.
    10030    2    1    2    0    0  0.00000000000E+00  0.00000000000E+00 -0.11218584695E+03  0.19002580951E+04  0.18969436374E+04 0.  0.
        4    1    3    3  502    0 -0.75993659962E+03 -0.56119542852E+03 -0.14081749224E+03  0.95513094571E+03  0.12699999809E+01 0.  1.
       -4    1    3    3    0  502  0.75993659962E+03  0.56119542852E+03  0.28631645291E+02  0.94512714935E+03  0.12699999809E+01 0. -1.
</event>
<event>
 5   0  0.1790832E-04  0.1882855E+04  0.7818609E-02  0.8663438E-01
        2   -1    0    0  501    0  0.00000000000E+00  0.00000000000E+00  0.45837888003E+03  0.45837888004E+03  0.25500000920E-02 0.  1.
       -2   -1    0    0    0  501  0.00000000000E+00  0.00000000000E+00 -0.19335220754E+04  0.19335220755E+04  0.25500000920E-02 0. -1.
    10030    2    1    2    0    0  0.00000000000E+00  0.00000000000E+00 -0.14751431954E+04  0.23919009555E+04  0.18828549423E+04 0.  0.
        5    1    3    3  502    0 -0.43327100823E+03 -0.27765978315E+03 -0.17390178229E+04  0.18135665965E+04  0.46999998093E+01 0. -1.
       -5    1    3    3    0  502  0.43327100823E+03  0.27765978315E+03  0.26387462745E+03  0.57833435897E+03  0.46999998093E+01 0.  1.
</event>
<event>
 5   0  0.1799738E-04  0.1877741E+04  0.7818609E-02  0.8666016E-01
        2   -1    0    0  501    0  0.00000000000E+00  0.00000000000E+00  0.25910689516E+04  0.25910689516E+04  0.25500000920E-02 0.  1.
       -2   -1    0    0    0  501  0.00000000000E+00  0.00000000000E+00 -0.34019851363E+03  0.34019851364E+03  0.25500000920E-02 0. -1.
    10030    2    1    2    0    0  0.00000000000E+00  0.00000000000E+00  0.22508704379E+04  0.29312674652E+04  0.18777409897E+04 0.  0.
        1    1    3    3  502    0  0.90910127077E+03  0.21262018419E+03  0.12800144533E+04  0.15843324979E+04  0.50400001928E-02 0. -1.
       -1    1    3    3    0  502 -0.90910127077E+03 -0.21262018419E+03  0.97085598463E+03  0.13469349673E+04  0.50400001928E-02 0.  1.
</event>
<event>
 5   0  0.8567844E-05  0.1722095E+04  0.7818609E-02  0.8748862E-01
       -1   -1    0    0    0  501  0.00000000000E+00  0.00000000000E+00  0.11038070926E+04  0.11038070926E+04  0.50400001928E-02 0. -1.
        1   -1    0    0  501    0  0.00000000000E+00  0.00000000000E+00 -0.67167812244E+03  0.67167812245E+03  0.50400001928E-02 0.  1.
    10030    2    1    2    0    0  0.00000000000E+00  0.00000000000E+00  0.43212897019E+03  0.17754852151E+04  0.17220953232E+04 0.  0.
        4    1    3    3  502    0 -0.54905033436E+03 -0.65101697419E+03  0.85155162874E+02  0.85588105775E+03  0.12699999809E+01 0.  1.
       -4    1    3    3    0  502  0.54905033436E+03  0.65101697419E+03  0.34697380732E+03  0.91960415735E+03  0.12699999809E+01 0. -1.
</event>
<event>
 5   0  0.1799738E-04  0.1884822E+04  0.7818609E-02  0.8662449E-01
       -2   -1    0    0    0  501  0.00000000000E+00  0.00000000000E+00  0.97635335441E+03  0.97635335441E+03  0.25500000920E-02 0.  1.
        2   -1    0    0  501    0  0.00000000000E+00  0.00000000000E+00 -0.90964831632E+03  0.90964831632E+03  0.25500000920E-02 0. -1.
    10030    2    1    2    0    0  0.00000000000E+00  0.00000000000E+00  0.66705038090E+02  0.18860016707E+04  0.18848216732E+04 0.  0.
        1    1    3    3  502    0 -0.68644447299E+03 -0.15403145918E+03 -0.59410183787E+03  0.92080871993E+03  0.50400001928E-02 0. -1.
       -1    1    3    3    0  502  0.68644447299E+03  0.15403145918E+03  0.66080687596E+03  0.96519295079E+03  0.50400001928E-02 0.  1.
</event>
<event>
 5   0  0.8602017E-05  0.1949233E+04  0.7818609E-02  0.8630731E-01
        1   -1    0    0  501    0  0.00000000000E+00  0.00000000000E+00  0.20899848620E+04  0.20899848620E+04  0.50400001928E-02 0.  1.
       -1   -1    0    0    0  501  0.00000000000E+00  0.00000000000E+00 -0.45449008534E+03  0.45449008537E+03  0.50400001928E-02 0. -1.
    10030    2    1    2    0    0  0.00000000000E+00  0.00000000000E+00  0.16354947767E+04  0.25444749474E+04  0.19492330783E+04 0.  0.
        2    1    3    3  502    0 -0.84554708377E+03 -0.47543727300E+03  0.94080549001E+03  0.13513346889E+04  0.25500000920E-02 0.  1.
       -2    1    3    3    0  502  0.84554708377E+03  0.47543727300E+03  0.69468928668E+03  0.11931402585E+04  0.25500000920E-02 0. -1.
</event>
<event>
 5   0  0.1765328E-04  0.1882560E+04  0.7818609E-02  0.8663587E-01
       -2   -1    0    0    0  501  0.00000000000E+00  0.00000000000E+00  0.78162793348E+03  0.78162793349E+03  0.25500000920E-02 0. -1.
        2   -1    0    0  501    0  0.00000000000E+00  0.00000000000E+00 -0.11335414186E+04  0.11335414186E+04  0.25500000920E-02 0.  1.
    10030    2    1    2    0    0  0.00000000000E+00  0.00000000000E+00 -0.35191348509E+03  0.19151693521E+04  0.18825595731E+04 0.  0.
        3    1    3    3  502    0 -0.31556854574E+03  0.75541146922E+01 -0.10780908653E+04  0.11233523471E+04  0.10100000352E+00 0.  1.
       -3    1    3    3    0  502  0.31556854574E+03 -0.75541146922E+01  0.72617738017E+03  0.79181700499E+03  0.10100000352E+00 0. -1.
</event>
<event>
 5   0  0.8567844E-05  0.1888501E+04  0.7818609E-02  0.8660602E-01
       -1   -1    0    0    0  501  0.00000000000E+00  0.00000000000E+00  0.11029159480E+04  0.11029159480E+04  0.50400001928E-02 0.  1.
        1   -1    0    0  501    0  0.00000000000E+00  0.00000000000E+00 -0.80841030699E+03  0.80841030701E+03  0.50400001928E-02 0. -1.
    10030    2    1    2    0    0  0.00000000000E+00  0.00000000000E+00  0.29450564102E+03  0.19113262550E+04  0.18885005906E+04 0.  0.
        4    1    3    3  502    0  0.66379872603E+03 -0.61315674369E+03 -0.12995005974E+03  0.91295047617E+03  0.12699999809E+01 0. -1.
       -4    1    3    3    0  502 -0.66379872603E+03  0.61315674369E+03  0.42445570076E+03  0.99837577886E+03  0.12699999809E+01 0.  1.
</event>
<event>
 5   0  0.8567844E-05  0.1857565E+04  0.7818609E-02  0.8676272E-01
        1   -1    0    0  501    0  0.00000000000E+00  0.00000000000E+00  0.95795941114E+03  0.95795941115E+03  0.50400001928E-02 0.  1.
       -1   -1    0    0    0  501  0.00000000000E+00  0.00000000000E+00 -0.90049433299E+03  0.90049433301E+03  0.50400001928E-02 0. -1.
    10030    2    1    2    0    0  0.00000000000E+00  0.00000000000E+00  0.57465078142E+02  0.18584537442E+04  0.18575650955E+04 0.  0.
        4    1    3    3  502    0  0.40585384068E+03  0.65747178943E+03  0.54439051185E+03  0.94517148506E+03  0.12699999809E+01 0.  1.
       -4    1    3    3    0  502 -0.40585384068E+03 -0.65747178943E+03 -0.48692543371E+03  0.91328225909E+03  0.12699999809E+01 0. -1.
</event>
<event>
 5   0  0.1799738E-04  0.1922560E+04  0.7818609E-02  0.8643708E-01
       -2   -1    0    0    0  501  0.00000000000E+00  0.00000000000E+00  0.99137040841E+03  0.99137040841E+03  0.25500000920E-02 0. -1.
        2   -1    0    0  501    0  0.00000000000E+00  0.00000000000E+00 -0.93210312633E+03  0.93210312633E+03  0.25500000920E-02 0.  1.
    10030    2    1    2    0    0  0.00000000000E+00  0.00000000000E+00  0.59267282084E+02  0.19234735347E+04  0.19225602274E+04 0.  0.
        1    1    3    3  502    0 -0.95497306708E+03 -0.31257615227E+02  0.13508228551E+03  0.96498591764E+03  0.50400001928E-02 0. -1.
       -1    1    3    3    0  502  0.95497306708E+03  0.31257615227E+02 -0.75815003423E+02  0.95848761710E+03  0.50400001928E-02 0.  1.
</event>
<event>
 5   0  0.1810569E-04  0.1838574E+04  0.7818609E-02  0.8686051E-01
       -2   -1    0    0    0  501  0.00000000000E+00  0.00000000000E+00  0.87927985153E+03  0.87927985153E+03  0.25500000920E-02 0. -1.
        2   -1    0    0  501    0  0.00000000000E+00  0.00000000000E+00 -0.96111419479E+03  0.96111419479E+03  0.25500000920E-02 0.  1.
    10030    2    1    2    0    0  0.00000000000E+00  0.00000000000E+00 -0.81834343256E+02  0.18403940463E+04  0.18385737369E+04 0.  0.
        4    1    3    3  502    0 -0.38484520656E+03 -0.83481454000E+03 -0.32810734624E+02  0.91983656506E+03  0.12699999809E+01 0. -1.
       -4    1    3    3    0  502  0.38484520656E+03  0.83481454000E+03 -0.49023608633E+02  0.92055748127E+03  0.12699999809E+01 0.  1.
</event>
<event>
 5   0  0.8587082E-05  0.1902364E+04  0.7818609E-02  0.8653680E-01
       -1   -1    0    0    0  501  0.00000000000E+00  0.00000000000E+00  0.56993268738E+03  0.56993268740E+03  0.50400001928E-02 0.  1.
        1   -1    0    0  501    0  0.00000000000E+00  0.00000000000E+00 -0.15874634963E+04  0.15874634963E+04  0.50400001928E-02 0. -1.
    10030    2    1    2    0    0  0.00000000000E+00  0.00000000000E+00 -0.10175308089E+04  0.21573961837E+04  0.19023641466E+04 0.  0.
        5    1    3    3  502    0  0.15083979530E+03 -0.80826158230E+03  0.33554905966E+02  0.82291399975E+03  0.46999998093E+01 0.  1.
       -5    1    3    3    0  502 -0.15083979530E+03  0.80826158230E+03 -0.10510857148E+04  0.13344821839E+04  0.46999998093E+01 0. -1.
</event>
<event>
 5   0  0.1799738E-04  0.1804509E+04  0.7818609E-02  0.8703905E-01
       -2   -1    0    0    0  501  0.00000000000E+00  0.00000000000E+00  0.17488629653E+04  0.17488629653E+04  0.25500000920E-02 0.  1.
        2   -1    0    0  501    0  0.00000000000E+00  0.00000000000E+00 -0.46548131756E+03  0.46548131757E+03  0.25500000920E-02 0. -1.
    10030    2    1    2    0    0  0.00000000000E+00  0.00000000000E+00  0.12833816478E+04  0.22143442829E+04  0.18045088388E+04 0.  0.
        1    1    3    3  502    0 -0.68201197296E+03  0.55140421877E+03  0.38173853003E+03  0.95650993151E+03  0.50400001928E-02 0. -1.
       -1    1    3    3    0  502  0.68201197296E+03 -0.55140421877E+03  0.90164311772E+03  0.12578343514E+04  0.50400001928E-02 0.  1.
</event>
<event>
 5   0  0.1765328E-04  0.1862214E+04  0.7818609E-02  0.8673897E-01
       -2   -1    0    0    0  501  0.00000000000E+00  0.00000000000E+00  0.59520219562E+03  0.59520219563E+03  0.25500000920E-02 0. -1.
        2   -1    0    0  501    0  0.00000000000E+00  0.00000000000E+00 -0.14565815171E+04  0.14565815171E+04  0.25500000920E-02 0.  1.
    10030    2    1    2    0    0  0.00000000000E+00  0.00000000000E+00 -0.86137932147E+03  0.20517837127E+04  0.18622142917E+04 0.  0.
        3    1    3    3  502    0  0.34849063371E+03  0.82158675070E+03 -0.13812136073E+03  0.90306590634E+03  0.10100000352E+00 0. -1.
       -3    1    3    3    0  502 -0.34849063371E+03 -0.82158675070E+03 -0.72325796074E+03  0.11487178064E+04  0.10100000352E+00 0.  1.
</event>
<event>
 5   0  0.8905646E-05  0.1905123E+04  0.7818609E-02  0.8652310E-01
        1   -1    0    0  501    0  0.00000000000E+00  0.00000000000E+00  0.17472711602E+04  0.17472711603E+04  0.50400001928E-02 0. -1.
       -1   -1    0    0    0  501  0.00000000000E+00  0.00000000000E+00 -0.51930908422E+03  0.51930908424E+03  0.50400001928E-02 0.  1.
    10030    2    1    2    0    0  0.00000000000E+00  0.00000000000E+00  0.12279620760E+04  0.22665802445E+04  0.19051233935E+04 0.  0.
        1    1    3    3  502    0  0.19097120932E+03 -0.90327273416E+03  0.33495943693E+03  0.98212497142E+03  0.50400001928E-02 0.  1.
       -1    1    3    3    0  502 -0.19097120932E+03  0.90327273416E+03  0.89300263910E+03  0.12844552731E+04  0.50400001928E-02 0. -1.
</event>
<event>
 5   0  0.8567844E-05  0.1867999E+04  0.7818609E-02  0.8670951E-01
        1   -1    0    0  501    0  0.00000000000E+00  0.00000000000E+00  0.12700030468E+04  0.12700030468E+04  0.50400001928E-02 0.  1.
       -1   -1    0    0    0  501  0.00000000000E+00  0.00000000000E+00 -0.68689237107E+03  0.68689237109E+03  0.50400001928E-02 0. -1.
    10030    2    1    2    0    0  0.00000000000E+00  0.00000000000E+00  0.58311067572E+03  0.19568954179E+04  0.18679993620E+04 0.  0.
        4    1    3    3  502    0  0.66636026312E+03 -0.61918377937E+03  0.51360771193E+03  0.10446143056E+04  0.12699999809E+01 0.  1.
       -4    1    3    3    0  502 -0.66636026312E+03  0.61918377937E+03  0.69502963795E+02  0.91228111225E+03  0.12699999809E+01 0. -1.
</event>
<event>
 5   0  0.8681396E-05  0.1916320E+04  0.7818609E-02  0.8646775E-01
        1   -1    0    0  501    0  0.00000000000E+00  0.00000000000E+00  0.14379250826E+04  0.14379250826E+04  0.50400001928E-02 0. -1.
       -1   -1    0    0    0  501  0.00000000000E+00  0.00000000000E+00 -0.63846916908E+03  0.63846916910E+03  0.50400001928E-02 0.  1.
    10030    2    1    2    0    0  0.00000000000E+00  0.00000000000E+00  0.79945591353E+03  0.20763942517E+04  0.19163202579E+04 0.  0.
        3    1    3    3  502    0 -0.93200974138E+03  0.16507924228E+03  0.23836713311E+03  0.97606977958E+03  0.10100000352E+00 0.  1.
       -3    1    3    3    0  502  0.93200974138E+03 -0.16507924228E+03  0.56108878042E+03  0.11003244721E+04  0.10100000352E+00 0. -1.
</event>
<event>
 5   0  0.8587082E-05  0.1910019E+04  0.7818609E-02  0.8649886E-01
       -1   -1    0    0    0  501  0.00000000000E+00  0.00000000000E+00  0.13810700616E+04  0.13810700616E+04  0.50400001928E-02 0.  1.
        1   -1    0    0  501    0  0.00000000000E+00  0.00000000000E+00 -0.66038847792E+03  0.66038847794E+03  0.50400001928E-02 0. -1.
    10030    2    1    2    0    0  0.00000000000E+00  0.00000000000E+00  0.72068158363E+03  0.20414585395E+04  0.19100185924E+04 0.  0.
        5    1    3    3  502    0 -0.85739508269E+03 -0.41021716387E+03  0.45955212176E+03  0.10557531397E+04  0.46999998093E+01 0. -1.
       -5    1    3    3    0  502  0.85739508269E+03  0.41021716387E+03  0.26112946187E+03  0.98570539981E+03  0.46999998093E+01 0.  1.
</event>
<event>
 5   0  0.8681396E-05  0.1894716E+04  0.7818609E-02  0.8657491E-01
       -1   -1    0    0    0  501  0.00000000000E+00  0.00000000000E+00  0.69195879336E+03  0.69195879338E+03  0.50400001928E-02 0.  1.
        1   -1    0    0  501    0  0.00000000000E+00  0.00000000000E+00 -0.12970241087E+04  0.12970241087E+04  0.50400001928E-02 0. -1.
    10030    2    1    2    0    0  0.00000000000E+00  0.00000000000E+00 -0.60506531530E+03  0.19889829021E+04  0.18947160602E+04 0.  0.
        3    1    3    3  502    0 -0.80105767721E+03 -0.33989903090E+03  0.90616781332E+02  0.87489208745E+03  0.10100000352E+00 0.  1.
       -3    1    3    3    0  502  0.80105767721E+03  0.33989903090E+03 -0.69568209663E+03  0.11140908146E+04  0.10100000352E+00 0. -1.
</event>
<event>
 5   0  0.1810569E-04  0.1907198E+04  0.7818609E-02  0.8651282E-01
       -2   -1    0    0    0  501  0.00000000000E+00  0.00000000000E+00  0.14418830288E+04  0.14418830288E+04  0.25500000920E-02 0.  1.
        2   -1    0    0  501    0  0.00000000000E+00  0.00000000000E+00 -0.63066927761E+03  0.63066927762E+03  0.25500000920E-02 0. -1.
    10030    2    1    2    0    0  0.00000000000E+00  0.00000000000E+00  0.81121375116E+03  0.20725523064E+04  0.19071982888E+04 0.  0.
        4    1    3    3  502    0  0.69774249804E+03  0.64848796512E+03  0.35739264492E+03  0.10174047130E+04  0.12699999809E+01 0.  1.
       -4    1    3    3    0  502 -0.69774249804E+03 -0.64848796512E+03  0.45382110623E+03  0.10551475934E+04  0.12699999809E+01 0. -1.
</event>
<event>
 5   0  0.1799738E-04  0.1879123E+04  0.7818609E-02  0.8665318E-01
       -2   -1    0    0    0  501  0.00000000000E+00  0.00000000000E+00  0.16156701244E+04  0.16156701244E+04  0.25500000920E-02 0. -1.
        2   -1    0    0  501    0  0.00000000000E+00  0.00000000000E+00 -0.54638393726E+03  0.54638393726E+03  0.25500000920E-02 0.  1.
    10030    2    1    2    0    0  0.00000000000E+00  0.00000000000E+00  0.10692861871E+04  0.21620540616E+04  0.18791234168E+04 0.  0.
        1    1    3    3  502    0  0.69586705135E+03  0.56211602187E+03  0.86525962561E+03  0.12445399130E+04  0.50400001928E-02 0. -1.
       -1    1    3    3    0  502 -0.69586705135E+03 -0.56211602187E+03  0.20402656150E+03  0.91751414868E+03  0.50400001928E-02 0.  1.
</event>
<event>
 5   0  0.8602017E-05  0.1920917E+04  0.7818609E-02  0.8644514E-01
       -1   -1    0    0    0  501  0.00000000000E+00  0.00000000000E+00  0.10395134300E+04  0.10395134300E+04  0.50400001928E-02 0.  1.
        1   -1    0    0  501    0  0.00000000000E+00  0.00000000000E+00 -0.88741602637E+03  0.88741602639E+03  0.50400001928E-02 0. -1.
    10030    2    1    2    0    0  0.00000000000E+00  0.00000000000E+00  0.15209740362E+03  0.19269294564E+04  0.19209173615E+04 0.  0.
        2    1    3    3  502    0 -0.48802620181E+03  0.73492791141E+03 -0.30486633903E+03  0.93339814298E+03  0.25500000920E-02 0. -1.
       -2    1    3    3    0  502  0.48802620181E+03 -0.73492791141E+03  0.45696374265E+03  0.99353131341E+03  0.25500000920E-02 0.  1.
</event>
<event>
 5   0  0.1790832E-04  0.1888154E+04  0.7818609E-02  0.8660776E-01
        2   -1    0    0  501    0  0.00000000000E+00  0.00000000000E+00  0.12161002705E+04  0.12161002705E+04  0.25500000920E-02 0. -1.
       -2   -1    0    0    0  501  0.00000000000E+00  0.00000000000E+00 -0.73290100093E+03  0.73290100094E+03  0.25500000920E-02 0.  1.
    10030    2    1    2    0    0  0.00000000000E+00  0.00000000000E+00  0.48319926961E+03  0.19490012715E+04  0.18881537072E+04 0.  0.
        5    1    3    3  502    0 -0.15515275922E+03  0.35389012515E+03  0.11307222009E+04  0.11949332136E+04  0.46999998093E+01 0. -1.
       -5    1    3    3    0  502  0.15515275922E+03 -0.35389012515E+03 -0.64752293129E+03  0.75406805788E+03  0.46999998093E+01 0.  1.
</event>
<event>
 5   0  0.8602017E-05  0.1893664E+04  0.7818609E-02  0.8658017E-01
        1   -1    0    0  501    0  0.00000000000E+00  0.00000000000E+00  0.69697316550E+03  0.69697316552E+03  0.50400001928E-02 0. -1.
       -1   -1    0    0    0  501  0.00000000000E+00  0.00000000000E+00 -0.12862630957E+04  0.12862630957E+04  0.50400001928E-02 0.  1.
    10030    2    1    2    0    0  0.00000000000E+00  0.00000000000E+00 -0.58928993017E+03  0.19832362612E+04  0.18936640267E+04 0.  0.
        2    1    3    3  502    0  0.16741574478E+03  0.92197527781E+03 -0.43680201499E+03  0.10338580390E+04  0.25500000920E-02 0. -1.
       -2    1    3    3    0  502 -0.16741574478E+03 -0.92197527781E+03 -0.15248791518E+03  0.94937822220E+03  0.25500000920E-02 0.  1.
</event>
<event>
 5   0  0.1658711E-04  0.1907731E+04  0.7818609E-02  0.8651018E-01
        2   -1    0    0  501    0  0.00000000000E+00  0.00000000000E+00  0.13256585323E+04  0.13256585323E+04  0.25500000920E-02 0.  1.
       -2   -1    0    0    0  501  0.00000000000E+00  0.00000000000E+00 -0.68634551262E+03  0.68634551263E+03  0.25500000920E-02 0. -1.
    10030    2    1    2    0    0  0.00000000000E+00  0.00000000000E+00  0.63931301963E+03  0.20120040449E+04  0.19077314118E+04 0.  0.
        2    1    3    3  502    0 -0.60398064794E+03 -0.39287961333E+03 -0.33957874164E+03  0.79653043598E+03  0.25500000920E-02 0. -1.
       -2    1    3    3    0  502  0.60398064794E+03  0.39287961333E+03  0.97889176127E+03  0.12154736089E+04  0.25500000920E-02 0.  1.
</event>
<event>
 5   0  0.1765328E-04  0.1902531E+04  0.7818609E-02  0.8653597E-01
        2   -1    0    0  501    0  0.00000000000E+00  0.00000000000E+00  0.21246886222E+04  0.21246886222E+04  0.25500000920E-02 0.  1.
       -2   -1    0    0    0  501  0.00000000000E+00  0.00000000000E+00 -0.42590064145E+03  0.42590064146E+03  0.25500000920E-02 0. -1.
    10030    2    1    2    0    0  0.00000000000E+00  0.00000000000E+00  0.16987879808E+04  0.25505892637E+04  0.19025312056E+04 0.  0.
        3    1    3    3  502    0  0.89963710642E+03 -0.30605548926E+03  0.90766668218E+03  0.13141064272E+04  0.10100000352E+00 0. -1.
       -3    1    3    3    0  502 -0.89963710642E+03  0.30605548926E+03  0.79112129862E+03  0.12364828366E+04  0.10100000352E+00 0.  1.
</event>
<event>
 5   0  0.6375750E-05  0.1931214E+04  0.7818609E-02  0.8639473E-01
       -3   -1    0    0    0  501  0.00000000000E+00  0.00000000000E+00  0.13221995276E+04  0.13221995314E+04  0.10100000352E+00 0. -1.
        3   -1    0    0  501    0  0.00000000000E+00  0.00000000000E+00 -0.70518604499E+03  0.70518605222E+03  0.10100000352E+00 0.  1.
    10030    2    1    2    0    0  0.00000000000E+00  0.00000000000E+00  0.61701348258E+03  0.20273855836E+04  0.19312137808E+04 0.  0.
        5    1    3    3  502    0 -0.10832477273E+03 -0.58369035793E+03 -0.49095877956E+03  0.77038386766E+03  0.46999998093E+01 0.  1.
       -5    1    3    3    0  502  0.10832477273E+03  0.58369035793E+03  0.11079722621E+04  0.12570017160E+04  0.46999998093E+01 0. -1.
</event>
<event>
 5   0  0.1799738E-04  0.1863153E+04  0.7818609E-02  0.8673418E-01
       -2   -1    0    0    0  501  0.00000000000E+00  0.00000000000E+00  0.34964735624E+03  0.34964735625E+03  0.25500000920E-02 0. -1.
        2   -1    0    0  501    0  0.00000000000E+00  0.00000000000E+00 -0.24820298168E+04  0.24820298168E+04  0.25500000920E-02 0.  1.
    10030    2    1    2    0    0  0.00000000000E+00  0.00000000000E+00 -0.21323824606E+04  0.28316771731E+04  0.18631534167E+04 0.  0.
        1    1    3    3  502    0 -0.85303964177E+03  0.37397807031E+03 -0.10924687438E+04  0.14356267564E+04  0.50400001928E-02 0.  1.
       -1    1    3    3    0  502  0.85303964177E+03 -0.37397807031E+03 -0.10399137168E+04  0.13960504167E+04  0.50400001928E-02 0. -1.
</event>
<event>
 5   0  0.1810569E-04  0.1866919E+04  0.7818609E-02  0.8671500E-01
       -2   -1    0    0    0  501  0.00000000000E+00  0.00000000000E+00  0.13644611251E+04  0.13644611251E+04  0.25500000920E-02 0.  1.
        2   -1    0    0  501    0  0.00000000000E+00  0.00000000000E+00 -0.63860140771E+03  0.63860140771E+03  0.25500000920E-02 0. -1.
    10030    2    1    2    0    0  0.00000000000E+00  0.00000000000E+00  0.72585971742E+03  0.20030625329E+04  0.18669191683E+04 0.  0.
        4    1    3    3  502    0 -0.43116489449E+03  0.36118684212E+03 -0.43637055632E+03  0.71188480563E+03  0.12699999809E+01 0. -1.
       -4    1    3    3    0  502  0.43116489449E+03 -0.36118684212E+03  0.11622302737E+04  0.12911777272E+04  0.12699999809E+01 0.  1.
</event>
<event>
 5   0  0.8587082E-05  0.1916896E+04  0.7818609E-02  0.8646492E-01
       -1   -1    0    0    0  501  0.00000000000E+00  0.00000000000E+00  0.48765363619E+03  0.48765363622E+03  0.50400001928E-02 0. -1.
        1   -1    0    0  501    0  0.00000000000E+00  0.00000000000E+00 -0.18837598981E+04  0.18837598981E+04  0.50400001928E-02 0.  1.
    10030    2    1    2    0    0  0.00000000000E+00  0.00000000000E+00 -0.13961062619E+04  0.23714135343E+04  0.19168957865E+04 0.  0.
        5    1    3    3  502    0  0.65390577629E+03  0.53281288565E+03 -0.13504113418E+03  0.85424851964E+03  0.46999998093E+01 0. -1.
       -5    1    3    3    0  502 -0.65390577629E+03 -0.53281288565E+03 -0.12610651277E+04  0.15171650146E+04  0.46999998093E+01 0.  1.
</event>
<event>
 5   0  0.8567844E-05  0.1922705E+04  0.7818609E-02  0.8643637E-01
       -1   -1    0    0    0  501  0.00000000000E+00  0.00000000000E+00  0.87749371813E+03  0.87749371814E+03  0.50400001928E-02 0. -1.
        1   -1    0    0  501    0  0.00000000000E+00  0.00000000000E+00 -0.10532249918E+04  0.10532249918E+04  0.50400001928E-02 0.  1.
    10030    2    1    2    0    0  0.00000000000E+00  0.00000000000E+00 -0.17573127366E+03  0.19307187099E+04  0.19227046722E+04 0.  0.
        4    1    3    3  502    0 -0.10784710117E+03  0.48070166634E+03  0.74110029176E+03  0.88990805401E+03  0.12699999809E+01 0. -1.
       -4    1    3    3    0  502  0.10784710117E+03 -0.48070166634E+03 -0.91683156541E+03  0.10408106559E+04  0.12699999809E+01 0.  1.
</event>
<event>
 5   0  0.8587082E-05  0.1895755E+04  0.7818609E-02  0.8656972E-01
        1   -1    0    0  501    0  0.00000000000E+00  0.00000000000E+00  0.86985736544E+03  0.86985736545E+03  0.50400001928E-02 0. -1.
       -1   -1    0    0    0  501  0.00000000000E+00  0.00000000000E+00 -0.10328958948E+04  0.10328958948E+04  0.50400001928E-02 0.  1.
    10030    2    1    2    0    0  0.00000000000E+00  0.00000000000E+00 -0.16303852932E+03  0.19027532602E+04  0.18957553659E+04 0.  0.
        5    1    3    3  502    0 -0.20783006458E+03  0.62338555676E+03 -0.76715663009E+03  0.10101258700E+04  0.46999998093E+01 0.  1.
       -5    1    3    3    0  502  0.20783006458E+03 -0.62338555676E+03  0.60411810077E+03  0.89262739023E+03  0.46999998093E+01 0. -1.
</event>
<event>
 5   0  0.1765328E-04  0.1903694E+04  0.7818609E-02  0.8653020E-01
        2   -1    0    0  501    0  0.00000000000E+00  0.00000000000E+00  0.14577237748E+04  0.14577237748E+04  0.25500000920E-02 0.  1.
       -2   -1    0    0    0  501  0.00000000000E+00  0.00000000000E+00 -0.62152571899E+03  0.62152571899E+03  0.25500000920E-02 0. -1.
    10030    2    1    2    0    0  0.00000000000E+00  0.00000000000E+00  0.83619805582E+03  0.20792494938E+04  0.19036941112E+04 0.  0.
        3    1    3    3  502    0 -0.18027240930E+02 -0.93781669635E+03  0.59484839404E+03  0.11107068738E+04  0.10100000352E+00 0. -1.
       -3    1    3    3    0  502  0.18027240930E+02  0.93781669635E+03  0.24134966178E+03  0.96854262003E+03  0.10100000352E+00 0.  1.
</event>
<event>
 5   0  0.1658711E-04  0.1883370E+04  0.7818609E-02  0.8663179E-01
        2   -1    0    0  501    0  0.00000000000E+00  0.00000000000E+00  0.10635996812E+04  0.10635996812E+04  0.25500000920E-02 0.  1.
       -2   -1    0    0    0  501  0.00000000000E+00  0.00000000000E+00 -0.83374486358E+03  0.83374486358E+03  0.25500000920E-02 0. -1.
    10030    2    1    2    0    0  0.00000000000E+00  0.00000000000E+00  0.22985481766E+03  0.18973445448E+04  0.18833701401E+04 0.  0.
        2    1    3    3  502    0  0.45868958292E+02 -0.20818826162E+03 -0.80911579970E+03  0.83672856467E+03  0.25500000920E-02 0. -1.
       -2    1    3    3    0  502 -0.45868958292E+02  0.20818826162E+03  0.10389706174E+04  0.10606159801E+04  0.25500000920E-02 0.  1.
</event>
<event>
 5   0  0.1790832E-04  0.1899527E+04  0.7818609E-02  0.8655092E-01
       -2   -1    0    0    0  501  0.00000000000E+00  0.00000000000E+00  0.60942370037E+03  0.60942370037E+03  0.25500000920E-02 0. -1.
        2   -1    0    0  501    0  0.00000000000E+00  0.00000000000E+00 -0.14801708072E+04  0.14801708072E+04  0.25500000920E-02 0.  1.
    10030    2    1    2    0    0  0.00000000000E+00  0.00000000000E+00 -0.87074710688E+03  0.20895945076E+04  0.18995274892E+04 0.  0.
        5    1    3    3  502    0  0.51463467368E+03 -0.55030885004E+01 -0.13134599754E+04  0.14107013604E+04  0.46999998093E+01 0.  1.
       -5    1    3    3    0  502 -0.51463467368E+03  0.55030885004E+01  0.44271286852E+03  0.67889314719E+03  0.46999998093E+01 0. -1.
</event>
<event>
 5   0  0.8567844E-05  0.1790437E+04  0.7818609E-02  0.8711401E-01
       -1   -1    0    0    0  501  0.00000000000E+00  0.00000000000E+00  0.79812466272E+03  0.79812466274E+03  0.50400001928E-02 0.  1.
        1   -1    0    0  501    0  0.00000000000E+00  0.00000000000E+00 -0.10041242969E+04  0.10041242969E+04  0.50400001928E-02 0. -1.
    10030    2    1    2    0    0  0.00000000000E+00  0.00000000000E+00 -0.20599963416E+03  0.18022489596E+04  0.17904372268E+04 0.  0.
        4    1    3    3  502    0 -0.17117093644E+03  0.31445362667E+03  0.72292166625E+03  0.80672047281E+03  0.12699999809E+01 0.  1.
       -4    1    3    3    0  502  0.17117093644E+03 -0.31445362667E+03 -0.92892130042E+03  0.99552848682E+03  0.12699999809E+01 0. -1.
</event>
<event>
 5   0  0.8905646E-05  0.1875108E+04  0.7818609E-02  0.8667347E-01
        1   -1    0    0  501    0  0.00000000000E+00  0.00000000000E+00  0.16458913883E+04  0.16458913883E+04  0.50400001928E-02 0.  1.
       -1   -1    0    0    0  501  0.00000000000E+00  0.00000000000E+00 -0.53406158102E+03  0.53406158104E+03  0.50400001928E-02 0. -1.
    10030    2    1    2    0    0  0.00000000000E+00  0.00000000000E+00  0.11118298073E+04  0.21799529693E+04  0.18751078444E+04 0.  0.
        1    1    3    3  502    0  0.17696639169E+02 -0.48358971831E+03 -0.37765153753E+03  0.61383456282E+03  0.50400001928E-02 0. -1.
       -1    1    3    3    0  502 -0.17696639169E+02  0.48358971831E+03  0.14894813448E+04  0.15661184065E+04  0.50400001928E-02 0.  1.
</event>
<event>
 5   0  0.1658711E-04  0.1938757E+04  0.7818609E-02  0.8635801E-01
       -2   -1    0    0    0  501  0.00000000000E+00  0.00000000000E+00  0.72076232865E+03  0.72076232865E+03  0.25500000920E-02 0.  1.
        2   -1    0    0  501    0  0.00000000000E+00  0.00000000000E+00 -0.13037513385E+04  0.13037513385E+04  0.25500000920E-02 0. -1.
    10030    2    1    2    0    0  0.00000000000E+00  0.00000000000E+00 -0.58298900986E+03  0.20245136672E+04  0.19387571800E+04 0.  0.
        2    1    3    3  502    0 -0.53406906185E+03 -0.68190325589E+03  0.16304433847E+03  0.88136557088E+03  0.25500000920E-02 0. -1.
       -2    1    3    3    0  502  0.53406906185E+03  0.68190325589E+03 -0.74603334833E+03  0.11431480963E+04  0.25500000920E-02 0.  1.
</event>
<event>
 5   0  0.6375750E-05  0.1891839E+04  0.7818609E-02  0.8658929E-01
       -3   -1    0    0    0  501  0.00000000000E+00  0.00000000000E+00  0.45429419583E+03  0.45429420706E+03  0.10100000352E+00 0. -1.
        3   -1    0    0  501    0  0.00000000000E+00  0.00000000000E+00 -0.19695683430E+04  0.19695683456E+04  0.10100000352E+00 0.  1.
    10030    2    1    2    0    0  0.00000000000E+00  0.00000000000E+00 -0.15152741472E+04  0.24238625527E+04  0.18918387704E+04 0.  0.
        3    1    3    3  502    0 -0.31606740070E+03 -0.21814240071E+03 -0.18651917832E+04  0.19043174912E+04  0.10100000352E+00 0.  1.
       -3    1    3    3    0  502  0.31606740070E+03  0.21814240071E+03  0.34991763600E+03  0.51954506153E+03  0.10100000352E+00 0. -1.
</event>
<event>
 5   0  0.8567844E-05  0.1918365E+04  0.7818609E-02  0.8645769E-01
        1   -1    0    0  501    0  0.00000000000E+00  0.00000000000E+00  0.24313559309E+04  0.24313559309E+04  0.50400001928E-02 0. -1.
       -1   -1    0    0    0  501  0.00000000000E+00  0.00000000000E+00 -0.37840245553E+03  0.37840245557E+03  0.50400001928E-02 0.  1.
    10030    2    1    2    0    0  0.00000000000E+00  0.00000000000E+00  0.20529534753E+04  0.28097583864E+04  0.19183649857E+04 0.  0.
        4    1    3    3  502    0  0.26612102214E+03 -0.72783401023E+03  0.19862887325E+03  0.80001111684E+03  0.12699999809E+01 0.  1.
       -4    1    3    3    0  502 -0.26612102214E+03  0.72783401023E+03  0.18543246021E+04  0.20097472696E+04  0.12699999809E+01 0. -1.
</event>
<event>
 5   0  0.1810569E-04  0.1864575E+04  0.7818609E-02  0.8672693E-01
       -2   -1    0    0    0  501  0.00000000000E+00  0.00000000000E+00  0.71100403828E+03  0.71100403828E+03  0.25500000920E-02 0.  1.
        2   -1    0    0  501    0  0.00000000000E+00  0.00000000000E+00 -0.12224401122E+04  0.12224401122E+04  0.25500000920E-02 0. -1.
    10030    2    1    2    0    0  0.00000000000E+00  0.00000000000E+00 -0.51143607389E+03  0.19334441505E+04  0.18645748645E+04 0.  0.
        4    1    3    3  502    0 -0.93171897206E+02  0.76756270840E+03  0.28440971946E+03  0.82384708240E+03  0.12699999809E+01 0.  1.
       -4    1    3    3    0  502  0.93171897206E+02 -0.76756270840E+03 -0.79584579335E+03  0.11095970681E+04  0.12699999809E+01 0. -1.
</event>
<event>
 5   0  0.8587082E-05  0.1884256E+04  0.7818609E-02  0.8662733E-01
        1   -1    0    0  501    0  0.00000000000E+00  0.00000000000E+00  0.73190069906E+03  0.73190069908E+03  0.50400001928E-02 0.  1.
       -1   -1    0    0    0  501  0.00000000000E+00  0.00000000000E+00 -0.12127394919E+04  0.12127394919E+04  0.50400001928E-02 0. -1.
    10030    2    1    2    0    0  0.00000000000E+00  0.00000000000E+00 -0.48083879285E+03  0.19446401910E+04  0.18842556960E+04 0.  0.
        5    1    3    3  502    0 -0.17521724437E+03 -0.41935586116E+03  0.61126778279E+03  0.76172883186E+03  0.46999998093E+01 0.  1.
       -5    1    3    3    0  502  0.17521724437E+03  0.41935586116E+03 -0.10921065756E+04  0.11829113591E+04  0.46999998093E+01 0. -1.
</event>
<event>
 5   0  0.1765328E-04  0.1896614E+04  0.7818609E-02  0.8656544E-01
       -2   -1    0    0    0  501  0.00000000000E+00  0.00000000000E+00  0.63208707748E+03  0.63208707748E+03  0.25500000920E-02 0. -1.
        2   -1    0    0  501    0  0.00000000000E+00  0.00000000000E+00 -0.14227245545E+04  0.14227245545E+04  0.25500000920E-02 0.  1.
    10030    2    1    2    0    0  0.00000000000E+00  0.00000000000E+00 -0.79063747705E+03  0.20548116320E+04  0.18966136198E+04 0.  0.
        3    1    3    3  502    0 -0.53862500213E+03 -0.63378462221E+03  0.98181654509E+02  0.83751984320E+03  0.10100000352E+00 0.  1.
       -3    1    3    3    0  502  0.53862500213E+03  0.63378462221E+03 -0.88881913156E+03  0.12172917888E+04  0.10100000352E+00 0. -1.
</event>
<event>
 5   0  0.1799738E-04  0.1909959E+04  0.7818609E-02  0.8649915E-01
        2   -1    0    0  501    0  0.00000000000E+00  0.00000000000E+00  0.11651147898E+04  0.11651147898E+04  0.25500000920E-02 0. -1.
       -2   -1    0    0    0  501  0.00000000000E+00  0.00000000000E+00 -0.78274311435E+03  0.78274311436E+03  0.25500000920E-02 0.  1.
    10030    2    1    2    0    0  0.00000000000E+00  0.00000000000E+00  0.38237167549E+03  0.19478579042E+04  0.19099587212E+04 0.  0.
        1    1    3    3  502    0  0.62805092661E+02  0.85180375380E+02 -0.77674418505E+03  0.78392072626E+03  0.50400001928E-02 0.  1.
       -1    1    3    3    0  502 -0.62805092661E+02 -0.85180375380E+02  0.11591158605E+04  0.11639371779E+04  0.50400001928E-02 0. -1.
</event>
<event>
 5   0  0.8681396E-05  0.1925793E+04  0.7818609E-02  0.8642123E-01
        1   -1    0    0  501    0  0.00000000000E+00  0.00000000000E+00  0.15067523688E+04  0.15067523688E+04  0.50400001928E-02 0.  1.
       -1   -1    0    0    0  501  0.00000000000E+00  0.00000000000E+00 -0.61534305069E+03  0.61534305071E+03  0.50400001928E-02 0. -1.
    10030    2    1    2    0    0  0.00000000000E+00  0.00000000000E+00  0.89140931808E+03  0.21220954195E+04  0.19257929268E+04 0.  0.
        3    1    3    3  502    0  0.47920335387E+03  0.12037956313E+03 -0.46500340629E+03  0.67849485749E+03  0.10100000352E+00 0. -1.
       -3    1    3    3    0  502 -0.47920335387E+03 -0.12037956313E+03  0.13564127244E+04  0.14436005620E+04  0.10100000352E+00 0.  1.
</event>
<event>
 5   0  0.8567844E-05  0.1893315E+04  0.7818609E-02  0.8658191E-01
        1   -1    0    0  501    0  0.00000000000E+00  0.00000000000E+00  0.70527606112E+03  0.70527606114E+03  0.50400001928E-02 0.  1.
       -1   -1    0    0    0  501  0.00000000000E+00  0.00000000000E+00 -0.12706517705E+04  0.12706517705E+04  0.50400001928E-02 0. -1.
    10030    2    1    2    0    0  0.00000000000E+00  0.00000000000E+00 -0.56537570937E+03  0.19759278316E+04  0.18933148452E+04 0.  0.
        4    1    3    3  502    0 -0.29778042515E+03 -0.55547001643E+03 -0.10198648351E+04  0.11988936631E+04  0.12699999809E+01 0. -1.
       -4    1    3    3    0  502  0.29778042515E+03  0.55547001643E+03  0.45448912571E+03  0.77703416852E+03  0.12699999809E+01 0.  1.
</event>
<event>
 5   0  0.8567844E-05  0.1888491E+04  0.7818609E-02  0.8660606E-01
        1   -1    0    0  501    0  0.00000000000E+00  0.00000000000E+00  0.16895449664E+04  0.16895449664E+04  0.50400001928E-02 0.  1.
       -1   -1    0    0    0  501  0.00000000000E+00  0.00000000000E+00 -0.52771604261E+03  0.52771604263E+03  0.50400001928E-02 0. -1.
    10030    2    1    2    0    0  0.00000000000E+00  0.00000000000E+00  0.11618289238E+04  0.22172610091E+04  0.18884914440E+04 0.  0.
        4    1    3    3  502    0  0.51510908679E+03 -0.20595766076E+03 -0.31620365957E+03  0.63854701984E+03  0.12699999809E+01 0. -1.
       -4    1    3    3    0  502 -0.51510908679E+03  0.20595766076E+03  0.14780325834E+04  0.15787139892E+04  0.12699999809E+01 0.  1.
</event>
<event>
 5   0  0.8567844E-05  0.1893712E+04  0.7818609E-02  0.8657993E-01
       -1   -1    0    0    0  501  0.00000000000E+00  0.00000000000E+00  0.13994336857E+04  0.13994336858E+04  0.50400001928E-02 0. -1.
        1   -1    0    0  501    0  0.00000000000E+00  0.00000000000E+00 -0.64064198623E+03  0.64064198625E+03  0.50400001928E-02 0.  1.
    10030    2    1    2    0    0  0.00000000000E+00  0.00000000000E+00  0.75879169952E+03  0.20400756720E+04  0.18937116740E+04 0.  0.
        4    1    3    3  502    0  0.10816564537E+02  0.25189865307E+03  0.13626044065E+04  0.13857352961E+04  0.12699999809E+01 0. -1.
       -4    1    3    3    0  502 -0.10816564537E+02 -0.25189865307E+03 -0.60381270697E+03  0.65434037587E+03  0.12699999809E+01 0.  1.
</event>
<event>
 5   0  0.8681396E-05  0.1887487E+04  0.7818609E-02  0.8661110E-01
       -1   -1    0    0    0  501  0.00000000000E+00  0.00000000000E+00  0.72610863699E+03  0.72610863700E+03  0.50400001928E-02 0. -1.
        1   -1    0    0  501    0  0.00000000000E+00  0.00000000000E+00 -0.12266091220E+04  0.12266091220E+04  0.50400001928E-02 0.  1.
    10030    2    1    2    0    0  0.00000000000E+00  0.00000000000E+00 -0.50050048497E+03  0.19527177590E+04  0.18874866650E+04 0.  0.
        3    1    3    3  502    0  0.14068859239E+03  0.90061537798E+03  0.26358846391E+01  0.91154171444E+03  0.10100000352E+00 0. -1.
       -3    1    3    3    0  502 -0.14068859239E+03 -0.90061537798E+03 -0.50313636960E+03  0.10411760445E+04  0.10100000352E+00 0.  1.
</event>
<event>
 5   0  0.1790832E-04  0.1906818E+04  0.7818609E-02  0.8651470E-01
       -2   -1    0    0    0  501  0.00000000000E+00  0.00000000000E+00  0.18199952554E+04  0.18199952554E+04  0.25500000920E-02 0. -1.
        2   -1    0    0  501    0  0.00000000000E+00  0.00000000000E+00 -0.49944556056E+03  0.49944556056E+03  0.25500000920E-02 0.  1.
    10030    2    1    2    0    0  0.00000000000E+00  0.00000000000E+00  0.13205496949E+04  0.23194408160E+04  0.19068178209E+04 0.  0.
        5    1    3    3  502    0  0.42298407080E+03 -0.50388436826E+03 -0.17908204764E+03  0.68184122089E+03  0.46999998093E+01 0.  1.
       -5    1    3    3    0  502 -0.42298407080E+03  0.50388436826E+03  0.14996317425E+04  0.16375995951E+04  0.46999998093E+01 0. -1.
</event>
<event>
 5   0  0.1658711E-04  0.1897015E+04  0.7818609E-02  0.8656344E-01
       -2   -1    0    0    0  501  0.00000000000E+00  0.00000000000E+00  0.39915636108E+03  0.39915636109E+03  0.25500000920E-02 0. -1.
        2   -1    0    0  501    0  0.00000000000E+00  0.00000000000E+00 -0.22539201467E+04  0.22539201467E+04  0.25500000920E-02 0.  1.
    10030    2    1    2    0    0  0.00000000000E+00  0.00000000000E+00 -0.18547637856E+04  0.26530765078E+04  0.18970150911E+04 0.  0.
        2    1    3    3  502    0  0.19628341485E+03 -0.45409926114E+03  0.20443847928E+03  0.53528348539E+03  0.25500000920E-02 0. -1.
       -2    1    3    3    0  502 -0.19628341485E+03  0.45409926114E+03 -0.20592022649E+04  0.21177930224E+04  0.25500000920E-02 0.  1.
</event>
<event>
 5   0  0.8602017E-05  0.2029435E+04  0.7818609E-02  0.8592981E-01
       -1   -1    0    0    0  501  0.00000000000E+00  0.00000000000E+00  0.96462838636E+03  0.96462838637E+03  0.50400001928E-02 0. -1.
        1   -1    0    0  501    0  0.00000000000E+00  0.00000000000E+00 -0.10674071698E+04  0.10674071698E+04  0.50400001928E-02 0.  1.
    10030    2    1    2    0    0  0.00000000000E+00  0.00000000000E+00 -0.10277878345E+03  0.20320355562E+04  0.20294346561E+04 0.  0.
        2    1    3    3  502    0 -0.17739361753E+03  0.26304133272E+03  0.91368817737E+03  0.96720490266E+03  0.25500000920E-02 0. -1.
       -2    1    3    3    0  502  0.17739361753E+03 -0.26304133272E+03 -0.10164669608E+04  0.10648306535E+04  0.25500000920E-02 0.  1.
</event>
<event>
 5   0  0.8905646E-05  0.1875987E+04  0.7818609E-02  0.8666902E-01
       -1   -1    0    0    0  501  0.00000000000E+00  0.00000000000E+00  0.97600279151E+03  0.97600279152E+03  0.50400001928E-02 0. -1.
        1   -1    0    0  501    0  0.00000000000E+00  0.00000000000E+00 -0.90146478960E+03  0.90146478961E+03  0.50400001928E-02 0.  1.
    10030    2    1    2    0    0  0.00000000000E+00  0.00000000000E+00  0.74538001912E+02  0.18774675811E+04  0.18759873679E+04 0.  0.
        1    1    3    3  502    0 -0.24152930982E+03 -0.90394890766E+03 -0.28905149075E+02  0.93610658732E+03  0.50400001928E-02 0.  1.
       -1    1    3    3    0  502  0.24152930982E+03  0.90394890766E+03  0.10344315099E+03  0.94136099381E+03  0.50400001928E-02 0. -1.
</event>
<event>
 5   0  0.8681396E-05  0.1901515E+04  0.7818609E-02  0.8654103E-01
       -1   -1    0    0    0  501  0.00000000000E+00  0.00000000000E+00  0.57151399381E+03  0.57151399383E+03  0.50400001928E-02 0.  1.
        1   -1    0    0  501    0  0.00000000000E+00  0.00000000000E+00 -0.15816583746E+04  0.15816583746E+04  0.50400001928E-02 0. -1.
    10030    2    1    2    0    0  0.00000000000E+00  0.00000000000E+00 -0.10101443808E+04  0.21531723684E+04  0.19015150744E+04 0.  0.
        3    1    3    3  502    0 -0.61741813853E+03 -0.59310486514E+03 -0.97326850280E+03  0.12962369103E+04  0.10100000352E+00 0. -1.
       -3    1    3    3    0  502  0.61741813853E+03  0.59310486514E+03 -0.36875877985E+02  0.85693545815E+03  0.10100000352E+00 0.  1.
</event>
<event>
 5   0  0.8905646E-05  0.1900704E+04  0.7818609E-02  0.8654506E-01
       -1   -1    0    0    0  501  0.00000000000E+00  0.00000000000E+00  0.37518084912E+03  0.37518084915E+03  0.50400001928E-02 0.  1.
        1   -1    0    0  501    0  0.00000000000E+00  0.00000000000E+00 -0.24072898474E+04  0.24072898474E+04  0.50400001928E-02 0. -1.
    10030    2    1    2    0    0  0.00000000000E+00  0.00000000000E+00 -0.20321089983E+04  0.27824706966E+04  0.19007041317E+04 0.  0.
        1    1    3    3  502    0 -0.57708768339E+03 -0.72855380207E+03 -0.13064424440E+04  0.16033130375E+04  0.50400001928E-02 0. -1.
       -1    1    3    3    0  502  0.57708768339E+03  0.72855380207E+03 -0.72566655431E+03  0.11791576591E+04  0.50400001928E-02 0.  1.
</event>
<event>
 5   0  0.8567844E-05  0.1916942E+04  0.7818609E-02  0.8646469E-01
        1   -1    0    0  501    0  0.00000000000E+00  0.00000000000E+00  0.87830192409E+03  0.87830192411E+03  0.50400001928E-02 0. -1.
       -1   -1    0    0    0  501  0.00000000000E+00  0.00000000000E+00 -0.10459580472E+04  0.10459580472E+04  0.50400001928E-02 0.  1.
    10030    2    1    2    0    0  0.00000000000E+00  0.00000000000E+00 -0.16765612311E+03  0.19242599713E+04  0.19169423209E+04 0.  0.
        4    1    3    3  502    0 -0.82075720434E+03  0.19160568500E+03  0.37432436880E+03  0.92221227110E+03  0.12699999809E+01 0.  1.
       -4    1    3    3    0  502  0.82075720434E+03 -0.19160568500E+03 -0.54198049191E+03  0.10020477002E+04  0.12699999809E+01 0. -1.
</event>
<event>
 5   0  0.8567844E-05  0.1916653E+04  0.7818609E-02  0.8646611E-01
       -1   -1    0    0    0  501  0.00000000000E+00  0.00000000000E+00  0.66912184368E+03  0.66912184370E+03  0.50400001928E-02 0. -1.
        1   -1    0    0  501    0  0.00000000000E+00  0.00000000000E+00 -0.13725296053E+04  0.13725296053E+04  0.50400001928E-02 0.  1.
    10030    2    1    2    0    0  0.00000000000E+00  0.00000000000E+00 -0.70340776163E+03  0.20416514490E+04  0.19166528533E+04 0.  0.
        4    1    3    3  502    0  0.68911674577E+03 -0.16456141254E+03  0.33569186584E+03  0.78399808003E+03  0.12699999809E+01 0. -1.
       -4    1    3    3    0  502 -0.68911674577E+03  0.16456141254E+03 -0.10390996275E+04  0.12576533690E+04  0.12699999809E+01 0.  1.
</event>
<event>
 5   0  0.8681396E-05  0.1908256E+04  0.7818609E-02  0.8650758E-01
        1   -1    0    0  501    0  0.00000000000E+00  0.00000000000E+00  0.87616575535E+03  0.87616575537E+03  0.50400001928E-02 0.  1.
       -1   -1    0    0    0  501  0.00000000000E+00  0.00000000000E+00 -0.10390274678E+04  0.10390274678E+04  0.50400001928E-02 0. -1.
    10030    2    1    2    0    0  0.00000000000E+00  0.00000000000E+00 -0.16286171247E+03  0.19151932232E+04  0.19082560480E+04 0.  0.
        3    1    3    3  502    0 -0.40408128323E+03 -0.76513520434E+03  0.32208386725E+03  0.92328305092E+03  0.10100000352E+00 0.  1.
       -3    1    3    3    0  502  0.40408128323E+03  0.76513520434E+03 -0.48494557971E+03  0.99191017228E+03  0.10100000352E+00 0. -1.
</event>
<event>
 5   0  0.1658711E-04  0.1868294E+04  0.7818609E-02  0.8670801E-01
        2   -1    0    0  501    0  0.00000000000E+00  0.00000000000E+00  0.17224359824E+04  0.17224359824E+04  0.25500000920E-02 0. -1.
       -2   -1    0    0    0  501  0.00000000000E+00  0.00000000000E+00 -0.50662599673E+03  0.50662599673E+03  0.25500000920E-02 0.  1.
    10030    2    1    2    0    0  0.00000000000E+00  0.00000000000E+00  0.12158099857E+04  0.22290619791E+04  0.18682942449E+04 0.  0.
        2    1    3    3  502    0 -0.87183768405E+03  0.10551292691E+03  0.98782245248E+03  0.13217515359E+04  0.25500000920E-02 0. -1.
       -2    1    3    3    0  502  0.87183768405E+03 -0.10551292691E+03  0.22798753321E+03  0.90731044323E+03  0.25500000920E-02 0.  1.
</event>
<event>
 5   0  0.8587082E-05  0.1864459E+04  0.7818609E-02  0.8672752E-01
       -1   -1    0    0    0  501  0.00000000000E+00  0.00000000000E+00  0.61417002305E+03  0.61417002307E+03  0.50400001928E-02 0. -1.
        1   -1    0    0  501    0  0.00000000000E+00  0.00000000000E+00 -0.14150021537E+04  0.14150021537E+04  0.50400001928E-02 0.  1.
    10030    2    1    2    0    0  0.00000000000E+00  0.00000000000E+00 -0.80083213061E+03  0.20291721767E+04  0.18644590694E+04 0.  0.
        5    1    3    3  502    0  0.70030823246E+01 -0.81256898449E+03 -0.89762644863E+03  0.12108149029E+04  0.46999998093E+01 0.  1.
       -5    1    3    3    0  502 -0.70030823246E+01  0.81256898449E+03  0.96794318018E+02  0.81835727388E+03  0.46999998093E+01 0. -1.
</event>
<event>
 5   0  0.1799738E-04  0.1970798E+04  0.7818609E-02  0.8620397E-01
        2   -1    0    0  501    0  0.00000000000E+00  0.00000000000E+00  0.55628968481E+03  0.55628968482E+03  0.25500000920E-02 0. -1.
       -2   -1    0    0    0  501  0.00000000000E+00  0.00000000000E+00 -0.17455130722E+04  0.17455130722E+04  0.25500000920E-02 0.  1.
    10030    2    1    2    0    0  0.00000000000E+00  0.00000000000E+00 -0.11892233874E+04  0.23018027571E+04  0.19707977236E+04 0.  0.
        1    1    3    3  502    0  0.76099945719E+03 -0.61803964777E+03 -0.71092578742E+03  0.12109949031E+04  0.50400001928E-02 0. -1.
       -1    1    3    3    0  502 -0.76099945719E+03  0.61803964777E+03 -0.47829760000E+03  0.10908078540E+04  0.50400001928E-02 0.  1.
</event>
<event>
 5   0  0.8681396E-05  0.1939409E+04  0.7818609E-02  0.8635485E-01
       -1   -1    0    0    0  501  0.00000000000E+00  0.00000000000E+00  0.13612442252E+04  0.13612442252E+04  0.50400001928E-02 0. -1.
        1   -1    0    0  501    0  0.00000000000E+00  0.00000000000E+00 -0.69078445009E+03  0.69078445011E+03  0.50400001928E-02 0.  1.
    10030    2    1    2    0    0  0.00000000000E+00  0.00000000000E+00  0.67045977511E+03  0.20520286753E+04  0.19394085115E+04 0.  0.
        3    1    3    3  502    0 -0.53912391082E+02 -0.94433345622E+03  0.10915408933E+03  0.95214854297E+03  0.10100000352E+00 0.  1.
       -3    1    3    3    0  502  0.53912391082E+02  0.94433345622E+03  0.56130568577E+03  0.10998801324E+04  0.10100000352E+00 0. -1.
</event>
<event>
 5   0  0.1799738E-04  0.1910802E+04  0.7818609E-02  0.8649498E-01
        2   -1    0    0  501    0  0.00000000000E+00  0.00000000000E+00  0.11387280323E+04  0.11387280323E+04  0.25500000920E-02 0. -1.
       -2   -1    0    0    0  501  0.00000000000E+00  0.00000000000E+00 -0.80158790768E+03  0.80158790769E+03  0.25500000920E-02 0.  1.
    10030    2    1    2    0    0  0.00000000000E+00  0.00000000000E+00  0.33714012466E+03  0.19403159400E+04  0.19108015291E+04 0.  0.
        1    1    3    3  502    0 -0.66781586742E+03  0.45102943954E+03 -0.35256754813E+03  0.87960756257E+03  0.50400001928E-02 0.  1.
       -1    1    3    3    0  502  0.66781586742E+03 -0.45102943954E+03  0.68970767278E+03  0.10607083775E+04  0.50400001928E-02 0. -1.
</event>
<event>
 5   0  0.8905646E-05  0.1907295E+04  0.7818609E-02  0.8651234E-01
       -1   -1    0    0    0  501  0.00000000000E+00  0.00000000000E+00  0.60743039598E+03  0.60743039600E+03  0.50400001928E-02 0. -1.
        1   -1    0    0  501    0  0.00000000000E+00  0.00000000000E+00 -0.14971984984E+04  0.14971984984E+04  0.50400001928E-02 0.  1.
    10030    2    1    2    0    0  0.00000000000E+00  0.00000000000E+00 -0.88976810243E+03  0.21046288944E+04  0.19072953382E+04 0.  0.
        1    1    3    3  502    0 -0.88429569900E+02  0.20428005338E+03 -0.14681298657E+04  0.14849092334E+04  0.50400001928E-02 0.  1.
       -1    1    3    3    0  502  0.88429569900E+02 -0.20428005338E+03  0.57836176322E+03  0.61971966100E+03  0.50400001928E-02 0. -1.
</event>
<event>
 5   0  0.1790832E-04  0.2001211E+04  0.7818609E-02  0.8606055E-01
       -2   -1    0    0    0  501  0.00000000000E+00  0.00000000000E+00  0.60701925610E+03  0.60701925611E+03  0.25500000920E-02 0.  1.
        2   -1    0    0  501    0  0.00000000000E+00  0.00000000000E+00 -0.16493901855E+04  0.16493901855E+04  0.25500000920E-02 0. -1.
    10030    2    1    2    0    0  0.00000000000E+00  0.00000000000E+00 -0.10423709294E+04  0.22564094416E+04  0.20012112367E+04 0.  0.
        5    1    3    3  502    0 -0.35678559234E+03  0.10332921134E+03 -0.15687598589E+04  0.16121421990E+04  0.46999998093E+01 0. -1.
       -5    1    3    3    0  502  0.35678559234E+03 -0.10332921134E+03  0.52638892951E+03  0.64426724263E+03  0.46999998093E+01 0.  1.
</event>
<event>
 5   0  0.8602017E-05  0.2002773E+04  0.7818609E-02  0.8605326E-01
       -1   -1    0    0    0  501  0.00000000000E+00  0.00000000000E+00  0.87660976470E+03  0.87660976472E+03  0.50400001928E-02 0. -1.
        1   -1    0    0  501    0  0.00000000000E+00  0.00000000000E+00 -0.11439234527E+04  0.11439234528E+04  0.50400001928E-02 0.  1.
    10030    2    1    2    0    0  0.00000000000E+00  0.00000000000E+00 -0.26731368804E+03  0.20205332175E+04  0.20027725470E+04 0.  0.
        2    1    3    3  502    0  0.78283322450E+03 -0.28049256189E+03 -0.69652071144E+03  0.10847327026E+04  0.25500000920E-02 0.  1.
       -2    1    3    3    0  502 -0.78283322450E+03  0.28049256189E+03  0.42920702340E+03  0.93580051485E+03  0.25500000920E-02 0. -1.
</event>
<event>
 5   0  0.1765328E-04  0.1876984E+04  0.7818609E-02  0.8666399E-01
        2   -1    0    0  501    0  0.00000000000E+00  0.00000000000E+00  0.79353478704E+03  0.79353478704E+03  0.25500000920E-02 0.  1.
       -2   -1    0    0    0  501  0.00000000000E+00  0.00000000000E+00 -0.11099287562E+04  0.11099287562E+04  0.25500000920E-02 0. -1.
    10030    2    1    2    0    0  0.00000000000E+00  0.00000000000E+00 -0.31639396913E+03  0.19034635432E+04  0.18769838349E+04 0.  0.
        3    1    3    3  502    0  0.88244801867E+03 -0.54698849600E+02  0.16098215974E+03  0.89867777081E+03  0.10100000352E+00 0.  1.
       -3    1    3    3    0  502 -0.88244801867E+03  0.54698849600E+02 -0.47737612887E+03  0.10047857724E+04  0.10100000352E+00 0. -1.
</event>
<event>
 5   0  0.1658711E-04  0.1901393E+04  0.7818609E-02  0.8654164E-01
       -2   -1    0    0    0  501  0.00000000000E+00  0.00000000000E+00  0.78491132636E+03  0.78491132636E+03  0.25500000920E-02 0.  1.
        2   -1    0    0  501    0  0.00000000000E+00  0.00000000000E+00 -0.11514974526E+04  0.11514974526E+04  0.25500000920E-02 0. -1.
    10030    2    1    2    0    0  0.00000000000E+00  0.00000000000E+00 -0.36658612621E+03  0.19364087789E+04  0.19013925348E+04 0.  0.
        2    1    3    3  502    0 -0.13047897902E+03  0.92729439704E+03 -0.16186744314E+02  0.93656909699E+03  0.25500000920E-02 0.  1.
       -2    1    3    3    0  502  0.13047897902E+03 -0.92729439704E+03 -0.35039938190E+03  0.99983968194E+03  0.25500000920E-02 0. -1.
</event>
<event>
 5   0  0.8602017E-05  0.1902188E+04  0.7818609E-02  0.8653768E-01
        1   -1    0    0  501    0  0.00000000000E+00  0.00000000000E+00  0.10937667747E+04  0.10937667748E+04  0.50400001928E-02 0. -1.
       -1   -1    0    0    0  501  0.00000000000E+00  0.00000000000E+00 -0.82703169563E+03  0.82703169564E+03  0.50400001928E-02 0.  1.
    10030    2    1    2    0    0  0.00000000000E+00  0.00000000000E+00  0.26673507912E+03  0.19207984704E+04  0.19021879932E+04 0.  0.
        2    1    3    3  502    0  0.35602918150E+03  0.86455223774E+03  0.30934952377E+03  0.98483728490E+03  0.25500000920E-02 0. -1.
       -2    1    3    3    0  502 -0.35602918150E+03 -0.86455223774E+03 -0.42614444659E+02  0.93596118550E+03  0.25500000920E-02 0.  1.
</event>
<event>
 5   0  0.1790832E-04  0.1932731E+04  0.7818609E-02  0.8638733E-01
        2   -1    0    0  501    0  0.00000000000E+00  0.00000000000E+00  0.12664114294E+04  0.12664114294E+04  0.25500000920E-02 0. -1.
       -2   -1    0    0    0  501  0.00000000000E+00  0.00000000000E+00 -0.73740850460E+03  0.73740850460E+03  0.25500000920E-02 0.  1.
    10030    2    1    2    0    0  0.00000000000E+00  0.00000000000E+00  0.52900292478E+03  0.20038199340E+04  0.19327312885E+04 0.  0.
        5    1    3    3  502    0 -0.94317184400E+03 -0.17134058735E+02  0.48191372768E+03  0.10593062042E+04  0.46999998093E+01 0.  1.
       -5    1    3    3    0  502  0.94317184400E+03  0.17134058735E+02  0.47089197098E+02  0.94451372980E+03  0.46999998093E+01 0. -1.
</event>
<event>
 5   0  0.1790832E-04  0.2196827E+04  0.7818609E-02  0.8519750E-01
       -2   -1    0    0    0  501  0.00000000000E+00  0.00000000000E+00  0.10156910079E+04  0.10156910079E+04  0.25500000920E-02 0.  1.
        2   -1    0    0  501    0  0.00000000000E+00  0.00000000000E+00 -0.11878732508E+04  0.11878732508E+04  0.25500000920E-02 0. -1.
    10030    2    1    2    0    0  0.00000000000E+00  0.00000000000E+00 -0.17218224297E+03  0.22035642587E+04  0.21968269657E+04 0.  0.
        5    1    3    3  502    0 -0.10059988826E+03 -0.99519201873E+03 -0.54131396695E+03  0.11373523607E+04  0.46999998093E+01 0. -1.
       -5    1    3    3    0  502  0.10059988826E+03  0.99519201873E+03  0.36913172398E+03  0.10662118979E+04  0.46999998093E+01 0.  1.
</event>
<event>
 5   0  0.1765328E-04  0.1907126E+04  0.7818609E-02  0.8651318E-01
       -2   -1    0    0    0  501  0.00000000000E+00  0.00000000000E+00  0.54505029901E+03  0.54505029902E+03  0.25500000920E-02 0. -1.
        2   -1    0    0  501    0  0.00000000000E+00  0.00000000000E+00 -0.16682532236E+04  0.16682532236E+04  0.25500000920E-02 0.  1.
    10030    2    1    2    0    0  0.00000000000E+00  0.00000000000E+00 -0.11232029246E+04  0.22133035226E+04  0.19071255002E+04 0.  0.
        3    1    3    3  502    0  0.13350421932E+03 -0.56148448943E+03  0.31933777641E+03  0.65959444668E+03  0.10100000352E+00 0. -1.
       -3    1    3    3    0  502 -0.13350421932E+03  0.56148448943E+03 -0.14425407010E+04  0.15537090760E+04  0.10100000352E+00 0.  1.
</event>
<event>
 5   0  0.1799738E-04  0.1906900E+04  0.7818609E-02  0.8651430E-01
       -2   -1    0    0    0  501  0.00000000000E+00  0.00000000000E+00  0.48269292885E+03  0.48269292885E+03  0.25500000920E-02 0. -1.
        2   -1    0    0  501    0  0.00000000000E+00  0.00000000000E+00 -0.18833229306E+04  0.18833229306E+04  0.25500000920E-02 0.  1.
    10030    2    1    2    0    0  0.00000000000E+00  0.00000000000E+00 -0.14006300017E+04  0.23660158594E+04  0.19068997471E+04 0.  0.
        1    1    3    3  502    0 -0.10408834286E+03 -0.94436380996E+03 -0.60098186119E+03  0.11242048684E+04  0.50400001928E-02 0. -1.
       -1    1    3    3    0  502  0.10408834286E+03  0.94436380996E+03 -0.79964814054E+03  0.12418109910E+04  0.50400001928E-02 0.  1.
</event>
<event>
 5   0  0.8587082E-05  0.1931553E+04  0.7818609E-02  0.8639308E-01
        1   -1    0    0  501    0  0.00000000000E+00  0.00000000000E+00  0.14871488552E+04  0.14871488552E+04  0.50400001928E-02 0.  1.
       -1   -1    0    0    0  501  0.00000000000E+00  0.00000000000E+00 -0.62718970541E+03  0.62718970543E+03  0.50400001928E-02 0. -1.
    10030    2    1    2    0    0  0.00000000000E+00  0.00000000000E+00  0.85995914975E+03  0.21143385606E+04  0.19315532117E+04 0.  0.
        5    1    3    3  502    0  0.83156146457E+03  0.57173596676E+02 -0.10397060363E+03  0.83999718209E+03  0.46999998093E+01 0. -1.
       -5    1    3    3    0  502 -0.83156146457E+03 -0.57173596676E+02  0.96392975337E+03  0.12743413785E+04  0.46999998093E+01 0.  1.
</event>
<event>
 5   0  0.8905646E-05  0.1913252E+04  0.7818609E-02  0.8648288E-01
        1   -1    0    0  501    0  0.00000000000E+00  0.00000000000E+00  0.11768664174E+04  0.11768664174E+04  0.50400001928E-02 0.  1.
       -1   -1    0    0    0  501  0.00000000000E+00  0.00000000000E+00 -0.77760196628E+03  0.77760196629E+03  0.50400001928E-02 0. -1.
    10030    2    1    2    0    0  0.00000000000E+00  0.00000000000E+00  0.39926445115E+03  0.19544683837E+04  0.19132523516E+04 0.  0.
        1    1    3    3  502    0  0.51957107570E+03  0.63206015744E+01 -0.62087656791E+03  0.80961828371E+03  0.50400001928E-02 0. -1.
       -1    1    3    3    0  502 -0.51957107570E+03 -0.63206015744E+01  0.10201410191E+04  0.11448501000E+04  0.50400001928E-02 0.  1.
</event>
<event>
 5   0  0.1658711E-04  0.1855169E+04  0.7818609E-02  0.8677499E-01
       -2   -1    0    0    0  501  0.00000000000E+00  0.00000000000E+00  0.78054496226E+03  0.78054496226E+03  0.25500000920E-02 0.  1.
        2   -1    0    0  501    0  0.00000000000E+00  0.00000000000E+00 -0.11023228926E+04  0.11023228926E+04  0.25500000920E-02 0. -1.
    10030    2    1    2    0    0  0.00000000000E+00  0.00000000000E+00 -0.32177793034E+03  0.18828678549E+04  0.18551685429E+04 0.  0.
        2    1    3    3  502    0  0.65482900738E+03  0.62398310342E+03  0.47744485789E+02  0.90577893451E+03  0.25500000920E-02 0.  1.
       -2    1    3    3    0  502 -0.65482900738E+03 -0.62398310342E+03 -0.36952241613E+03  0.97708892036E+03  0.25500000920E-02 0. -1.
</event>
<event>
 5   0  0.8602017E-05  0.1899525E+04  0.7818609E-02  0.8655093E-01
        1   -1    0    0  501    0  0.00000000000E+00  0.00000000000E+00  0.11331679887E+04  0.11331679888E+04  0.50400001928E-02 0.  1.
       -1   -1    0    0    0  501  0.00000000000E+00  0.00000000000E+00 -0.79604150386E+03  0.79604150388E+03  0.50400001928E-02 0. -1.
    10030    2    1    2    0    0  0.00000000000E+00  0.00000000000E+00  0.33712648488E+03  0.19292094926E+04  0.18995249405E+04 0.  0.
        2    1    3    3  502    0 -0.80400225124E+02 -0.49031329879E+03  0.99064280538E+03  0.11082619253E+04  0.25500000920E-02 0.  1.
       -2    1    3    3    0  502  0.80400225124E+02  0.49031329879E+03 -0.65351632050E+03  0.82094756735E+03  0.25500000920E-02 0. -1.
</event>
<event>
 5   0  0.1799738E-04  0.1899227E+04  0.7818609E-02  0.8655241E-01
       -2   -1    0    0    0  501  0.00000000000E+00  0.00000000000E+00  0.58666973409E+03  0.58666973409E+03  0.25500000920E-02 0. -1.
        2   -1    0    0  501    0  0.00000000000E+00  0.00000000000E+00 -0.15370931912E+04  0.15370931912E+04  0.25500000920E-02 0.  1.
    10030    2    1    2    0    0  0.00000000000E+00  0.00000000000E+00 -0.95042345713E+03  0.21237629253E+04  0.18992272679E+04 0.  0.
        1    1    3    3  502    0  0.52174180494E+03  0.38012115868E+03  0.30358941742E+03  0.71335344724E+03  0.50400001928E-02 0. -1.
       -1    1    3    3    0  502 -0.52174180494E+03 -0.38012115868E+03 -0.12540128745E+04  0.14104094781E+04  0.50400001928E-02 0.  1.
</event>
<event>
 5   0  0.1790832E-04  0.1895751E+04  0.7818609E-02  0.8656974E-01
        2   -1    0    0  501    0  0.00000000000E+00  0.00000000000E+00  0.24421276452E+04  0.24421276452E+04  0.25500000920E-02 0. -1.
       -2   -1    0    0    0  501  0.00000000000E+00  0.00000000000E+00 -0.36790366299E+03  0.36790366300E+03  0.25500000920E-02 0.  1.
    10030    2    1    2    0    0  0.00000000000E+00  0.00000000000E+00  0.20742239822E+04  0.28100313082E+04  0.18957507285E+04 0.  0.
        5    1    3    3  502    0  0.32474612113E+03  0.82445633511E+03  0.53826991726E+03  0.10367954888E+04  0.46999998093E+01 0.  1.
       -5    1    3    3    0  502 -0.32474612113E+03 -0.82445633511E+03  0.15359540650E+04  0.17732358195E+04  0.46999998093E+01 0. -1.
</event>
<event>
 5   0  0.8681396E-05  0.1903287E+04  0.7818609E-02  0.8653222E-01
        1   -1    0    0  501    0  0.00000000000E+00  0.00000000000E+00  0.17664065128E+04  0.17664065128E+04  0.50400001928E-02 0.  1.
       -1   -1    0    0    0  501  0.00000000000E+00  0.00000000000E+00 -0.51269366618E+03  0.51269366621E+03  0.50400001928E-02 0. -1.
    10030    2    1    2    0    0  0.00000000000E+00  0.00000000000E+00  0.12537128466E+04  0.22791001790E+04  0.19032870840E+04 0.  0.
        3    1    3    3  502    0  0.89852654482E+03 -0.24333606915E+03  0.86352579575E+03  0.12697398176E+04  0.10100000352E+00 0.  1.
       -3    1    3    3    0  502 -0.89852654482E+03  0.24333606915E+03  0.39018705087E+03  0.10093603614E+04  0.10100000352E+00 0. -1.
</event>
<event>
 5   0  0.8587082E-05  0.1898650E+04  0.7818609E-02  0.8655529E-01
       -1   -1    0    0    0  501  0.00000000000E+00  0.00000000000E+00  0.61552810761E+03  0.61552810763E+03  0.50400001928E-02 0.  1.
        1   -1    0    0  501    0  0.00000000000E+00  0.00000000000E+00 -0.14641375872E+04  0.14641375873E+04  0.50400001928E-02 0. -1.
    10030    2    1    2    0    0  0.00000000000E+00  0.00000000000E+00 -0.84860947963E+03  0.20796656949E+04  0.18986498765E+04 0.  0.
        5    1    3    3  502    0 -0.32901061182E+03  0.75066750860E+03 -0.94897801348E+03  0.12539262543E+04  0.46999998093E+01 0. -1.
       -5    1    3    3    0  502  0.32901061182E+03 -0.75066750860E+03  0.10036853385E+03  0.82573944059E+03  0.46999998093E+01 0.  1.
</event>
<event>
 5   0  0.1799738E-04  0.1922998E+04  0.7818609E-02  0.8643493E-01
       -2   -1    0    0    0  501  0.00000000000E+00  0.00000000000E+00  0.42953203157E+03  0.42953203158E+03  0.25500000920E-02 0.  1.
        2   -1    0    0  501    0  0.00000000000E+00  0.00000000000E+00 -0.21522969180E+04  0.21522969181E+04  0.25500000920E-02 0. -1.
    10030    2    1    2    0    0  0.00000000000E+00  0.00000000000E+00 -0.17227648865E+04  0.25818289496E+04  0.19229981464E+04 0.  0.
        1    1    3    3  502    0 -0.73197295632E+03  0.21201480801E+03 -0.16485501849E+04  0.18161641995E+04  0.50400001928E-02 0. -1.
       -1    1    3    3    0  502  0.73197295632E+03 -0.21201480801E+03 -0.74214701624E+02  0.76566475011E+03  0.50400001928E-02 0.  1.
</event>
<event>
 5   0  0.1810569E-04  0.1885149E+04  0.7818609E-02  0.8662284E-01
       -2   -1    0    0    0  501  0.00000000000E+00  0.00000000000E+00  0.61412154245E+03  0.61412154246E+03  0.25500000920E-02 0.  1.
        2   -1    0    0  501    0  0.00000000000E+00  0.00000000000E+00 -0.14466952181E+04  0.14466952181E+04  0.25500000920E-02 0. -1.
    10030    2    1    2    0    0  0.00000000000E+00  0.00000000000E+00 -0.83257367566E+03  0.20608167606E+04  0.18851490114E+04 0.  0.
        4    1    3    3  502    0  0.17962497201E+03  0.56124929059E+03 -0.12204871492E+04  0.13553067517E+04  0.12699999809E+01 0. -1.
       -4    1    3    3    0  502 -0.17962497201E+03 -0.56124929059E+03  0.38791347359E+03  0.70551000889E+03  0.12699999809E+01 0.  1.
</event>
<event>
 5   0  0.6375750E-05  0.1923706E+04  0.7818609E-02  0.8643146E-01
       -4   -1    0    0    0  501  0.00000000000E+00  0.00000000000E+00  0.48697268532E+03  0.48697434137E+03  0.12699999809E+01 0. -1.
        4   -1    0    0  501    0  0.00000000000E+00  0.00000000000E+00 -0.18998163426E+04  0.18998167671E+04  0.12699999809E+01 0.  1.
    10030    2    1    2    0    0  0.00000000000E+00  0.00000000000E+00 -0.14128436573E+04  0.23867911085E+04  0.19237059535E+04 0.  0.
        5    1    3    3  502    0  0.56494551344E+03  0.69274210765E+02  0.25558198950E+03  0.62394438277E+03  0.46999998093E+01 0. -1.
       -5    1    3    3    0  502 -0.56494551344E+03 -0.69274210765E+02 -0.16684256468E+04  0.17628467257E+04  0.46999998093E+01 0.  1.
</event>
<event>
 5   0  0.8567844E-05  0.1959260E+04  0.7818609E-02  0.8625908E-01
       -1   -1    0    0    0  501  0.00000000000E+00  0.00000000000E+00  0.72944547783E+03  0.72944547784E+03  0.50400001928E-02 0.  1.
        1   -1    0    0  501    0  0.00000000000E+00  0.00000000000E+00 -0.13156225312E+04  0.13156225312E+04  0.50400001928E-02 0. -1.
    10030    2    1    2    0    0  0.00000000000E+00  0.00000000000E+00 -0.58617705337E+03  0.20450680091E+04  0.19592599684E+04 0.  0.
        4    1    3    3  502    0 -0.23335038838E+03  0.26561155943E+03 -0.12467043605E+04  0.12958685426E+04  0.12699999809E+01 0. -1.
       -4    1    3    3    0  502  0.23335038838E+03 -0.26561155943E+03  0.66052730710E+03  0.74919946649E+03  0.12699999809E+01 0.  1.
</event>
<event>
 5   0  0.1765328E-04  0.1891940E+04  0.7818609E-02  0.8658879E-01
       -2   -1    0    0    0  501  0.00000000000E+00  0.00000000000E+00  0.76846027419E+03  0.76846027419E+03  0.25500000920E-02 0. -1.
        2   -1    0    0  501    0  0.00000000000E+00  0.00000000000E+00 -0.11644829832E+04  0.11644829832E+04  0.25500000920E-02 0.  1.
    10030    2    1    2    0    0  0.00000000000E+00  0.00000000000E+00 -0.39602270896E+03  0.19329432573E+04  0.18919396529E+04 0.  0.
        3    1    3    3  502    0 -0.40725588246E+02 -0.52432670675E+02 -0.11620997906E+04  0.11639947131E+04  0.10100000352E+00 0.  1.
       -3    1    3    3    0  502  0.40725588246E+02  0.52432670675E+02  0.76607708166E+03  0.76894854427E+03  0.10100000352E+00 0. -1.
</event>
<event>
 5   0  0.8905646E-05  0.1871379E+04  0.7818609E-02  0.8669235E-01
        1   -1    0    0  501    0  0.00000000000E+00  0.00000000000E+00  0.94028225004E+03  0.94028225005E+03  0.50400001928E-02 0. -1.
       -1   -1    0    0    0  501  0.00000000000E+00  0.00000000000E+00 -0.93111931594E+03  0.93111931595E+03  0.50400001928E-02 0.  1.
    10030    2    1    2    0    0  0.00000000000E+00  0.00000000000E+00  0.91629341040E+01  0.18714015660E+04  0.18713791337E+04 0.  0.
        1    1    3    3  502    0 -0.26606687991E+03  0.85002670672E+03  0.29125192049E+03  0.93710440611E+03  0.50400001928E-02 0. -1.
       -1    1    3    3    0  502  0.26606687991E+03 -0.85002670672E+03 -0.28208898639E+03  0.93429715990E+03  0.50400001928E-02 0.  1.
</event>
<event>
 5   0  0.1790832E-04  0.1907408E+04  0.7818609E-02  0.8651178E-01
        2   -1    0    0  501    0  0.00000000000E+00  0.00000000000E+00  0.23292308968E+04  0.23292308968E+04  0.25500000920E-02 0.  1.
       -2   -1    0    0    0  501  0.00000000000E+00  0.00000000000E+00 -0.39049433059E+03  0.39049433060E+03  0.25500000920E-02 0. -1.
    10030    2    1    2    0    0  0.00000000000E+00  0.00000000000E+00  0.19387365662E+04  0.27197252274E+04  0.19074081471E+04 0.  0.
        5    1    3    3  502    0  0.41795504429E+03 -0.10451314640E+03  0.21825522717E+04  0.22246720939E+04  0.46999998093E+01 0.  1.
       -5    1    3    3    0  502 -0.41795504429E+03  0.10451314640E+03 -0.24381570542E+03  0.49505313354E+03  0.46999998093E+01 0. -1.
</event>
<event>
 5   0  0.8602017E-05  0.1891501E+04  0.7818609E-02  0.8659098E-01
       -1   -1    0    0    0  501  0.00000000000E+00  0.00000000000E+00  0.60028663628E+03  0.60028663630E+03  0.50400001928E-02 0.  1.
        1   -1    0    0  501    0  0.00000000000E+00  0.00000000000E+00 -0.14900289518E+04  0.14900289519E+04  0.50400001928E-02 0. -1.
    10030    2    1    2    0    0  0.00000000000E+00  0.00000000000E+00 -0.88974231556E+03  0.20903155881E+04  0.18915014856E+04 0.  0.
        2    1    3    3  502    0  0.37268908777E+02 -0.54669130083E+03  0.40698387193E+03  0.68256591036E+03  0.25500000920E-02 0.  1.
       -2    1    3    3    0  502 -0.37268908777E+02  0.54669130083E+03 -0.12967261875E+04  0.14077496778E+04  0.25500000920E-02 0. -1.
</event>
<event>
 5   0  0.1799738E-04  0.1935187E+04  0.7818609E-02  0.8637537E-01
        2   -1    0    0  501    0  0.00000000000E+00  0.00000000000E+00  0.39712102495E+03  0.39712102496E+03  0.25500000920E-02 0.  1.
       -2   -1    0    0    0  501  0.00000000000E+00  0.00000000000E+00 -0.23575618521E+04  0.23575618521E+04  0.25500000920E-02 0. -1.
    10030    2    1    2    0    0  0.00000000000E+00  0.00000000000E+00 -0.19604408271E+04  0.27546828770E+04  0.19351872045E+04 0.  0.
        1    1    3    3  502    0  0.70048669516E+03  0.83432352252E+02 -0.19229353119E+04  0.20482487108E+04  0.50400001928E-02 0. -1.
       -1    1    3    3    0  502 -0.70048669516E+03 -0.83432352252E+02 -0.37505515203E+02  0.70643416621E+03  0.50400001928E-02 0.  1.
</event>
<event>
 5   0  0.1658711E-04  0.1903243E+04  0.7818609E-02  0.8653244E-01
       -2   -1    0    0    0  501  0.00000000000E+00  0.00000000000E+00  0.63115329809E+03  0.63115329810E+03  0.25500000920E-02 0. -1.
        2   -1    0    0  501    0  0.00000000000E+00  0.00000000000E+00 -0.14348077002E+04  0.14348077002E+04  0.25500000920E-02 0.  1.
    10030    2    1    2    0    0  0.00000000000E+00  0.00000000000E+00 -0.80365440211E+03  0.20659609983E+04  0.19032431396E+04 0.  0.
        2    1    3    3  502    0 -0.55079608685E+03  0.51394694346E+03 -0.10329712314E+04  0.12784941748E+04  0.25500000920E-02 0.  1.
       -2    1    3    3    0  502  0.55079608685E+03 -0.51394694346E+03  0.22931682930E+03  0.78746682354E+03  0.25500000920E-02 0. -1.
</event>
<event>
 5   0  0.6375750E-05  0.1933513E+04  0.7818609E-02  0.8638353E-01
       -3   -1    0    0    0  501  0.00000000000E+00  0.00000000000E+00  0.57004445702E+03  0.57004446597E+03  0.10100000352E+00 0.  1.
        3   -1    0    0  501    0  0.00000000000E+00  0.00000000000E+00 -0.16395522376E+04  0.16395522407E+04  0.10100000352E+00 0. -1.
    10030    2    1    2    0    0  0.00000000000E+00  0.00000000000E+00 -0.10695077805E+04  0.22095967066E+04  0.19335125325E+04 0.  0.
        4    1    3    3  502    0 -0.76191656242E+03  0.48420522913E+03 -0.93004078536E+03  0.12961284764E+04  0.12699999809E+01 0. -1.
       -4    1    3    3    0  502  0.76191656242E+03 -0.48420522913E+03 -0.13946699517E+03  0.91346823023E+03  0.12699999809E+01 0.  1.
</event>
<event>
 5   0  0.8567844E-05  0.1993044E+04  0.7818609E-02  0.8609880E-01
       -1   -1    0    0    0  501  0.00000000000E+00  0.00000000000E+00  0.16465562607E+04  0.16465562607E+04  0.50400001928E-02 0.  1.
        1   -1    0    0  501    0  0.00000000000E+00  0.00000000000E+00 -0.60311070791E+03  0.60311070793E+03  0.50400001928E-02 0. -1.
    10030    2    1    2    0    0  0.00000000000E+00  0.00000000000E+00  0.10434455528E+04  0.22496669687E+04  0.19930436142E+04 0.  0.
        4    1    3    3  502    0 -0.31325061297E+03 -0.65289610229E+02 -0.54354483932E+03  0.63073868201E+03  0.12699999809E+01 0. -1.
       -4    1    3    3    0  502  0.31325061297E+03  0.65289610229E+02  0.15869903921E+04  0.16189282867E+04  0.12699999809E+01 0.  1.
</event>
<event>
 5   0  0.1810569E-04  0.1918403E+04  0.7818609E-02  0.8645750E-01
       -2   -1    0    0    0  501  0.00000000000E+00  0.00000000000E+00  0.48686749191E+03  0.48686749192E+03  0.25500000920E-02 0. -1.
        2   -1    0    0  501    0  0.00000000000E+00  0.00000000000E+00 -0.18897693455E+04  0.18897693455E+04  0.25500000920E-02 0.  1.
    10030    2    1    2    0    0  0.00000000000E+00  0.00000000000E+00 -0.14029018536E+04  0.23766368374E+04  0.19184027330E+04 0.  0.
        4    1    3    3  502    0 -0.73632072328E+02 -0.71748923680E+02  0.48002111908E+03  0.49090882839E+03  0.12699999809E+01 0. -1.
       -4    1    3    3    0  502  0.73632072328E+02  0.71748923680E+02 -0.18829229726E+04  0.18857280090E+04  0.12699999809E+01 0.  1.
</event>
<event>
 5   0  0.1790832E-04  0.1891992E+04  0.7818609E-02  0.8658853E-01
       -2   -1    0    0    0  501  0.00000000000E+00  0.00000000000E+00  0.48195146735E+03  0.48195146736E+03  0.25500000920E-02 0.  1.
        2   -1    0    0  501    0  0.00000000000E+00  0.00000000000E+00 -0.18568426021E+04  0.18568426021E+04  0.25500000920E-02 0. -1.
    10030    2    1    2    0    0  0.00000000000E+00  0.00000000000E+00 -0.13748911348E+04  0.23387940695E+04  0.18919915610E+04 0.  0.
        5    1    3    3  502    0 -0.75639396961E+03 -0.31936974047E+03 -0.10664091283E+03  0.82796330998E+03  0.46999998093E+01 0.  1.
       -5    1    3    3    0  502  0.75639396961E+03  0.31936974047E+03 -0.12682502219E+04  0.15108307595E+04  0.46999998093E+01 0. -1.
</event>
<event>
 5   0  0.8905646E-05  0.1902540E+04  0.7818609E-02  0.8653593E-01
        1   -1    0    0  501    0  0.00000000000E+00  0.00000000000E+00  0.11729630226E+04  0.11729630226E+04  0.50400001928E-02 0. -1.
       -1   -1    0    0    0  501  0.00000000000E+00  0.00000000000E+00 -0.77147721415E+03  0.77147721417E+03  0.50400001928E-02 0.  1.
    10030    2    1    2    0    0  0.00000000000E+00  0.00000000000E+00  0.40148580846E+03  0.19444402368E+04  0.19025396133E+04 0.  0.
        1    1    3    3  502    0  0.95430795709E+02  0.67527331719E+03 -0.47704684927E+03  0.83227086102E+03  0.50400001928E-02 0.  1.
       -1    1    3    3    0  502 -0.95430795709E+02 -0.67527331719E+03  0.87853265773E+03  0.11121693758E+04  0.50400001928E-02 0. -1.
</event>
<event>
 5   0  0.1810569E-04  0.1877894E+04  0.7818609E-02  0.8665939E-01
       -2   -1    0    0    0  501  0.00000000000E+00  0.00000000000E+00  0.45608043018E+03  0.45608043018E+03  0.25500000920E-02 0. -1.
        2   -1    0    0  501    0  0.00000000000E+00  0.00000000000E+00 -0.19330397010E+04  0.19330397010E+04  0.25500000920E-02 0.  1.
    10030    2    1    2    0    0  0.00000000000E+00  0.00000000000E+00 -0.14769592708E+04  0.23891201312E+04  0.18778941167E+04 0.  0.
        4    1    3    3  502    0 -0.39355680029E+03 -0.74924641676E+03 -0.22112800993E+03  0.87473216344E+03  0.12699999809E+01 0. -1.
       -4    1    3    3    0  502  0.39355680029E+03  0.74924641676E+03 -0.12558312609E+04  0.15143879677E+04  0.12699999809E+01 0.  1.
</event>
<event>
 5   0  0.6375750E-05  0.1898418E+04  0.7818609E-02  0.8655644E-01
        3   -1    0    0  501    0  0.00000000000E+00  0.00000000000E+00  0.14344925028E+04  0.14344925063E+04  0.10100000352E+00 0.  1.
       -3   -1    0    0    0  501  0.00000000000E+00  0.00000000000E+00 -0.62809536557E+03  0.62809537369E+03  0.10100000352E+00 0. -1.
    10030    2    1    2    0    0  0.00000000000E+00  0.00000000000E+00  0.80639713722E+03  0.20625878800E+04  0.18984183996E+04 0.  0.
        5    1    3    3  502    0  0.15931111126E+02  0.94754183010E+03  0.46157277218E+03  0.10541161388E+04  0.46999998093E+01 0. -1.
       -5    1    3    3    0  502 -0.15931111126E+02 -0.94754183010E+03  0.34482436504E+03  0.10084717412E+04  0.46999998093E+01 0.  1.
</event>
<event>
 5   0  0.8681396E-05  0.1879595E+04  0.7818609E-02  0.8665080E-01
       -1   -1    0    0    0  501  0.00000000000E+00  0.00000000000E+00  0.15950578158E+04  0.15950578158E+04  0.50400001928E-02 0. -1.
        1   -1    0    0  501    0  0.00000000000E+00  0.00000000000E+00 -0.55372253159E+03  0.55372253161E+03  0.50400001928E-02 0.  1.
    10030    2    1    2    0    0  0.00000000000E+00  0.00000000000E+00  0.10413352842E+04  0.21487803474E+04  0.18795951179E+04 0.  0.
        3    1    3    3  502    0 -0.19342909864E+02 -0.52664852386E+03  0.14102373637E+04  0.15054907001E+04  0.10100000352E+00 0. -1.
       -3    1    3    3    0  502  0.19342909864E+02  0.52664852386E+03 -0.36890207953E+03  0.64328964730E+03  0.10100000352E+00 0.  1.
</event>
<event>
 5   0  0.8602017E-05  0.1779657E+04  0.7818609E-02  0.8717193E-01
       -1   -1    0    0    0  501  0.00000000000E+00  0.00000000000E+00  0.74754288681E+03  0.74754288682E+03  0.50400001928E-02 0.  1.
        1   -1    0    0  501    0  0.00000000000E+00  0.00000000000E+00 -0.10591963290E+04  0.10591963290E+04  0.50400001928E-02 0. -1.
    10030    2    1    2    0    0  0.00000000000E+00  0.00000000000E+00 -0.31165344214E+03  0.18067392158E+04  0.17796569124E+04 0.  0.
        2    1    3    3  502    0  0.71971712369E+03  0.31474437203E+03  0.26855118999E+03  0.83016654926E+03  0.25500000920E-02 0.  1.
       -2    1    3    3    0  502 -0.71971712369E+03 -0.31474437203E+03 -0.58020463213E+03  0.97657266653E+03  0.25500000920E-02 0. -1.
</event>
<event>
 5   0  0.8602017E-05  0.1805653E+04  0.7818609E-02  0.8703299E-01
       -1   -1    0    0    0  501  0.00000000000E+00  0.00000000000E+00  0.11680648225E+04  0.11680648226E+04  0.50400001928E-02 0. -1.
        1   -1    0    0  501    0  0.00000000000E+00  0.00000000000E+00 -0.69781725821E+03  0.69781725823E+03  0.50400001928E-02 0.  1.
    10030    2    1    2    0    0  0.00000000000E+00  0.00000000000E+00  0.47024756433E+03  0.18658820808E+04  0.18056531139E+04 0.  0.
        2    1    3    3  502    0 -0.29037926192E+03 -0.79727219095E+01 -0.64820631015E+03  0.71032042106E+03  0.25500000920E-02 0.  1.
       -2    1    3    3    0  502  0.29037926192E+03  0.79727219095E+01  0.11184538745E+04  0.11555616597E+04  0.25500000920E-02 0. -1.
</event>
<event>
 5   0  0.8905646E-05  0.1907764E+04  0.7818609E-02  0.8651001E-01
        1   -1    0    0  501    0  0.00000000000E+00  0.00000000000E+00  0.98767021122E+03  0.98767021124E+03  0.50400001928E-02 0.  1.
       -1   -1    0    0    0  501  0.00000000000E+00  0.00000000000E+00 -0.92124975902E+03  0.92124975903E+03  0.50400001928E-02 0. -1.
    10030    2    1    2    0    0  0.00000000000E+00  0.00000000000E+00  0.66420452205E+02  0.19089199703E+04  0.19077640778E+04 0.  0.
        1    1    3    3  502    0  0.79205219640E+03  0.11361773997E+03  0.55278900576E+03  0.97253861495E+03  0.50400001928E-02 0.  1.
       -1    1    3    3    0  502 -0.79205219640E+03 -0.11361773997E+03 -0.48636855355E+03  0.93638135531E+03  0.50400001928E-02 0. -1.
</event>
<event>
 5   0  0.8587082E-05  0.1900758E+04  0.7818609E-02  0.8654479E-01
       -1   -1    0    0    0  501  0.00000000000E+00  0.00000000000E+00  0.19876673815E+04  0.19876673815E+04  0.50400001928E-02 0. -1.
        1   -1    0    0  501    0  0.00000000000E+00  0.00000000000E+00 -0.45441212809E+03  0.45441212812E+03  0.50400001928E-02 0.  1.
    10030    2    1    2    0    0  0.00000000000E+00  0.00000000000E+00  0.15332552534E+04  0.24420795096E+04  0.19007579170E+04 0.  0.
        5    1    3    3  502    0 -0.16506886435E+03 -0.62109931988E+03 -0.13289777991E+03  0.65627433672E+03  0.46999998093E+01 0.  1.
       -5    1    3    3    0  502  0.16506886435E+03  0.62109931988E+03  0.16661530333E+04  0.17858051729E+04  0.46999998093E+01 0. -1.
</event>
<event>
 5   0  0.8602017E-05  0.1904705E+04  0.7818609E-02  0.8652518E-01
       -1   -1    0    0    0  501  0.00000000000E+00  0.00000000000E+00  0.49868389984E+03  0.49868389986E+03  0.50400001928E-02 0. -1.
        1   -1    0    0  501    0  0.00000000000E+00  0.00000000000E+00 -0.18187383610E+04  0.18187383611E+04  0.50400001928E-02 0.  1.
    10030    2    1    2    0    0  0.00000000000E+00  0.00000000000E+00 -0.13200544612E+04  0.23174222609E+04  0.19047052672E+04 0.  0.
        2    1    3    3  502    0  0.26452450284E+03 -0.85267420886E+03 -0.25659269543E+03  0.92890598577E+03  0.25500000920E-02 0. -1.
       -2    1    3    3    0  502 -0.26452450284E+03  0.85267420886E+03 -0.10634617658E+04  0.13885162751E+04  0.25500000920E-02 0.  1.
</event>
<event>
 5   0  0.1810569E-04  0.1865332E+04  0.7818609E-02  0.8672308E-01
       -2   -1    0    0    0  501  0.00000000000E+00  0.00000000000E+00  0.43579929944E+03  0.43579929945E+03  0.25500000920E-02 0. -1.
        2   -1    0    0  501    0  0.00000000000E+00  0.00000000000E+00 -0.19960247696E+04  0.19960247696E+04  0.25500000920E-02 0.  1.
    10030    2    1    2    0    0  0.00000000000E+00  0.00000000000E+00 -0.15602254701E+04  0.24318240690E+04  0.18653323524E+04 0.  0.
        4    1    3    3  502    0  0.68513409347E+03  0.33159221621E+01 -0.16051000915E+04  0.17452127773E+04  0.12699999809E+01 0.  1.
       -4    1    3    3    0  502 -0.68513409347E+03 -0.33159221621E+01  0.44874621395E+02  0.68661129172E+03  0.12699999809E+01 0. -1.
</event>
<event>
 5   0  0.1810569E-04  0.1906592E+04  0.7818609E-02  0.8651582E-01
       -2   -1    0    0    0  501  0.00000000000E+00  0.00000000000E+00  0.96763854272E+03  0.96763854273E+03  0.25500000920E-02 0. -1.
        2   -1    0    0  501    0  0.00000000000E+00  0.00000000000E+00 -0.93916608914E+03  0.93916608915E+03  0.25500000920E-02 0.  1.
    10030    2    1    2    0    0  0.00000000000E+00  0.00000000000E+00  0.28472453580E+02  0.19068046319E+04  0.19065920443E+04 0.  0.
        4    1    3    3  502    0 -0.86531521176E+03 -0.39966964291E+03  0.30530797095E+02  0.95364562686E+03  0.12699999809E+01 0.  1.
       -4    1    3    3    0  502  0.86531521176E+03  0.39966964291E+03 -0.20583435153E+01  0.95315900501E+03  0.12699999809E+01 0. -1.
</event>
<event>
 5   0  0.1799738E-04  0.1894228E+04  0.7818609E-02  0.8657735E-01
       -2   -1    0    0    0  501  0.00000000000E+00  0.00000000000E+00  0.22733165005E+04  0.22733165005E+04  0.25500000920E-02 0.  1.
        2   -1    0    0  501    0  0.00000000000E+00  0.00000000000E+00 -0.39458864927E+03  0.39458864928E+03  0.25500000920E-02 0. -1.
    10030    2    1    2    0    0  0.00000000000E+00  0.00000000000E+00  0.18787278512E+04  0.26679051498E+04  0.18942279560E+04 0.  0.
        1    1    3    3  502    0 -0.40698762134E+03  0.85513774073E+03  0.95513641755E+03  0.13450594989E+04  0.50400001928E-02 0. -1.
       -1    1    3    3    0  502  0.40698762134E+03 -0.85513774073E+03  0.92359143369E+03  0.13228456508E+04  0.50400001928E-02 0.  1.
</event>
<event>
 5   0  0.8567844E-05  0.1878748E+04  0.7818609E-02  0.8665508E-01
       -1   -1    0    0    0  501  0.00000000000E+00  0.00000000000E+00  0.12800587637E+04  0.12800587637E+04  0.50400001928E-02 0.  1.
        1   -1    0    0  501    0  0.00000000000E+00  0.00000000000E+00 -0.68936204651E+03  0.68936204653E+03  0.50400001928E-02 0. -1.
    10030    2    1    2    0    0  0.00000000000E+00  0.00000000000E+00  0.59069671722E+03  0.19694208103E+04  0.18787484441E+04 0.  0.
        4    1    3    3  502    0 -0.46014977619E+03  0.77253690322E+03  0.58025827291E+03  0.10701646413E+04  0.12699999809E+01 0.  1.
       -4    1    3    3    0  502  0.46014977619E+03 -0.77253690322E+03  0.10438444304E+02  0.89925616894E+03  0.12699999809E+01 0. -1.
</event>
<event>
 5   0  0.8567844E-05  0.1908580E+04  0.7818609E-02  0.8650598E-01
       -1   -1    0    0    0  501  0.00000000000E+00  0.00000000000E+00  0.10045295837E+04  0.10045295837E+04  0.50400001928E-02 0. -1.
        1   -1    0    0  501    0  0.00000000000E+00  0.00000000000E+00 -0.90656269596E+03  0.90656269597E+03  0.50400001928E-02 0.  1.
    10030    2    1    2    0    0  0.00000000000E+00  0.00000000000E+00  0.97966887710E+02  0.19110922796E+04  0.19085796264E+04 0.  0.
        4    1    3    3  502    0 -0.28555851523E+03 -0.10730430319E+03 -0.85642461089E+03  0.90913288695E+03  0.12699999809E+01 0.  1.
       -4    1    3    3    0  502  0.28555851523E+03  0.10730430319E+03  0.95439149860E+03  0.10019593927E+04  0.12699999809E+01 0. -1.
</event>
<event>
 5   0  0.1790832E-04  0.1909260E+04  0.7818609E-02  0.8650261E-01
       -2   -1    0    0    0  501  0.00000000000E+00  0.00000000000E+00  0.10988282516E+04  0.10988282516E+04  0.25500000920E-02 0. -1.
        2   -1    0    0  501    0  0.00000000000E+00  0.00000000000E+00 -0.82935486548E+03  0.82935486548E+03  0.25500000920E-02 0.  1.
    10030    2    1    2    0    0  0.00000000000E+00  0.00000000000E+00  0.26947338614E+03  0.19281831171E+04  0.19092601256E+04 0.  0.
        5    1    3    3  502    0 -0.10460940799E+03  0.49759316253E+03  0.95067640675E+03  0.10781232787E+04  0.46999998093E+01 0. -1.
       -5    1    3    3    0  502  0.10460940799E+03 -0.49759316253E+03 -0.68120302061E+03  0.85005983844E+03  0.46999998093E+01 0.  1.
</event>
<event>
 5   0  0.8587082E-05  0.1906603E+04  0.7818609E-02  0.8651577E-01
       -1   -1    0    0    0  501  0.00000000000E+00  0.00000000000E+00  0.16710095009E+04  0.16710095009E+04  0.50400001928E-02 0.  1.
        1   -1    0    0  501    0  0.00000000000E+00  0.00000000000E+00 -0.54385302156E+03  0.54385302158E+03  0.50400001928E-02 0. -1.
    10030    2    1    2    0    0  0.00000000000E+00  0.00000000000E+00  0.11271564793E+04  0.22148625225E+04  0.19066028073E+04 0.  0.
        5    1    3    3  502    0 -0.13057959636E+03 -0.59313714513E+03  0.14171552633E+04  0.15418215961E+04  0.46999998093E+01 0.  1.
       -5    1    3    3    0  502  0.13057959636E+03  0.59313714513E+03 -0.28999878394E+03  0.67304092640E+03  0.46999998093E+01 0. -1.
</event>
<event>
 5   0  0.8587082E-05  0.1619680E+04  0.7818609E-02  0.8808548E-01
        1   -1    0    0  501    0  0.00000000000E+00  0.00000000000E+00  0.95585743363E+03  0.95585743364E+03  0.50400001928E-02 0.  1.
       -1   -1    0    0    0  501  0.00000000000E+00  0.00000000000E+00 -0.68612849923E+03  0.68612849924E+03  0.50400001928E-02 0. -1.
    10030    2    1    2    0    0  0.00000000000E+00  0.00000000000E+00  0.26972893440E+03  0.16419859329E+04  0.16196802480E+04 0.  0.
        5    1    3    3  502    0  0.19511653919E+03  0.64002955083E+02  0.92901211979E+03  0.95144755549E+03  0.46999998093E+01 0.  1.
       -5    1    3    3    0  502 -0.19511653919E+03 -0.64002955083E+02 -0.65928318539E+03  0.69053837740E+03  0.46999998093E+01 0. -1.
</event>
<event>
 5   0  0.1658711E-04  0.1854544E+04  0.7818609E-02  0.8677820E-01
        2   -1    0    0  501    0  0.00000000000E+00  0.00000000000E+00  0.13352983083E+04  0.13352983083E+04  0.25500000920E-02 0.  1.
       -2   -1    0    0    0  501  0.00000000000E+00  0.00000000000E+00 -0.64392601320E+03  0.64392601321E+03  0.25500000920E-02 0. -1.
    10030    2    1    2    0    0  0.00000000000E+00  0.00000000000E+00  0.69137229508E+03  0.19792243215E+04  0.18545439505E+04 0.  0.
        2    1    3    3  502    0  0.75028584002E+03 -0.46082663983E+03  0.65599734104E+03  0.10980084449E+04  0.25500000920E-02 0.  1.
       -2    1    3    3    0  502 -0.75028584002E+03  0.46082663983E+03  0.35374954041E+02  0.88121587655E+03  0.25500000920E-02 0. -1.
</event>
<event>
 5   0  0.8681396E-05  0.1904549E+04  0.7818609E-02  0.8652595E-01
       -1   -1    0    0    0  501  0.00000000000E+00  0.00000000000E+00  0.73732299377E+03  0.73732299378E+03  0.50400001928E-02 0.  1.
        1   -1    0    0  501    0  0.00000000000E+00  0.00000000000E+00 -0.12298913773E+04  0.12298913773E+04  0.50400001928E-02 0. -1.
    10030    2    1    2    0    0  0.00000000000E+00  0.00000000000E+00 -0.49256838356E+03  0.19672143711E+04  0.19045494925E+04 0.  0.
        3    1    3    3  502    0  0.49080830566E+03 -0.80505199451E+03 -0.38418995699E+03  0.10181372403E+04  0.10100000352E+00 0. -1.
       -3    1    3    3    0  502 -0.49080830566E+03  0.80505199451E+03 -0.10837842657E+03  0.94907713086E+03  0.10100000352E+00 0.  1.
</event>
<event>
 5   0  0.1765328E-04  0.1891783E+04  0.7818609E-02  0.8658957E-01
       -2   -1    0    0    0  501  0.00000000000E+00  0.00000000000E+00  0.10467600805E+04  0.10467600805E+04  0.25500000920E-02 0. -1.
        2   -1    0    0  501    0  0.00000000000E+00  0.00000000000E+00 -0.85474304636E+03  0.85474304636E+03  0.25500000920E-02 0.  1.
    10030    2    1    2    0    0  0.00000000000E+00  0.00000000000E+00  0.19201703412E+03  0.19015031268E+04  0.18917831800E+04 0.  0.
        3    1    3    3  502    0 -0.69113670645E+03  0.12561524656E+03 -0.54069839853E+03  0.88645581139E+03  0.10100000352E+00 0.  1.
       -3    1    3    3    0  502  0.69113670645E+03 -0.12561524656E+03  0.73271543265E+03  0.10150473155E+04  0.10100000352E+00 0. -1.
</event>
<event>
 5   0  0.1810569E-04  0.1884135E+04  0.7818609E-02  0.8662794E-01
        2   -1    0    0  501    0  0.00000000000E+00  0.00000000000E+00  0.81327811757E+03  0.81327811758E+03  0.25500000920E-02 0. -1.
       -2   -1    0    0    0  501  0.00000000000E+00  0.00000000000E+00 -0.10912523032E+04  0.10912523032E+04  0.25500000920E-02 0.  1.
    10030    2    1    2    0    0  0.00000000000E+00  0.00000000000E+00 -0.27797418565E+03  0.19045304208E+04  0.18841354717E+04 0.  0.
        4    1    3    3  502    0 -0.41380514441E+03  0.52784676067E+03 -0.80768639804E+03  0.10498646726E+04  0.12699999809E+01 0.  1.
       -4    1    3    3    0  502  0.41380514441E+03 -0.52784676067E+03  0.52971221239E+03  0.85466574820E+03  0.12699999809E+01 0. -1.
</event>
<event>
 5   0  0.1810569E-04  0.1699433E+04  0.7818609E-02  0.8761688E-01
       -2   -1    0    0    0  501  0.00000000000E+00  0.00000000000E+00  0.97160948363E+03  0.97160948364E+03  0.25500000920E-02 0.  1.
        2   -1    0    0  501    0  0.00000000000E+00  0.00000000000E+00 -0.74311542631E+03  0.74311542631E+03  0.25500000920E-02 0. -1.
    10030    2    1    2    0    0  0.00000000000E+00  0.00000000000E+00  0.22849405732E+03  0.17147249100E+04  0.16994328414E+04 0.  0.
        4    1    3    3  502    0 -0.10282572470E+03  0.10305906758E+03  0.95893116671E+03  0.96992004642E+03  0.12699999809E+01 0.  1.
       -4    1    3    3    0  502  0.10282572470E+03 -0.10305906758E+03 -0.73043710938E+03  0.74480486353E+03  0.12699999809E+01 0. -1.
</event>
<event>
 5   0  0.8602017E-05  0.1910531E+04  0.7818609E-02  0.8649632E-01
        1   -1    0    0  501    0  0.00000000000E+00  0.00000000000E+00  0.12034285228E+04  0.12034285228E+04  0.50400001928E-02 0.  1.
       -1   -1    0    0    0  501  0.00000000000E+00  0.00000000000E+00 -0.75827701240E+03  0.75827701242E+03  0.50400001928E-02 0. -1.
    10030    2    1    2    0    0  0.00000000000E+00  0.00000000000E+00  0.44515151043E+03  0.19617055353E+04  0.19105310099E+04 0.  0.
        2    1    3    3  502    0 -0.78432281453E+03 -0.26649000254E+03 -0.26593354979E+03  0.86999991481E+03  0.25500000920E-02 0.  1.
       -2    1    3    3    0  502  0.78432281453E+03  0.26649000254E+03  0.71108506022E+03  0.10917056205E+04  0.25500000920E-02 0. -1.
</event>
<event>
 5   0  0.1799738E-04  0.1880394E+04  0.7818609E-02  0.8664677E-01
        2   -1    0    0  501    0  0.00000000000E+00  0.00000000000E+00  0.12845342293E+04  0.12845342293E+04  0.25500000920E-02 0.  1.
       -2   -1    0    0    0  501  0.00000000000E+00  0.00000000000E+00 -0.68816449326E+03  0.68816449326E+03  0.25500000920E-02 0. -1.
    10030    2    1    2    0    0  0.00000000000E+00  0.00000000000E+00  0.59636973605E+03  0.19726987226E+04  0.18803944767E+04 0.  0.
        1    1    3    3  502    0 -0.69090446402E+03 -0.60835882950E+03  0.49867154788E+03  0.10469588132E+04  0.50400001928E-02 0.  1.
       -1    1    3    3    0  502  0.69090446402E+03  0.60835882950E+03  0.97698188172E+02  0.92573990938E+03  0.50400001928E-02 0. -1.
</event>
<event>
 5   0  0.8905646E-05  0.1892719E+04  0.7818609E-02  0.8658489E-01
        1   -1    0    0  501    0  0.00000000000E+00  0.00000000000E+00  0.16295013539E+04  0.16295013540E+04  0.50400001928E-02 0.  1.
       -1   -1    0    0    0  501  0.00000000000E+00  0.00000000000E+00 -0.54961363419E+03  0.54961363422E+03  0.50400001928E-02 0. -1.
    10030    2    1    2    0    0  0.00000000000E+00  0.00000000000E+00  0.10798877197E+04  0.21791149882E+04  0.18927188498E+04 0.  0.
        1    1    3    3  502    0 -0.21857444879E+03  0.53407799243E+03  0.14034928559E+04  0.15175000126E+04  0.50400001928E-02 0.  1.
       -1    1    3    3    0  502  0.21857444879E+03 -0.53407799243E+03 -0.32360513619E+03  0.66161497554E+03  0.50400001928E-02 0. -1.
</event>
<event>
 5   0  0.8587082E-05  0.1917238E+04  0.7818609E-02  0.8646323E-01
       -1   -1    0    0    0  501  0.00000000000E+00  0.00000000000E+00  0.72578855897E+03  0.72578855899E+03  0.50400001928E-02 0.  1.
        1   -1    0    0  501    0  0.00000000000E+00  0.00000000000E+00 -0.12661400427E+04  0.12661400427E+04  0.50400001928E-02 0. -1.
    10030    2    1    2    0    0  0.00000000000E+00  0.00000000000E+00 -0.54035148369E+03  0.19919286016E+04  0.19172375513E+04 0.  0.
        5    1    3    3  502    0  0.21851449495E+03 -0.71111103895E+03 -0.89829448523E+03  0.11663543914E+04  0.46999998093E+01 0. -1.
       -5    1    3    3    0  502 -0.21851449495E+03  0.71111103895E+03  0.35794300155E+03  0.82557421022E+03  0.46999998093E+01 0.  1.
</event>
<event>
 5   0  0.1799738E-04  0.1903079E+04  0.7818609E-02  0.8653326E-01
       -2   -1    0    0    0  501  0.00000000000E+00  0.00000000000E+00  0.59352448115E+03  0.59352448115E+03  0.25500000920E-02 0. -1.
        2   -1    0    0  501    0  0.00000000000E+00  0.00000000000E+00 -0.15255090562E+04  0.15255090562E+04  0.25500000920E-02 0.  1.
    10030    2    1    2    0    0  0.00000000000E+00  0.00000000000E+00 -0.93198457507E+03  0.21190335374E+04  0.19030785282E+04 0.  0.
        1    1    3    3  502    0 -0.38987419332E+02  0.62931791515E+01 -0.15245961395E+04  0.15251075409E+04  0.50400001928E-02 0.  1.
       -1    1    3    3    0  502  0.38987419332E+02 -0.62931791515E+01  0.59261156439E+03  0.59392599643E+03  0.50400001928E-02 0. -1.
</event>
<event>
 5   0  0.8587082E-05  0.1891257E+04  0.7818609E-02  0.8659221E-01
        1   -1    0    0  501    0  0.00000000000E+00  0.00000000000E+00  0.32904916961E+03  0.32904916964E+03  0.50400001928E-02 0.  1.
       -1   -1    0    0    0  501  0.00000000000E+00  0.00000000000E+00 -0.27175672024E+04  0.27175672024E+04  0.50400001928E-02 0. -1.
    10030    2    1    2    0    0  0.00000000000E+00  0.00000000000E+00 -0.23885180328E+04  0.30466163721E+04  0.18912569697E+04 0.  0.
        5    1    3    3  502    0  0.70315788780E+02  0.35828068970E+03  0.21090112454E+03  0.42167610448E+03  0.46999998093E+01 0.  1.
       -5    1    3    3    0  502 -0.70315788780E+02 -0.35828068970E+03 -0.25994191574E+04  0.26249402676E+04  0.46999998093E+01 0. -1.
</event>
<event>
 5   0  0.8681396E-05  0.1918974E+04  0.7818609E-02  0.8645469E-01
        1   -1    0    0  501    0  0.00000000000E+00  0.00000000000E+00  0.12930634740E+04  0.12930634740E+04  0.50400001928E-02 0.  1.
       -1   -1    0    0    0  501  0.00000000000E+00  0.00000000000E+00 -0.71196427277E+03  0.71196427279E+03  0.50400001928E-02 0. -1.
    10030    2    1    2    0    0  0.00000000000E+00  0.00000000000E+00  0.58109920119E+03  0.20050277468E+04  0.19189736798E+04 0.  0.
        3    1    3    3  502    0 -0.26150117376E+03 -0.66480975755E+03  0.95978824987E+03  0.11964733062E+04  0.10100000352E+00 0.  1.
       -3    1    3    3    0  502  0.26150117376E+03  0.66480975755E+03 -0.37868904867E+03  0.80855444059E+03  0.10100000352E+00 0. -1.
</event>
<event>
 5   0  0.8567844E-05  0.1903746E+04  0.7818609E-02  0.8652994E-01
       -1   -1    0    0    0  501  0.00000000000E+00  0.00000000000E+00  0.54744899971E+03  0.54744899974E+03  0.50400001928E-02 0.  1.
        1   -1    0    0  501    0  0.00000000000E+00  0.00000000000E+00 -0.16550625005E+04  0.16550625005E+04  0.50400001928E-02 0. -1.
    10030    2    1    2    0    0  0.00000000000E+00  0.00000000000E+00 -0.11076135008E+04  0.22025115003E+04  0.19037461075E+04 0.  0.
        4    1    3    3  502    0  0.72281650053E+03 -0.31615217718E+02 -0.12694230273E+04  0.14611295804E+04  0.12699999809E+01 0. -1.
       -4    1    3    3    0  502 -0.72281650053E+03  0.31615217718E+02  0.16180952649E+03  0.74138191992E+03  0.12699999809E+01 0.  1.
</event>
<event>
 5   0  0.1790832E-04  0.1867710E+04  0.7818609E-02  0.8671098E-01
       -2   -1    0    0    0  501  0.00000000000E+00  0.00000000000E+00  0.41290813302E+03  0.41290813302E+03  0.25500000920E-02 0. -1.
        2   -1    0    0  501    0  0.00000000000E+00  0.00000000000E+00 -0.21120568833E+04  0.21120568833E+04  0.25500000920E-02 0.  1.
    10030    2    1    2    0    0  0.00000000000E+00  0.00000000000E+00 -0.16991487503E+04  0.25249650164E+04  0.18677103250E+04 0.  0.
        5    1    3    3  502    0  0.61152987002E+03 -0.17907096676E+03  0.73319865235E+02  0.64143049951E+03  0.46999998093E+01 0. -1.
       -5    1    3    3    0  502 -0.61152987002E+03  0.17907096676E+03 -0.17724686156E+04  0.18835345169E+04  0.46999998093E+01 0.  1.
</event>
<event>
 5   0  0.1799738E-04  0.1888712E+04  0.7818609E-02  0.8660495E-01
       -2   -1    0    0    0  501  0.00000000000E+00  0.00000000000E+00  0.58258409933E+03  0.58258409933E+03  0.25500000920E-02 0.  1.
        2   -1    0    0  501    0  0.00000000000E+00  0.00000000000E+00 -0.15307807018E+04  0.15307807018E+04  0.25500000920E-02 0. -1.
    10030    2    1    2    0    0  0.00000000000E+00  0.00000000000E+00 -0.94819660251E+03  0.21133648012E+04  0.18887122560E+04 0.  0.
        1    1    3    3  502    0 -0.84694258035E+03  0.10515182274E+03 -0.92646190694E+03  0.12596429277E+04  0.50400001928E-02 0. -1.
       -1    1    3    3    0  502  0.84694258035E+03 -0.10515182274E+03 -0.21734695564E+02  0.85372187348E+03  0.50400001928E-02 0.  1.
</event>
<event>
 5   0  0.8602017E-05  0.1912530E+04  0.7818609E-02  0.8648644E-01
        1   -1    0    0  501    0  0.00000000000E+00  0.00000000000E+00  0.84949679189E+03  0.84949679191E+03  0.50400001928E-02 0. -1.
       -1   -1    0    0    0  501  0.00000000000E+00  0.00000000000E+00 -0.10764524311E+04  0.10764524312E+04  0.50400001928E-02 0.  1.
    10030    2    1    2    0    0  0.00000000000E+00  0.00000000000E+00 -0.22695563925E+03  0.19259492231E+04  0.19125301429E+04 0.  0.
        2    1    3    3  502    0  0.71042045472E+02 -0.72034203892E+03 -0.74276498915E+03  0.10371303941E+04  0.25500000920E-02 0.  1.
       -2    1    3    3    0  502 -0.71042045472E+02  0.72034203892E+03  0.51580934990E+03  0.88881882896E+03  0.25500000920E-02 0. -1.
</event>
<event>
 5   0  0.8587082E-05  0.1893752E+04  0.7818609E-02  0.8657973E-01
       -1   -1    0    0    0  501  0.00000000000E+00  0.00000000000E+00  0.31896112017E+03  0.31896112021E+03  0.50400001928E-02 0.  1.
        1   -1    0    0  501    0  0.00000000000E+00  0.00000000000E+00 -0.28109205504E+04  0.28109205504E+04  0.50400001928E-02 0. -1.
    10030    2    1    2    0    0  0.00000000000E+00  0.00000000000E+00 -0.24919594303E+04  0.31298816706E+04  0.18937522199E+04 0.  0.
        5    1    3    3  502    0 -0.31076127200E+03 -0.64870429545E+03 -0.22828522732E+03  0.75466950788E+03  0.46999998093E+01 0.  1.
       -5    1    3    3    0  502  0.31076127200E+03  0.64870429545E+03 -0.22636742029E+04  0.23752121628E+04  0.46999998093E+01 0. -1.
</event>
<event>
 5   0  0.1765328E-04  0.1904274E+04  0.7818609E-02  0.8652732E-01
       -2   -1    0    0    0  501  0.00000000000E+00  0.00000000000E+00  0.47751925443E+03  0.47751925444E+03  0.25500000920E-02 0. -1.
        2   -1    0    0  501    0  0.00000000000E+00  0.00000000000E+00 -0.18984889108E+04  0.18984889108E+04  0.25500000920E-02 0.  1.
    10030    2    1    2    0    0  0.00000000000E+00  0.00000000000E+00 -0.14209696564E+04  0.23760081653E+04  0.19042741497E+04 0.  0.
        3    1    3    3  502    0 -0.58216342202E+03  0.74148388424E+03 -0.54377287358E+03  0.10883021404E+04  0.10100000352E+00 0. -1.
       -3    1    3    3    0  502  0.58216342202E+03 -0.74148388424E+03 -0.87719678281E+03  0.12877060249E+04  0.10100000352E+00 0.  1.
</event>
<event>
 5   0  0.1799738E-04  0.1916241E+04  0.7818609E-02  0.8646814E-01
       -2   -1    0    0    0  501  0.00000000000E+00  0.00000000000E+00  0.59157115839E+03  0.59157115840E+03  0.25500000920E-02 0.  1.
        2   -1    0    0  501    0  0.00000000000E+00  0.00000000000E+00 -0.15517916368E+04  0.15517916368E+04  0.25500000920E-02 0. -1.
    10030    2    1    2    0    0  0.00000000000E+00  0.00000000000E+00 -0.96022047845E+03  0.21433627952E+04  0.19162412961E+04 0.  0.
        1    1    3    3  502    0  0.89847376405E+03  0.29068566958E+03 -0.29891647882E+03  0.99050710473E+03  0.50400001928E-02 0. -1.
       -1    1    3    3    0  502 -0.89847376405E+03 -0.29068566958E+03 -0.66130399963E+03  0.11528556905E+04  0.50400001928E-02 0.  1.
</event>
<event>
 5   0  0.6375750E-05  0.1886970E+04  0.7818609E-02  0.8661369E-01
       -3   -1    0    0    0  501  0.00000000000E+00  0.00000000000E+00  0.16083479098E+04  0.16083479130E+04  0.10100000352E+00 0.  1.
        3   -1    0    0  501    0  0.00000000000E+00  0.00000000000E+00 -0.55346491716E+03  0.55346492638E+03  0.10100000352E+00 0. -1.
    10030    2    1    2    0    0  0.00000000000E+00  0.00000000000E+00  0.10548829926E+04  0.21618128394E+04  0.18869702235E+04 0.  0.
        2    1    3    3  502    0 -0.23097833543E+03  0.26662406942E+03 -0.47507007234E+03  0.59171864891E+03  0.25500000920E-02 0. -1.
       -2    1    3    3    0  502  0.23097833543E+03 -0.26662406942E+03  0.15299530650E+04  0.15700941904E+04  0.25500000920E-02 0.  1.
</event>
<event>
 5   0  0.8602017E-05  0.1904874E+04  0.7818609E-02  0.8652434E-01
        1   -1    0    0  501    0  0.00000000000E+00  0.00000000000E+00  0.89864820113E+03  0.89864820115E+03  0.50400001928E-02 0.  1.
       -1   -1    0    0    0  501  0.00000000000E+00  0.00000000000E+00 -0.10094451972E+04  0.10094451972E+04  0.50400001928E-02 0. -1.
    10030    2    1    2    0    0  0.00000000000E+00  0.00000000000E+00 -0.11079699602E+03  0.19080933983E+04  0.19048738652E+04 0.  0.
        2    1    3    3  502    0  0.47432337583E+03  0.16347942989E+03 -0.86635185320E+03  0.10011362157E+04  0.25500000920E-02 0. -1.
       -2    1    3    3    0  502 -0.47432337583E+03 -0.16347942989E+03  0.75555485718E+03  0.90695718260E+03  0.25500000920E-02 0.  1.
</event>
<event>
 5   0  0.8587082E-05  0.1899086E+04  0.7818609E-02  0.8655312E-01
       -1   -1    0    0    0  501  0.00000000000E+00  0.00000000000E+00  0.96834819688E+03  0.96834819690E+03  0.50400001928E-02 0. -1.
        1   -1    0    0  501    0  0.00000000000E+00  0.00000000000E+00 -0.93110279632E+03  0.93110279633E+03  0.50400001928E-02 0.  1.
    10030    2    1    2    0    0  0.00000000000E+00  0.00000000000E+00  0.37245400566E+02  0.18994509932E+04  0.18990857947E+04 0.  0.
        5    1    3    3  502    0 -0.59416217990E+03  0.10978611392E+03 -0.71399883095E+03  0.93535988124E+03  0.46999998093E+01 0.  1.
       -5    1    3    3    0  502  0.59416217990E+03 -0.10978611392E+03  0.75124423151E+03  0.96409111199E+03  0.46999998093E+01 0. -1.
</event>
<event>
 5   0  0.8602017E-05  0.1658344E+04  0.7818609E-02  0.8785486E-01
        1   -1    0    0  501    0  0.00000000000E+00  0.00000000000E+00  0.20855121304E+04  0.20855121304E+04  0.50400001928E-02 0.  1.
       -1   -1    0    0    0  501  0.00000000000E+00  0.00000000000E+00 -0.32966764954E+03  0.32966764958E+03  0.50400001928E-02 0. -1.
    10030    2    1    2    0    0  0.00000000000E+00  0.00000000000E+00  0.17558444809E+04  0.24151797800E+04  0.16583436100E+04 0.  0.
        2    1    3    3  502    0 -0.54204945426E+03  0.34805492011E+01 -0.35886968259E+02  0.54324727296E+03  0.25500000920E-02 0. -1.
       -2    1    3    3    0  502  0.54204945426E+03 -0.34805492011E+01  0.17917314491E+04  0.18719325070E+04  0.25500000920E-02 0.  1.
</event>
<event>
 5   0  0.8587082E-05  0.1899575E+04  0.7818609E-02  0.8655068E-01
        1   -1    0    0  501    0  0.00000000000E+00  0.00000000000E+00  0.96912107356E+03  0.96912107357E+03  0.50400001928E-02 0.  1.
       -1   -1    0    0    0  501  0.00000000000E+00  0.00000000000E+00 -0.93084006860E+03  0.93084006862E+03  0.50400001928E-02 0. -1.
    10030    2    1    2    0    0  0.00000000000E+00  0.00000000000E+00  0.38281004959E+02  0.18999611422E+04  0.18995754543E+04 0.  0.
        5    1    3    3  502    0 -0.18121783968E+03  0.64706561526E+03 -0.65221915825E+03  0.93645380893E+03  0.46999998093E+01 0. -1.
       -5    1    3    3    0  502  0.18121783968E+03 -0.64706561526E+03  0.69050016320E+03  0.96350733326E+03  0.46999998093E+01 0.  1.
</event>
<event>
 5   0  0.8602017E-05  0.1902006E+04  0.7818609E-02  0.8653859E-01
        1   -1    0    0  501    0  0.00000000000E+00  0.00000000000E+00  0.95635977104E+03  0.95635977105E+03  0.50400001928E-02 0. -1.
       -1   -1    0    0    0  501  0.00000000000E+00  0.00000000000E+00 -0.94567592045E+03  0.94567592047E+03  0.50400001928E-02 0.  1.
    10030    2    1    2    0    0  0.00000000000E+00  0.00000000000E+00  0.10683850583E+02  0.19020356915E+04  0.19020056854E+04 0.  0.
        2    1    3    3  502    0  0.25463292188E+03 -0.33762832319E+03 -0.84647876645E+03  0.94623311694E+03  0.25500000920E-02 0.  1.
       -2    1    3    3    0  502 -0.25463292188E+03  0.33762832319E+03  0.85716261704E+03  0.95580257458E+03  0.25500000920E-02 0. -1.
</event>
<event>
 5   0  0.1765328E-04  0.1864989E+04  0.7818609E-02  0.8672483E-01
       -2   -1    0    0    0  501  0.00000000000E+00  0.00000000000E+00  0.61440526408E+03  0.61440526408E+03  0.25500000920E-02 0. -1.
        2   -1    0    0  501    0  0.00000000000E+00  0.00000000000E+00 -0.14152638400E+04  0.14152638400E+04  0.25500000920E-02 0.  1.
    10030    2    1    2    0    0  0.00000000000E+00  0.00000000000E+00 -0.80085857594E+03  0.20296691041E+04  0.18649885290E+04 0.  0.
        3    1    3    3  502    0  0.46289613056E+03 -0.45168227128E+03  0.33064329026E+03  0.72637090902E+03  0.10100000352E+00 0. -1.
       -3    1    3    3    0  502 -0.46289613056E+03  0.45168227128E+03 -0.11315018662E+04  0.13032981951E+04  0.10100000352E+00 0.  1.
</event>
<event>
 5   0  0.1658711E-04  0.1931304E+04  0.7818609E-02  0.8639430E-01
        2   -1    0    0  501    0  0.00000000000E+00  0.00000000000E+00  0.11955700058E+04  0.11955700058E+04  0.25500000920E-02 0.  1.
       -2   -1    0    0    0  501  0.00000000000E+00  0.00000000000E+00 -0.77994874904E+03  0.77994874904E+03  0.25500000920E-02 0. -1.
    10030    2    1    2    0    0  0.00000000000E+00  0.00000000000E+00  0.41562125672E+03  0.19755187548E+04  0.19313035291E+04 0.  0.
        2    1    3    3  502    0 -0.40391641083E+03  0.53880342139E+02  0.11033143044E+04  0.11761607086E+04  0.25500000920E-02 0.  1.
       -2    1    3    3    0  502  0.40391641083E+03 -0.53880342139E+02 -0.68769304766E+03  0.79935804620E+03  0.25500000920E-02 0. -1.
</event>
<event>
 5   0  0.1799738E-04  0.1900533E+04  0.7818609E-02  0.8654591E-01
        2   -1    0    0  501    0  0.00000000000E+00  0.00000000000E+00  0.19983314022E+04  0.19983314022E+04  0.25500000920E-02 0.  1.
       -2   -1    0    0    0  501  0.00000000000E+00  0.00000000000E+00 -0.45188016930E+03  0.45188016931E+03  0.25500000920E-02 0. -1.
    10030    2    1    2    0    0  0.00000000000E+00  0.00000000000E+00  0.15464512329E+04  0.24502115715E+04  0.19005329067E+04 0.  0.
        1    1    3    3  502    0  0.74862330377E+03 -0.54658629676E+03  0.50337140456E+03  0.10547872779E+04  0.50400001928E-02 0. -1.
       -1    1    3    3    0  502 -0.74862330377E+03  0.54658629676E+03  0.10430798283E+04  0.13954242936E+04  0.50400001928E-02 0.  1.
</event>
<event>
 5   0  0.8602017E-05  0.1874953E+04  0.7818609E-02  0.8667425E-01
        1   -1    0    0  501    0  0.00000000000E+00  0.00000000000E+00  0.13853415701E+04  0.13853415701E+04  0.50400001928E-02 0. -1.
       -1   -1    0    0    0  501  0.00000000000E+00  0.00000000000E+00 -0.63440117241E+03  0.63440117243E+03  0.50400001928E-02 0.  1.
    10030    2    1    2    0    0  0.00000000000E+00  0.00000000000E+00  0.75094039766E+03  0.20197427425E+04  0.18749531368E+04 0.  0.
        2    1    3    3  502    0 -0.59651631949E+03 -0.72234994720E+03  0.41342073212E+03  0.10239813804E+04  0.25500000920E-02 0. -1.
       -2    1    3    3    0  502  0.59651631949E+03  0.72234994720E+03  0.33751966555E+03  0.99576136211E+03  0.25500000920E-02 0.  1.
</event>
<event>
 5   0  0.1810569E-04  0.1905830E+04  0.7818609E-02  0.8651960E-01
       -2   -1    0    0    0  501  0.00000000000E+00  0.00000000000E+00  0.95725253464E+03  0.95725253465E+03  0.25500000920E-02 0.  1.
        2   -1    0    0  501    0  0.00000000000E+00  0.00000000000E+00 -0.94859746783E+03  0.94859746783E+03  0.25500000920E-02 0. -1.
    10030    2    1    2    0    0  0.00000000000E+00  0.00000000000E+00  0.86550668141E+01  0.19058500025E+04  0.19058303497E+04 0.  0.
        4    1    3    3  502    0 -0.28883249217E+03 -0.55683912698E+03 -0.71300245186E+03  0.94966737921E+03  0.12699999809E+01 0. -1.
       -4    1    3    3    0  502  0.28883249217E+03  0.55683912698E+03  0.72165751868E+03  0.95618262327E+03  0.12699999809E+01 0.  1.
</event>
<event>
 5   0  0.8905646E-05  0.1890181E+04  0.7818609E-02  0.8659760E-01
        1   -1    0    0  501    0  0.00000000000E+00  0.00000000000E+00  0.17988266899E+04  0.17988266899E+04  0.50400001928E-02 0. -1.
       -1   -1    0    0    0  501  0.00000000000E+00  0.00000000000E+00 -0.49654353672E+03  0.49654353675E+03  0.50400001928E-02 0.  1.
    10030    2    1    2    0    0  0.00000000000E+00  0.00000000000E+00  0.13022831532E+04  0.22953702267E+04  0.18901806968E+04 0.  0.
        1    1    3    3  502    0 -0.45212571246E+03 -0.16070277438E+03  0.16399011477E+04  0.17086599474E+04  0.50400001928E-02 0. -1.
       -1    1    3    3    0  502  0.45212571246E+03  0.16070277438E+03 -0.33761799451E+03  0.58671027927E+03  0.50400001928E-02 0.  1.
</event>
<event>
 5   0  0.8567844E-05  0.1892592E+04  0.7818609E-02  0.8658553E-01
        1   -1    0    0  501    0  0.00000000000E+00  0.00000000000E+00  0.11165105426E+04  0.11165105426E+04  0.50400001928E-02 0.  1.
       -1   -1    0    0    0  501  0.00000000000E+00  0.00000000000E+00 -0.80203076023E+03  0.80203076025E+03  0.50400001928E-02 0. -1.
    10030    2    1    2    0    0  0.00000000000E+00  0.00000000000E+00  0.31447978233E+03  0.19185413028E+04  0.18925916615E+04 0.  0.
        4    1    3    3  502    0 -0.77010090298E+03 -0.53048974776E+03  0.30413854295E+03  0.98334970354E+03  0.12699999809E+01 0.  1.
       -4    1    3    3    0  502  0.77010090298E+03  0.53048974776E+03  0.10341239384E+02  0.93519159929E+03  0.12699999809E+01 0. -1.
</event>
<event>
 5   0  0.1765328E-04  0.1902702E+04  0.7818609E-02  0.8653513E-01
       -2   -1    0    0    0  501  0.00000000000E+00  0.00000000000E+00  0.50356436070E+03  0.50356436071E+03  0.25500000920E-02 0. -1.
        2   -1    0    0  501    0  0.00000000000E+00  0.00000000000E+00 -0.17973249432E+04  0.17973249432E+04  0.25500000920E-02 0.  1.
    10030    2    1    2    0    0  0.00000000000E+00  0.00000000000E+00 -0.12937605825E+04  0.23008893039E+04  0.19027020639E+04 0.  0.
        3    1    3    3  502    0  0.52603420114E+03  0.34794474109E+03 -0.15081786559E+04  0.16347416897E+04  0.10100000352E+00 0.  1.
       -3    1    3    3    0  502 -0.52603420114E+03 -0.34794474109E+03  0.21441807336E+03  0.66614761428E+03  0.10100000352E+00 0. -1.
</event>
<event>
 5   0  0.8587082E-05  0.1899631E+04  0.7818609E-02  0.8655040E-01
        1   -1    0    0  501    0  0.00000000000E+00  0.00000000000E+00  0.13488002543E+04  0.13488002543E+04  0.50400001928E-02 0. -1.
       -1   -1    0    0    0  501  0.00000000000E+00  0.00000000000E+00 -0.66885345751E+03  0.66885345752E+03  0.50400001928E-02 0.  1.
    10030    2    1    2    0    0  0.00000000000E+00  0.00000000000E+00  0.67994679678E+03  0.20176537118E+04  0.18996312417E+04 0.  0.
        5    1    3    3  502    0 -0.63950929278E+03  0.66928821139E+03  0.56580707864E+03  0.10849325259E+04  0.46999998093E+01 0. -1.
       -5    1    3    3    0  502  0.63950929278E+03 -0.66928821139E+03  0.11413971815E+03  0.93272118595E+03  0.46999998093E+01 0.  1.
</event>
<event>
 5   0  0.1765328E-04  0.1877532E+04  0.7818609E-02  0.8666122E-01
        2   -1    0    0  501    0  0.00000000000E+00  0.00000000000E+00  0.13964623349E+04  0.13964623349E+04  0.25500000920E-02 0. -1.
       -2   -1    0    0    0  501  0.00000000000E+00  0.00000000000E+00 -0.63108144288E+03  0.63108144289E+03  0.25500000920E-02 0.  1.
    10030    2    1    2    0    0  0.00000000000E+00  0.00000000000E+00  0.76538089203E+03  0.20275437778E+04  0.18775318535E+04 0.  0.
        3    1    3    3  502    0  0.11446294470E+03  0.13064963105E+03  0.13789577222E+04  0.13898544894E+04  0.10100000352E+00 0. -1.
       -3    1    3    3    0  502 -0.11446294470E+03 -0.13064963105E+03 -0.61357683019E+03  0.63768928841E+03  0.10100000352E+00 0.  1.
</event>
<event>
 5   0  0.8567844E-05  0.1879058E+04  0.7818609E-02  0.8665351E-01
        1   -1    0    0  501    0  0.00000000000E+00  0.00000000000E+00  0.54736351431E+03  0.54736351433E+03  0.50400001928E-02 0. -1.
       -1   -1    0    0    0  501  0.00000000000E+00  0.00000000000E+00 -0.16126659391E+04  0.16126659391E+04  0.50400001928E-02 0.  1.
    10030    2    1    2    0    0  0.00000000000E+00  0.00000000000E+00 -0.10653024248E+04  0.21600294534E+04  0.18790577382E+04 0.  0.
        4    1    3    3  502    0 -0.57229700033E+03  0.39465427324E+03  0.19386232419E+03  0.72170635692E+03  0.12699999809E+01 0. -1.
       -4    1    3    3    0  502  0.57229700033E+03 -0.39465427324E+03 -0.12591647489E+04  0.14383230965E+04  0.12699999809E+01 0.  1.
</event>
<event>
 5   0  0.8587082E-05  0.2023189E+04  0.7818609E-02  0.8595855E-01
        1   -1    0    0  501    0  0.00000000000E+00  0.00000000000E+00  0.25940456330E+04  0.25940456330E+04  0.50400001928E-02 0.  1.
       -1   -1    0    0    0  501  0.00000000000E+00  0.00000000000E+00 -0.39448926437E+03  0.39448926440E+03  0.50400001928E-02 0. -1.
    10030    2    1    2    0    0  0.00000000000E+00  0.00000000000E+00  0.21995563686E+04  0.29885348974E+04  0.20231887243E+04 0.  0.
        5    1    3    3  502    0 -0.69961077476E+03  0.86175408824E+02  0.21715145613E+04  0.22830635158E+04  0.46999998093E+01 0.  1.
       -5    1    3    3    0  502  0.69961077476E+03 -0.86175408824E+02  0.28041807294E+02  0.70547138156E+03  0.46999998093E+01 0. -1.
</event>
<event>
 5   0  0.1790832E-04  0.1977629E+04  0.7818609E-02  0.8617152E-01
       -2   -1    0    0    0  501  0.00000000000E+00  0.00000000000E+00  0.82488432527E+03  0.82488432527E+03  0.25500000920E-02 0. -1.
        2   -1    0    0  501    0  0.00000000000E+00  0.00000000000E+00 -0.11853221317E+04  0.11853221317E+04  0.25500000920E-02 0.  1.
    10030    2    1    2    0    0  0.00000000000E+00  0.00000000000E+00 -0.36043780644E+03  0.20102064570E+04  0.19776285261E+04 0.  0.
        5    1    3    3  502    0  0.69617961163E+03  0.61083999195E+03  0.17180972644E+03  0.94198313123E+03  0.46999998093E+01 0. -1.
       -5    1    3    3    0  502 -0.69617961163E+03 -0.61083999195E+03 -0.53224753288E+03  0.10682233257E+04  0.46999998093E+01 0.  1.
</event>
<event>
 5   0  0.8905646E-05  0.1856436E+04  0.7818609E-02  0.8676850E-01
        1   -1    0    0  501    0  0.00000000000E+00  0.00000000000E+00  0.63444352323E+03  0.63444352325E+03  0.50400001928E-02 0.  1.
       -1   -1    0    0    0  501  0.00000000000E+00  0.00000000000E+00 -0.13580233438E+04  0.13580233438E+04  0.50400001928E-02 0. -1.
    10030    2    1    2    0    0  0.00000000000E+00  0.00000000000E+00 -0.72357982059E+03  0.19924668671E+04  0.18564364949E+04 0.  0.
        1    1    3    3  502    0  0.41181720943E+03 -0.62746773435E+02  0.52848412328E+03  0.67292350245E+03  0.50400001928E-02 0.  1.
       -1    1    3    3    0  502 -0.41181720943E+03  0.62746773435E+02 -0.12520639439E+04  0.13195433646E+04  0.50400001928E-02 0. -1.
</event>
<event>
 5   0  0.1790832E-04  0.1924878E+04  0.7818609E-02  0.8642571E-01
       -2   -1    0    0    0  501  0.00000000000E+00  0.00000000000E+00  0.87600548643E+03  0.87600548643E+03  0.25500000920E-02 0. -1.
        2   -1    0    0  501    0  0.00000000000E+00  0.00000000000E+00 -0.10574003823E+04  0.10574003823E+04  0.25500000920E-02 0.  1.
    10030    2    1    2    0    0  0.00000000000E+00  0.00000000000E+00 -0.18139489587E+03  0.19334058687E+04  0.19248776961E+04 0.  0.
        5    1    3    3  502    0 -0.32952520393E+03  0.67109875612E+03  0.51804548251E+03  0.90958980449E+03  0.46999998093E+01 0. -1.
       -5    1    3    3    0  502  0.32952520393E+03 -0.67109875612E+03 -0.69944037838E+03  0.10238160642E+04  0.46999998093E+01 0.  1.
</event>
<event>
 5   0  0.8602017E-05  0.1903263E+04  0.7818609E-02  0.8653234E-01
        1   -1    0    0  501    0  0.00000000000E+00  0.00000000000E+00  0.12356165520E+04  0.12356165520E+04  0.50400001928E-02 0.  1.
       -1   -1    0    0    0  501  0.00000000000E+00  0.00000000000E+00 -0.73291523275E+03  0.73291523277E+03  0.50400001928E-02 0. -1.
    10030    2    1    2    0    0  0.00000000000E+00  0.00000000000E+00  0.50270131926E+03  0.19685317848E+04  0.19032626648E+04 0.  0.
        2    1    3    3  502    0 -0.13916911299E+03 -0.64196587821E+03  0.96352295605E+03  0.11661323757E+04  0.25500000920E-02 0.  1.
       -2    1    3    3    0  502  0.13916911299E+03  0.64196587821E+03 -0.46082163679E+03  0.80239940911E+03  0.25500000920E-02 0. -1.
</event>
<event>
 5   0  0.8681396E-05  0.1880136E+04  0.7818609E-02  0.8664808E-01
        1   -1    0    0  501    0  0.00000000000E+00  0.00000000000E+00  0.14659375079E+04  0.14659375079E+04  0.50400001928E-02 0. -1.
       -1   -1    0    0    0  501  0.00000000000E+00  0.00000000000E+00 -0.60284112175E+03  0.60284112177E+03  0.50400001928E-02 0.  1.
    10030    2    1    2    0    0  0.00000000000E+00  0.00000000000E+00  0.86309638613E+03  0.20687786297E+04  0.18801355395E+04 0.  0.
        3    1    3    3  502    0 -0.82142421472E+03  0.23475320053E+03 -0.86945112335E-01  0.85431073003E+03  0.10100000352E+00 0.  1.
       -3    1    3    3    0  502  0.82142421472E+03 -0.23475320053E+03  0.86318333124E+03  0.12144678996E+04  0.10100000352E+00 0. -1.
</event>
<event>
 5   0  0.8587082E-05  0.1899458E+04  0.7818609E-02  0.8655126E-01
        1   -1    0    0  501    0  0.00000000000E+00  0.00000000000E+00  0.77595921123E+03  0.77595921125E+03  0.50400001928E-02 0.  1.
       -1   -1    0    0    0  501  0.00000000000E+00  0.00000000000E+00 -0.11624126501E+04  0.11624126501E+04  0.50400001928E-02 0. -1.
    10030    2    1    2    0    0  0.00000000000E+00  0.00000000000E+00 -0.38645343882E+03  0.19383718613E+04  0.18994576100E+04 0.  0.
        5    1    3    3  502    0 -0.18699035186E+03  0.23513794409E+03  0.72617912850E+03  0.78588387253E+03  0.46999998093E+01 0.  1.
       -5    1    3    3    0  502  0.18699035186E+03 -0.23513794409E+03 -0.11126325673E+04  0.11524879888E+04  0.46999998093E+01 0. -1.
</event>
<event>
 5   0  0.1658711E-04  0.1897381E+04  0.7818609E-02  0.8656161E-01
        2   -1    0    0  501    0  0.00000000000E+00  0.00000000000E+00  0.13083077887E+04  0.13083077887E+04  0.25500000920E-02 0.  1.
       -2   -1    0    0    0  501  0.00000000000E+00  0.00000000000E+00 -0.68792168284E+03  0.68792168284E+03  0.25500000920E-02 0. -1.
    10030    2    1    2    0    0  0.00000000000E+00  0.00000000000E+00  0.62038610587E+03  0.19962294716E+04  0.18973806109E+04 0.  0.
        2    1    3    3  502    0 -0.64405542382E+03 -0.28651178353E+03  0.97818543556E+03  0.12057127093E+04  0.25500000920E-02 0.  1.
       -2    1    3    3    0  502  0.64405542382E+03  0.28651178353E+03 -0.35779932969E+03  0.79051676224E+03  0.25500000920E-02 0. -1.
</event>
<event>
 5   0  0.1799738E-04  0.1886415E+04  0.7818609E-02  0.8661648E-01
       -2   -1    0    0    0  501  0.00000000000E+00  0.00000000000E+00  0.67925505561E+03  0.67925505562E+03  0.25500000920E-02 0.  1.
        2   -1    0    0  501    0  0.00000000000E+00  0.00000000000E+00 -0.13097299042E+04  0.13097299042E+04  0.25500000920E-02 0. -1.
    10030    2    1    2    0    0  0.00000000000E+00  0.00000000000E+00 -0.63047484856E+03  0.19889849598E+04  0.18864152872E+04 0.  0.
        1    1    3    3  502    0  0.21177201336E+03  0.85155717318E+02 -0.12801710292E+04  0.13003602369E+04  0.50400001928E-02 0. -1.
       -1    1    3    3    0  502 -0.21177201336E+03 -0.85155717318E+02  0.64969618060E+03  0.68862472287E+03  0.50400001928E-02 0.  1.
</event>
<event>
 5   0  0.8905646E-05  0.1911622E+04  0.7818609E-02  0.8649093E-01
        1   -1    0    0  501    0  0.00000000000E+00  0.00000000000E+00  0.19041380375E+04  0.19041380375E+04  0.50400001928E-02 0.  1.
       -1   -1    0    0    0  501  0.00000000000E+00  0.00000000000E+00 -0.47978388123E+03  0.47978388126E+03  0.50400001928E-02 0. -1.
    10030    2    1    2    0    0  0.00000000000E+00  0.00000000000E+00  0.14243541562E+04  0.23839219187E+04  0.19116220736E+04 0.  0.
        1    1    3    3  502    0 -0.74683650191E+03 -0.53868717443E+03  0.39270838408E+03  0.10010836665E+04  0.50400001928E-02 0. -1.
       -1    1    3    3    0  502  0.74683650191E+03  0.53868717443E+03  0.10316457722E+04  0.13828382522E+04  0.50400001928E-02 0.  1.
</event>
<event>
 5   0  0.8681396E-05  0.1900837E+04  0.7818609E-02  0.8654440E-01
        1   -1    0    0  501    0  0.00000000000E+00  0.00000000000E+00  0.93068335976E+03  0.93068335978E+03  0.50400001928E-02 0.  1.
       -1   -1    0    0    0  501  0.00000000000E+00  0.00000000000E+00 -0.97057241328E+03  0.97057241330E+03  0.50400001928E-02 0. -1.
    10030    2    1    2    0    0  0.00000000000E+00  0.00000000000E+00 -0.39889053518E+02  0.19012557731E+04  0.19008372834E+04 0.  0.
        3    1    3    3  502    0 -0.44837952412E+03 -0.35394252109E+03  0.73981211934E+03  0.93468790942E+03  0.10100000352E+00 0.  1.
       -3    1    3    3    0  502  0.44837952412E+03  0.35394252109E+03 -0.77970117286E+03  0.96656786365E+03  0.10100000352E+00 0. -1.
</event>
<event>
 5   0  0.8681396E-05  0.1930866E+04  0.7818609E-02  0.8639643E-01
       -1   -1    0    0    0  501  0.00000000000E+00  0.00000000000E+00  0.83750376669E+03  0.83750376671E+03  0.50400001928E-02 0. -1.
        1   -1    0    0  501    0  0.00000000000E+00  0.00000000000E+00 -0.11129039557E+04  0.11129039557E+04  0.50400001928E-02 0.  1.
    10030    2    1    2    0    0  0.00000000000E+00  0.00000000000E+00 -0.27540018904E+03  0.19504077225E+04  0.19308663909E+04 0.  0.
        3    1    3    3  502    0  0.26002244682E+03  0.17710099031E+03  0.78427203494E+03  0.84502015870E+03  0.10100000352E+00 0. -1.
       -3    1    3    3    0  502 -0.26002244682E+03 -0.17710099031E+03 -0.10596722240E+04  0.11053875637E+04  0.10100000352E+00 0.  1.
</event>
<event>
 5   0  0.8602017E-05  0.1561339E+04  0.7818609E-02  0.8844658E-01
        1   -1    0    0  501    0  0.00000000000E+00  0.00000000000E+00  0.18724159920E+04  0.18724159921E+04  0.50400001928E-02 0.  1.
       -1   -1    0    0    0  501  0.00000000000E+00  0.00000000000E+00 -0.32548571814E+03  0.32548571817E+03  0.50400001928E-02 0. -1.
    10030    2    1    2    0    0  0.00000000000E+00  0.00000000000E+00  0.15469302739E+04  0.21979017102E+04  0.15613387382E+04 0.  0.
        2    1    3    3  502    0  0.78055257179E+03  0.13503417150E+02  0.77355703890E+03  0.10990155377E+04  0.25500000920E-02 0.  1.
       -2    1    3    3    0  502 -0.78055257179E+03 -0.13503417150E+02  0.77337323501E+03  0.10988861726E+04  0.25500000920E-02 0. -1.
</event>
<event>
 5   0  0.1799738E-04  0.1644948E+04  0.7818609E-02  0.8793401E-01
       -2   -1    0    0    0  501  0.00000000000E+00  0.00000000000E+00  0.53135145410E+03  0.53135145411E+03  0.25500000920E-02 0. -1.
        2   -1    0    0  501    0  0.00000000000E+00  0.00000000000E+00 -0.12730994952E+04  0.12730994952E+04  0.25500000920E-02 0.  1.
    10030    2    1    2    0    0  0.00000000000E+00  0.00000000000E+00 -0.74174804108E+03  0.18044509493E+04  0.16449477414E+04 0.  0.
        1    1    3    3  502    0  0.20608450503E+02 -0.68220628354E+03  0.13257596574E+03  0.69527441219E+03  0.50400001928E-02 0. -1.
       -1    1    3    3    0  502 -0.20608450503E+02  0.68220628354E+03 -0.87432400683E+03  0.11091765371E+04  0.50400001928E-02 0.  1.
</event>
<event>
 5   0  0.1765328E-04  0.1890179E+04  0.7818609E-02  0.8659761E-01
       -2   -1    0    0    0  501  0.00000000000E+00  0.00000000000E+00  0.81060350201E+03  0.81060350201E+03  0.25500000920E-02 0.  1.
        2   -1    0    0  501    0  0.00000000000E+00  0.00000000000E+00 -0.11018873283E+04  0.11018873284E+04  0.25500000920E-02 0. -1.
    10030    2    1    2    0    0  0.00000000000E+00  0.00000000000E+00 -0.29128382634E+03  0.19124908304E+04  0.18901785389E+04 0.  0.
        3    1    3    3  502    0 -0.66119551701E+03 -0.45765573602E+03  0.35677312350E+03  0.87972459115E+03  0.10100000352E+00 0.  1.
       -3    1    3    3    0  502  0.66119551701E+03  0.45765573602E+03 -0.64805694984E+03  0.10327662392E+04  0.10100000352E+00 0. -1.
</event>
<event>
 5   0  0.8681396E-05  0.1972128E+04  0.7818609E-02  0.8619764E-01
        1   -1    0    0  501    0  0.00000000000E+00  0.00000000000E+00  0.81365726132E+03  0.81365726133E+03  0.50400001928E-02 0.  1.
       -1   -1    0    0    0  501  0.00000000000E+00  0.00000000000E+00 -0.11950021820E+04  0.11950021820E+04  0.50400001928E-02 0. -1.
    10030    2    1    2    0    0  0.00000000000E+00  0.00000000000E+00 -0.38134492067E+03  0.20086594433E+04  0.19721279905E+04 0.  0.
        3    1    3    3  502    0 -0.56259698486E+03  0.37037562397E+03  0.54282648916E+03  0.86507460819E+03  0.10100000352E+00 0.  1.
       -3    1    3    3    0  502  0.56259698486E+03 -0.37037562397E+03 -0.92417140983E+03  0.11435848351E+04  0.10100000352E+00 0. -1.
</event>
<event>
 5   0  0.1810569E-04  0.1525798E+04  0.7818609E-02  0.8867476E-01
        2   -1    0    0  501    0  0.00000000000E+00  0.00000000000E+00  0.97455653068E+03  0.97455653069E+03  0.25500000920E-02 0. -1.
       -2   -1    0    0    0  501  0.00000000000E+00  0.00000000000E+00 -0.59721021905E+03  0.59721021905E+03  0.25500000920E-02 0.  1.
    10030    2    1    2    0    0  0.00000000000E+00  0.00000000000E+00  0.37734631164E+03  0.15717667497E+04  0.15257983080E+04 0.  0.
        4    1    3    3  502    0 -0.54810348629E+03 -0.52953032692E+03  0.15308217781E+03  0.77733877098E+03  0.12699999809E+01 0.  1.
       -4    1    3    3    0  502  0.54810348629E+03  0.52953032692E+03  0.22426413383E+03  0.79442797876E+03  0.12699999809E+01 0. -1.
</event>
<event>
 5   0  0.8681396E-05  0.1658069E+04  0.7818609E-02  0.8785647E-01
       -1   -1    0    0    0  501  0.00000000000E+00  0.00000000000E+00  0.37017470798E+03  0.37017470801E+03  0.50400001928E-02 0.  1.
        1   -1    0    0  501    0  0.00000000000E+00  0.00000000000E+00 -0.18566857891E+04  0.18566857891E+04  0.50400001928E-02 0. -1.
    10030    2    1    2    0    0  0.00000000000E+00  0.00000000000E+00 -0.14865110811E+04  0.22268604971E+04  0.16580689006E+04 0.  0.
        3    1    3    3  502    0 -0.22409058071E+03 -0.56676393681E+03 -0.14980659208E+04  0.16172938699E+04  0.10100000352E+00 0. -1.
       -3    1    3    3    0  502  0.22409058071E+03  0.56676393681E+03  0.11554839701E+02  0.60956662717E+03  0.10100000352E+00 0.  1.
</event>
<event>
 5   0  0.8681396E-05  0.1921174E+04  0.7818609E-02  0.8644388E-01
        1   -1    0    0  501    0  0.00000000000E+00  0.00000000000E+00  0.12554387351E+04  0.12554387351E+04  0.50400001928E-02 0.  1.
       -1   -1    0    0    0  501  0.00000000000E+00  0.00000000000E+00 -0.73498438257E+03  0.73498438259E+03  0.50400001928E-02 0. -1.
    10030    2    1    2    0    0  0.00000000000E+00  0.00000000000E+00  0.52045435250E+03  0.19904231177E+04  0.19211744987E+04 0.  0.
        3    1    3    3  502    0  0.46977661091E+03  0.59192051742E+03  0.87461832713E+03  0.11558620988E+04  0.10100000352E+00 0. -1.
       -3    1    3    3    0  502 -0.46977661091E+03 -0.59192051742E+03 -0.35416397462E+03  0.83456101887E+03  0.10100000352E+00 0.  1.
</event>
<event>
 5   0  0.1765328E-04  0.1892153E+04  0.7818609E-02  0.8658772E-01
       -2   -1    0    0    0  501  0.00000000000E+00  0.00000000000E+00  0.39412908083E+03  0.39412908083E+03  0.25500000920E-02 0. -1.
        2   -1    0    0  501    0  0.00000000000E+00  0.00000000000E+00 -0.22709833036E+04  0.22709833036E+04  0.25500000920E-02 0.  1.
    10030    2    1    2    0    0  0.00000000000E+00  0.00000000000E+00 -0.18768542228E+04  0.26651123844E+04  0.18921528078E+04 0.  0.
        3    1    3    3  502    0 -0.43428467977E+03 -0.60541072385E+03 -0.11721110588E+03  0.75423058886E+03  0.10100000352E+00 0. -1.
       -3    1    3    3    0  502  0.43428467977E+03  0.60541072385E+03 -0.17596431169E+04  0.19108817956E+04  0.10100000352E+00 0.  1.
</event>
<event>
 5   0  0.8567844E-05  0.1896643E+04  0.7818609E-02  0.8656529E-01
        1   -1    0    0  501    0  0.00000000000E+00  0.00000000000E+00  0.15798079299E+04  0.15798079300E+04  0.50400001928E-02 0. -1.
       -1   -1    0    0    0  501  0.00000000000E+00  0.00000000000E+00 -0.56925504909E+03  0.56925504912E+03  0.50400001928E-02 0.  1.
    10030    2    1    2    0    0  0.00000000000E+00  0.00000000000E+00  0.10105528809E+04  0.21490629791E+04  0.18966429719E+04 0.  0.
        4    1    3    3  502    0 -0.20805767966E+03  0.81771016466E+03  0.99575311169E+03  0.13051681056E+04  0.12699999809E+01 0. -1.
       -4    1    3    3    0  502  0.20805767966E+03 -0.81771016466E+03  0.14799769161E+02  0.84389487350E+03  0.12699999809E+01 0.  1.
</event>
<event>
 5   0  0.8681396E-05  0.1883713E+04  0.7818609E-02  0.8663006E-01
       -1   -1    0    0    0  501  0.00000000000E+00  0.00000000000E+00  0.10397998412E+04  0.10397998412E+04  0.50400001928E-02 0.  1.
        1   -1    0    0  501    0  0.00000000000E+00  0.00000000000E+00 -0.85313922528E+03  0.85313922530E+03  0.50400001928E-02 0. -1.
    10030    2    1    2    0    0  0.00000000000E+00  0.00000000000E+00  0.18666061587E+03  0.18929390665E+04  0.18837133869E+04 0.  0.
        3    1    3    3  502    0  0.23144734757E+03 -0.35378470044E+03 -0.75243448165E+03  0.86306960805E+03  0.10100000352E+00 0. -1.
       -3    1    3    3    0  502 -0.23144734757E+03  0.35378470044E+03  0.93909509752E+03  0.10298694584E+04  0.10100000352E+00 0.  1.
</event>
<event>
 5   0  0.1658711E-04  0.1896511E+04  0.7818609E-02  0.8656595E-01
       -2   -1    0    0    0  501  0.00000000000E+00  0.00000000000E+00  0.45809910464E+03  0.45809910465E+03  0.25500000920E-02 0. -1.
        2   -1    0    0  501    0  0.00000000000E+00  0.00000000000E+00 -0.19628694411E+04  0.19628694411E+04  0.25500000920E-02 0.  1.
    10030    2    1    2    0    0  0.00000000000E+00  0.00000000000E+00 -0.15047703364E+04  0.24209685457E+04  0.18965112533E+04 0.  0.
        2    1    3    3  502    0 -0.43262899002E+03 -0.61301267852E+03 -0.14925970497E+04  0.16705682686E+04  0.25500000920E-02 0.  1.
       -2    1    3    3    0  502  0.43262899002E+03  0.61301267852E+03 -0.12173286682E+02  0.75040027715E+03  0.25500000920E-02 0. -1.
</event>
<event>
 5   0  0.8567844E-05  0.1919992E+04  0.7818609E-02  0.8644969E-01
       -1   -1    0    0    0  501  0.00000000000E+00  0.00000000000E+00  0.69473929105E+03  0.69473929107E+03  0.50400001928E-02 0.  1.
        1   -1    0    0  501    0  0.00000000000E+00  0.00000000000E+00 -0.13265291797E+04  0.13265291797E+04  0.50400001928E-02 0. -1.
    10030    2    1    2    0    0  0.00000000000E+00  0.00000000000E+00 -0.63178988865E+03  0.20212684708E+04  0.19199916061E+04 0.  0.
        4    1    3    3  502    0 -0.14840120668E+03 -0.21422545231E+03  0.65678714550E+03  0.70660203081E+03  0.12699999809E+01 0.  1.
       -4    1    3    3    0  502  0.14840120668E+03  0.21422545231E+03 -0.12885770341E+04  0.13146664400E+04  0.12699999809E+01 0. -1.
</event>
<event>
 5   0  0.1799738E-04  0.1890376E+04  0.7818609E-02  0.8659662E-01
        2   -1    0    0  501    0  0.00000000000E+00  0.00000000000E+00  0.50296910915E+03  0.50296910916E+03  0.25500000920E-02 0. -1.
       -2   -1    0    0    0  501  0.00000000000E+00  0.00000000000E+00 -0.17762133392E+04  0.17762133392E+04  0.25500000920E-02 0.  1.
    10030    2    1    2    0    0  0.00000000000E+00  0.00000000000E+00 -0.12732442301E+04  0.22791824484E+04  0.18903760905E+04 0.  0.
        1    1    3    3  502    0 -0.77085419206E+03  0.64505272129E+02 -0.12914758846E+04  0.15054192360E+04  0.50400001928E-02 0.  1.
       -1    1    3    3    0  502  0.77085419206E+03 -0.64505272129E+02  0.18231654565E+02  0.77376321236E+03  0.50400001928E-02 0. -1.
</event>
<event>
 5   0  0.8602017E-05  0.1901349E+04  0.7818609E-02  0.8654185E-01
       -1   -1    0    0    0  501  0.00000000000E+00  0.00000000000E+00  0.59128440655E+03  0.59128440657E+03  0.50400001928E-02 0.  1.
        1   -1    0    0  501    0  0.00000000000E+00  0.00000000000E+00 -0.15285068711E+04  0.15285068711E+04  0.50400001928E-02 0. -1.
    10030    2    1    2    0    0  0.00000000000E+00  0.00000000000E+00 -0.93722246454E+03  0.21197912777E+04  0.19013492874E+04 0.  0.
        2    1    3    3  502    0  0.60913492159E+03 -0.71243312718E+03 -0.29171268925E+03  0.98168355720E+03  0.25500000920E-02 0.  1.
       -2    1    3    3    0  502 -0.60913492159E+03  0.71243312718E+03 -0.64550977529E+03  0.11381077205E+04  0.25500000920E-02 0. -1.
</event>
<event>
 5   0  0.8567844E-05  0.1882384E+04  0.7818609E-02  0.8663675E-01
       -1   -1    0    0    0  501  0.00000000000E+00  0.00000000000E+00  0.68190374261E+03  0.68190374263E+03  0.50400001928E-02 0. -1.
        1   -1    0    0  501    0  0.00000000000E+00  0.00000000000E+00 -0.12990722057E+04  0.12990722058E+04  0.50400001928E-02 0.  1.
    10030    2    1    2    0    0  0.00000000000E+00  0.00000000000E+00 -0.61716846313E+03  0.19809759484E+04  0.18823838068E+04 0.  0.
        4    1    3    3  502    0 -0.78175567741E+03 -0.42745723408E+03 -0.62774924026E+03  0.10899230926E+04  0.12699999809E+01 0.  1.
       -4    1    3    3    0  502  0.78175567741E+03  0.42745723408E+03  0.10580777123E+02  0.89105285583E+03  0.12699999809E+01 0. -1.
</event>
<event>
 5   0  0.1765328E-04  0.1898538E+04  0.7818609E-02  0.8655584E-01
       -2   -1    0    0    0  501  0.00000000000E+00  0.00000000000E+00  0.39017549270E+03  0.39017549271E+03  0.25500000920E-02 0.  1.
        2   -1    0    0  501    0  0.00000000000E+00  0.00000000000E+00 -0.23095045416E+04  0.23095045416E+04  0.25500000920E-02 0. -1.
    10030    2    1    2    0    0  0.00000000000E+00  0.00000000000E+00 -0.19193290489E+04  0.26996800343E+04  0.18985384615E+04 0.  0.
        3    1    3    3  502    0  0.17100376167E+02 -0.69061253509E+03 -0.18854519261E+04  0.20080256653E+04  0.10100000352E+00 0. -1.
       -3    1    3    3    0  502 -0.17100376167E+02  0.69061253509E+03 -0.33877122718E+02  0.69165436898E+03  0.10100000352E+00 0.  1.
</event>
<event>
 5   0  0.8681396E-05  0.1911230E+04  0.7818609E-02  0.8649287E-01
        1   -1    0    0  501    0  0.00000000000E+00  0.00000000000E+00  0.11732833443E+04  0.11732833443E+04  0.50400001928E-02 0.  1.
       -1   -1    0    0    0  501  0.00000000000E+00  0.00000000000E+00 -0.77832861869E+03  0.77832861870E+03  0.50400001928E-02 0. -1.
    10030    2    1    2    0    0  0.00000000000E+00  0.00000000000E+00  0.39495472558E+03  0.19516119630E+04  0.19112299754E+04 0.  0.
        3    1    3    3  502    0  0.49430346107E+03  0.51429756513E+03  0.84680777436E+03  0.11072133101E+04  0.10100000352E+00 0.  1.
       -3    1    3    3    0  502 -0.49430346107E+03 -0.51429756513E+03 -0.45185304878E+03  0.84439865290E+03  0.10100000352E+00 0. -1.
</event>
<event>
 5   0  0.1658711E-04  0.1909773E+04  0.7818609E-02  0.8650007E-01
       -2   -1    0    0    0  501  0.00000000000E+00  0.00000000000E+00  0.98931597691E+03  0.98931597692E+03  0.25500000920E-02 0. -1.
        2   -1    0    0  501    0  0.00000000000E+00  0.00000000000E+00 -0.92165544935E+03  0.92165544935E+03  0.25500000920E-02 0.  1.
    10030    2    1    2    0    0  0.00000000000E+00  0.00000000000E+00  0.67660527569E+02  0.19109714263E+04  0.19097732444E+04 0.  0.
        2    1    3    3  502    0 -0.68195729735E+03 -0.34173484858E+03  0.60861210012E+03  0.97583664133E+03  0.25500000920E-02 0. -1.
       -2    1    3    3    0  502  0.68195729735E+03  0.34173484858E+03 -0.54095157256E+03  0.93513478494E+03  0.25500000920E-02 0.  1.
</event>
<event>
 5   0  0.1765328E-04  0.1910824E+04  0.7818609E-02  0.8649487E-01
       -2   -1    0    0    0  501  0.00000000000E+00  0.00000000000E+00  0.81709328998E+03  0.81709328999E+03  0.25500000920E-02 0. -1.
        2   -1    0    0  501    0  0.00000000000E+00  0.00000000000E+00 -0.11171450743E+04  0.11171450743E+04  0.25500000920E-02 0.  1.
    10030    2    1    2    0    0  0.00000000000E+00  0.00000000000E+00 -0.30005178432E+03  0.19342383643E+04  0.19108236383E+04 0.  0.
        3    1    3    3  502    0  0.67998483397E+03  0.19795604982E+03 -0.79916848437E+03  0.10678184531E+04  0.10100000352E+00 0.  1.
       -3    1    3    3    0  502 -0.67998483397E+03 -0.19795604982E+03  0.49911670005E+03  0.86641991123E+03  0.10100000352E+00 0. -1.
</event>
<event>
 5   0  0.1658711E-04  0.1906633E+04  0.7818609E-02  0.8651562E-01
       -2   -1    0    0    0  501  0.00000000000E+00  0.00000000000E+00  0.11534943249E+04  0.11534943249E+04  0.25500000920E-02 0. -1.
        2   -1    0    0  501    0  0.00000000000E+00  0.00000000000E+00 -0.78787758301E+03  0.78787758301E+03  0.25500000920E-02 0.  1.
    10030    2    1    2    0    0  0.00000000000E+00  0.00000000000E+00  0.36561674184E+03  0.19413719079E+04  0.19066329701E+04 0.  0.
        2    1    3    3  502    0  0.14439045043E+03  0.44540801139E+02 -0.77560653846E+03  0.79018857727E+03  0.25500000920E-02 0.  1.
       -2    1    3    3    0  502 -0.14439045043E+03 -0.44540801139E+02  0.11412232803E+04  0.11511833306E+04  0.25500000920E-02 0. -1.
</event>
<event>
 5   0  0.1658711E-04  0.1921568E+04  0.7818609E-02  0.8644195E-01
       -2   -1    0    0    0  501  0.00000000000E+00  0.00000000000E+00  0.87768876688E+03  0.87768876688E+03  0.25500000920E-02 0. -1.
        2   -1    0    0  501    0  0.00000000000E+00  0.00000000000E+00 -0.10517459104E+04  0.10517459104E+04  0.25500000920E-02 0.  1.
    10030    2    1    2    0    0  0.00000000000E+00  0.00000000000E+00 -0.17405714354E+03  0.19294346773E+04  0.19215676633E+04 0.  0.
        2    1    3    3  502    0  0.58862339876E+03 -0.12519559584E+03 -0.83906360476E+03  0.10325595264E+04  0.25500000920E-02 0. -1.
       -2    1    3    3    0  502 -0.58862339876E+03  0.12519559584E+03  0.66500646122E+03  0.89687515087E+03  0.25500000920E-02 0.  1.
</event>
<event>
 5   0  0.8587082E-05  0.1881487E+04  0.7818609E-02  0.8664127E-01
        1   -1    0    0  501    0  0.00000000000E+00  0.00000000000E+00  0.18904810961E+04  0.18904810961E+04  0.50400001928E-02 0.  1.
       -1   -1    0    0    0  501  0.00000000000E+00  0.00000000000E+00 -0.46813393385E+03  0.46813393387E+03  0.50400001928E-02 0. -1.
    10030    2    1    2    0    0  0.00000000000E+00  0.00000000000E+00  0.14223471623E+04  0.23586150300E+04  0.18814870209E+04 0.  0.
        5    1    3    3  502    0  0.31513788275E+03 -0.37043262497E+03  0.17206404946E+04  0.17880598470E+04  0.46999998093E+01 0.  1.
       -5    1    3    3    0  502 -0.31513788275E+03  0.37043262497E+03 -0.29829333230E+03  0.57055518303E+03  0.46999998093E+01 0. -1.
</event>
<event>
 5   0  0.8567844E-05  0.1930432E+04  0.7818609E-02  0.8639855E-01
        1   -1    0    0  501    0  0.00000000000E+00  0.00000000000E+00  0.82757147547E+03  0.82757147548E+03  0.50400001928E-02 0.  1.
       -1   -1    0    0    0  501  0.00000000000E+00  0.00000000000E+00 -0.11257541372E+04  0.11257541372E+04  0.50400001928E-02 0. -1.
    10030    2    1    2    0    0  0.00000000000E+00  0.00000000000E+00 -0.29818266173E+03  0.19533256127E+04  0.19304320888E+04 0.  0.
        4    1    3    3  502    0 -0.27003869822E+03  0.78421995624E+02 -0.10833884517E+04  0.11192868525E+04  0.12699999809E+01 0. -1.
       -4    1    3    3    0  502  0.27003869822E+03 -0.78421995624E+02  0.78520579001E+03  0.83403876019E+03  0.12699999809E+01 0.  1.
</event>
<event>
 5   0  0.1658711E-04  0.1886503E+04  0.7818609E-02  0.8661604E-01
       -2   -1    0    0    0  501  0.00000000000E+00  0.00000000000E+00  0.43127773620E+03  0.43127773621E+03  0.25500000920E-02 0. -1.
        2   -1    0    0  501    0  0.00000000000E+00  0.00000000000E+00 -0.20629930159E+04  0.20629930159E+04  0.25500000920E-02 0.  1.
    10030    2    1    2    0    0  0.00000000000E+00  0.00000000000E+00 -0.16317152797E+04  0.24942707521E+04  0.18865025393E+04 0.  0.
        2    1    3    3  502    0  0.69524447407E+03 -0.29354733227E+03 -0.15640077682E+04  0.17365641980E+04  0.25500000920E-02 0.  1.
       -2    1    3    3    0  502 -0.69524447407E+03  0.29354733227E+03 -0.67707511571E+02  0.75770655411E+03  0.25500000920E-02 0. -1.
</event>
<event>
 5   0  0.1658711E-04  0.1881490E+04  0.7818609E-02  0.8664125E-01
        2   -1    0    0  501    0  0.00000000000E+00  0.00000000000E+00  0.13227575298E+04  0.13227575298E+04  0.25500000920E-02 0. -1.
       -2   -1    0    0    0  501  0.00000000000E+00  0.00000000000E+00 -0.66905740003E+03  0.66905740004E+03  0.25500000920E-02 0.  1.
    10030    2    1    2    0    0  0.00000000000E+00  0.00000000000E+00  0.65370012978E+03  0.19918149299E+04  0.18814895310E+04 0.  0.
        2    1    3    3  502    0  0.75947095714E+03  0.26131928932E+03  0.84538439498E+03  0.11660869097E+04  0.25500000920E-02 0. -1.
       -2    1    3    3    0  502 -0.75947095714E+03 -0.26131928932E+03 -0.19168426520E+03  0.82572802014E+03  0.25500000920E-02 0.  1.
</event>
<event>
 5   0  0.6375750E-05  0.1921326E+04  0.7818609E-02  0.8644313E-01
       -3   -1    0    0    0  501  0.00000000000E+00  0.00000000000E+00  0.13053133030E+04  0.13053133069E+04  0.10100000352E+00 0. -1.
        3   -1    0    0  501    0  0.00000000000E+00  0.00000000000E+00 -0.70701265244E+03  0.70701265965E+03  0.10100000352E+00 0.  1.
    10030    2    1    2    0    0  0.00000000000E+00  0.00000000000E+00  0.59830065057E+03  0.20123259666E+04  0.19213256172E+04 0.  0.
        3    1    3    3  502    0  0.94798289910E+03 -0.55363344288E+02  0.14688104330E+03  0.96089059104E+03  0.10100000352E+00 0. -1.
       -3    1    3    3    0  502 -0.94798289910E+03  0.55363344288E+02  0.45141960727E+03  0.10514353755E+04  0.10100000352E+00 0.  1.
</event>
<event>
 5   0  0.1765328E-04  0.1906623E+04  0.7818609E-02  0.8651567E-01
       -2   -1    0    0    0  501  0.00000000000E+00  0.00000000000E+00  0.74994674212E+03  0.74994674213E+03  0.25500000920E-02 0. -1.
        2   -1    0    0  501    0  0.00000000000E+00  0.00000000000E+00 -0.12118232239E+04  0.12118232239E+04  0.25500000920E-02 0.  1.
    10030    2    1    2    0    0  0.00000000000E+00  0.00000000000E+00 -0.46187648173E+03  0.19617699660E+04  0.19066230658E+04 0.  0.
        3    1    3    3  502    0 -0.26509604232E+03  0.13191551552E+03  0.70143101202E+03  0.76136922036E+03  0.10100000352E+00 0. -1.
       -3    1    3    3    0  502  0.26509604232E+03 -0.13191551552E+03 -0.11633074938E+04  0.12004007456E+04  0.10100000352E+00 0.  1.
</event>
<event>
 5   0  0.8602017E-05  0.1917813E+04  0.7818609E-02  0.8646040E-01
       -1   -1    0    0    0  501  0.00000000000E+00  0.00000000000E+00  0.46644494779E+03  0.46644494782E+03  0.50400001928E-02 0. -1.
        1   -1    0    0  501    0  0.00000000000E+00  0.00000000000E+00 -0.19712965052E+04  0.19712965052E+04  0.50400001928E-02 0.  1.
    10030    2    1    2    0    0  0.00000000000E+00  0.00000000000E+00 -0.15048515574E+04  0.24377414531E+04  0.19178126035E+04 0.  0.
        2    1    3    3  502    0  0.52533098023E+03  0.21218581168E+03 -0.17357928681E+04  0.18259168487E+04  0.25500000920E-02 0.  1.
       -2    1    3    3    0  502 -0.52533098023E+03 -0.21218581168E+03  0.23094131068E+03  0.61182460432E+03  0.25500000920E-02 0. -1.
</event>
<event>
 5   0  0.8905646E-05  0.1909697E+04  0.7818609E-02  0.8650044E-01
       -1   -1    0    0    0  501  0.00000000000E+00  0.00000000000E+00  0.82915856791E+03  0.82915856793E+03  0.50400001928E-02 0.  1.
        1   -1    0    0  501    0  0.00000000000E+00  0.00000000000E+00 -0.10995918282E+04  0.10995918282E+04  0.50400001928E-02 0. -1.
    10030    2    1    2    0    0  0.00000000000E+00  0.00000000000E+00 -0.27043326029E+03  0.19287503961E+04  0.19096973431E+04 0.  0.
        1    1    3    3  502    0 -0.79844333280E+03 -0.48849730618E+03  0.55331027425E+02  0.93765819810E+03  0.50400001928E-02 0. -1.
       -1    1    3    3    0  502  0.79844333280E+03  0.48849730618E+03 -0.32576428771E+03  0.99109219804E+03  0.50400001928E-02 0.  1.
</event>
<event>
 5   0  0.1658711E-04  0.1908089E+04  0.7818609E-02  0.8650841E-01
        2   -1    0    0  501    0  0.00000000000E+00  0.00000000000E+00  0.19036240576E+04  0.19036240576E+04  0.25500000920E-02 0. -1.
       -2   -1    0    0    0  501  0.00000000000E+00  0.00000000000E+00 -0.47814098475E+03  0.47814098475E+03  0.25500000920E-02 0.  1.
    10030    2    1    2    0    0  0.00000000000E+00  0.00000000000E+00  0.14254830729E+04  0.23817650424E+04  0.19080887626E+04 0.  0.
        2    1    3    3  502    0  0.57765203760E+03  0.29725593560E+03 -0.15938684742E+03  0.66891489364E+03  0.25500000920E-02 0.  1.
       -2    1    3    3    0  502 -0.57765203760E+03 -0.29725593560E+03  0.15848699203E+04  0.17128501487E+04  0.25500000920E-02 0. -1.
</event>
<event>
 5   0  0.1790832E-04  0.1908998E+04  0.7818609E-02  0.8650390E-01
        2   -1    0    0  501    0  0.00000000000E+00  0.00000000000E+00  0.13389714742E+04  0.13389714742E+04  0.25500000920E-02 0.  1.
       -2   -1    0    0    0  501  0.00000000000E+00  0.00000000000E+00 -0.68042406951E+03  0.68042406951E+03  0.25500000920E-02 0. -1.
    10030    2    1    2    0    0  0.00000000000E+00  0.00000000000E+00  0.65854740474E+03  0.20193955438E+04  0.19089980822E+04 0.  0.
        5    1    3    3  502    0 -0.59583410584E+03 -0.74198552035E+03  0.25092615391E+03  0.98414776269E+03  0.46999998093E+01 0. -1.
       -5    1    3    3    0  502  0.59583410584E+03  0.74198552035E+03  0.40762125083E+03  0.10352477811E+04  0.46999998093E+01 0.  1.
</event>
<event>
 5   0  0.6375750E-05  0.1918580E+04  0.7818609E-02  0.8645663E-01
       -4   -1    0    0    0  501  0.00000000000E+00  0.00000000000E+00  0.12286594503E+04  0.12286601066E+04  0.12699999809E+01 0. -1.
        4   -1    0    0  501    0  0.00000000000E+00  0.00000000000E+00 -0.74897549679E+03  0.74897657353E+03  0.12699999809E+01 0.  1.
    10030    2    1    2    0    0  0.00000000000E+00  0.00000000000E+00  0.47968395348E+03  0.19776366802E+04  0.19185802416E+04 0.  0.
        5    1    3    3  502    0  0.71715466048E+03 -0.32276073606E+03 -0.32636588143E+03  0.85148228305E+03  0.46999998093E+01 0.  1.
       -5    1    3    3    0  502 -0.71715466048E+03  0.32276073606E+03  0.80604983491E+03  0.11261543971E+04  0.46999998093E+01 0. -1.
</event>
<event>
 5   0  0.8587082E-05  0.1675563E+04  0.7818609E-02  0.8775426E-01
       -1   -1    0    0    0  501  0.00000000000E+00  0.00000000000E+00  0.75975511856E+03  0.75975511857E+03  0.50400001928E-02 0.  1.
        1   -1    0    0  501    0  0.00000000000E+00  0.00000000000E+00 -0.92382141670E+03  0.92382141672E+03  0.50400001928E-02 0. -1.
    10030    2    1    2    0    0  0.00000000000E+00  0.00000000000E+00 -0.16406629815E+03  0.16835765353E+04  0.16755632486E+04 0.  0.
        5    1    3    3  502    0  0.68153220143E+03 -0.30332745901E+03  0.30105426841E+03  0.80445599725E+03  0.46999998093E+01 0.  1.
       -5    1    3    3    0  502 -0.68153220143E+03  0.30332745901E+03 -0.46512056656E+03  0.87912053804E+03  0.46999998093E+01 0. -1.
</event>
<event>
 5   0  0.1810569E-04  0.1899269E+04  0.7818609E-02  0.8655221E-01
       -2   -1    0    0    0  501  0.00000000000E+00  0.00000000000E+00  0.33679225092E+03  0.33679225093E+03  0.25500000920E-02 0. -1.
        2   -1    0    0  501    0  0.00000000000E+00  0.00000000000E+00 -0.26776307553E+04  0.26776307553E+04  0.25500000920E-02 0.  1.
    10030    2    1    2    0    0  0.00000000000E+00  0.00000000000E+00 -0.23408385044E+04  0.30144230062E+04  0.18992685847E+04 0.  0.
        4    1    3    3  502    0  0.66976205360E+03  0.38340959612E+03 -0.29213667510E+03  0.82518457128E+03  0.12699999809E+01 0. -1.
       -4    1    3    3    0  502 -0.66976205360E+03 -0.38340959612E+03 -0.20487018293E+04  0.21892384349E+04  0.12699999809E+01 0.  1.
</event>
<event>
 5   0  0.8681396E-05  0.1932108E+04  0.7818609E-02  0.8639037E-01
       -1   -1    0    0    0  501  0.00000000000E+00  0.00000000000E+00  0.11715859638E+04  0.11715859638E+04  0.50400001928E-02 0. -1.
        1   -1    0    0  501    0  0.00000000000E+00  0.00000000000E+00 -0.79657876060E+03  0.79657876061E+03  0.50400001928E-02 0.  1.
    10030    2    1    2    0    0  0.00000000000E+00  0.00000000000E+00  0.37500720320E+03  0.19681647244E+04  0.19321081698E+04 0.  0.
        3    1    3    3  502    0 -0.27525818752E+03 -0.79715018114E+03 -0.29250664640E+03  0.89262289320E+03  0.10100000352E+00 0.  1.
       -3    1    3    3    0  502  0.27525818752E+03  0.79715018114E+03  0.66751384960E+03  0.10755418312E+04  0.10100000352E+00 0. -1.
</event>
<event>
 5   0  0.8602017E-05  0.1912479E+04  0.7818609E-02  0.8648670E-01
       -1   -1    0    0    0  501  0.00000000000E+00  0.00000000000E+00  0.48858068652E+03  0.48858068655E+03  0.50400001928E-02 0. -1.
        1   -1    0    0  501    0  0.00000000000E+00  0.00000000000E+00 -0.18715313896E+04  0.18715313896E+04  0.50400001928E-02 0.  1.
    10030    2    1    2    0    0  0.00000000000E+00  0.00000000000E+00 -0.13829507030E+04  0.23601120761E+04  0.19124791149E+04 0.  0.
        2    1    3    3  502    0 -0.58773312022E+03 -0.26105802400E+03 -0.15647956209E+04  0.16917939732E+04  0.25500000920E-02 0.  1.
       -2    1    3    3    0  502  0.58773312022E+03  0.26105802400E+03  0.18184491790E+03  0.66831810290E+03  0.25500000920E-02 0. -1.
</event>
<event>
 5   0  0.1658711E-04  0.1895911E+04  0.7818609E-02  0.8656895E-01
        2   -1    0    0  501    0  0.00000000000E+00  0.00000000000E+00  0.10531381020E+04  0.10531381020E+04  0.25500000920E-02 0. -1.
       -2   -1    0    0    0  501  0.00000000000E+00  0.00000000000E+00 -0.85327771862E+03  0.85327771862E+03  0.25500000920E-02 0.  1.
    10030    2    1    2    0    0  0.00000000000E+00  0.00000000000E+00  0.19986038336E+03  0.19064158206E+04  0.18959106277E+04 0.  0.
        2    1    3    3  502    0 -0.35861523058E+03  0.62161964896E+03  0.72271928646E+03  0.10184984235E+04  0.25500000920E-02 0. -1.
       -2    1    3    3    0  502  0.35861523058E+03 -0.62161964896E+03 -0.52285890310E+03  0.88791739714E+03  0.25500000920E-02 0.  1.
</event>
<event>
 5   0  0.1765328E-04  0.2154364E+04  0.7818609E-02  0.8537667E-01
        2   -1    0    0  501    0  0.00000000000E+00  0.00000000000E+00  0.16465385549E+04  0.16465385549E+04  0.25500000920E-02 0.  1.
       -2   -1    0    0    0  501  0.00000000000E+00  0.00000000000E+00 -0.70470318502E+03  0.70470318503E+03  0.25500000920E-02 0. -1.
    10030    2    1    2    0    0  0.00000000000E+00  0.00000000000E+00  0.94183536991E+03  0.23512417400E+04  0.21543639098E+04 0.  0.
        3    1    3    3  502    0 -0.78754532605E+03  0.61938623419E+03  0.39228109161E+02  0.10026992582E+04  0.10100000352E+00 0. -1.
       -3    1    3    3    0  502  0.78754532605E+03 -0.61938623419E+03  0.90260726074E+03  0.13485424817E+04  0.10100000352E+00 0.  1.
</event>
<event>
 5   0  0.8567844E-05  0.1879300E+04  0.7818609E-02  0.8665229E-01
       -1   -1    0    0    0  501  0.00000000000E+00  0.00000000000E+00  0.63097654981E+03  0.63097654983E+03  0.50400001928E-02 0.  1.
        1   -1    0    0  501    0  0.00000000000E+00  0.00000000000E+00 -0.13993270643E+04  0.13993270643E+04  0.50400001928E-02 0. -1.
    10030    2    1    2    0    0  0.00000000000E+00  0.00000000000E+00 -0.76835051445E+03  0.20303036141E+04  0.18793004689E+04 0.  0.
        4    1    3    3  502    0  0.73165829814E+03  0.62886513233E+02  0.24915575834E+03  0.77547326427E+03  0.12699999809E+01 0.  1.
       -4    1    3    3    0  502 -0.73165829814E+03 -0.62886513233E+02 -0.10175062728E+04  0.12548303498E+04  0.12699999809E+01 0. -1.
</event>
<event>
 5   0  0.1765328E-04  0.1886371E+04  0.7818609E-02  0.8661670E-01
       -2   -1    0    0    0  501  0.00000000000E+00  0.00000000000E+00  0.11643361595E+04  0.11643361595E+04  0.25500000920E-02 0.  1.
        2   -1    0    0  501    0  0.00000000000E+00  0.00000000000E+00 -0.76403951787E+03  0.76403951787E+03  0.25500000920E-02 0. -1.
    10030    2    1    2    0    0  0.00000000000E+00  0.00000000000E+00  0.40029664167E+03  0.19283756774E+04  0.18863709476E+04 0.  0.
        3    1    3    3  502    0  0.25736068892E+03  0.90375277672E+03  0.28316765777E+03  0.98142118289E+03  0.10100000352E+00 0.  1.
       -3    1    3    3    0  502 -0.25736068892E+03 -0.90375277672E+03  0.11712898390E+03  0.94695449452E+03  0.10100000352E+00 0. -1.
</event>
<event>
 5   0  0.8681396E-05  0.1769896E+04  0.7818609E-02  0.8722474E-01
       -1   -1    0    0    0  501  0.00000000000E+00  0.00000000000E+00  0.20690518655E+04  0.20690518655E+04  0.50400001928E-02 0. -1.
        1   -1    0    0  501    0  0.00000000000E+00  0.00000000000E+00 -0.37849852784E+03  0.37849852788E+03  0.50400001928E-02 0.  1.
    10030    2    1    2    0    0  0.00000000000E+00  0.00000000000E+00  0.16905533376E+04  0.24475503934E+04  0.17698961384E+04 0.  0.
        3    1    3    3  502    0  0.83608769173E+03  0.44333378561E+01  0.12462416371E+04  0.15007266610E+04  0.10100000352E+00 0. -1.
       -3    1    3    3    0  502 -0.83608769173E+03 -0.44333378561E+01  0.44431170054E+03  0.94682373237E+03  0.10100000352E+00 0.  1.
</event>
<event>
 5   0  0.1658711E-04  0.1935241E+04  0.7818609E-02  0.8637511E-01
       -2   -1    0    0    0  501  0.00000000000E+00  0.00000000000E+00  0.71350672137E+03  0.71350672138E+03  0.25500000920E-02 0.  1.
        2   -1    0    0  501    0  0.00000000000E+00  0.00000000000E+00 -0.13122361004E+04  0.13122361004E+04  0.25500000920E-02 0. -1.
    10030    2    1    2    0    0  0.00000000000E+00  0.00000000000E+00 -0.59872937900E+03  0.20257428218E+04  0.19352408405E+04 0.  0.
        2    1    3    3  502    0 -0.23147300114E+03 -0.40121672642E+03  0.58991438026E+03  0.75003572439E+03  0.25500000920E-02 0.  1.
       -2    1    3    3    0  502  0.23147300114E+03  0.40121672642E+03 -0.11886437593E+04  0.12757070974E+04  0.25500000920E-02 0. -1.
</event>
<event>
 5   0  0.1765328E-04  0.1907831E+04  0.7818609E-02  0.8650968E-01
       -2   -1    0    0    0  501  0.00000000000E+00  0.00000000000E+00  0.57591649458E+03  0.57591649458E+03  0.25500000920E-02 0. -1.
        2   -1    0    0  501    0  0.00000000000E+00  0.00000000000E+00 -0.15800114085E+04  0.15800114085E+04  0.25500000920E-02 0.  1.
    10030    2    1    2    0    0  0.00000000000E+00  0.00000000000E+00 -0.10040949139E+04  0.21559279031E+04  0.19078308434E+04 0.  0.
        3    1    3    3  502    0  0.69019001992E+03  0.33275496997E+01 -0.12461445914E+04  0.14245173530E+04  0.10100000352E+00 0.  1.
       -3    1    3    3    0  502 -0.69019001992E+03 -0.33275496997E+01  0.24204967748E+03  0.73141055007E+03  0.10100000352E+00 0. -1.
</event>
<event>
 5   0  0.1799738E-04  0.1894153E+04  0.7818609E-02  0.8657772E-01
        2   -1    0    0  501    0  0.00000000000E+00  0.00000000000E+00  0.18781082079E+04  0.18781082079E+04  0.25500000920E-02 0.  1.
       -2   -1    0    0    0  501  0.00000000000E+00  0.00000000000E+00 -0.47758386565E+03  0.47758386566E+03  0.25500000920E-02 0. -1.
    10030    2    1    2    0    0  0.00000000000E+00  0.00000000000E+00  0.14005243423E+04  0.23556920736E+04  0.18941532969E+04 0.  0.
        1    1    3    3  502    0 -0.36060414998E+03 -0.40678468390E+03 -0.26423591985E+03  0.60442514293E+03  0.50400001928E-02 0. -1.
       -1    1    3    3    0  502  0.36060414998E+03  0.40678468390E+03  0.16647602621E+04  0.17512669307E+04  0.50400001928E-02 0.  1.
</event>
<event>
 5   0  0.8905646E-05  0.1856072E+04  0.7818609E-02  0.8677036E-01
        1   -1    0    0  501    0  0.00000000000E+00  0.00000000000E+00  0.18150346881E+04  0.18150346881E+04  0.50400001928E-02 0. -1.
       -1   -1    0    0    0  501  0.00000000000E+00  0.00000000000E+00 -0.47450944617E+03  0.47450944620E+03  0.50400001928E-02 0.  1.
    10030    2    1    2    0    0  0.00000000000E+00  0.00000000000E+00  0.13405252419E+04  0.22895441343E+04  0.18560723097E+04 0.  0.
        1    1    3    3  502    0  0.75568368416E+02 -0.46950969951E+03  0.16533125673E+04  0.17203465876E+04  0.50400001928E-02 0. -1.
       -1    1    3    3    0  502 -0.75568368416E+02  0.46950969951E+03 -0.31278732537E+03  0.56919754671E+03  0.50400001928E-02 0.  1.
</event>
<event>
 5   0  0.1765328E-04  0.1900862E+04  0.7818609E-02  0.8654427E-01
        2   -1    0    0  501    0  0.00000000000E+00  0.00000000000E+00  0.10884736834E+04  0.10884736834E+04  0.25500000920E-02 0.  1.
       -2   -1    0    0    0  501  0.00000000000E+00  0.00000000000E+00 -0.82989545290E+03  0.82989545290E+03  0.25500000920E-02 0. -1.
    10030    2    1    2    0    0  0.00000000000E+00  0.00000000000E+00  0.25857823046E+03  0.19183691363E+04  0.19008622890E+04 0.  0.
        3    1    3    3  502    0 -0.80113279447E+03  0.28732466464E+03  0.55621013337E+03  0.10167295314E+04  0.10100000352E+00 0. -1.
       -3    1    3    3    0  502  0.80113279447E+03 -0.28732466464E+03 -0.29763190291E+03  0.90163960490E+03  0.10100000352E+00 0.  1.
</event>
<event>
 5   0  0.8567844E-05  0.1938893E+04  0.7818609E-02  0.8635735E-01
        1   -1    0    0  501    0  0.00000000000E+00  0.00000000000E+00  0.69651853319E+03  0.69651853321E+03  0.50400001928E-02 0. -1.
       -1   -1    0    0    0  501  0.00000000000E+00  0.00000000000E+00 -0.13493200672E+04  0.13493200672E+04  0.50400001928E-02 0.  1.
    10030    2    1    2    0    0  0.00000000000E+00  0.00000000000E+00 -0.65280153401E+03  0.20458386004E+04  0.19388929151E+04 0.  0.
        4    1    3    3  502    0  0.38298523301E+03  0.88148470464E+03 -0.19238385575E+03  0.98015617841E+03  0.12699999809E+01 0. -1.
       -4    1    3    3    0  502 -0.38298523301E+03 -0.88148470464E+03 -0.46041767826E+03  0.10656824220E+04  0.12699999809E+01 0.  1.
</event>
<event>
 5   0  0.1790832E-04  0.1902830E+04  0.7818609E-02  0.8653449E-01
        2   -1    0    0  501    0  0.00000000000E+00  0.00000000000E+00  0.17123387049E+04  0.17123387049E+04  0.25500000920E-02 0.  1.
       -2   -1    0    0    0  501  0.00000000000E+00  0.00000000000E+00 -0.52862839200E+03  0.52862839201E+03  0.25500000920E-02 0. -1.
    10030    2    1    2    0    0  0.00000000000E+00  0.00000000000E+00  0.11837103129E+04  0.22409670969E+04  0.19028303720E+04 0.  0.
        5    1    3    3  502    0 -0.67151118259E+03  0.11075409663E+03  0.13748055941E+04  0.15340489724E+04  0.46999998093E+01 0.  1.
       -5    1    3    3    0  502  0.67151118259E+03 -0.11075409663E+03 -0.19109528118E+03  0.70691812450E+03  0.46999998093E+01 0. -1.
</event>
<event>
 5   0  0.8567844E-05  0.1882640E+04  0.7818609E-02  0.8663546E-01
       -1   -1    0    0    0  501  0.00000000000E+00  0.00000000000E+00  0.71100924662E+03  0.71100924664E+03  0.50400001928E-02 0. -1.
        1   -1    0    0  501    0  0.00000000000E+00  0.00000000000E+00 -0.12462330475E+04  0.12462330475E+04  0.50400001928E-02 0.  1.
    10030    2    1    2    0    0  0.00000000000E+00  0.00000000000E+00 -0.53522380083E+03  0.19572422941E+04  0.18826398702E+04 0.  0.
        4    1    3    3  502    0 -0.25264550124E+03 -0.44720145208E+03 -0.10877070273E+04  0.12028828198E+04  0.12699999809E+01 0.  1.
       -4    1    3    3    0  502  0.25264550124E+03  0.44720145208E+03  0.55248322647E+03  0.75435947430E+03  0.12699999809E+01 0. -1.
</event>
<event>
 5   0  0.8681396E-05  0.1877033E+04  0.7818609E-02  0.8666374E-01
       -1   -1    0    0    0  501  0.00000000000E+00  0.00000000000E+00  0.12370425525E+04  0.12370425525E+04  0.50400001928E-02 0. -1.
        1   -1    0    0  501    0  0.00000000000E+00  0.00000000000E+00 -0.71203167296E+03  0.71203167298E+03  0.50400001928E-02 0.  1.
    10030    2    1    2    0    0  0.00000000000E+00  0.00000000000E+00  0.52501087950E+03  0.19490742255E+04  0.18770332743E+04 0.  0.
        3    1    3    3  502    0 -0.82332077764E+03 -0.45942558311E+02  0.72786390460E+03  0.10998880377E+04  0.10100000352E+00 0. -1.
       -3    1    3    3    0  502  0.82332077764E+03  0.45942558311E+02 -0.20285302510E+03  0.84918618780E+03  0.10100000352E+00 0.  1.
</event>
<event>
 5   0  0.1799738E-04  0.1904939E+04  0.7818609E-02  0.8652402E-01
       -2   -1    0    0    0  501  0.00000000000E+00  0.00000000000E+00  0.63543498279E+03  0.63543498280E+03  0.25500000920E-02 0.  1.
        2   -1    0    0  501    0  0.00000000000E+00  0.00000000000E+00 -0.14276808103E+04  0.14276808103E+04  0.25500000920E-02 0. -1.
    10030    2    1    2    0    0  0.00000000000E+00  0.00000000000E+00 -0.79224582747E+03  0.20631157931E+04  0.19049391918E+04 0.  0.
        1    1    3    3  502    0  0.41252919037E+03 -0.79361149150E+03 -0.41523963175E+02  0.89539029026E+03  0.50400001928E-02 0.  1.
       -1    1    3    3    0  502 -0.41252919037E+03  0.79361149150E+03 -0.75072186429E+03  0.11677255028E+04  0.50400001928E-02 0. -1.
</event>
<event>
 5   0  0.1810569E-04  0.1898782E+04  0.7818609E-02  0.8655463E-01
       -2   -1    0    0    0  501  0.00000000000E+00  0.00000000000E+00  0.94876112203E+03  0.94876112204E+03  0.25500000920E-02 0. -1.
        2   -1    0    0  501    0  0.00000000000E+00  0.00000000000E+00 -0.95002177179E+03  0.95002177180E+03  0.25500000920E-02 0.  1.
    10030    2    1    2    0    0  0.00000000000E+00  0.00000000000E+00 -0.12606497624E+01  0.18987828938E+04  0.18987824753E+04 0.  0.
        4    1    3    3  502    0  0.30251094053E+03  0.60839716541E+02  0.89721605639E+03  0.94879534410E+03  0.12699999809E+01 0. -1.
       -4    1    3    3    0  502 -0.30251094053E+03 -0.60839716541E+02 -0.89847670615E+03  0.94998754973E+03  0.12699999809E+01 0.  1.
</event>
<event>
 5   0  0.1765328E-04  0.1897061E+04  0.7818609E-02  0.8656321E-01
       -2   -1    0    0    0  501  0.00000000000E+00  0.00000000000E+00  0.60733462752E+03  0.60733462753E+03  0.25500000920E-02 0. -1.
        2   -1    0    0  501    0  0.00000000000E+00  0.00000000000E+00 -0.14814078865E+04  0.14814078865E+04  0.25500000920E-02 0.  1.
    10030    2    1    2    0    0  0.00000000000E+00  0.00000000000E+00 -0.87407325902E+03  0.20887425141E+04  0.18970612083E+04 0.  0.
        3    1    3    3  502    0  0.47895019773E+03 -0.24207059160E+01  0.46441366106E+03  0.66714257135E+03  0.10100000352E+00 0. -1.
       -3    1    3    3    0  502 -0.47895019773E+03  0.24207059160E+01 -0.13384869201E+04  0.14215999427E+04  0.10100000352E+00 0.  1.
</event>
<event>
 5   0  0.8602017E-05  0.1931785E+04  0.7818609E-02  0.8639195E-01
       -1   -1    0    0    0  501  0.00000000000E+00  0.00000000000E+00  0.82737023633E+03  0.82737023635E+03  0.50400001928E-02 0. -1.
        1   -1    0    0  501    0  0.00000000000E+00  0.00000000000E+00 -0.11276070780E+04  0.11276070780E+04  0.50400001928E-02 0.  1.
    10030    2    1    2    0    0  0.00000000000E+00  0.00000000000E+00 -0.30023684169E+03  0.19549773144E+04  0.19317852206E+04 0.  0.
        2    1    3    3  502    0  0.20318279089E+03  0.93160477347E+03  0.59334681385E+01  0.95352289250E+03  0.25500000920E-02 0.  1.
       -2    1    3    3    0  502 -0.20318279089E+03 -0.93160477347E+03 -0.30617030983E+03  0.10014544219E+04  0.25500000920E-02 0. -1.
</event>
<event>
 5   0  0.8602017E-05  0.1906875E+04  0.7818609E-02  0.8651442E-01
        1   -1    0    0  501    0  0.00000000000E+00  0.00000000000E+00  0.11908602800E+04  0.11908602800E+04  0.50400001928E-02 0. -1.
       -1   -1    0    0    0  501  0.00000000000E+00  0.00000000000E+00 -0.76334970601E+03  0.76334970603E+03  0.50400001928E-02 0.  1.
    10030    2    1    2    0    0  0.00000000000E+00  0.00000000000E+00  0.42751057403E+03  0.19542099861E+04  0.19068747675E+04 0.  0.
        2    1    3    3  502    0 -0.23709028656E+03 -0.41134295134E+03  0.10610977733E+04  0.11624729296E+04  0.25500000920E-02 0. -1.
       -2    1    3    3    0  502  0.23709028656E+03  0.41134295134E+03 -0.63358719922E+03  0.79173705650E+03  0.25500000920E-02 0.  1.
</event>
<event>
 5   0  0.1790832E-04  0.1903186E+04  0.7818609E-02  0.8653272E-01
       -2   -1    0    0    0  501  0.00000000000E+00  0.00000000000E+00  0.31209276840E+04  0.31209276840E+04  0.25500000920E-02 0. -1.
        2   -1    0    0  501    0  0.00000000000E+00  0.00000000000E+00 -0.29014739216E+03  0.29014739218E+03  0.25500000920E-02 0.  1.
    10030    2    1    2    0    0  0.00000000000E+00  0.00000000000E+00  0.28307802918E+04  0.34110750762E+04  0.19031857804E+04 0.  0.
        5    1    3    3  502    0 -0.51562995781E+03 -0.33916994558E+02  0.28475270393E+04  0.28940381728E+04  0.46999998093E+01 0. -1.
       -5    1    3    3    0  502  0.51562995781E+03  0.33916994558E+02 -0.16746747484E+02  0.51703690339E+03  0.46999998093E+01 0.  1.
</event>
<event>
 5   0  0.8905646E-05  0.1836149E+04  0.7818609E-02  0.8687308E-01
        1   -1    0    0  501    0  0.00000000000E+00  0.00000000000E+00  0.13144489893E+04  0.13144489893E+04  0.50400001928E-02 0. -1.
       -1   -1    0    0    0  501  0.00000000000E+00  0.00000000000E+00 -0.64122769230E+03  0.64122769232E+03  0.50400001928E-02 0.  1.
    10030    2    1    2    0    0  0.00000000000E+00  0.00000000000E+00  0.67322129698E+03  0.19556766816E+04  0.18361493317E+04 0.  0.
        1    1    3    3  502    0 -0.56880033048E+02  0.40023805087E+03 -0.54132583742E+03  0.67561786374E+03  0.50400001928E-02 0.  1.
       -1    1    3    3    0  502  0.56880033048E+02 -0.40023805087E+03  0.12145471344E+04  0.12800588179E+04  0.50400001928E-02 0. -1.
</event>
<event>
 5   0  0.1765328E-04  0.1890000E+04  0.7818609E-02  0.8659850E-01
       -2   -1    0    0    0  501  0.00000000000E+00  0.00000000000E+00  0.18513445501E+04  0.18513445501E+04  0.25500000920E-02 0. -1.
        2   -1    0    0  501    0  0.00000000000E+00  0.00000000000E+00 -0.48236546283E+03  0.48236546284E+03  0.25500000920E-02 0.  1.
    10030    2    1    2    0    0  0.00000000000E+00  0.00000000000E+00  0.13689790873E+04  0.23337100130E+04  0.18899996516E+04 0.  0.
        3    1    3    3  502    0  0.21717606461E+02  0.57699151485E+03  0.16082027078E+04  0.17087149622E+04  0.10100000352E+00 0. -1.
       -3    1    3    3    0  502 -0.21717606461E+02 -0.57699151485E+03 -0.23922362049E+03  0.62499505073E+03  0.10100000352E+00 0.  1.
</event>
<event>
 5   0  0.8602017E-05  0.1790012E+04  0.7818609E-02  0.8711629E-01
        1   -1    0    0  501    0  0.00000000000E+00  0.00000000000E+00  0.16947606483E+04  0.16947606483E+04  0.50400001928E-02 0.  1.
       -1   -1    0    0    0  501  0.00000000000E+00  0.00000000000E+00 -0.47265411844E+03  0.47265411847E+03  0.50400001928E-02 0. -1.
    10030    2    1    2    0    0  0.00000000000E+00  0.00000000000E+00  0.12221065298E+04  0.21674147667E+04  0.17900118438E+04 0.  0.
        2    1    3    3  502    0 -0.37984311500E+03 -0.80997853594E+03  0.64284969017E+03  0.11016359403E+04  0.25500000920E-02 0.  1.
       -2    1    3    3    0  502  0.37984311500E+03  0.80997853594E+03  0.57925683966E+03  0.10657788265E+04  0.25500000920E-02 0. -1.
</event>
<event>
 5   0  0.8567844E-05  0.1899073E+04  0.7818609E-02  0.8655318E-01
       -1   -1    0    0    0  501  0.00000000000E+00  0.00000000000E+00  0.59299090597E+03  0.59299090599E+03  0.50400001928E-02 0. -1.
        1   -1    0    0  501    0  0.00000000000E+00  0.00000000000E+00 -0.15204614545E+04  0.15204614545E+04  0.50400001928E-02 0.  1.
    10030    2    1    2    0    0  0.00000000000E+00  0.00000000000E+00 -0.92747054848E+03  0.21134523605E+04  0.18990732639E+04 0.  0.
        4    1    3    3  502    0  0.13307651614E+03  0.92259131431E+03 -0.26238556229E+03  0.96836557590E+03  0.12699999809E+01 0.  1.
       -4    1    3    3    0  502 -0.13307651614E+03 -0.92259131431E+03 -0.66508498619E+03  0.11450867845E+04  0.12699999809E+01 0. -1.
</event>
<event>
 5   0  0.6375750E-05  0.1843654E+04  0.7818609E-02  0.8683423E-01
        3   -1    0    0  501    0  0.00000000000E+00  0.00000000000E+00  0.83417251978E+03  0.83417252590E+03  0.10100000352E+00 0.  1.
       -3   -1    0    0    0  501  0.00000000000E+00  0.00000000000E+00 -0.10186919560E+04  0.10186919610E+04  0.10100000352E+00 0. -1.
    10030    2    1    2    0    0  0.00000000000E+00  0.00000000000E+00 -0.18451943625E+03  0.18528644869E+04  0.18436538137E+04 0.  0.
        2    1    3    3  502    0  0.19439174596E+03  0.47281081102E+00 -0.99785886331E+03  0.10166172758E+04  0.25500000920E-02 0. -1.
       -2    1    3    3    0  502 -0.19439174596E+03 -0.47281081102E+00  0.81333942706E+03  0.83624721110E+03  0.25500000920E-02 0.  1.
</event>
<event>
 5   0  0.1810569E-04  0.1913930E+04  0.7818609E-02  0.8647953E-01
       -2   -1    0    0    0  501  0.00000000000E+00  0.00000000000E+00  0.29853612963E+03  0.29853612964E+03  0.25500000920E-02 0. -1.
        2   -1    0    0  501    0  0.00000000000E+00  0.00000000000E+00 -0.30675747959E+04  0.30675747959E+04  0.25500000920E-02 0.  1.
    10030    2    1    2    0    0  0.00000000000E+00  0.00000000000E+00 -0.27690386663E+04  0.33661109255E+04  0.19139298910E+04 0.  0.
        4    1    3    3  502    0  0.36124131010E+02  0.93046328778E+03 -0.17726935361E+04  0.20023763054E+04  0.12699999809E+01 0. -1.
       -4    1    3    3    0  502 -0.36124131010E+02 -0.93046328778E+03 -0.99634513016E+03  0.13637346201E+04  0.12699999809E+01 0.  1.
</event>
<event>
 5   0  0.8587082E-05  0.1894960E+04  0.7818609E-02  0.8657369E-01
       -1   -1    0    0    0  501  0.00000000000E+00  0.00000000000E+00  0.70420161150E+03  0.70420161152E+03  0.50400001928E-02 0.  1.
        1   -1    0    0  501    0  0.00000000000E+00  0.00000000000E+00 -0.12748027981E+04  0.12748027981E+04  0.50400001928E-02 0. -1.
    10030    2    1    2    0    0  0.00000000000E+00  0.00000000000E+00 -0.57060118663E+03  0.19790044097E+04  0.18949598252E+04 0.  0.
        5    1    3    3  502    0 -0.48279178326E+03 -0.21510927554E+03  0.53591859273E+03  0.75272221599E+03  0.46999998093E+01 0.  1.
       -5    1    3    3    0  502  0.48279178326E+03  0.21510927554E+03 -0.11065197794E+04  0.12262821937E+04  0.46999998093E+01 0. -1.
</event>
<event>
 5   0  0.1658711E-04  0.1846179E+04  0.7818609E-02  0.8682120E-01
       -2   -1    0    0    0  501  0.00000000000E+00  0.00000000000E+00  0.14185800384E+04  0.14185800384E+04  0.25500000920E-02 0.  1.
        2   -1    0    0  501    0  0.00000000000E+00  0.00000000000E+00 -0.60066720827E+03  0.60066720828E+03  0.25500000920E-02 0. -1.
    10030    2    1    2    0    0  0.00000000000E+00  0.00000000000E+00  0.81791283016E+03  0.20192472467E+04  0.18461793103E+04 0.  0.
        2    1    3    3  502    0  0.74045622369E+03 -0.32944916648E+03 -0.74377314741E+02  0.81384529086E+03  0.25500000920E-02 0. -1.
       -2    1    3    3    0  502 -0.74045622369E+03  0.32944916648E+03  0.89229014490E+03  0.12054019559E+04  0.25500000920E-02 0.  1.
</event>
<event>
 5   0  0.8602017E-05  0.1880620E+04  0.7818609E-02  0.8664564E-01
       -1   -1    0    0    0  501  0.00000000000E+00  0.00000000000E+00  0.51830559205E+03  0.51830559208E+03  0.50400001928E-02 0. -1.
        1   -1    0    0  501    0  0.00000000000E+00  0.00000000000E+00 -0.17059101249E+04  0.17059101249E+04  0.50400001928E-02 0.  1.
    10030    2    1    2    0    0  0.00000000000E+00  0.00000000000E+00 -0.11876045329E+04  0.22242157170E+04  0.18806198524E+04 0.  0.
        2    1    3    3  502    0  0.60285184326E+03 -0.68672561353E+03 -0.85603285279E+03  0.12521240587E+04  0.25500000920E-02 0.  1.
       -2    1    3    3    0  502 -0.60285184326E+03  0.68672561353E+03 -0.33157168007E+03  0.97209165835E+03  0.25500000920E-02 0. -1.
</event>
<event>
 5   0  0.8905646E-05  0.1938938E+04  0.7818609E-02  0.8635713E-01
       -1   -1    0    0    0  501  0.00000000000E+00  0.00000000000E+00  0.92734873057E+03  0.92734873059E+03  0.50400001928E-02 0. -1.
        1   -1    0    0  501    0  0.00000000000E+00  0.00000000000E+00 -0.10135026374E+04  0.10135026374E+04  0.50400001928E-02 0.  1.
    10030    2    1    2    0    0  0.00000000000E+00  0.00000000000E+00 -0.86153906817E+02  0.19408513680E+04  0.19389382499E+04 0.  0.
        1    1    3    3  502    0 -0.73365752433E+03  0.27284519999E+03 -0.61563128962E+03  0.99584122778E+03  0.50400001928E-02 0.  1.
       -1    1    3    3    0  502  0.73365752433E+03 -0.27284519999E+03  0.52947738280E+03  0.94501014021E+03  0.50400001928E-02 0. -1.
</event>
<event>
 5   0  0.1658711E-04  0.1872490E+04  0.7818609E-02  0.8668672E-01
       -2   -1    0    0    0  501  0.00000000000E+00  0.00000000000E+00  0.60301626270E+03  0.60301626270E+03  0.25500000920E-02 0.  1.
        2   -1    0    0  501    0  0.00000000000E+00  0.00000000000E+00 -0.14536175995E+04  0.14536175995E+04  0.25500000920E-02 0. -1.
    10030    2    1    2    0    0  0.00000000000E+00  0.00000000000E+00 -0.85060133681E+03  0.20566338622E+04  0.18724903762E+04 0.  0.
        2    1    3    3  502    0 -0.24961244897E+02 -0.93290526256E+03 -0.34296343759E+03  0.99426315037E+03  0.25500000920E-02 0. -1.
       -2    1    3    3    0  502  0.24961244897E+02  0.93290526256E+03 -0.50763789922E+03  0.10623707118E+04  0.25500000920E-02 0.  1.
</event>
<event>
 5   0  0.1810569E-04  0.1897713E+04  0.7818609E-02  0.8655996E-01
        2   -1    0    0  501    0  0.00000000000E+00  0.00000000000E+00  0.20532683306E+04  0.20532683306E+04  0.25500000920E-02 0.  1.
       -2   -1    0    0    0  501  0.00000000000E+00  0.00000000000E+00 -0.43848572153E+03  0.43848572154E+03  0.25500000920E-02 0. -1.
    10030    2    1    2    0    0  0.00000000000E+00  0.00000000000E+00  0.16147826090E+04  0.24917540521E+04  0.18977131980E+04 0.  0.
        4    1    3    3  502    0 -0.45670279308E+03  0.18377562498E+03 -0.25768255124E+03  0.55565531731E+03  0.12699999809E+01 0. -1.
       -4    1    3    3    0  502  0.45670279308E+03 -0.18377562498E+03  0.18724651603E+04  0.19360987348E+04  0.12699999809E+01 0.  1.
</event>
<event>
 5   0  0.8602017E-05  0.1868260E+04  0.7818609E-02  0.8670818E-01
       -1   -1    0    0    0  501  0.00000000000E+00  0.00000000000E+00  0.77142157109E+03  0.77142157111E+03  0.50400001928E-02 0.  1.
        1   -1    0    0  501    0  0.00000000000E+00  0.00000000000E+00 -0.11311574976E+04  0.11311574976E+04  0.50400001928E-02 0. -1.
    10030    2    1    2    0    0  0.00000000000E+00  0.00000000000E+00 -0.35973592652E+03  0.19025790687E+04  0.18682604679E+04 0.  0.
        2    1    3    3  502    0  0.83596126434E+03 -0.35486529867E+03 -0.40260625082E+03  0.99340445383E+03  0.25500000920E-02 0.  1.
       -2    1    3    3    0  502 -0.83596126434E+03  0.35486529867E+03  0.42870324301E+02  0.90917461491E+03  0.25500000920E-02 0. -1.
</event>
<event>
 5   0  0.8905646E-05  0.1901612E+04  0.7818609E-02  0.8654055E-01
       -1   -1    0    0    0  501  0.00000000000E+00  0.00000000000E+00  0.70582152496E+03  0.70582152497E+03  0.50400001928E-02 0. -1.
        1   -1    0    0  501    0  0.00000000000E+00  0.00000000000E+00 -0.12808218702E+04  0.12808218702E+04  0.50400001928E-02 0.  1.
    10030    2    1    2    0    0  0.00000000000E+00  0.00000000000E+00 -0.57500034523E+03  0.19866433952E+04  0.19016115751E+04 0.  0.
        1    1    3    3  502    0 -0.77532487370E+03  0.43516888472E+03  0.64510142402E+02  0.89143826287E+03  0.50400001928E-02 0. -1.
       -1    1    3    3    0  502  0.77532487370E+03 -0.43516888472E+03 -0.63951048764E+03  0.10952051323E+04  0.50400001928E-02 0.  1.
</event>
<event>
 5   0  0.8567844E-05  0.1856269E+04  0.7818609E-02  0.8676936E-01
       -1   -1    0    0    0  501  0.00000000000E+00  0.00000000000E+00  0.58352054327E+03  0.58352054329E+03  0.50400001928E-02 0. -1.
        1   -1    0    0  501    0  0.00000000000E+00  0.00000000000E+00 -0.14762690342E+04  0.14762690342E+04  0.50400001928E-02 0.  1.
    10030    2    1    2    0    0  0.00000000000E+00  0.00000000000E+00 -0.89274849097E+03  0.20597895775E+04  0.18562686324E+04 0.  0.
        4    1    3    3  502    0 -0.52067290877E+03 -0.33660636060E+03 -0.12127712050E+04  0.13620645097E+04  0.12699999809E+01 0.  1.
       -4    1    3    3    0  502  0.52067290877E+03  0.33660636060E+03  0.32002271404E+03  0.69772506787E+03  0.12699999809E+01 0. -1.
</event>
<event>
 5   0  0.1810569E-04  0.1917967E+04  0.7818609E-02  0.8645965E-01
       -2   -1    0    0    0  501  0.00000000000E+00  0.00000000000E+00  0.47740793210E+03  0.47740793211E+03  0.25500000920E-02 0. -1.
        2   -1    0    0  501    0  0.00000000000E+00  0.00000000000E+00 -0.19263378123E+04  0.19263378123E+04  0.25500000920E-02 0.  1.
    10030    2    1    2    0    0  0.00000000000E+00  0.00000000000E+00 -0.14489298802E+04  0.24037457444E+04  0.19179665810E+04 0.  0.
        4    1    3    3  502    0 -0.75910660794E+03 -0.74492368161E+02 -0.14529370253E+04  0.16409812819E+04  0.12699999809E+01 0.  1.
       -4    1    3    3    0  502  0.75910660794E+03  0.74492368161E+02  0.40071451314E+01  0.76276446249E+03  0.12699999809E+01 0. -1.
</event>
<event>
 5   0  0.8681396E-05  0.1884542E+04  0.7818609E-02  0.8662589E-01
        1   -1    0    0  501    0  0.00000000000E+00  0.00000000000E+00  0.16058762259E+04  0.16058762259E+04  0.50400001928E-02 0.  1.
       -1   -1    0    0    0  501  0.00000000000E+00  0.00000000000E+00 -0.55289086178E+03  0.55289086180E+03  0.50400001928E-02 0. -1.
    10030    2    1    2    0    0  0.00000000000E+00  0.00000000000E+00  0.10529853641E+04  0.21587670877E+04  0.18845416318E+04 0.  0.
        3    1    3    3  502    0  0.59742912480E+03 -0.65663732308E+03  0.16464806017E+03  0.90288599897E+03  0.10100000352E+00 0. -1.
       -3    1    3    3    0  502 -0.59742912480E+03  0.65663732308E+03  0.88833730392E+03  0.12558810887E+04  0.10100000352E+00 0.  1.
</event>
<event>
 5   0  0.8905646E-05  0.1895311E+04  0.7818609E-02  0.8657194E-01
       -1   -1    0    0    0  501  0.00000000000E+00  0.00000000000E+00  0.13210887750E+04  0.13210887750E+04  0.50400001928E-02 0.  1.
        1   -1    0    0  501    0  0.00000000000E+00  0.00000000000E+00 -0.67978110409E+03  0.67978110411E+03  0.50400001928E-02 0. -1.
    10030    2    1    2    0    0  0.00000000000E+00  0.00000000000E+00  0.64130767091E+03  0.20008698791E+04  0.18953112527E+04 0.  0.
        1    1    3    3  502    0 -0.66337490863E+03 -0.37096006507E+03 -0.27688567922E+03  0.80891490199E+03  0.50400001928E-02 0. -1.
       -1    1    3    3    0  502  0.66337490863E+03  0.37096006507E+03  0.91819335013E+03  0.11919549771E+04  0.50400001928E-02 0.  1.
</event>
<event>
 5   0  0.8905646E-05  0.1897714E+04  0.7818609E-02  0.8655995E-01
        1   -1    0    0  501    0  0.00000000000E+00  0.00000000000E+00  0.14215116386E+04  0.14215116386E+04  0.50400001928E-02 0.  1.
       -1   -1    0    0    0  501  0.00000000000E+00  0.00000000000E+00 -0.63336080579E+03  0.63336080581E+03  0.50400001928E-02 0. -1.
    10030    2    1    2    0    0  0.00000000000E+00  0.00000000000E+00  0.78815083279E+03  0.20548724444E+04  0.18977141585E+04 0.  0.
        1    1    3    3  502    0  0.97479824839E+02  0.49052671214E+03  0.12672100633E+04  0.13623289310E+04  0.50400001928E-02 0.  1.
       -1    1    3    3    0  502 -0.97479824839E+02 -0.49052671214E+03 -0.47905923054E+03  0.69254351341E+03  0.50400001928E-02 0. -1.
</event>
<event>
 5   0  0.1810569E-04  0.1852158E+04  0.7818609E-02  0.8679044E-01
       -2   -1    0    0    0  501  0.00000000000E+00  0.00000000000E+00  0.21448590721E+04  0.21448590721E+04  0.25500000920E-02 0.  1.
        2   -1    0    0  501    0  0.00000000000E+00  0.00000000000E+00 -0.39985024868E+03  0.39985024869E+03  0.25500000920E-02 0. -1.
    10030    2    1    2    0    0  0.00000000000E+00  0.00000000000E+00  0.17450088234E+04  0.25447093208E+04  0.18521581287E+04 0.  0.
        4    1    3    3  502    0 -0.52421944555E+03  0.30394991885E+03 -0.89657800290E+02  0.61256160043E+03  0.12699999809E+01 0. -1.
       -4    1    3    3    0  502  0.52421944555E+03 -0.30394991885E+03  0.18346666237E+04  0.19321477204E+04  0.12699999809E+01 0.  1.
</event>
<event>
 5   0  0.1765328E-04  0.1899710E+04  0.7818609E-02  0.8655001E-01
       -2   -1    0    0    0  501  0.00000000000E+00  0.00000000000E+00  0.43130340079E+03  0.43130340080E+03  0.25500000920E-02 0.  1.
        2   -1    0    0  501    0  0.00000000000E+00  0.00000000000E+00 -0.20918561116E+04  0.20918561116E+04  0.25500000920E-02 0. -1.
    10030    2    1    2    0    0  0.00000000000E+00  0.00000000000E+00 -0.16605527108E+04  0.25231595124E+04  0.18997101410E+04 0.  0.
        3    1    3    3  502    0 -0.55189892382E+03  0.67170493677E+03 -0.32200668373E+03  0.92707510955E+03  0.10100000352E+00 0.  1.
       -3    1    3    3    0  502  0.55189892382E+03 -0.67170493677E+03 -0.13385460271E+04  0.15960844029E+04  0.10100000352E+00 0. -1.
</event>
<event>
 5   0  0.1790832E-04  0.1918145E+04  0.7818609E-02  0.8645877E-01
        2   -1    0    0  501    0  0.00000000000E+00  0.00000000000E+00  0.21929631186E+04  0.21929631186E+04  0.25500000920E-02 0. -1.
       -2   -1    0    0    0  501  0.00000000000E+00  0.00000000000E+00 -0.41944150096E+03  0.41944150097E+03  0.25500000920E-02 0.  1.
    10030    2    1    2    0    0  0.00000000000E+00  0.00000000000E+00  0.17735216176E+04  0.26124046195E+04  0.19181446682E+04 0.  0.
        5    1    3    3  502    0 -0.50718484429E+03 -0.24137769912E+03  0.19454894445E+04  0.20249570190E+04  0.46999998093E+01 0. -1.
       -5    1    3    3    0  502  0.50718484429E+03  0.24137769912E+03 -0.17196782693E+03  0.58744760057E+03  0.46999998093E+01 0.  1.
</event>
<event>
 5   0  0.1765328E-04  0.1909026E+04  0.7818609E-02  0.8650377E-01
        2   -1    0    0  501    0  0.00000000000E+00  0.00000000000E+00  0.96427699662E+03  0.96427699662E+03  0.25500000920E-02 0.  1.
       -2   -1    0    0    0  501  0.00000000000E+00  0.00000000000E+00 -0.94484742711E+03  0.94484742712E+03  0.25500000920E-02 0. -1.
    10030    2    1    2    0    0  0.00000000000E+00  0.00000000000E+00  0.19429569509E+02  0.19091244237E+04  0.19090255517E+04 0.  0.
        3    1    3    3  502    0  0.65799213917E+03  0.43327216598E+03 -0.52921590396E+03  0.94907739844E+03  0.10100000352E+00 0.  1.
       -3    1    3    3    0  502 -0.65799213917E+03 -0.43327216598E+03  0.54864547347E+03  0.96004702530E+03  0.10100000352E+00 0. -1.
</event>
<event>
 5   0  0.8587082E-05  0.1859401E+04  0.7818609E-02  0.8675333E-01
        1   -1    0    0  501    0  0.00000000000E+00  0.00000000000E+00  0.87674491606E+03  0.87674491607E+03  0.50400001928E-02 0.  1.
       -1   -1    0    0    0  501  0.00000000000E+00  0.00000000000E+00 -0.98585497293E+03  0.98585497295E+03  0.50400001928E-02 0. -1.
    10030    2    1    2    0    0  0.00000000000E+00  0.00000000000E+00 -0.10911005688E+03  0.18625998890E+04  0.18594013397E+04 0.  0.
        5    1    3    3  502    0  0.78418363693E+03 -0.32729806505E+03 -0.43236857477E+03  0.95343205016E+03  0.46999998093E+01 0.  1.
       -5    1    3    3    0  502 -0.78418363693E+03  0.32729806505E+03  0.32325851790E+03  0.90916783886E+03  0.46999998093E+01 0. -1.
</event>
<event>
 5   0  0.1790832E-04  0.1901904E+04  0.7818609E-02  0.8653909E-01
       -2   -1    0    0    0  501  0.00000000000E+00  0.00000000000E+00  0.50831791989E+03  0.50831791990E+03  0.25500000920E-02 0. -1.
        2   -1    0    0  501    0  0.00000000000E+00  0.00000000000E+00 -0.17790238062E+04  0.17790238062E+04  0.25500000920E-02 0.  1.
    10030    2    1    2    0    0  0.00000000000E+00  0.00000000000E+00 -0.12707058863E+04  0.22873417261E+04  0.19019039730E+04 0.  0.
        5    1    3    3  502    0  0.77150001620E+03  0.15826373092E+03 -0.12763012043E+04  0.14997421570E+04  0.46999998093E+01 0.  1.
       -5    1    3    3    0  502 -0.77150001620E+03 -0.15826373092E+03  0.55953180458E+01  0.78759956901E+03  0.46999998093E+01 0. -1.
</event>
<event>
 5   0  0.1658711E-04  0.1886584E+04  0.7818609E-02  0.8661563E-01
        2   -1    0    0  501    0  0.00000000000E+00  0.00000000000E+00  0.96456853148E+03  0.96456853149E+03  0.25500000920E-02 0. -1.
       -2   -1    0    0    0  501  0.00000000000E+00  0.00000000000E+00 -0.92248494804E+03  0.92248494804E+03  0.25500000920E-02 0.  1.
    10030    2    1    2    0    0  0.00000000000E+00  0.00000000000E+00  0.42083583441E+02  0.18870534795E+04  0.18865841637E+04 0.  0.
        2    1    3    3  502    0  0.61117043354E+03 -0.71143981585E+02  0.73620859752E+03  0.95947582773E+03  0.25500000920E-02 0. -1.
       -2    1    3    3    0  502 -0.61117043354E+03  0.71143981585E+02 -0.69412501407E+03  0.92757765180E+03  0.25500000920E-02 0.  1.
</event>
<event>
 5   0  0.1790832E-04  0.1904538E+04  0.7818609E-02  0.8652601E-01
        2   -1    0    0  501    0  0.00000000000E+00  0.00000000000E+00  0.60811144097E+03  0.60811144098E+03  0.25500000920E-02 0.  1.
       -2   -1    0    0    0  501  0.00000000000E+00  0.00000000000E+00 -0.14912015299E+04  0.14912015299E+04  0.25500000920E-02 0. -1.
    10030    2    1    2    0    0  0.00000000000E+00  0.00000000000E+00 -0.88309008890E+03  0.20993129708E+04  0.19045384859E+04 0.  0.
        5    1    3    3  502    0  0.42596765429E+03  0.51329237292E+03  0.30757369272E+03  0.73453466158E+03  0.46999998093E+01 0.  1.
       -5    1    3    3    0  502 -0.42596765429E+03 -0.51329237292E+03 -0.11906637816E+04  0.13647783093E+04  0.46999998093E+01 0. -1.
</event>
<event>
 5   0  0.8905646E-05  0.1914926E+04  0.7818609E-02  0.8647462E-01
        1   -1    0    0  501    0  0.00000000000E+00  0.00000000000E+00  0.95053466616E+03  0.95053466618E+03  0.50400001928E-02 0.  1.
       -1   -1    0    0    0  501  0.00000000000E+00  0.00000000000E+00 -0.96444194901E+03  0.96444194902E+03  0.50400001928E-02 0. -1.
    10030    2    1    2    0    0  0.00000000000E+00  0.00000000000E+00 -0.13907282848E+02  0.19149766152E+04  0.19149261146E+04 0.  0.
        1    1    3    3  502    0 -0.15399591705E+02 -0.51264796452E+03 -0.81548620226E+03  0.96336017618E+03  0.50400001928E-02 0. -1.
       -1    1    3    3    0  502  0.15399591705E+02  0.51264796452E+03  0.80157891941E+03  0.95161643902E+03  0.50400001928E-02 0.  1.
</event>
<event>
 5   0  0.1658711E-04  0.1901307E+04  0.7818609E-02  0.8654206E-01
        2   -1    0    0  501    0  0.00000000000E+00  0.00000000000E+00  0.17714349514E+04  0.17714349514E+04  0.25500000920E-02 0.  1.
       -2   -1    0    0    0  501  0.00000000000E+00  0.00000000000E+00 -0.51017526978E+03  0.51017526979E+03  0.25500000920E-02 0. -1.
    10030    2    1    2    0    0  0.00000000000E+00  0.00000000000E+00  0.12612596816E+04  0.22816102212E+04  0.19013072390E+04 0.  0.
        2    1    3    3  502    0 -0.29312769415E+03 -0.58910716869E+03 -0.19273837225E+03  0.68565237652E+03  0.25500000920E-02 0. -1.
       -2    1    3    3    0  502  0.29312769415E+03  0.58910716869E+03  0.14539980539E+04  0.15959578447E+04  0.25500000920E-02 0.  1.
</event>
<event>
 5   0  0.8587082E-05  0.1900409E+04  0.7818609E-02  0.8654653E-01
        1   -1    0    0  501    0  0.00000000000E+00  0.00000000000E+00  0.13442651704E+04  0.13442651704E+04  0.50400001928E-02 0.  1.
       -1   -1    0    0    0  501  0.00000000000E+00  0.00000000000E+00 -0.67165977459E+03  0.67165977461E+03  0.50400001928E-02 0. -1.
    10030    2    1    2    0    0  0.00000000000E+00  0.00000000000E+00  0.67260539581E+03  0.20159249450E+04  0.19004092626E+04 0.  0.
        5    1    3    3  502    0  0.14011020887E+03 -0.23154516135E+03  0.13025038225E+04  0.13303316616E+04  0.46999998093E+01 0.  1.
       -5    1    3    3    0  502 -0.14011020887E+03  0.23154516135E+03 -0.62989842664E+03  0.68559328341E+03  0.46999998093E+01 0. -1.
</event>
<event>
 5   0  0.8681396E-05  0.1917208E+04  0.7818609E-02  0.8646338E-01
       -1   -1    0    0    0  501  0.00000000000E+00  0.00000000000E+00  0.79742312347E+03  0.79742312348E+03  0.50400001928E-02 0.  1.
        1   -1    0    0  501    0  0.00000000000E+00  0.00000000000E+00 -0.11523641738E+04  0.11523641738E+04  0.50400001928E-02 0. -1.
    10030    2    1    2    0    0  0.00000000000E+00  0.00000000000E+00 -0.35494105029E+03  0.19497872973E+04  0.19172082191E+04 0.  0.
        3    1    3    3  502    0 -0.51281963241E+03 -0.44331510403E+03  0.51184486385E+03  0.84941004921E+03  0.10100000352E+00 0.  1.
       -3    1    3    3    0  502  0.51281963241E+03  0.44331510403E+03 -0.86678591414E+03  0.11003772480E+04  0.10100000352E+00 0. -1.
</event>
<event>
 5   0  0.1810569E-04  0.1904448E+04  0.7818609E-02  0.8652646E-01
       -2   -1    0    0    0  501  0.00000000000E+00  0.00000000000E+00  0.63945530338E+03  0.63945530339E+03  0.25500000920E-02 0.  1.
        2   -1    0    0  501    0  0.00000000000E+00  0.00000000000E+00 -0.14179731480E+04  0.14179731480E+04  0.25500000920E-02 0. -1.
    10030    2    1    2    0    0  0.00000000000E+00  0.00000000000E+00 -0.77851784462E+03  0.20574284514E+04  0.19044478985E+04 0.  0.
        4    1    3    3  502    0  0.33311023080E+03  0.13345696055E+02 -0.13528656870E+04  0.13933368987E+04  0.12699999809E+01 0. -1.
       -4    1    3    3    0  502 -0.33311023080E+03 -0.13345696055E+02  0.57434784233E+03  0.66409155269E+03  0.12699999809E+01 0.  1.
</event>
<event>
 5   0  0.8587082E-05  0.1900513E+04  0.7818609E-02  0.8654601E-01
       -1   -1    0    0    0  501  0.00000000000E+00  0.00000000000E+00  0.95341650186E+03  0.95341650188E+03  0.50400001928E-02 0. -1.
        1   -1    0    0  501    0  0.00000000000E+00  0.00000000000E+00 -0.94710728146E+03  0.94710728147E+03  0.50400001928E-02 0.  1.
    10030    2    1    2    0    0  0.00000000000E+00  0.00000000000E+00  0.63092204055E+01  0.19005237833E+04  0.19005133109E+04 0.  0.
        5    1    3    3  502    0  0.66826139007E+03 -0.44347488573E+03  0.51278705010E+03  0.95195373232E+03  0.46999998093E+01 0. -1.
       -5    1    3    3    0  502 -0.66826139007E+03  0.44347488573E+03 -0.50647782970E+03  0.94857005103E+03  0.46999998093E+01 0.  1.
</event>
<event>
 5   0  0.8567844E-05  0.2014488E+04  0.7818609E-02  0.8599877E-01
        1   -1    0    0  501    0  0.00000000000E+00  0.00000000000E+00  0.89646119036E+03  0.89646119037E+03  0.50400001928E-02 0. -1.
       -1   -1    0    0    0  501  0.00000000000E+00  0.00000000000E+00 -0.11317171400E+04  0.11317171400E+04  0.50400001928E-02 0.  1.
    10030    2    1    2    0    0  0.00000000000E+00  0.00000000000E+00 -0.23525594962E+03  0.20281783304E+04  0.20144880188E+04 0.  0.
        4    1    3    3  502    0 -0.12936379565E+03 -0.72840938351E+03  0.57055490304E+03  0.93426427305E+03  0.12699999809E+01 0. -1.
       -4    1    3    3    0  502  0.12936379565E+03  0.72840938351E+03 -0.80581085266E+03  0.10939140573E+04  0.12699999809E+01 0.  1.
</event>
<event>
 5   0  0.8681396E-05  0.1877347E+04  0.7818609E-02  0.8666215E-01
        1   -1    0    0  501    0  0.00000000000E+00  0.00000000000E+00  0.10136102188E+04  0.10136102188E+04  0.50400001928E-02 0. -1.
       -1   -1    0    0    0  501  0.00000000000E+00  0.00000000000E+00 -0.86927706321E+03  0.86927706323E+03  0.50400001928E-02 0.  1.
    10030    2    1    2    0    0  0.00000000000E+00  0.00000000000E+00  0.14433315560E+03  0.18828872821E+04  0.18773471861E+04 0.  0.
        3    1    3    3  502    0  0.61340483562E+02 -0.50423019790E+03 -0.71952801800E+03  0.88075611056E+03  0.10100000352E+00 0.  1.
       -3    1    3    3    0  502 -0.61340483562E+02  0.50423019790E+03  0.86386117360E+03  0.10021311715E+04  0.10100000352E+00 0. -1.
</event>
<event>
 5   0  0.1790832E-04  0.1922709E+04  0.7818609E-02  0.8643635E-01
        2   -1    0    0  501    0  0.00000000000E+00  0.00000000000E+00  0.12451478227E+04  0.12451478227E+04  0.25500000920E-02 0. -1.
       -2   -1    0    0    0  501  0.00000000000E+00  0.00000000000E+00 -0.74224309419E+03  0.74224309419E+03  0.25500000920E-02 0.  1.
    10030    2    1    2    0    0  0.00000000000E+00  0.00000000000E+00  0.50290472854E+03  0.19873909169E+04  0.19227088939E+04 0.  0.
        5    1    3    3  502    0 -0.71515318815E+03  0.38924667489E+03 -0.27684161327E+03  0.86001187507E+03  0.46999998093E+01 0.  1.
       -5    1    3    3    0  502  0.71515318815E+03 -0.38924667489E+03  0.77974634180E+03  0.11273790418E+04  0.46999998093E+01 0. -1.
</event>
<event>
 5   0  0.8567844E-05  0.1892415E+04  0.7818609E-02  0.8658641E-01
       -1   -1    0    0    0  501  0.00000000000E+00  0.00000000000E+00  0.10182974219E+04  0.10182974219E+04  0.50400001928E-02 0. -1.
        1   -1    0    0  501    0  0.00000000000E+00  0.00000000000E+00 -0.87922091694E+03  0.87922091695E+03  0.50400001928E-02 0.  1.
    10030    2    1    2    0    0  0.00000000000E+00  0.00000000000E+00  0.13907650498E+03  0.18975183389E+04  0.18924147463E+04 0.  0.
        4    1    3    3  502    0  0.15123360172E+03 -0.81149436901E+03 -0.39421535437E+03  0.91476886247E+03  0.12699999809E+01 0.  1.
       -4    1    3    3    0  502 -0.15123360172E+03  0.81149436901E+03  0.53329185935E+03  0.98274947641E+03  0.12699999809E+01 0. -1.
</event>
<event>
 5   0  0.8587082E-05  0.1893427E+04  0.7818609E-02  0.8658135E-01
        1   -1    0    0  501    0  0.00000000000E+00  0.00000000000E+00  0.14655025753E+04  0.14655025753E+04  0.50400001928E-02 0.  1.
       -1   -1    0    0    0  501  0.00000000000E+00  0.00000000000E+00 -0.61157590594E+03  0.61157590596E+03  0.50400001928E-02 0. -1.
    10030    2    1    2    0    0  0.00000000000E+00  0.00000000000E+00  0.85392666937E+03  0.20770784813E+04  0.18934265924E+04 0.  0.
        5    1    3    3  502    0 -0.92815137069E+02  0.37979643183E+03 -0.51886220664E+03  0.64969228007E+03  0.46999998093E+01 0. -1.
       -5    1    3    3    0  502  0.92815137069E+02 -0.37979643183E+03  0.13727888760E+04  0.14273862012E+04  0.46999998093E+01 0.  1.
</event>
<event>
 5   0  0.1790832E-04  0.1917581E+04  0.7818609E-02  0.8646154E-01
       -2   -1    0    0    0  501  0.00000000000E+00  0.00000000000E+00  0.17151687505E+04  0.17151687505E+04  0.25500000920E-02 0.  1.
        2   -1    0    0  501    0  0.00000000000E+00  0.00000000000E+00 -0.53597011775E+03  0.53597011776E+03  0.25500000920E-02 0. -1.
    10030    2    1    2    0    0  0.00000000000E+00  0.00000000000E+00  0.11791986327E+04  0.22511388682E+04  0.19175809732E+04 0.  0.
        5    1    3    3  502    0 -0.15304248664E+03 -0.92300866151E+03  0.34365774964E+03  0.99673955014E+03  0.46999998093E+01 0. -1.
       -5    1    3    3    0  502  0.15304248664E+03  0.92300866151E+03  0.83554088309E+03  0.12543993181E+04  0.46999998093E+01 0.  1.
</event>
<event>
 5   0  0.8587082E-05  0.1840230E+04  0.7818609E-02  0.8685194E-01
        1   -1    0    0  501    0  0.00000000000E+00  0.00000000000E+00  0.13730385500E+04  0.13730385500E+04  0.50400001928E-02 0.  1.
       -1   -1    0    0    0  501  0.00000000000E+00  0.00000000000E+00 -0.61659698347E+03  0.61659698349E+03  0.50400001928E-02 0. -1.
    10030    2    1    2    0    0  0.00000000000E+00  0.00000000000E+00  0.75644156650E+03  0.19896355335E+04  0.18402297988E+04 0.  0.
        5    1    3    3  502    0 -0.75161928452E+03 -0.10706409227E+03 -0.18378421677E+03  0.78114851152E+03  0.46999998093E+01 0. -1.
       -5    1    3    3    0  502  0.75161928452E+03  0.10706409227E+03  0.94022578327E+03  0.12084870220E+04  0.46999998093E+01 0.  1.
</event>
<event>
 5   0  0.1810569E-04  0.1674546E+04  0.7818609E-02  0.8776016E-01
        2   -1    0    0  501    0  0.00000000000E+00  0.00000000000E+00  0.71128470207E+03  0.71128470207E+03  0.25500000920E-02 0.  1.
       -2   -1    0    0    0  501  0.00000000000E+00  0.00000000000E+00 -0.98557761090E+03  0.98557761091E+03  0.25500000920E-02 0. -1.
    10030    2    1    2    0    0  0.00000000000E+00  0.00000000000E+00 -0.27429290884E+03  0.16968623130E+04  0.16745462398E+04 0.  0.
        4    1    3    3  502    0  0.59150532060E+03 -0.51425388526E+03  0.16120737110E+03  0.80020311934E+03  0.12699999809E+01 0.  1.
       -4    1    3    3    0  502 -0.59150532060E+03  0.51425388526E+03 -0.43550027994E+03  0.89665919364E+03  0.12699999809E+01 0. -1.
</event>
<event>
 5   0  0.8567844E-05  0.1859935E+04  0.7818609E-02  0.8675060E-01
        1   -1    0    0  501    0  0.00000000000E+00  0.00000000000E+00  0.12194297680E+04  0.12194297680E+04  0.50400001928E-02 0.  1.
       -1   -1    0    0    0  501  0.00000000000E+00  0.00000000000E+00 -0.70921617856E+03  0.70921617858E+03  0.50400001928E-02 0. -1.
    10030    2    1    2    0    0  0.00000000000E+00  0.00000000000E+00  0.51021358942E+03  0.19286459466E+04  0.18599347517E+04 0.  0.
        4    1    3    3  502    0  0.77950052269E+03 -0.26422362654E+03 -0.19378587155E+03  0.84557067512E+03  0.12699999809E+01 0. -1.
       -4    1    3    3    0  502 -0.77950052269E+03  0.26422362654E+03  0.70399946097E+03  0.10830752715E+04  0.12699999809E+01 0.  1.
</event>
<event>
 5   0  0.8602017E-05  0.1855790E+04  0.7818609E-02  0.8677181E-01
        1   -1    0    0  501    0  0.00000000000E+00  0.00000000000E+00  0.15015875970E+04  0.15015875970E+04  0.50400001928E-02 0.  1.
       -1   -1    0    0    0  501  0.00000000000E+00  0.00000000000E+00 -0.57338580570E+03  0.57338580572E+03  0.50400001928E-02 0. -1.
    10030    2    1    2    0    0  0.00000000000E+00  0.00000000000E+00  0.92820179132E+03  0.20749734028E+04  0.18557898741E+04 0.  0.
        2    1    3    3  502    0 -0.71416021895E+03 -0.36978868586E+03  0.98160556398E+03  0.12689830471E+04  0.25500000920E-02 0.  1.
       -2    1    3    3    0  502  0.71416021895E+03  0.36978868586E+03 -0.53403772651E+02  0.80599035569E+03  0.25500000920E-02 0. -1.
</event>
<event>
 5   0  0.8681396E-05  0.1878358E+04  0.7818609E-02  0.8665705E-01
        1   -1    0    0  501    0  0.00000000000E+00  0.00000000000E+00  0.10635863663E+04  0.10635863663E+04  0.50400001928E-02 0. -1.
       -1   -1    0    0    0  501  0.00000000000E+00  0.00000000000E+00 -0.82932357056E+03  0.82932357057E+03  0.50400001928E-02 0.  1.
    10030    2    1    2    0    0  0.00000000000E+00  0.00000000000E+00  0.23426279574E+03  0.18929099369E+04  0.18783580520E+04 0.  0.
        3    1    3    3  502    0  0.65530431594E+03 -0.69883697239E+02  0.79145637861E+03  0.10299080964E+04  0.10100000352E+00 0. -1.
       -3    1    3    3    0  502 -0.65530431594E+03  0.69883697239E+02 -0.55719358287E+03  0.86300184045E+03  0.10100000352E+00 0.  1.
</event>
<event>
 5   0  0.1765328E-04  0.1879475E+04  0.7818609E-02  0.8665141E-01
       -2   -1    0    0    0  501  0.00000000000E+00  0.00000000000E+00  0.58812533345E+03  0.58812533345E+03  0.25500000920E-02 0. -1.
        2   -1    0    0  501    0  0.00000000000E+00  0.00000000000E+00 -0.15015623869E+04  0.15015623869E+04  0.25500000920E-02 0.  1.
    10030    2    1    2    0    0  0.00000000000E+00  0.00000000000E+00 -0.91343705346E+03  0.20896877204E+04  0.18794753305E+04 0.  0.
        3    1    3    3  502    0 -0.27153974105E+02  0.88445793358E+03 -0.10493960403E+03  0.89107547676E+03  0.10100000352E+00 0. -1.
       -3    1    3    3    0  502  0.27153974105E+02 -0.88445793358E+03 -0.80849744942E+03  0.11986122436E+04  0.10100000352E+00 0.  1.
</event>
<event>
 5   0  0.8602017E-05  0.1854363E+04  0.7818609E-02  0.8677912E-01
        1   -1    0    0  501    0  0.00000000000E+00  0.00000000000E+00  0.30770876924E+04  0.30770876924E+04  0.50400001928E-02 0.  1.
       -1   -1    0    0    0  501  0.00000000000E+00  0.00000000000E+00 -0.27937637474E+03  0.27937637478E+03  0.50400001928E-02 0. -1.
    10030    2    1    2    0    0  0.00000000000E+00  0.00000000000E+00  0.27977113176E+04  0.33564640671E+04  0.18543630759E+04 0.  0.
        2    1    3    3  502    0 -0.29116083255E+03 -0.14028368663E+03 -0.17411824384E+03  0.36711211638E+03  0.25500000920E-02 0. -1.
       -2    1    3    3    0  502  0.29116083255E+03  0.14028368663E+03  0.29718295615E+04  0.29893519508E+04  0.25500000920E-02 0.  1.
</event>
<event>
 5   0  0.8602017E-05  0.1919744E+04  0.7818609E-02  0.8645090E-01
        1   -1    0    0  501    0  0.00000000000E+00  0.00000000000E+00  0.21762768508E+04  0.21762768508E+04  0.50400001928E-02 0.  1.
       -1   -1    0    0    0  501  0.00000000000E+00  0.00000000000E+00 -0.42336280239E+03  0.42336280242E+03  0.50400001928E-02 0. -1.
    10030    2    1    2    0    0  0.00000000000E+00  0.00000000000E+00  0.17529140484E+04  0.25996396532E+04  0.19197444271E+04 0.  0.
        2    1    3    3  502    0  0.48178668174E+03 -0.58076740897E+03  0.73102153784E+02  0.75812473573E+03  0.25500000920E-02 0. -1.
       -2    1    3    3    0  502 -0.48178668174E+03  0.58076740897E+03  0.16798118946E+04  0.18415149175E+04  0.25500000920E-02 0.  1.
</event>
<event>
 5   0  0.1790832E-04  0.1960747E+04  0.7818609E-02  0.8625196E-01
       -2   -1    0    0    0  501  0.00000000000E+00  0.00000000000E+00  0.55604840337E+03  0.55604840337E+03  0.25500000920E-02 0.  1.
        2   -1    0    0  501    0  0.00000000000E+00  0.00000000000E+00 -0.17285053282E+04  0.17285053283E+04  0.25500000920E-02 0. -1.
    10030    2    1    2    0    0  0.00000000000E+00  0.00000000000E+00 -0.11724569249E+04  0.22845537316E+04  0.19607474371E+04 0.  0.
        5    1    3    3  502    0  0.57328432421E+03 -0.25363323423E+03 -0.14644457433E+04  0.15929871810E+04  0.46999998093E+01 0. -1.
       -5    1    3    3    0  502 -0.57328432421E+03  0.25363323423E+03  0.29198881837E+03  0.69156655062E+03  0.46999998093E+01 0.  1.
</event>
<event>
 5   0  0.1810569E-04  0.1905131E+04  0.7818609E-02  0.8652306E-01
        2   -1    0    0  501    0  0.00000000000E+00  0.00000000000E+00  0.10765509307E+04  0.10765509307E+04  0.25500000920E-02 0. -1.
       -2   -1    0    0    0  501  0.00000000000E+00  0.00000000000E+00 -0.84285968955E+03  0.84285968955E+03  0.25500000920E-02 0.  1.
    10030    2    1    2    0    0  0.00000000000E+00  0.00000000000E+00  0.23369124112E+03  0.19194106202E+04  0.19051313689E+04 0.  0.
        4    1    3    3  502    0  0.54902036350E+02  0.26690792752E+02  0.10745772846E+04  0.10763106362E+04  0.12699999809E+01 0. -1.
       -4    1    3    3    0  502 -0.54902036350E+02 -0.26690792752E+02 -0.84088604351E+03  0.84309998404E+03  0.12699999809E+01 0.  1.
</event>
<event>
 5   0  0.8602017E-05  0.1892116E+04  0.7818609E-02  0.8658791E-01
        1   -1    0    0  501    0  0.00000000000E+00  0.00000000000E+00  0.55106766345E+03  0.55106766348E+03  0.50400001928E-02 0. -1.
       -1   -1    0    0    0  501  0.00000000000E+00  0.00000000000E+00 -0.16241673106E+04  0.16241673106E+04  0.50400001928E-02 0.  1.
    10030    2    1    2    0    0  0.00000000000E+00  0.00000000000E+00 -0.10730996471E+04  0.21752349740E+04  0.18921163653E+04 0.  0.
        2    1    3    3  502    0 -0.16542160914E+03  0.91661401076E+03 -0.34597264247E+03  0.99360083677E+03  0.25500000920E-02 0.  1.
       -2    1    3    3    0  502  0.16542160914E+03 -0.91661401076E+03 -0.72712700463E+03  0.11816341373E+04  0.25500000920E-02 0. -1.
</event>
<event>
 5   0  0.8681396E-05  0.1905462E+04  0.7818609E-02  0.8652143E-01
        1   -1    0    0  501    0  0.00000000000E+00  0.00000000000E+00  0.21954515345E+04  0.21954515345E+04  0.50400001928E-02 0.  1.
       -1   -1    0    0    0  501  0.00000000000E+00  0.00000000000E+00 -0.41344387111E+03  0.41344387114E+03  0.50400001928E-02 0. -1.
    10030    2    1    2    0    0  0.00000000000E+00  0.00000000000E+00  0.17820076634E+04  0.26088954057E+04  0.19054616042E+04 0.  0.
        3    1    3    3  502    0 -0.31467593905E+03  0.52282047759E+03  0.18927755976E+04  0.19887085436E+04  0.10100000352E+00 0.  1.
       -3    1    3    3    0  502  0.31467593905E+03 -0.52282047759E+03 -0.11076793419E+03  0.62018686204E+03  0.10100000352E+00 0. -1.
</event>
<event>
 5   0  0.8681396E-05  0.1863630E+04  0.7818609E-02  0.8673175E-01
        1   -1    0    0  501    0  0.00000000000E+00  0.00000000000E+00  0.13678096164E+04  0.13678096164E+04  0.50400001928E-02 0. -1.
       -1   -1    0    0    0  501  0.00000000000E+00  0.00000000000E+00 -0.63479562014E+03  0.63479562016E+03  0.50400001928E-02 0.  1.
    10030    2    1    2    0    0  0.00000000000E+00  0.00000000000E+00  0.73301399628E+03  0.20026052366E+04  0.18636303858E+04 0.  0.
        3    1    3    3  502    0 -0.32216830689E+03 -0.57051651357E+03 -0.34547145714E+03  0.74069700156E+03  0.10100000352E+00 0.  1.
       -3    1    3    3    0  502  0.32216830689E+03  0.57051651357E+03  0.10784854534E+04  0.12619082350E+04  0.10100000352E+00 0. -1.
</event>
<event>
 5   0  0.1658711E-04  0.1909532E+04  0.7818609E-02  0.8650126E-01
       -2   -1    0    0    0  501  0.00000000000E+00  0.00000000000E+00  0.60989982511E+03  0.60989982511E+03  0.25500000920E-02 0. -1.
        2   -1    0    0  501    0  0.00000000000E+00  0.00000000000E+00 -0.14946354036E+04  0.14946354036E+04  0.25500000920E-02 0.  1.
    10030    2    1    2    0    0  0.00000000000E+00  0.00000000000E+00 -0.88473557845E+03  0.21045352287E+04  0.19095317449E+04 0.  0.
        2    1    3    3  502    0 -0.44221660444E+03 -0.32193602263E+03  0.42009358599E+03  0.68969337310E+03  0.25500000920E-02 0. -1.
       -2    1    3    3    0  502  0.44221660444E+03  0.32193602263E+03 -0.13048291644E+04  0.14148418556E+04  0.25500000920E-02 0.  1.
</event>
<event>
 5   0  0.8905646E-05  0.1938226E+04  0.7818609E-02  0.8636059E-01
       -1   -1    0    0    0  501  0.00000000000E+00  0.00000000000E+00  0.12550909294E+04  0.12550909294E+04  0.50400001928E-02 0. -1.
        1   -1    0    0  501    0  0.00000000000E+00  0.00000000000E+00 -0.74829636905E+03  0.74829636906E+03  0.50400001928E-02 0.  1.
    10030    2    1    2    0    0  0.00000000000E+00  0.00000000000E+00  0.50679456033E+03  0.20033872984E+04  0.19382259778E+04 0.  0.
        1    1    3    3  502    0 -0.48003684202E+03 -0.65148901171E+03  0.80452726547E+03  0.11411123621E+04  0.50400001928E-02 0. -1.
       -1    1    3    3    0  502  0.48003684202E+03  0.65148901171E+03 -0.29773270514E+03  0.86227493633E+03  0.50400001928E-02 0.  1.
</event>
<event>
 5   0  0.1790832E-04  0.1919178E+04  0.7818609E-02  0.8645369E-01
        2   -1    0    0  501    0  0.00000000000E+00  0.00000000000E+00  0.88893079705E+03  0.88893079705E+03  0.25500000920E-02 0. -1.
       -2   -1    0    0    0  501  0.00000000000E+00  0.00000000000E+00 -0.10358638807E+04  0.10358638807E+04  0.25500000920E-02 0.  1.
    10030    2    1    2    0    0  0.00000000000E+00  0.00000000000E+00 -0.14693308362E+03  0.19247946777E+04  0.19191782670E+04 0.  0.
        5    1    3    3  502    0  0.34069639267E+03  0.34374835436E+03  0.75754276981E+03  0.89896056709E+03  0.46999998093E+01 0. -1.
       -5    1    3    3    0  502 -0.34069639267E+03 -0.34374835436E+03 -0.90447585343E+03  0.10258341106E+04  0.46999998093E+01 0.  1.
</event>
<event>
 5   0  0.8681396E-05  0.1893919E+04  0.7818609E-02  0.8657889E-01
        1   -1    0    0  501    0  0.00000000000E+00  0.00000000000E+00  0.10973044938E+04  0.10973044939E+04  0.50400001928E-02 0. -1.
       -1   -1    0    0    0  501  0.00000000000E+00  0.00000000000E+00 -0.81721333543E+03  0.81721333544E+03  0.50400001928E-02 0.  1.
    10030    2    1    2    0    0  0.00000000000E+00  0.00000000000E+00  0.28009115841E+03  0.19145178293E+04  0.18939185467E+04 0.  0.
        3    1    3    3  502    0  0.54908403891E+03 -0.66993130971E+03 -0.24677899788E+03  0.90066704476E+03  0.10100000352E+00 0.  1.
       -3    1    3    3    0  502 -0.54908403891E+03  0.66993130971E+03  0.52687015630E+03  0.10138507845E+04  0.10100000352E+00 0. -1.
</event>
<event>
 5   0  0.1658711E-04  0.1924919E+04  0.7818609E-02  0.8642551E-01
        2   -1    0    0  501    0  0.00000000000E+00  0.00000000000E+00  0.13046219240E+04  0.13046219240E+04  0.25500000920E-02 0.  1.
       -2   -1    0    0    0  501  0.00000000000E+00  0.00000000000E+00 -0.71003556489E+03  0.71003556489E+03  0.25500000920E-02 0. -1.
    10030    2    1    2    0    0  0.00000000000E+00  0.00000000000E+00  0.59458635916E+03  0.20146574889E+04  0.19249186630E+04 0.  0.
        2    1    3    3  502    0 -0.52407355387E+03  0.77118851302E+03  0.54704553463E+03  0.10810382183E+04  0.25500000920E-02 0.  1.
       -2    1    3    3    0  502  0.52407355387E+03 -0.77118851302E+03  0.47540824524E+02  0.93361927063E+03  0.25500000920E-02 0. -1.
</event>
<event>
 5   0  0.6375750E-05  0.1904132E+04  0.7818609E-02  0.8652802E-01
       -3   -1    0    0    0  501  0.00000000000E+00  0.00000000000E+00  0.10512183911E+04  0.10512183959E+04  0.10100000352E+00 0. -1.
        3   -1    0    0  501    0  0.00000000000E+00  0.00000000000E+00 -0.86226618201E+03  0.86226618792E+03  0.10100000352E+00 0.  1.
    10030    2    1    2    0    0  0.00000000000E+00  0.00000000000E+00  0.18895220908E+03  0.19134845839E+04  0.19041324312E+04 0.  0.
        3    1    3    3  502    0  0.41026656699E+03 -0.71134625094E+03 -0.38965551210E+03  0.90893540641E+03  0.10100000352E+00 0.  1.
       -3    1    3    3    0  502 -0.41026656699E+03  0.71134625094E+03  0.57860772117E+03  0.10045491775E+04  0.10100000352E+00 0. -1.
</event>
<event>
 5   0  0.1790832E-04  0.2084897E+04  0.7818609E-02  0.8567926E-01
        2   -1    0    0  501    0  0.00000000000E+00  0.00000000000E+00  0.10230557822E+04  0.10230557822E+04  0.25500000920E-02 0.  1.
       -2   -1    0    0    0  501  0.00000000000E+00  0.00000000000E+00 -0.10622085992E+04  0.10622085992E+04  0.25500000920E-02 0. -1.
    10030    2    1    2    0    0  0.00000000000E+00  0.00000000000E+00 -0.39152817085E+02  0.20852643814E+04  0.20848967834E+04 0.  0.
        5    1    3    3  502    0 -0.80186662479E+02 -0.34793651088E+03 -0.99912993452E+03  0.10610242375E+04  0.46999998093E+01 0. -1.
       -5    1    3    3    0  502  0.80186662479E+02  0.34793651088E+03  0.95997711744E+03  0.10242401439E+04  0.46999998093E+01 0.  1.
</event>
<event>
 5   0  0.8905646E-05  0.1839932E+04  0.7818609E-02  0.8685348E-01
        1   -1    0    0  501    0  0.00000000000E+00  0.00000000000E+00  0.19313703339E+04  0.19313703340E+04  0.50400001928E-02 0. -1.
       -1   -1    0    0    0  501  0.00000000000E+00  0.00000000000E+00 -0.43820544148E+03  0.43820544151E+03  0.50400001928E-02 0.  1.
    10030    2    1    2    0    0  0.00000000000E+00  0.00000000000E+00  0.14931648925E+04  0.23695757755E+04  0.18399315095E+04 0.  0.
        1    1    3    3  502    0  0.38909596428E+03  0.34122241395E+03 -0.23296132738E+03  0.56753800338E+03  0.50400001928E-02 0.  1.
       -1    1    3    3    0  502 -0.38909596428E+03 -0.34122241395E+03  0.17261262198E+04  0.18020377721E+04  0.50400001928E-02 0. -1.
</event>
<event>
 5   0  0.8567844E-05  0.1899631E+04  0.7818609E-02  0.8655040E-01
        1   -1    0    0  501    0  0.00000000000E+00  0.00000000000E+00  0.10582587383E+04  0.10582587383E+04  0.50400001928E-02 0. -1.
       -1   -1    0    0    0  501  0.00000000000E+00  0.00000000000E+00 -0.85248459516E+03  0.85248459518E+03  0.50400001928E-02 0.  1.
    10030    2    1    2    0    0  0.00000000000E+00  0.00000000000E+00  0.20577414310E+03  0.19107433335E+04  0.18996307769E+04 0.  0.
        4    1    3    3  502    0  0.29498222656E+03  0.39181419082E+03 -0.71526824474E+03  0.86726186873E+03  0.12699999809E+01 0.  1.
       -4    1    3    3    0  502 -0.29498222656E+03 -0.39181419082E+03  0.92104238784E+03  0.10434814647E+04  0.12699999809E+01 0. -1.
</event>
<event>
 5   0  0.1765328E-04  0.1907653E+04  0.7818609E-02  0.8651056E-01
        2   -1    0    0  501    0  0.00000000000E+00  0.00000000000E+00  0.19465120091E+04  0.19465120091E+04  0.25500000920E-02 0. -1.
       -2   -1    0    0    0  501  0.00000000000E+00  0.00000000000E+00 -0.46739241915E+03  0.46739241916E+03  0.25500000920E-02 0.  1.
    10030    2    1    2    0    0  0.00000000000E+00  0.00000000000E+00  0.14791195900E+04  0.24139044283E+04  0.19076529631E+04 0.  0.
        3    1    3    3  502    0  0.15636661921E+03  0.70908896375E+03  0.15221815205E+04  0.16865035634E+04  0.10100000352E+00 0. -1.
       -3    1    3    3    0  502 -0.15636661921E+03 -0.70908896375E+03 -0.43061930482E+02  0.72740086484E+03  0.10100000352E+00 0.  1.
</event>
<event>
 5   0  0.8587082E-05  0.1817257E+04  0.7818609E-02  0.8697176E-01
        1   -1    0    0  501    0  0.00000000000E+00  0.00000000000E+00  0.15578927627E+04  0.15578927627E+04  0.50400001928E-02 0.  1.
       -1   -1    0    0    0  501  0.00000000000E+00  0.00000000000E+00 -0.52995059919E+03  0.52995059921E+03  0.50400001928E-02 0. -1.
    10030    2    1    2    0    0  0.00000000000E+00  0.00000000000E+00  0.10279421635E+04  0.20878433619E+04  0.18172574976E+04 0.  0.
        5    1    3    3  502    0 -0.76269227325E+03  0.18405653904E+03  0.10404720284E+04  0.13031425267E+04  0.46999998093E+01 0. -1.
       -5    1    3    3    0  502  0.76269227325E+03 -0.18405653904E+03 -0.12529864824E+02  0.78470083519E+03  0.46999998093E+01 0.  1.
</event>
<event>
 5   0  0.1799738E-04  0.1916285E+04  0.7818609E-02  0.8646792E-01
        2   -1    0    0  501    0  0.00000000000E+00  0.00000000000E+00  0.15528690799E+04  0.15528690799E+04  0.25500000920E-02 0.  1.
       -2   -1    0    0    0  501  0.00000000000E+00  0.00000000000E+00 -0.59118793995E+03  0.59118793995E+03  0.25500000920E-02 0. -1.
    10030    2    1    2    0    0  0.00000000000E+00  0.00000000000E+00  0.96168114000E+03  0.21440570199E+04  0.19162854405E+04 0.  0.
        1    1    3    3  502    0  0.13791873571E+03  0.27881426220E+03  0.14948018206E+04  0.15268239759E+04  0.50400001928E-02 0.  1.
       -1    1    3    3    0  502 -0.13791873571E+03 -0.27881426220E+03 -0.53312068062E+03  0.61723304399E+03  0.50400001928E-02 0. -1.
</event>
<event>
 5   0  0.8905646E-05  0.1911812E+04  0.7818609E-02  0.8648999E-01
       -1   -1    0    0    0  501  0.00000000000E+00  0.00000000000E+00  0.98927553557E+03  0.98927553558E+03  0.50400001928E-02 0.  1.
        1   -1    0    0  501    0  0.00000000000E+00  0.00000000000E+00 -0.92366192887E+03  0.92366192888E+03  0.50400001928E-02 0. -1.
    10030    2    1    2    0    0  0.00000000000E+00  0.00000000000E+00  0.65613606702E+02  0.19129374645E+04  0.19118118625E+04 0.  0.
        1    1    3    3  502    0 -0.66750422163E+03  0.42515913811E+03 -0.50363753740E+03  0.93806873294E+03  0.50400001928E-02 0. -1.
       -1    1    3    3    0  502  0.66750422163E+03 -0.42515913811E+03  0.56925114410E+03  0.97486873152E+03  0.50400001928E-02 0.  1.
</event>
<event>
 5   0  0.1658711E-04  0.1896967E+04  0.7818609E-02  0.8656367E-01
       -2   -1    0    0    0  501  0.00000000000E+00  0.00000000000E+00  0.11012639282E+04  0.11012639282E+04  0.25500000920E-02 0. -1.
        2   -1    0    0  501    0  0.00000000000E+00  0.00000000000E+00 -0.81689875917E+03  0.81689875918E+03  0.25500000920E-02 0.  1.
    10030    2    1    2    0    0  0.00000000000E+00  0.00000000000E+00  0.28436516898E+03  0.19181626873E+04  0.18969671968E+04 0.  0.
        2    1    3    3  502    0 -0.38170105425E+03 -0.73835167493E+01 -0.73577617223E+03  0.82892507910E+03  0.25500000920E-02 0.  1.
       -2    1    3    3    0  502  0.38170105425E+03  0.73835167493E+01  0.10201413412E+04  0.10892376082E+04  0.25500000920E-02 0. -1.
</event>
<event>
 5   0  0.8681396E-05  0.1881069E+04  0.7818609E-02  0.8664337E-01
        1   -1    0    0  501    0  0.00000000000E+00  0.00000000000E+00  0.12318700488E+04  0.12318700488E+04  0.50400001928E-02 0.  1.
       -1   -1    0    0    0  501  0.00000000000E+00  0.00000000000E+00 -0.71809948090E+03  0.71809948092E+03  0.50400001928E-02 0. -1.
    10030    2    1    2    0    0  0.00000000000E+00  0.00000000000E+00  0.51377056794E+03  0.19499695298E+04  0.18810691031E+04 0.  0.
        3    1    3    3  502    0 -0.87362769100E+03 -0.72028819914E+02 -0.96469276650E+02  0.88188424689E+03  0.10100000352E+00 0. -1.
       -3    1    3    3    0  502  0.87362769100E+03  0.72028819914E+02  0.61023984459E+03  0.10680852829E+04  0.10100000352E+00 0.  1.
</event>
<event>
 5   0  0.1810569E-04  0.1867992E+04  0.7818609E-02  0.8670955E-01
       -2   -1    0    0    0  501  0.00000000000E+00  0.00000000000E+00  0.77697504594E+03  0.77697504594E+03  0.25500000920E-02 0.  1.
        2   -1    0    0  501    0  0.00000000000E+00  0.00000000000E+00 -0.11227503063E+04  0.11227503063E+04  0.25500000920E-02 0. -1.
    10030    2    1    2    0    0  0.00000000000E+00  0.00000000000E+00 -0.34577526040E+03  0.18997253523E+04  0.18679924741E+04 0.  0.
        4    1    3    3  502    0 -0.85306684037E+03  0.12322680715E+03 -0.53877639371E+03  0.10164592936E+04  0.12699999809E+01 0. -1.
       -4    1    3    3    0  502  0.85306684037E+03 -0.12322680715E+03  0.19300113331E+03  0.88326605873E+03  0.12699999809E+01 0.  1.
</event>
<event>
 5   0  0.1799738E-04  0.1900192E+04  0.7818609E-02  0.8654761E-01
        2   -1    0    0  501    0  0.00000000000E+00  0.00000000000E+00  0.74666524380E+03  0.74666524380E+03  0.25500000920E-02 0. -1.
       -2   -1    0    0    0  501  0.00000000000E+00  0.00000000000E+00 -0.12089515274E+04  0.12089515274E+04  0.25500000920E-02 0.  1.
    10030    2    1    2    0    0  0.00000000000E+00  0.00000000000E+00 -0.46228628365E+03  0.19556167713E+04  0.19001916608E+04 0.  0.
        1    1    3    3  502    0 -0.81505532967E+03 -0.38254898509E+03 -0.54334461025E+03  0.10516093771E+04  0.50400001928E-02 0.  1.
       -1    1    3    3    0  502  0.81505532967E+03  0.38254898509E+03  0.81058326602E+02  0.90400739419E+03  0.50400001928E-02 0. -1.
</event>
<event>
 5   0  0.8681396E-05  0.1898466E+04  0.7818609E-02  0.8655620E-01
        1   -1    0    0  501    0  0.00000000000E+00  0.00000000000E+00  0.13626533534E+04  0.13626533534E+04  0.50400001928E-02 0.  1.
       -1   -1    0    0    0  501  0.00000000000E+00  0.00000000000E+00 -0.66124208619E+03  0.66124208621E+03  0.50400001928E-02 0. -1.
    10030    2    1    2    0    0  0.00000000000E+00  0.00000000000E+00  0.70141126720E+03  0.20238954396E+04  0.18984664824E+04 0.  0.
        3    1    3    3  502    0 -0.70227734975E+03  0.61566250941E+03  0.16975659781E+03  0.94923712221E+03  0.10100000352E+00 0. -1.
       -3    1    3    3    0  502  0.70227734975E+03 -0.61566250941E+03  0.53165466939E+03  0.10746583174E+04  0.10100000352E+00 0.  1.
</event>
<event>
 5   0  0.8587082E-05  0.1893705E+04  0.7818609E-02  0.8657996E-01
        1   -1    0    0  501    0  0.00000000000E+00  0.00000000000E+00  0.18957027137E+04  0.18957027137E+04  0.50400001928E-02 0.  1.
       -1   -1    0    0    0  501  0.00000000000E+00  0.00000000000E+00 -0.47292715617E+03  0.47292715620E+03  0.50400001928E-02 0. -1.
    10030    2    1    2    0    0  0.00000000000E+00  0.00000000000E+00  0.14227755576E+04  0.23686298699E+04  0.18937046162E+04 0.  0.
        5    1    3    3  502    0  0.87054994372E+03  0.88611674926E+02  0.25902645568E+03  0.91259302440E+03  0.46999998093E+01 0. -1.
       -5    1    3    3    0  502 -0.87054994372E+03 -0.88611674926E+02  0.11637491019E+04  0.14560368455E+04  0.46999998093E+01 0.  1.
</event>
<event>
 5   0  0.8681396E-05  0.1900541E+04  0.7818609E-02  0.8654587E-01
        1   -1    0    0  501    0  0.00000000000E+00  0.00000000000E+00  0.54795610631E+03  0.54795610633E+03  0.50400001928E-02 0. -1.
       -1   -1    0    0    0  501  0.00000000000E+00  0.00000000000E+00 -0.16479673554E+04  0.16479673554E+04  0.50400001928E-02 0.  1.
    10030    2    1    2    0    0  0.00000000000E+00  0.00000000000E+00 -0.11000112491E+04  0.21959234617E+04  0.19005407393E+04 0.  0.
        3    1    3    3  502    0  0.69634226856E+03  0.69003394887E+02  0.19284946641E+03  0.72584085748E+03  0.10100000352E+00 0. -1.
       -3    1    3    3    0  502 -0.69634226856E+03 -0.69003394887E+02 -0.12928607155E+04  0.14700826042E+04  0.10100000352E+00 0.  1.
</event>
<event>
 5   0  0.8587082E-05  0.1817018E+04  0.7818609E-02  0.8697302E-01
        1   -1    0    0  501    0  0.00000000000E+00  0.00000000000E+00  0.21237341831E+04  0.21237341831E+04  0.50400001928E-02 0.  1.
       -1   -1    0    0    0  501  0.00000000000E+00  0.00000000000E+00 -0.38864950689E+03  0.38864950692E+03  0.50400001928E-02 0. -1.
    10030    2    1    2    0    0  0.00000000000E+00  0.00000000000E+00  0.17350846762E+04  0.25123836900E+04  0.18170176037E+04 0.  0.
        5    1    3    3  502    0 -0.33470034861E+03  0.19314266114E+03 -0.26933157656E+03  0.47105201309E+03  0.46999998093E+01 0. -1.
       -5    1    3    3    0  502  0.33470034861E+03 -0.19314266114E+03  0.20044162527E+04  0.20413316769E+04  0.46999998093E+01 0.  1.
</event>
<event>
 5   0  0.1658711E-04  0.1904082E+04  0.7818609E-02  0.8652827E-01
        2   -1    0    0  501    0  0.00000000000E+00  0.00000000000E+00  0.10024592123E+04  0.10024592123E+04  0.25500000920E-02 0.  1.
       -2   -1    0    0    0  501  0.00000000000E+00  0.00000000000E+00 -0.90415860284E+03  0.90415860285E+03  0.25500000920E-02 0. -1.
    10030    2    1    2    0    0  0.00000000000E+00  0.00000000000E+00  0.98300609493E+02  0.19066178152E+04  0.19040820579E+04 0.  0.
        2    1    3    3  502    0 -0.43410134614E+03 -0.75652639396E+03  0.43124196450E+03  0.97300863070E+03  0.25500000920E-02 0.  1.
       -2    1    3    3    0  502  0.43410134614E+03  0.75652639396E+03 -0.33294135501E+03  0.93360918448E+03  0.25500000920E-02 0. -1.
</event>
<event>
 5   0  0.8681396E-05  0.1900762E+04  0.7818609E-02  0.8654477E-01
       -1   -1    0    0    0  501  0.00000000000E+00  0.00000000000E+00  0.76260869893E+03  0.76260869895E+03  0.50400001928E-02 0.  1.
        1   -1    0    0  501    0  0.00000000000E+00  0.00000000000E+00 -0.11843878106E+04  0.11843878106E+04  0.50400001928E-02 0. -1.
    10030    2    1    2    0    0  0.00000000000E+00  0.00000000000E+00 -0.42177911165E+03  0.19469965095E+04  0.19007624231E+04 0.  0.
        3    1    3    3  502    0 -0.83033662861E+02  0.45072778495E+03 -0.10637118897E+04  0.11582457079E+04  0.10100000352E+00 0. -1.
       -3    1    3    3    0  502  0.83033662861E+02 -0.45072778495E+03  0.64193277810E+03  0.78875080164E+03  0.10100000352E+00 0.  1.
</event>
<event>
 5   0  0.1799738E-04  0.1953619E+04  0.7818609E-02  0.8628618E-01
       -2   -1    0    0    0  501  0.00000000000E+00  0.00000000000E+00  0.47876517603E+03  0.47876517604E+03  0.25500000920E-02 0.  1.
        2   -1    0    0  501    0  0.00000000000E+00  0.00000000000E+00 -0.19929534472E+04  0.19929534472E+04  0.25500000920E-02 0. -1.
    10030    2    1    2    0    0  0.00000000000E+00  0.00000000000E+00 -0.15141882712E+04  0.24717186232E+04  0.19536189065E+04 0.  0.
        1    1    3    3  502    0 -0.23839541212E+03 -0.31181561346E+03 -0.18887908518E+04  0.19291428748E+04  0.50400001928E-02 0. -1.
       -1    1    3    3    0  502  0.23839541212E+03  0.31181561346E+03  0.37460258068E+03  0.54257574844E+03  0.50400001928E-02 0.  1.
</event>
<event>
 5   0  0.1810569E-04  0.1889167E+04  0.7818609E-02  0.8660267E-01
       -2   -1    0    0    0  501  0.00000000000E+00  0.00000000000E+00  0.72704077012E+03  0.72704077013E+03  0.25500000920E-02 0. -1.
        2   -1    0    0  501    0  0.00000000000E+00  0.00000000000E+00 -0.12272191012E+04  0.12272191012E+04  0.25500000920E-02 0.  1.
    10030    2    1    2    0    0  0.00000000000E+00  0.00000000000E+00 -0.50017833106E+03  0.19542598713E+04  0.18891673515E+04 0.  0.
        4    1    3    3  502    0  0.24375379752E+03 -0.30853115956E+03 -0.11385350248E+04  0.12045210691E+04  0.12699999809E+01 0.  1.
       -4    1    3    3    0  502 -0.24375379752E+03  0.30853115956E+03  0.63835669375E+03  0.74973880224E+03  0.12699999809E+01 0. -1.
</event>
<event>
 5   0  0.8681396E-05  0.1882563E+04  0.7818609E-02  0.8663585E-01
       -1   -1    0    0    0  501  0.00000000000E+00  0.00000000000E+00  0.40521102426E+03  0.40521102429E+03  0.50400001928E-02 0.  1.
        1   -1    0    0  501    0  0.00000000000E+00  0.00000000000E+00 -0.21865410331E+04  0.21865410331E+04  0.50400001928E-02 0. -1.
    10030    2    1    2    0    0  0.00000000000E+00  0.00000000000E+00 -0.17813300088E+04  0.25917520574E+04  0.18825626488E+04 0.  0.
        3    1    3    3  502    0  0.49300038171E+03 -0.69637730464E+03 -0.34339737480E+03  0.91973501293E+03  0.10100000352E+00 0.  1.
       -3    1    3    3    0  502 -0.49300038171E+03  0.69637730464E+03 -0.14379326340E+04  0.16720170445E+04  0.10100000352E+00 0. -1.
</event>
<event>
 5   0  0.1765328E-04  0.1907067E+04  0.7818609E-02  0.8651347E-01
       -2   -1    0    0    0  501  0.00000000000E+00  0.00000000000E+00  0.54747483609E+03  0.54747483610E+03  0.25500000920E-02 0. -1.
        2   -1    0    0  501    0  0.00000000000E+00  0.00000000000E+00 -0.16607625485E+04  0.16607625485E+04  0.25500000920E-02 0.  1.
    10030    2    1    2    0    0  0.00000000000E+00  0.00000000000E+00 -0.11132877125E+04  0.22082373846E+04  0.19070665474E+04 0.  0.
        3    1    3    3  502    0 -0.71976646740E+03 -0.62344461039E+03 -0.49899432868E+03  0.10750545568E+04  0.10100000352E+00 0. -1.
       -3    1    3    3    0  502  0.71976646740E+03  0.62344461039E+03 -0.61429338377E+03  0.11331828279E+04  0.10100000352E+00 0.  1.
</event>
<event>
 5   0  0.1765328E-04  0.1867774E+04  0.7818609E-02  0.8671066E-01
        2   -1    0    0  501    0  0.00000000000E+00  0.00000000000E+00  0.23294142834E+04  0.23294142834E+04  0.25500000920E-02 0. -1.
       -2   -1    0    0    0  501  0.00000000000E+00  0.00000000000E+00 -0.37440521553E+03  0.37440521554E+03  0.25500000920E-02 0.  1.
    10030    2    1    2    0    0  0.00000000000E+00  0.00000000000E+00  0.19550090679E+04  0.27038194990E+04  0.18677739230E+04 0.  0.
        3    1    3    3  502    0  0.80677349871E+01 -0.10792866457E+03 -0.36529583928E+03  0.38099179175E+03  0.10100000352E+00 0.  1.
       -3    1    3    3    0  502 -0.80677349871E+01  0.10792866457E+03  0.23203049072E+04  0.23228277072E+04  0.10100000352E+00 0. -1.
</event>
<event>
 5   0  0.8602017E-05  0.1882340E+04  0.7818609E-02  0.8663697E-01
       -1   -1    0    0    0  501  0.00000000000E+00  0.00000000000E+00  0.53801850495E+03  0.53801850497E+03  0.50400001928E-02 0.  1.
        1   -1    0    0  501    0  0.00000000000E+00  0.00000000000E+00 -0.16464135172E+04  0.16464135172E+04  0.50400001928E-02 0. -1.
    10030    2    1    2    0    0  0.00000000000E+00  0.00000000000E+00 -0.11083950123E+04  0.21844320222E+04  0.18823399683E+04 0.  0.
        2    1    3    3  502    0  0.32896103783E+03  0.50841209240E+03  0.28191962612E+03  0.66796474136E+03  0.25500000920E-02 0.  1.
       -2    1    3    3    0  502 -0.32896103783E+03 -0.50841209240E+03 -0.13903146384E+04  0.15164672809E+04  0.25500000920E-02 0. -1.
</event>
<event>
 5   0  0.8587082E-05  0.1899994E+04  0.7818609E-02  0.8654859E-01
       -1   -1    0    0    0  501  0.00000000000E+00  0.00000000000E+00  0.32435544804E+03  0.32435544808E+03  0.50400001928E-02 0. -1.
        1   -1    0    0  501    0  0.00000000000E+00  0.00000000000E+00 -0.27824244468E+04  0.27824244468E+04  0.50400001928E-02 0.  1.
    10030    2    1    2    0    0  0.00000000000E+00  0.00000000000E+00 -0.24580689988E+04  0.31067798949E+04  0.18999942402E+04 0.  0.
        5    1    3    3  502    0  0.96492816905E+02 -0.91104676823E+03 -0.81810879240E+03  0.12282675457E+04  0.46999998093E+01 0. -1.
       -5    1    3    3    0  502 -0.96492816905E+02  0.91104676823E+03 -0.16399602064E+04  0.18785123492E+04  0.46999998093E+01 0.  1.
</event>
<event>
 5   0  0.8905646E-05  0.1837880E+04  0.7818609E-02  0.8686411E-01
        1   -1    0    0  501    0  0.00000000000E+00  0.00000000000E+00  0.65445857551E+03  0.65445857553E+03  0.50400001928E-02 0.  1.
       -1   -1    0    0    0  501  0.00000000000E+00  0.00000000000E+00 -0.12903047247E+04  0.12903047247E+04  0.50400001928E-02 0. -1.
    10030    2    1    2    0    0  0.00000000000E+00  0.00000000000E+00 -0.63584614918E+03  0.19447633002E+04  0.18378802922E+04 0.  0.
        1    1    3    3  502    0 -0.44166913556E+03 -0.78157036010E+03 -0.11022479014E+03  0.90447407784E+03  0.50400001928E-02 0.  1.
       -1    1    3    3    0  502  0.44166913556E+03  0.78157036010E+03 -0.52562135904E+03  0.10402892224E+04  0.50400001928E-02 0. -1.
</event>
<event>
 5   0  0.1790832E-04  0.1757390E+04  0.7818609E-02  0.8729293E-01
       -2   -1    0    0    0  501  0.00000000000E+00  0.00000000000E+00  0.77714058124E+03  0.77714058124E+03  0.25500000920E-02 0.  1.
        2   -1    0    0  501    0  0.00000000000E+00  0.00000000000E+00 -0.99351983110E+03  0.99351983111E+03  0.25500000920E-02 0. -1.
    10030    2    1    2    0    0  0.00000000000E+00  0.00000000000E+00 -0.21637924987E+03  0.17706604123E+04  0.17573896313E+04 0.  0.
        5    1    3    3  502    0 -0.18670941396E+02 -0.86692199879E+03  0.34939900002E+02  0.86783941064E+03  0.46999998093E+01 0.  1.
       -5    1    3    3    0  502  0.18670941396E+02  0.86692199879E+03 -0.25131914987E+03  0.90282100171E+03  0.46999998093E+01 0. -1.
</event>
<event>
 5   0  0.1765328E-04  0.1898654E+04  0.7818609E-02  0.8655526E-01
       -2   -1    0    0    0  501  0.00000000000E+00  0.00000000000E+00  0.71581117065E+03  0.71581117065E+03  0.25500000920E-02 0. -1.
        2   -1    0    0  501    0  0.00000000000E+00  0.00000000000E+00 -0.12590221308E+04  0.12590221308E+04  0.25500000920E-02 0.  1.
    10030    2    1    2    0    0  0.00000000000E+00  0.00000000000E+00 -0.54321096014E+03  0.19748333014E+04  0.18986543712E+04 0.  0.
        3    1    3    3  502    0  0.78487052592E+03 -0.52019285559E+03 -0.14592808412E+03  0.95284697901E+03  0.10100000352E+00 0. -1.
       -3    1    3    3    0  502 -0.78487052592E+03  0.52019285559E+03 -0.39728287601E+03  0.10219863224E+04  0.10100000352E+00 0.  1.
</event>
<event>
 5   0  0.1810569E-04  0.1895062E+04  0.7818609E-02  0.8657318E-01
        2   -1    0    0  501    0  0.00000000000E+00  0.00000000000E+00  0.16748964189E+04  0.16748964189E+04  0.25500000920E-02 0. -1.
       -2   -1    0    0    0  501  0.00000000000E+00  0.00000000000E+00 -0.53604203705E+03  0.53604203706E+03  0.25500000920E-02 0.  1.
    10030    2    1    2    0    0  0.00000000000E+00  0.00000000000E+00  0.11388543819E+04  0.22109384560E+04  0.18950618863E+04 0.  0.
        4    1    3    3  502    0  0.42145454305E+02  0.88837244333E+03  0.18809559279E+03  0.90904532468E+03  0.12699999809E+01 0.  1.
       -4    1    3    3    0  502 -0.42145454305E+02 -0.88837244333E+03  0.95075878907E+03  0.13018931313E+04  0.12699999809E+01 0. -1.
</event>
<event>
 5   0  0.1765328E-04  0.1878899E+04  0.7818609E-02  0.8665431E-01
        2   -1    0    0  501    0  0.00000000000E+00  0.00000000000E+00  0.96744599823E+03  0.96744599824E+03  0.25500000920E-02 0. -1.
       -2   -1    0    0    0  501  0.00000000000E+00  0.00000000000E+00 -0.91226338871E+03  0.91226338872E+03  0.25500000920E-02 0.  1.
    10030    2    1    2    0    0  0.00000000000E+00  0.00000000000E+00  0.55182609519E+02  0.18797093870E+04  0.18788992147E+04 0.  0.
        3    1    3    3  502    0  0.19389876945E+03 -0.17152144184E+03 -0.87587573401E+03  0.91333162073E+03  0.10100000352E+00 0.  1.
       -3    1    3    3    0  502 -0.19389876945E+03  0.17152144184E+03  0.93105834353E+03  0.96637776622E+03  0.10100000352E+00 0. -1.
</event>
<event>
 5   0  0.8587082E-05  0.1543475E+04  0.7818609E-02  0.8856047E-01
        1   -1    0    0  501    0  0.00000000000E+00  0.00000000000E+00  0.11832431062E+04  0.11832431062E+04  0.50400001928E-02 0.  1.
       -1   -1    0    0    0  501  0.00000000000E+00  0.00000000000E+00 -0.50334408673E+03  0.50334408676E+03  0.50400001928E-02 0. -1.
    10030    2    1    2    0    0  0.00000000000E+00  0.00000000000E+00  0.67989901943E+03  0.16865871929E+04  0.15434745488E+04 0.  0.
        5    1    3    3  502    0  0.37303858492E+03 -0.65653226803E+03  0.16592213714E+03  0.77313947668E+03  0.46999998093E+01 0. -1.
       -5    1    3    3    0  502 -0.37303858492E+03  0.65653226803E+03  0.51397688229E+03  0.91344771626E+03  0.46999998093E+01 0.  1.
</event>
<event>
 5   0  0.8567844E-05  0.1855618E+04  0.7818609E-02  0.8677269E-01
        1   -1    0    0  501    0  0.00000000000E+00  0.00000000000E+00  0.73880814305E+03  0.73880814307E+03  0.50400001928E-02 0.  1.
       -1   -1    0    0    0  501  0.00000000000E+00  0.00000000000E+00 -0.11651599401E+04  0.11651599401E+04  0.50400001928E-02 0. -1.
    10030    2    1    2    0    0  0.00000000000E+00  0.00000000000E+00 -0.42635179708E+03  0.19039680832E+04  0.18556181199E+04 0.  0.
        4    1    3    3  502    0 -0.34745711468E+03 -0.53240791038E+03  0.48018549453E+03  0.79672099987E+03  0.12699999809E+01 0.  1.
       -4    1    3    3    0  502  0.34745711468E+03  0.53240791038E+03 -0.90653729161E+03  0.11072470833E+04  0.12699999809E+01 0. -1.
</event>
<event>
 5   0  0.8587082E-05  0.1896681E+04  0.7818609E-02  0.8656510E-01
        1   -1    0    0  501    0  0.00000000000E+00  0.00000000000E+00  0.65243924260E+03  0.65243924262E+03  0.50400001928E-02 0.  1.
       -1   -1    0    0    0  501  0.00000000000E+00  0.00000000000E+00 -0.13784418774E+04  0.13784418774E+04  0.50400001928E-02 0. -1.
    10030    2    1    2    0    0  0.00000000000E+00  0.00000000000E+00 -0.72600263484E+03  0.20308811201E+04  0.18966808635E+04 0.  0.
        5    1    3    3  502    0  0.71703305071E+03  0.61776289949E+03 -0.29911311774E+03  0.99260170411E+03  0.46999998093E+01 0.  1.
       -5    1    3    3    0  502 -0.71703305071E+03 -0.61776289949E+03 -0.42688951710E+03  0.10382794160E+04  0.46999998093E+01 0. -1.
</event>
<event>
 5   0  0.8567844E-05  0.1917091E+04  0.7818609E-02  0.8646396E-01
        1   -1    0    0  501    0  0.00000000000E+00  0.00000000000E+00  0.97084942918E+03  0.97084942919E+03  0.50400001928E-02 0.  1.
       -1   -1    0    0    0  501  0.00000000000E+00  0.00000000000E+00 -0.94639744472E+03  0.94639744474E+03  0.50400001928E-02 0. -1.
    10030    2    1    2    0    0  0.00000000000E+00  0.00000000000E+00  0.24451984454E+02  0.19172468739E+04  0.19170909410E+04 0.  0.
        4    1    3    3  502    0  0.60884183378E+03 -0.26611190770E+03 -0.67870202824E+03  0.94981155079E+03  0.12699999809E+01 0. -1.
       -4    1    3    3    0  502 -0.60884183378E+03  0.26611190770E+03  0.70315401269E+03  0.96743532313E+03  0.12699999809E+01 0.  1.
</event>
<event>
 5   0  0.1765328E-04  0.1894259E+04  0.7818609E-02  0.8657719E-01
        2   -1    0    0  501    0  0.00000000000E+00  0.00000000000E+00  0.12186628756E+04  0.12186628756E+04  0.25500000920E-02 0. -1.
       -2   -1    0    0    0  501  0.00000000000E+00  0.00000000000E+00 -0.73609691810E+03  0.73609691811E+03  0.25500000920E-02 0.  1.
    10030    2    1    2    0    0  0.00000000000E+00  0.00000000000E+00  0.48256595753E+03  0.19547597937E+04  0.18942586803E+04 0.  0.
        3    1    3    3  502    0 -0.80842346377E+03  0.38575828108E+02 -0.26638222148E+03  0.85205404136E+03  0.10100000352E+00 0.  1.
       -3    1    3    3    0  502  0.80842346377E+03 -0.38575828108E+02  0.74894817901E+03  0.11027057524E+04  0.10100000352E+00 0. -1.
</event>
<event>
 5   0  0.8681396E-05  0.1941491E+04  0.7818609E-02  0.8634475E-01
        1   -1    0    0  501    0  0.00000000000E+00  0.00000000000E+00  0.77019250324E+03  0.77019250325E+03  0.50400001928E-02 0. -1.
       -1   -1    0    0    0  501  0.00000000000E+00  0.00000000000E+00 -0.12235213812E+04  0.12235213812E+04  0.50400001928E-02 0.  1.
    10030    2    1    2    0    0  0.00000000000E+00  0.00000000000E+00 -0.45332887794E+03  0.19937138844E+04  0.19414911747E+04 0.  0.
        3    1    3    3  502    0  0.73669256143E+03  0.19820622977E+03 -0.84309884547E+03  0.11370212456E+04  0.10100000352E+00 0.  1.
       -3    1    3    3    0  502 -0.73669256143E+03 -0.19820622977E+03  0.38976996753E+03  0.85669263880E+03  0.10100000352E+00 0. -1.
</event>
<event>
 5   0  0.1790832E-04  0.1903117E+04  0.7818609E-02  0.8653306E-01
        2   -1    0    0  501    0  0.00000000000E+00  0.00000000000E+00  0.13237663592E+04  0.13237663592E+04  0.25500000920E-02 0.  1.
       -2   -1    0    0    0  501  0.00000000000E+00  0.00000000000E+00 -0.68400583710E+03  0.68400583711E+03  0.25500000920E-02 0. -1.
    10030    2    1    2    0    0  0.00000000000E+00  0.00000000000E+00  0.63976052207E+03  0.20077721963E+04  0.19031173549E+04 0.  0.
        5    1    3    3  502    0  0.67525165637E+03  0.65569483145E+03  0.46735775909E+03  0.10508786212E+04  0.46999998093E+01 0.  1.
       -5    1    3    3    0  502 -0.67525165637E+03 -0.65569483145E+03  0.17240276298E+03  0.95689357512E+03  0.46999998093E+01 0. -1.
</event>
<event>
 5   0  0.1765328E-04  0.1863160E+04  0.7818609E-02  0.8673414E-01
        2   -1    0    0  501    0  0.00000000000E+00  0.00000000000E+00  0.75271240809E+03  0.75271240809E+03  0.25500000920E-02 0.  1.
       -2   -1    0    0    0  501  0.00000000000E+00  0.00000000000E+00 -0.11529521174E+04  0.11529521174E+04  0.25500000920E-02 0. -1.
    10030    2    1    2    0    0  0.00000000000E+00  0.00000000000E+00 -0.40023970928E+03  0.19056645255E+04  0.18631600733E+04 0.  0.
        3    1    3    3  502    0  0.43399571553E+03 -0.17096396559E+03  0.62466358550E+03  0.77960603120E+03  0.10100000352E+00 0.  1.
       -3    1    3    3    0  502 -0.43399571553E+03  0.17096396559E+03 -0.10249032948E+04  0.11260584943E+04  0.10100000352E+00 0. -1.
</event>
<event>
 5   0  0.8681396E-05  0.1905440E+04  0.7818609E-02  0.8652153E-01
        1   -1    0    0  501    0  0.00000000000E+00  0.00000000000E+00  0.80594825718E+03  0.80594825720E+03  0.50400001928E-02 0. -1.
       -1   -1    0    0    0  501  0.00000000000E+00  0.00000000000E+00 -0.11262209886E+04  0.11262209886E+04  0.50400001928E-02 0.  1.
    10030    2    1    2    0    0  0.00000000000E+00  0.00000000000E+00 -0.32027273143E+03  0.19321692458E+04  0.19054404667E+04 0.  0.
        3    1    3    3  502    0 -0.98689717213E+02  0.94744337365E+03 -0.17732185237E+03  0.96893325678E+03  0.10100000352E+00 0.  1.
       -3    1    3    3    0  502  0.98689717213E+02 -0.94744337365E+03 -0.14295087906E+03  0.96323598904E+03  0.10100000352E+00 0. -1.
</event>
<event>
 5   0  0.1810569E-04  0.1900728E+04  0.7818609E-02  0.8654494E-01
        2   -1    0    0  501    0  0.00000000000E+00  0.00000000000E+00  0.12982173584E+04  0.12982173584E+04  0.25500000920E-02 0.  1.
       -2   -1    0    0    0  501  0.00000000000E+00  0.00000000000E+00 -0.69571662194E+03  0.69571662194E+03  0.25500000920E-02 0. -1.
    10030    2    1    2    0    0  0.00000000000E+00  0.00000000000E+00  0.60250073644E+03  0.19939339803E+04  0.19007276450E+04 0.  0.
        4    1    3    3  502    0  0.38580398979E+03  0.69298984276E+03 -0.24797859982E+03  0.83100820668E+03  0.12699999809E+01 0.  1.
       -4    1    3    3    0  502 -0.38580398979E+03 -0.69298984276E+03  0.85047933625E+03  0.11629257736E+04  0.12699999809E+01 0. -1.
</event>
<event>
 5   0  0.6375750E-05  0.1895254E+04  0.7818609E-02  0.8657222E-01
        4   -1    0    0  501    0  0.00000000000E+00  0.00000000000E+00  0.12868374181E+04  0.12868380448E+04  0.12699999809E+01 0.  1.
       -4   -1    0    0    0  501  0.00000000000E+00  0.00000000000E+00 -0.69783096972E+03  0.69783212537E+03  0.12699999809E+01 0. -1.
    10030    2    1    2    0    0  0.00000000000E+00  0.00000000000E+00  0.58900644840E+03  0.19846701702E+04  0.18952538321E+04 0.  0.
        2    1    3    3  502    0  0.58040882332E+03 -0.10602524994E+03  0.10710280093E+04  0.12227905596E+04  0.25500000920E-02 0.  1.
       -2    1    3    3    0  502 -0.58040882332E+03  0.10602524994E+03 -0.48202156094E+03  0.76187961059E+03  0.25500000920E-02 0. -1.
</event>
<event>
 5   0  0.8602017E-05  0.1849329E+04  0.7818609E-02  0.8680498E-01
        1   -1    0    0  501    0  0.00000000000E+00  0.00000000000E+00  0.18116888331E+04  0.18116888332E+04  0.50400001928E-02 0.  1.
       -1   -1    0    0    0  501  0.00000000000E+00  0.00000000000E+00 -0.47193762861E+03  0.47193762863E+03  0.50400001928E-02 0. -1.
    10030    2    1    2    0    0  0.00000000000E+00  0.00000000000E+00  0.13397512045E+04  0.22836264618E+04  0.18493286692E+04 0.  0.
        2    1    3    3  502    0  0.24321274344E+03 -0.35964927135E+03  0.16779959380E+04  0.17332542817E+04  0.25500000920E-02 0.  1.
       -2    1    3    3    0  502 -0.24321274344E+03  0.35964927135E+03 -0.33824473345E+03  0.55037218013E+03  0.25500000920E-02 0. -1.
</event>
<event>
 5   0  0.8567844E-05  0.1898874E+04  0.7818609E-02  0.8655417E-01
       -1   -1    0    0    0  501  0.00000000000E+00  0.00000000000E+00  0.64914210289E+03  0.64914210291E+03  0.50400001928E-02 0.  1.
        1   -1    0    0  501    0  0.00000000000E+00  0.00000000000E+00 -0.13886493331E+04  0.13886493331E+04  0.50400001928E-02 0. -1.
    10030    2    1    2    0    0  0.00000000000E+00  0.00000000000E+00 -0.73950723020E+03  0.20377914360E+04  0.18988741383E+04 0.  0.
        4    1    3    3  502    0 -0.75594834633E+03  0.11450280734E+03  0.23433061046E+03  0.79967571121E+03  0.12699999809E+01 0.  1.
       -4    1    3    3    0  502  0.75594834633E+03 -0.11450280734E+03 -0.97383784066E+03  0.12381157248E+04  0.12699999809E+01 0. -1.
</event>
<event>
 5   0  0.8681396E-05  0.1895151E+04  0.7818609E-02  0.8657274E-01
       -1   -1    0    0    0  501  0.00000000000E+00  0.00000000000E+00  0.66997273765E+03  0.66997273767E+03  0.50400001928E-02 0. -1.
        1   -1    0    0  501    0  0.00000000000E+00  0.00000000000E+00 -0.13402034025E+04  0.13402034025E+04  0.50400001928E-02 0.  1.
    10030    2    1    2    0    0  0.00000000000E+00  0.00000000000E+00 -0.67023066482E+03  0.20101761402E+04  0.18951514373E+04 0.  0.
        3    1    3    3  502    0  0.66393600506E+03 -0.12981391369E+03  0.36865911597E+03  0.77043638608E+03  0.10100000352E+00 0. -1.
       -3    1    3    3    0  502 -0.66393600506E+03  0.12981391369E+03 -0.10388897808E+04  0.12397397541E+04  0.10100000352E+00 0.  1.
</event>
<event>
 5   0  0.8587082E-05  0.1902468E+04  0.7818609E-02  0.8653629E-01
        1   -1    0    0  501    0  0.00000000000E+00  0.00000000000E+00  0.14830298690E+04  0.14830298690E+04  0.50400001928E-02 0. -1.
       -1   -1    0    0    0  501  0.00000000000E+00  0.00000000000E+00 -0.61013329047E+03  0.61013329049E+03  0.50400001928E-02 0.  1.
    10030    2    1    2    0    0  0.00000000000E+00  0.00000000000E+00  0.87289657856E+03  0.20931631595E+04  0.19024677594E+04 0.  0.
        5    1    3    3  502    0 -0.60851164443E+03  0.36644307835E+03  0.11325218929E+04  0.13368600821E+04  0.46999998093E+01 0. -1.
       -5    1    3    3    0  502  0.60851164443E+03 -0.36644307835E+03 -0.25962531438E+03  0.75630307744E+03  0.46999998093E+01 0.  1.
</event>
<event>
 5   0  0.1799738E-04  0.1830651E+04  0.7818609E-02  0.8690167E-01
        2   -1    0    0  501    0  0.00000000000E+00  0.00000000000E+00  0.11093547785E+04  0.11093547785E+04  0.25500000920E-02 0. -1.
       -2   -1    0    0    0  501  0.00000000000E+00  0.00000000000E+00 -0.75523272503E+03  0.75523272503E+03  0.25500000920E-02 0.  1.
    10030    2    1    2    0    0  0.00000000000E+00  0.00000000000E+00  0.35412205343E+03  0.18645875035E+04  0.18306512856E+04 0.  0.
        1    1    3    3  502    0  0.28582157009E+03  0.68886666613E+03  0.71754844359E+03  0.10349430045E+04  0.50400001928E-02 0. -1.
       -1    1    3    3    0  502 -0.28582157009E+03 -0.68886666613E+03 -0.36342639016E+03  0.82964449900E+03  0.50400001928E-02 0.  1.
</event>
<event>
 5   0  0.8905646E-05  0.1894823E+04  0.7818609E-02  0.8657438E-01
       -1   -1    0    0    0  501  0.00000000000E+00  0.00000000000E+00  0.13376855390E+04  0.13376855391E+04  0.50400001928E-02 0. -1.
        1   -1    0    0  501    0  0.00000000000E+00  0.00000000000E+00 -0.67100129469E+03  0.67100129471E+03  0.50400001928E-02 0.  1.
    10030    2    1    2    0    0  0.00000000000E+00  0.00000000000E+00  0.66668424436E+03  0.20086868338E+04  0.18948231882E+04 0.  0.
        1    1    3    3  502    0 -0.56998915574E+03  0.37896049728E+03 -0.36107073805E+03  0.77386741375E+03  0.50400001928E-02 0.  1.
       -1    1    3    3    0  502  0.56998915574E+03 -0.37896049728E+03  0.10277549824E+04  0.12348194200E+04  0.50400001928E-02 0. -1.
</event>
<event>
 5   0  0.1799738E-04  0.1877832E+04  0.7818609E-02  0.8665970E-01
       -2   -1    0    0    0  501  0.00000000000E+00  0.00000000000E+00  0.52750182164E+03  0.52750182165E+03  0.25500000920E-02 0. -1.
        2   -1    0    0  501    0  0.00000000000E+00  0.00000000000E+00 -0.16712037710E+04  0.16712037710E+04  0.25500000920E-02 0.  1.
    10030    2    1    2    0    0  0.00000000000E+00  0.00000000000E+00 -0.11437019494E+04  0.21987055927E+04  0.18778317641E+04 0.  0.
        1    1    3    3  502    0  0.57974365402E+03 -0.61858852645E+03 -0.10442935445E+04  0.13451035189E+04  0.50400001928E-02 0. -1.
       -1    1    3    3    0  502 -0.57974365402E+03  0.61858852645E+03 -0.99408404940E+02  0.85360207382E+03  0.50400001928E-02 0.  1.
</event>
<event>
 5   0  0.8681396E-05  0.1897149E+04  0.7818609E-02  0.8656277E-01
       -1   -1    0    0    0  501  0.00000000000E+00  0.00000000000E+00  0.59485852090E+03  0.59485852093E+03  0.50400001928E-02 0.  1.
        1   -1    0    0  501    0  0.00000000000E+00  0.00000000000E+00 -0.15126179268E+04  0.15126179268E+04  0.50400001928E-02 0. -1.
    10030    2    1    2    0    0  0.00000000000E+00  0.00000000000E+00 -0.91775940586E+03  0.21074764477E+04  0.18971490850E+04 0.  0.
        3    1    3    3  502    0  0.19740166250E+03  0.91355999682E+03 -0.27895260523E+03  0.97538395020E+03  0.10100000352E+00 0.  1.
       -3    1    3    3    0  502 -0.19740166250E+03 -0.91355999682E+03 -0.63880680062E+03  0.11320924975E+04  0.10100000352E+00 0. -1.
</event>
<event>
 5   0  0.8602017E-05  0.1906789E+04  0.7818609E-02  0.8651484E-01
        1   -1    0    0  501    0  0.00000000000E+00  0.00000000000E+00  0.13047174499E+04  0.13047174499E+04  0.50400001928E-02 0.  1.
       -1   -1    0    0    0  501  0.00000000000E+00  0.00000000000E+00 -0.69667287150E+03  0.69667287151E+03  0.50400001928E-02 0. -1.
    10030    2    1    2    0    0  0.00000000000E+00  0.00000000000E+00  0.60804457843E+03  0.20013903214E+04  0.19067891885E+04 0.  0.
        2    1    3    3  502    0 -0.59761793861E+03 -0.10215990506E+03 -0.46826551691E+03  0.76606555926E+03  0.25500000920E-02 0. -1.
       -2    1    3    3    0  502  0.59761793861E+03  0.10215990506E+03  0.10763100953E+04  0.12353247622E+04  0.25500000920E-02 0.  1.
</event>
<event>
 5   0  0.8587082E-05  0.1785443E+04  0.7818609E-02  0.8714079E-01
        1   -1    0    0  501    0  0.00000000000E+00  0.00000000000E+00  0.57811822706E+03  0.57811822708E+03  0.50400001928E-02 0. -1.
       -1   -1    0    0    0  501  0.00000000000E+00  0.00000000000E+00 -0.13785271828E+04  0.13785271828E+04  0.50400001928E-02 0.  1.
    10030    2    1    2    0    0  0.00000000000E+00  0.00000000000E+00 -0.80040895574E+03  0.19566454099E+04  0.17854430161E+04 0.  0.
        5    1    3    3  502    0  0.16341463926E+03 -0.59800127582E+03  0.30374441493E+03  0.69035688583E+03  0.46999998093E+01 0. -1.
       -5    1    3    3    0  502 -0.16341463926E+03  0.59800127582E+03 -0.11041533707E+04  0.12662885241E+04  0.46999998093E+01 0.  1.
</event>
<event>
 5   0  0.1790832E-04  0.1737290E+04  0.7818609E-02  0.8740378E-01
        2   -1    0    0  501    0  0.00000000000E+00  0.00000000000E+00  0.13328812825E+04  0.13328812825E+04  0.25500000920E-02 0. -1.
       -2   -1    0    0    0  501  0.00000000000E+00  0.00000000000E+00 -0.56610009245E+03  0.56610009246E+03  0.25500000920E-02 0.  1.
    10030    2    1    2    0    0  0.00000000000E+00  0.00000000000E+00  0.76678119003E+03  0.18989813749E+04  0.17372900935E+04 0.  0.
        5    1    3    3  502    0  0.69260059307E+03  0.52341259251E+03  0.35122748106E+03  0.93650368764E+03  0.46999998093E+01 0. -1.
       -5    1    3    3    0  502 -0.69260059307E+03 -0.52341259251E+03  0.41555370897E+03  0.96247768730E+03  0.46999998093E+01 0.  1.
</event>
<event>
 5   0  0.1790832E-04  0.1892696E+04  0.7818609E-02  0.8658501E-01
       -2   -1    0    0    0  501  0.00000000000E+00  0.00000000000E+00  0.40906968550E+03  0.40906968551E+03  0.25500000920E-02 0.  1.
        2   -1    0    0  501    0  0.00000000000E+00  0.00000000000E+00 -0.21892954485E+04  0.21892954485E+04  0.25500000920E-02 0. -1.
    10030    2    1    2    0    0  0.00000000000E+00  0.00000000000E+00 -0.17802257630E+04  0.25983651340E+04  0.18926958558E+04 0.  0.
        5    1    3    3  502    0 -0.26878095078E+03 -0.50926878185E+03 -0.19210717785E+04  0.20055265542E+04  0.46999998093E+01 0. -1.
       -5    1    3    3    0  502  0.26878095078E+03  0.50926878185E+03  0.14084601544E+03  0.59283857983E+03  0.46999998093E+01 0.  1.
</event>
<event>
 5   0  0.1790832E-04  0.1899181E+04  0.7818609E-02  0.8655264E-01
        2   -1    0    0  501    0  0.00000000000E+00  0.00000000000E+00  0.60256158739E+03  0.60256158739E+03  0.25500000920E-02 0.  1.
       -2   -1    0    0    0  501  0.00000000000E+00  0.00000000000E+00 -0.14964817379E+04  0.14964817380E+04  0.25500000920E-02 0. -1.
    10030    2    1    2    0    0  0.00000000000E+00  0.00000000000E+00 -0.89392015056E+03  0.20990433253E+04  0.18991813094E+04 0.  0.
        5    1    3    3  502    0 -0.76507883271E+03 -0.19789644280E+03 -0.10288556917E+04  0.12973337067E+04  0.46999998093E+01 0. -1.
       -5    1    3    3    0  502  0.76507883271E+03  0.19789644280E+03  0.13493554111E+03  0.80170961862E+03  0.46999998093E+01 0.  1.
</event>
<event>
 5   0  0.8567844E-05  0.1913028E+04  0.7818609E-02  0.8648399E-01
        1   -1    0    0  501    0  0.00000000000E+00  0.00000000000E+00  0.12828665405E+04  0.12828665405E+04  0.50400001928E-02 0.  1.
       -1   -1    0    0    0  501  0.00000000000E+00  0.00000000000E+00 -0.71318322338E+03  0.71318322340E+03  0.50400001928E-02 0. -1.
    10030    2    1    2    0    0  0.00000000000E+00  0.00000000000E+00  0.56968331715E+03  0.19960497639E+04  0.19130278561E+04 0.  0.
        4    1    3    3  502    0  0.98862337157E+02 -0.89541452514E+03 -0.50633729324E+02  0.90227840548E+03  0.12699999809E+01 0. -1.
       -4    1    3    3    0  502 -0.98862337157E+02  0.89541452514E+03  0.62031704647E+03  0.10937713585E+04  0.12699999809E+01 0.  1.
</event>
<event>
 5   0  0.1658711E-04  0.1876811E+04  0.7818609E-02  0.8666486E-01
       -2   -1    0    0    0  501  0.00000000000E+00  0.00000000000E+00  0.39803837666E+03  0.39803837667E+03  0.25500000920E-02 0. -1.
        2   -1    0    0  501    0  0.00000000000E+00  0.00000000000E+00 -0.22123609021E+04  0.22123609021E+04  0.25500000920E-02 0.  1.
    10030    2    1    2    0    0  0.00000000000E+00  0.00000000000E+00 -0.18143225254E+04  0.26103992787E+04  0.18768106373E+04 0.  0.
        2    1    3    3  502    0 -0.65348060292E+03  0.23131135095E+03 -0.27429005112E+02  0.69375369535E+03  0.25500000920E-02 0.  1.
       -2    1    3    3    0  502  0.65348060292E+03 -0.23131135095E+03 -0.17868935203E+04  0.19166455834E+04  0.25500000920E-02 0. -1.
</event>
<event>
 5   0  0.1765328E-04  0.1950164E+04  0.7818609E-02  0.8630282E-01
       -2   -1    0    0    0  501  0.00000000000E+00  0.00000000000E+00  0.87401317839E+03  0.87401317840E+03  0.25500000920E-02 0. -1.
        2   -1    0    0  501    0  0.00000000000E+00  0.00000000000E+00 -0.10878380750E+04  0.10878380750E+04  0.25500000920E-02 0.  1.
    10030    2    1    2    0    0  0.00000000000E+00  0.00000000000E+00 -0.21382489658E+03  0.19618512534E+04  0.19501639044E+04 0.  0.
        3    1    3    3  502    0 -0.47720150144E+03 -0.59320916854E+02 -0.96025579995E+03  0.10739327054E+04  0.10100000352E+00 0.  1.
       -3    1    3    3    0  502  0.47720150144E+03  0.59320916854E+02  0.74643090337E+03  0.88791854799E+03  0.10100000352E+00 0. -1.
</event>
<event>
 5   0  0.8905646E-05  0.1906694E+04  0.7818609E-02  0.8651532E-01
       -1   -1    0    0    0  501  0.00000000000E+00  0.00000000000E+00  0.80213220119E+03  0.80213220121E+03  0.50400001928E-02 0. -1.
        1   -1    0    0  501    0  0.00000000000E+00  0.00000000000E+00 -0.11330676535E+04  0.11330676536E+04  0.50400001928E-02 0.  1.
    10030    2    1    2    0    0  0.00000000000E+00  0.00000000000E+00 -0.33093545235E+03  0.19351998548E+04  0.19066935266E+04 0.  0.
        1    1    3    3  502    0  0.46558143116E+03  0.80682727194E+03  0.40379019233E+02  0.93239840251E+03  0.50400001928E-02 0.  1.
       -1    1    3    3    0  502 -0.46558143116E+03 -0.80682727194E+03 -0.37131447158E+03  0.10028014522E+04  0.50400001928E-02 0. -1.
</event>
<event>
 5   0  0.1765328E-04  0.1899870E+04  0.7818609E-02  0.8654921E-01
       -2   -1    0    0    0  501  0.00000000000E+00  0.00000000000E+00  0.54824412504E+03  0.54824412505E+03  0.25500000920E-02 0. -1.
        2   -1    0    0  501    0  0.00000000000E+00  0.00000000000E+00 -0.16459397685E+04  0.16459397685E+04  0.25500000920E-02 0.  1.
    10030    2    1    2    0    0  0.00000000000E+00  0.00000000000E+00 -0.10976956435E+04  0.21941838936E+04  0.18998703201E+04 0.  0.
        3    1    3    3  502    0 -0.26825929802E+03 -0.85101121678E+03 -0.17249224905E+03  0.90881061187E+03  0.10100000352E+00 0. -1.
       -3    1    3    3    0  502  0.26825929802E+03  0.85101121678E+03 -0.92520339445E+03  0.12853732817E+04  0.10100000352E+00 0.  1.
</event>
<event>
 5   0  0.8567844E-05  0.1922781E+04  0.7818609E-02  0.8643599E-01
       -1   -1    0    0    0  501  0.00000000000E+00  0.00000000000E+00  0.84320304543E+03  0.84320304545E+03  0.50400001928E-02 0. -1.
        1   -1    0    0  501    0  0.00000000000E+00  0.00000000000E+00 -0.10961434088E+04  0.10961434088E+04  0.50400001928E-02 0.  1.
    10030    2    1    2    0    0  0.00000000000E+00  0.00000000000E+00 -0.25294036336E+03  0.19393464543E+04  0.19227807577E+04 0.  0.
        4    1    3    3  502    0  0.59435711329E+03  0.53370631457E+03  0.41308446664E+03  0.89930150551E+03  0.12699999809E+01 0. -1.
       -4    1    3    3    0  502 -0.59435711329E+03 -0.53370631457E+03 -0.66602483000E+03  0.10400449487E+04  0.12699999809E+01 0.  1.
</event>
<event>
 5   0  0.1790832E-04  0.1941664E+04  0.7818609E-02  0.8634391E-01
       -2   -1    0    0    0  501  0.00000000000E+00  0.00000000000E+00  0.10500842052E+04  0.10500842052E+04  0.25500000920E-02 0.  1.
        2   -1    0    0  501    0  0.00000000000E+00  0.00000000000E+00 -0.89756097100E+03  0.89756097101E+03  0.25500000920E-02 0. -1.
    10030    2    1    2    0    0  0.00000000000E+00  0.00000000000E+00  0.15252323418E+03  0.19476451762E+04  0.19416638214E+04 0.  0.
        5    1    3    3  502    0  0.29104972880E+03 -0.60588667217E+03  0.77890782584E+03  0.10288479457E+04  0.46999998093E+01 0.  1.
       -5    1    3    3    0  502 -0.29104972880E+03  0.60588667217E+03 -0.62638459167E+03  0.91879723053E+03  0.46999998093E+01 0. -1.
</event>
<event>
 5   0  0.8681396E-05  0.1904663E+04  0.7818609E-02  0.8652539E-01
       -1   -1    0    0    0  501  0.00000000000E+00  0.00000000000E+00  0.11339230555E+04  0.11339230555E+04  0.50400001928E-02 0.  1.
        1   -1    0    0  501    0  0.00000000000E+00  0.00000000000E+00 -0.79982094641E+03  0.79982094643E+03  0.50400001928E-02 0. -1.
    10030    2    1    2    0    0  0.00000000000E+00  0.00000000000E+00  0.33410210910E+03  0.19337440020E+04  0.19046631318E+04 0.  0.
        3    1    3    3  502    0 -0.25159334451E+03  0.62702691148E+03 -0.51436976815E+03  0.84913969835E+03  0.10100000352E+00 0. -1.
       -3    1    3    3    0  502  0.25159334451E+03 -0.62702691148E+03  0.84847187725E+03  0.10846043036E+04  0.10100000352E+00 0.  1.
</event>
<event>
 5   0  0.1658711E-04  0.1902439E+04  0.7818609E-02  0.8653643E-01
       -2   -1    0    0    0  501  0.00000000000E+00  0.00000000000E+00  0.13306919399E+04  0.13306919399E+04  0.25500000920E-02 0.  1.
        2   -1    0    0  501    0  0.00000000000E+00  0.00000000000E+00 -0.67996102262E+03  0.67996102262E+03  0.25500000920E-02 0. -1.
    10030    2    1    2    0    0  0.00000000000E+00  0.00000000000E+00  0.65073091726E+03  0.20106529625E+04  0.19024391210E+04 0.  0.
        2    1    3    3  502    0 -0.90299114072E+03  0.96075672913E+02  0.26069871913E+02  0.90846198235E+03  0.25500000920E-02 0.  1.
       -2    1    3    3    0  502  0.90299114072E+03 -0.96075672913E+02  0.62466104535E+03  0.11021909802E+04  0.25500000920E-02 0. -1.
</event>
<event>
 5   0  0.8587082E-05  0.1865586E+04  0.7818609E-02  0.8672179E-01
       -1   -1    0    0    0  501  0.00000000000E+00  0.00000000000E+00  0.47834314469E+03  0.47834314472E+03  0.50400001928E-02 0. -1.
        1   -1    0    0  501    0  0.00000000000E+00  0.00000000000E+00 -0.18189924544E+04  0.18189924544E+04  0.50400001928E-02 0.  1.
    10030    2    1    2    0    0  0.00000000000E+00  0.00000000000E+00 -0.13406493097E+04  0.22973355991E+04  0.18655857749E+04 0.  0.
        5    1    3    3  502    0 -0.77543365595E+03 -0.51833682721E+03 -0.68324348748E+03  0.11562068043E+04  0.46999998093E+01 0.  1.
       -5    1    3    3    0  502  0.77543365595E+03  0.51833682721E+03 -0.65740582225E+03  0.11411287948E+04  0.46999998093E+01 0. -1.
</event>
<event>
 5   0  0.8602017E-05  0.1901158E+04  0.7818609E-02  0.8654280E-01
       -1   -1    0    0    0  501  0.00000000000E+00  0.00000000000E+00  0.11590438013E+04  0.11590438013E+04  0.50400001928E-02 0. -1.
        1   -1    0    0  501    0  0.00000000000E+00  0.00000000000E+00 -0.77960829954E+03  0.77960829956E+03  0.50400001928E-02 0.  1.
    10030    2    1    2    0    0  0.00000000000E+00  0.00000000000E+00  0.37943550178E+03  0.19386521009E+04  0.19011577179E+04 0.  0.
        2    1    3    3  502    0  0.16799162235E+03  0.88685627912E+03 -0.11426358230E+03  0.90983042994E+03  0.25500000920E-02 0.  1.
       -2    1    3    3    0  502 -0.16799162235E+03 -0.88685627912E+03  0.49369908409E+03  0.10288216710E+04  0.25500000920E-02 0. -1.
</event>
<event>
 5   0  0.8587082E-05  0.1913389E+04  0.7818609E-02  0.8648220E-01
        1   -1    0    0  501    0  0.00000000000E+00  0.00000000000E+00  0.87260379632E+03  0.87260379633E+03  0.50400001928E-02 0.  1.
       -1   -1    0    0    0  501  0.00000000000E+00  0.00000000000E+00 -0.10488885957E+04  0.10488885957E+04  0.50400001928E-02 0. -1.
    10030    2    1    2    0    0  0.00000000000E+00  0.00000000000E+00 -0.17628479936E+03  0.19214923920E+04  0.19133887953E+04 0.  0.
        5    1    3    3  502    0 -0.52905805339E+03 -0.29473556334E+03  0.65558215607E+03  0.89251416208E+03  0.46999998093E+01 0.  1.
       -5    1    3    3    0  502  0.52905805339E+03  0.29473556334E+03 -0.83186695543E+03  0.10289782299E+04  0.46999998093E+01 0. -1.
</event>
<event>
 5   0  0.1790832E-04  0.1802731E+04  0.7818609E-02  0.8704849E-01
       -2   -1    0    0    0  501  0.00000000000E+00  0.00000000000E+00  0.42799441886E+03  0.42799441887E+03  0.25500000920E-02 0.  1.
        2   -1    0    0  501    0  0.00000000000E+00  0.00000000000E+00 -0.18982945741E+04  0.18982945741E+04  0.25500000920E-02 0. -1.
    10030    2    1    2    0    0  0.00000000000E+00  0.00000000000E+00 -0.14703001552E+04  0.23262889930E+04  0.18027306877E+04 0.  0.
        5    1    3    3  502    0  0.56618346715E+03  0.69751554172E+03 -0.64080116937E+03  0.11035125183E+04  0.46999998093E+01 0. -1.
       -5    1    3    3    0  502 -0.56618346715E+03 -0.69751554172E+03 -0.82949898584E+03  0.12227764746E+04  0.46999998093E+01 0.  1.
</event>
<event>
 5   0  0.8587082E-05  0.1918990E+04  0.7818609E-02  0.8645461E-01
       -1   -1    0    0    0  501  0.00000000000E+00  0.00000000000E+00  0.15177065977E+04  0.15177065977E+04  0.50400001928E-02 0.  1.
        1   -1    0    0  501    0  0.00000000000E+00  0.00000000000E+00 -0.60659344880E+03  0.60659344882E+03  0.50400001928E-02 0. -1.
    10030    2    1    2    0    0  0.00000000000E+00  0.00000000000E+00  0.91111314894E+03  0.21243000466E+04  0.19189902339E+04 0.  0.
        5    1    3    3  502    0 -0.43063232271E+03  0.26814746971E+02 -0.49313031618E+03  0.65525783227E+03  0.46999998093E+01 0. -1.
       -5    1    3    3    0  502  0.43063232271E+03 -0.26814746971E+02  0.14042434651E+04  0.14690422143E+04  0.46999998093E+01 0.  1.
</event>
<event>
 5   0  0.1799738E-04  0.1886357E+04  0.7818609E-02  0.8661677E-01
        2   -1    0    0  501    0  0.00000000000E+00  0.00000000000E+00  0.94573807887E+03  0.94573807887E+03  0.25500000920E-02 0.  1.
       -2   -1    0    0    0  501  0.00000000000E+00  0.00000000000E+00 -0.94062567553E+03  0.94062567553E+03  0.25500000920E-02 0. -1.
    10030    2    1    2    0    0  0.00000000000E+00  0.00000000000E+00  0.51124033376E+01  0.18863637544E+04  0.18863568266E+04 0.  0.
        1    1    3    3  502    0 -0.22259914647E+03 -0.19279676246E+03  0.89858658332E+03  0.94561028938E+03  0.50400001928E-02 0.  1.
       -1    1    3    3    0  502  0.22259914647E+03  0.19279676246E+03 -0.89347417998E+03  0.94075346502E+03  0.50400001928E-02 0. -1.
</event>
<event>
 5   0  0.1790832E-04  0.1908590E+04  0.7818609E-02  0.8650593E-01
        2   -1    0    0  501    0  0.00000000000E+00  0.00000000000E+00  0.10421705389E+04  0.10421705389E+04  0.25500000920E-02 0.  1.
       -2   -1    0    0    0  501  0.00000000000E+00  0.00000000000E+00 -0.87382877002E+03  0.87382877002E+03  0.25500000920E-02 0. -1.
    10030    2    1    2    0    0  0.00000000000E+00  0.00000000000E+00  0.16834176890E+03  0.19159993089E+04  0.19085896365E+04 0.  0.
        5    1    3    3  502    0  0.32754189578E+03 -0.10305232592E+03 -0.80965256342E+03  0.87946736086E+03  0.46999998093E+01 0. -1.
       -5    1    3    3    0  502 -0.32754189578E+03  0.10305232592E+03  0.97799433232E+03  0.10365319481E+04  0.46999998093E+01 0.  1.
</event>
<event>
 5   0  0.1790832E-04  0.1883898E+04  0.7818609E-02  0.8662913E-01
        2   -1    0    0  501    0  0.00000000000E+00  0.00000000000E+00  0.12032992953E+04  0.12032992953E+04  0.25500000920E-02 0.  1.
       -2   -1    0    0    0  501  0.00000000000E+00  0.00000000000E+00 -0.73736291534E+03  0.73736291534E+03  0.25500000920E-02 0. -1.
    10030    2    1    2    0    0  0.00000000000E+00  0.00000000000E+00  0.46593637995E+03  0.19406622106E+04  0.18838983799E+04 0.  0.
        5    1    3    3  502    0 -0.89369988442E+03 -0.26808913245E+03  0.99945919363E+02  0.93839359714E+03  0.46999998093E+01 0. -1.
       -5    1    3    3    0  502  0.89369988442E+03  0.26808913245E+03  0.36599046058E+03  0.10022686135E+04  0.46999998093E+01 0.  1.
</event>
<event>
 5   0  0.8587082E-05  0.2045744E+04  0.7818609E-02  0.8585528E-01
        1   -1    0    0  501    0  0.00000000000E+00  0.00000000000E+00  0.11856505245E+04  0.11856505245E+04  0.50400001928E-02 0.  1.
       -1   -1    0    0    0  501  0.00000000000E+00  0.00000000000E+00 -0.88244143000E+03  0.88244143001E+03  0.50400001928E-02 0. -1.
    10030    2    1    2    0    0  0.00000000000E+00  0.00000000000E+00  0.30320909449E+03  0.20680919545E+04  0.20457440156E+04 0.  0.
        5    1    3    3  502    0 -0.92499586304E+03  0.63865853584E+02  0.58823583812E+03  0.10980617857E+04  0.46999998093E+01 0.  1.
       -5    1    3    3    0  502  0.92499586304E+03 -0.63865853584E+02 -0.28502674363E+03  0.97003016885E+03  0.46999998093E+01 0. -1.
</event>
<event>
 5   0  0.8587082E-05  0.1905756E+04  0.7818609E-02  0.8651996E-01
       -1   -1    0    0    0  501  0.00000000000E+00  0.00000000000E+00  0.73996930934E+03  0.73996930936E+03  0.50400001928E-02 0.  1.
        1   -1    0    0  501    0  0.00000000000E+00  0.00000000000E+00 -0.12270467359E+04  0.12270467359E+04  0.50400001928E-02 0. -1.
    10030    2    1    2    0    0  0.00000000000E+00  0.00000000000E+00 -0.48707742660E+03  0.19670160453E+04  0.19057564648E+04 0.  0.
        5    1    3    3  502    0  0.94824887817E+02 -0.90547102199E+03 -0.53379951945E+03  0.10553831285E+04  0.46999998093E+01 0. -1.
       -5    1    3    3    0  502 -0.94824887817E+02  0.90547102199E+03  0.46722092853E+02  0.91163291678E+03  0.46999998093E+01 0.  1.
</event>
<event>
 5   0  0.1790832E-04  0.1904350E+04  0.7818609E-02  0.8652694E-01
        2   -1    0    0  501    0  0.00000000000E+00  0.00000000000E+00  0.19073691971E+04  0.19073691971E+04  0.25500000920E-02 0.  1.
       -2   -1    0    0    0  501  0.00000000000E+00  0.00000000000E+00 -0.47533406001E+03  0.47533406002E+03  0.25500000920E-02 0. -1.
    10030    2    1    2    0    0  0.00000000000E+00  0.00000000000E+00  0.14320351371E+04  0.23827032571E+04  0.19043503295E+04 0.  0.
        5    1    3    3  502    0  0.42143211541E+03 -0.62672359088E+03 -0.94867977727E+01  0.75531422374E+03  0.46999998093E+01 0. -1.
       -5    1    3    3    0  502 -0.42143211541E+03  0.62672359088E+03  0.14415219349E+04  0.16273890334E+04  0.46999998093E+01 0.  1.
</event>
<event>
 5   0  0.8567844E-05  0.1951934E+04  0.7818609E-02  0.8629429E-01
       -1   -1    0    0    0  501  0.00000000000E+00  0.00000000000E+00  0.57664368175E+03  0.57664368177E+03  0.50400001928E-02 0. -1.
        1   -1    0    0  501    0  0.00000000000E+00  0.00000000000E+00 -0.16518203602E+04  0.16518203602E+04  0.50400001928E-02 0.  1.
    10030    2    1    2    0    0  0.00000000000E+00  0.00000000000E+00 -0.10751766785E+04  0.22284640420E+04  0.19519341937E+04 0.  0.
        4    1    3    3  502    0 -0.52940241066E+03  0.20722297716E+03 -0.14432583256E+04  0.15511945339E+04  0.12699999809E+01 0.  1.
       -4    1    3    3    0  502  0.52940241066E+03 -0.20722297716E+03  0.36808164716E+03  0.67726950807E+03  0.12699999809E+01 0. -1.
</event>
<event>
 5   0  0.1799738E-04  0.1911452E+04  0.7818609E-02  0.8649177E-01
       -2   -1    0    0    0  501  0.00000000000E+00  0.00000000000E+00  0.95064270739E+03  0.95064270739E+03  0.25500000920E-02 0. -1.
        2   -1    0    0  501    0  0.00000000000E+00  0.00000000000E+00 -0.96083689826E+03  0.96083689826E+03  0.25500000920E-02 0.  1.
    10030    2    1    2    0    0  0.00000000000E+00  0.00000000000E+00 -0.10194190868E+02  0.19114796057E+04  0.19114524219E+04 0.  0.
        1    1    3    3  502    0  0.23937119476E+03 -0.55341128597E+03  0.73643214167E+03  0.95178512261E+03  0.50400001928E-02 0. -1.
       -1    1    3    3    0  502 -0.23937119476E+03  0.55341128597E+03 -0.74662633254E+03  0.95969448304E+03  0.50400001928E-02 0.  1.
</event>
<event>
 5   0  0.8587082E-05  0.1893147E+04  0.7818609E-02  0.8658275E-01
        1   -1    0    0  501    0  0.00000000000E+00  0.00000000000E+00  0.12780736951E+04  0.12780736951E+04  0.50400001928E-02 0. -1.
       -1   -1    0    0    0  501  0.00000000000E+00  0.00000000000E+00 -0.70105608139E+03  0.70105608141E+03  0.50400001928E-02 0.  1.
    10030    2    1    2    0    0  0.00000000000E+00  0.00000000000E+00  0.57701761374E+03  0.19791297765E+04  0.18931469425E+04 0.  0.
        5    1    3    3  502    0 -0.14073309100E+03  0.62031206080E+03 -0.44431827539E+03  0.77590829066E+03  0.46999998093E+01 0.  1.
       -5    1    3    3    0  502  0.14073309100E+03 -0.62031206080E+03  0.10213358891E+04  0.12032214859E+04  0.46999998093E+01 0. -1.
</event>
<event>
 5   0  0.8905646E-05  0.1911475E+04  0.7818609E-02  0.8649166E-01
        1   -1    0    0  501    0  0.00000000000E+00  0.00000000000E+00  0.86948035251E+03  0.86948035252E+03  0.50400001928E-02 0. -1.
       -1   -1    0    0    0  501  0.00000000000E+00  0.00000000000E+00 -0.10505517218E+04  0.10505517218E+04  0.50400001928E-02 0.  1.
    10030    2    1    2    0    0  0.00000000000E+00  0.00000000000E+00 -0.18107136925E+03  0.19200320743E+04  0.19114749084E+04 0.  0.
        1    1    3    3  502    0 -0.58626691881E+03 -0.21610694937E+03 -0.81697654232E+03  0.10285240806E+04  0.50400001928E-02 0.  1.
       -1    1    3    3    0  502  0.58626691881E+03  0.21610694937E+03  0.63590517307E+03  0.89150799369E+03  0.50400001928E-02 0. -1.
</event>
<event>
 5   0  0.8905646E-05  0.2078500E+04  0.7818609E-02  0.8570774E-01
       -1   -1    0    0    0  501  0.00000000000E+00  0.00000000000E+00  0.11486679680E+04  0.11486679680E+04  0.50400001928E-02 0.  1.
        1   -1    0    0  501    0  0.00000000000E+00  0.00000000000E+00 -0.94025434428E+03  0.94025434429E+03  0.50400001928E-02 0. -1.
    10030    2    1    2    0    0  0.00000000000E+00  0.00000000000E+00  0.20841362369E+03  0.20889223123E+04  0.20784995040E+04 0.  0.
        1    1    3    3  502    0  0.75073763827E+03 -0.27352458758E+03 -0.56366855383E+03  0.97782664115E+03  0.50400001928E-02 0. -1.
       -1    1    3    3    0  502 -0.75073763827E+03  0.27352458758E+03  0.77208217752E+03  0.11110956711E+04  0.50400001928E-02 0.  1.
</event>
<event>
 5   0  0.8567844E-05  0.1899712E+04  0.7818609E-02  0.8655000E-01
       -1   -1    0    0    0  501  0.00000000000E+00  0.00000000000E+00  0.10893317747E+04  0.10893317747E+04  0.50400001928E-02 0. -1.
        1   -1    0    0  501    0  0.00000000000E+00  0.00000000000E+00 -0.82823816961E+03  0.82823816963E+03  0.50400001928E-02 0.  1.
    10030    2    1    2    0    0  0.00000000000E+00  0.00000000000E+00  0.26109360512E+03  0.19175699444E+04  0.18997117205E+04 0.  0.
        4    1    3    3  502    0 -0.12672792992E+01  0.58090396229E+03  0.88912555849E+03  0.10620719802E+04  0.12699999809E+01 0. -1.
       -4    1    3    3    0  502  0.12672792992E+01 -0.58090396229E+03 -0.62803195337E+03  0.85549796420E+03  0.12699999809E+01 0.  1.
</event>
<event>
 5   0  0.1810569E-04  0.1886353E+04  0.7818609E-02  0.8661679E-01
        2   -1    0    0  501    0  0.00000000000E+00  0.00000000000E+00  0.85981829021E+03  0.85981829021E+03  0.25500000920E-02 0.  1.
       -2   -1    0    0    0  501  0.00000000000E+00  0.00000000000E+00 -0.10346164163E+04  0.10346164163E+04  0.25500000920E-02 0. -1.
    10030    2    1    2    0    0  0.00000000000E+00  0.00000000000E+00 -0.17479812606E+03  0.18944347065E+04  0.18863532204E+04 0.  0.
        4    1    3    3  502    0 -0.35497421368E+03 -0.79578089055E+03  0.27512747908E+03  0.91376729028E+03  0.12699999809E+01 0.  1.
       -4    1    3    3    0  502  0.35497421368E+03  0.79578089055E+03 -0.44992560514E+03  0.98066741620E+03  0.12699999809E+01 0. -1.
</event>
<event>
 5   0  0.1799738E-04  0.1895443E+04  0.7818609E-02  0.8657128E-01
       -2   -1    0    0    0  501  0.00000000000E+00  0.00000000000E+00  0.46377159000E+03  0.46377159000E+03  0.25500000920E-02 0. -1.
        2   -1    0    0  501    0  0.00000000000E+00  0.00000000000E+00 -0.19366781482E+04  0.19366781482E+04  0.25500000920E-02 0.  1.
    10030    2    1    2    0    0  0.00000000000E+00  0.00000000000E+00 -0.14729065582E+04  0.24004497382E+04  0.18954432770E+04 0.  0.
        1    1    3    3  502    0 -0.55680663015E+03  0.37662151164E+03 -0.15825007693E+04  0.17193562956E+04  0.50400001928E-02 0.  1.
       -1    1    3    3    0  502  0.55680663015E+03 -0.37662151164E+03  0.10959421110E+03  0.68109344259E+03  0.50400001928E-02 0. -1.
</event>
<event>
 5   0  0.8567844E-05  0.1913481E+04  0.7818609E-02  0.8648175E-01
        1   -1    0    0  501    0  0.00000000000E+00  0.00000000000E+00  0.48054391633E+03  0.48054391635E+03  0.50400001928E-02 0. -1.
       -1   -1    0    0    0  501  0.00000000000E+00  0.00000000000E+00 -0.19048261274E+04  0.19048261274E+04  0.50400001928E-02 0.  1.
    10030    2    1    2    0    0  0.00000000000E+00  0.00000000000E+00 -0.14242822111E+04  0.23853700438E+04  0.19134812330E+04 0.  0.
        4    1    3    3  502    0 -0.45116053019E+03 -0.38559918181E+03 -0.16476144753E+04  0.17512474483E+04  0.12699999809E+01 0.  1.
       -4    1    3    3    0  502  0.45116053019E+03  0.38559918181E+03  0.22333226419E+03  0.63412259551E+03  0.12699999809E+01 0. -1.
</event>
<event>
 5   0  0.1790832E-04  0.1900562E+04  0.7818609E-02  0.8654577E-01
        2   -1    0    0  501    0  0.00000000000E+00  0.00000000000E+00  0.14265485304E+04  0.14265485304E+04  0.25500000920E-02 0. -1.
       -2   -1    0    0    0  501  0.00000000000E+00  0.00000000000E+00 -0.63302011660E+03  0.63302011660E+03  0.25500000920E-02 0.  1.
    10030    2    1    2    0    0  0.00000000000E+00  0.00000000000E+00  0.79352841383E+03  0.20595686470E+04  0.19005619349E+04 0.  0.
        5    1    3    3  502    0 -0.16980461519E+03  0.87505706781E+03  0.75363887890E+03  0.11672840824E+04  0.46999998093E+01 0. -1.
       -5    1    3    3    0  502  0.16980461519E+03 -0.87505706781E+03  0.39889534935E+02  0.89228456462E+03  0.46999998093E+01 0.  1.
</event>
<event>
 5   0  0.1765328E-04  0.1901560E+04  0.7818609E-02  0.8654080E-01
       -2   -1    0    0    0  501  0.00000000000E+00  0.00000000000E+00  0.33103021401E+03  0.33103021402E+03  0.25500000920E-02 0.  1.
        2   -1    0    0  501    0  0.00000000000E+00  0.00000000000E+00 -0.27308161866E+04  0.27308161866E+04  0.25500000920E-02 0. -1.
    10030    2    1    2    0    0  0.00000000000E+00  0.00000000000E+00 -0.23997859726E+04  0.30618464006E+04  0.19015600613E+04 0.  0.
        3    1    3    3  502    0 -0.61561593641E+03 -0.65469190248E+03 -0.70001647313E+03  0.11391345580E+04  0.10100000352E+00 0. -1.
       -3    1    3    3    0  502  0.61561593641E+03  0.65469190248E+03 -0.16997694994E+04  0.19227118426E+04  0.10100000352E+00 0.  1.
</event>
<event>
 5   0  0.1658711E-04  0.1969607E+04  0.7818609E-02  0.8620964E-01
       -2   -1    0    0    0  501  0.00000000000E+00  0.00000000000E+00  0.39595494685E+03  0.39595494686E+03  0.25500000920E-02 0.  1.
        2   -1    0    0  501    0  0.00000000000E+00  0.00000000000E+00 -0.24493651361E+04  0.24493651361E+04  0.25500000920E-02 0. -1.
    10030    2    1    2    0    0  0.00000000000E+00  0.00000000000E+00 -0.20534101892E+04  0.28453200829E+04  0.19696073134E+04 0.  0.
        2    1    3    3  502    0 -0.45675668190E+03  0.51601314750E+03 -0.20430208044E+04  0.21561146171E+04  0.25500000920E-02 0. -1.
       -2    1    3    3    0  502  0.45675668190E+03 -0.51601314750E+03 -0.10389384859E+02  0.68920546586E+03  0.25500000920E-02 0.  1.
</event>
<event>
 5   0  0.1658711E-04  0.1889594E+04  0.7818609E-02  0.8660054E-01
        2   -1    0    0  501    0  0.00000000000E+00  0.00000000000E+00  0.74911943591E+03  0.74911943591E+03  0.25500000920E-02 0. -1.
       -2   -1    0    0    0  501  0.00000000000E+00  0.00000000000E+00 -0.11915872779E+04  0.11915872779E+04  0.25500000920E-02 0.  1.
    10030    2    1    2    0    0  0.00000000000E+00  0.00000000000E+00 -0.44246784195E+03  0.19407067138E+04  0.18895938076E+04 0.  0.
        2    1    3    3  502    0 -0.54242493250E+03  0.37467078340E+03 -0.91632592765E+03  0.11288295748E+04  0.25500000920E-02 0.  1.
       -2    1    3    3    0  502  0.54242493250E+03 -0.37467078340E+03  0.47385808570E+03  0.81187713894E+03  0.25500000920E-02 0. -1.
</event>
<event>
 5   0  0.1658711E-04  0.1912112E+04  0.7818609E-02  0.8648851E-01
       -2   -1    0    0    0  501  0.00000000000E+00  0.00000000000E+00  0.75584239367E+03  0.75584239368E+03  0.25500000920E-02 0.  1.
        2   -1    0    0  501    0  0.00000000000E+00  0.00000000000E+00 -0.12093033209E+04  0.12093033210E+04  0.25500000920E-02 0. -1.
    10030    2    1    2    0    0  0.00000000000E+00  0.00000000000E+00 -0.45346092728E+03  0.19651457146E+04  0.19121116252E+04 0.  0.
        2    1    3    3  502    0 -0.16278602184E+03  0.93900478107E+03 -0.14836973784E+03  0.96449097813E+03  0.25500000920E-02 0.  1.
       -2    1    3    3    0  502  0.16278602184E+03 -0.93900478107E+03 -0.30509118943E+03  0.10006547365E+04  0.25500000920E-02 0. -1.
</event>
<event>
 5   0  0.1658711E-04  0.1896823E+04  0.7818609E-02  0.8656439E-01
        2   -1    0    0  501    0  0.00000000000E+00  0.00000000000E+00  0.53271510887E+03  0.53271510887E+03  0.25500000920E-02 0. -1.
       -2   -1    0    0    0  501  0.00000000000E+00  0.00000000000E+00 -0.16884902669E+04  0.16884902669E+04  0.25500000920E-02 0.  1.
    10030    2    1    2    0    0  0.00000000000E+00  0.00000000000E+00 -0.11557751580E+04  0.22212053758E+04  0.18968228977E+04 0.  0.
        2    1    3    3  502    0 -0.41234166791E+03 -0.34199429642E+03  0.33857440870E+03  0.63373368233E+03  0.25500000920E-02 0. -1.
       -2    1    3    3    0  502  0.41234166791E+03  0.34199429642E+03 -0.14943495667E+04  0.15874716934E+04  0.25500000920E-02 0.  1.
</event>
<event>
 5   0  0.1765328E-04  0.1896060E+04  0.7818609E-02  0.8656820E-01
        2   -1    0    0  501    0  0.00000000000E+00  0.00000000000E+00  0.98795954550E+03  0.98795954551E+03  0.25500000920E-02 0. -1.
       -2   -1    0    0    0  501  0.00000000000E+00  0.00000000000E+00 -0.90971453629E+03  0.90971453629E+03  0.25500000920E-02 0.  1.
    10030    2    1    2    0    0  0.00000000000E+00  0.00000000000E+00  0.78245009215E+02  0.18976740818E+04  0.18960602942E+04 0.  0.
        3    1    3    3  502    0  0.18449226913E+03  0.71015457721E+03  0.63997023003E+03  0.97361122961E+03  0.10100000352E+00 0. -1.
       -3    1    3    3    0  502 -0.18449226913E+03 -0.71015457721E+03 -0.56172522081E+03  0.92406285219E+03  0.10100000352E+00 0.  1.
</event>
<event>
 5   0  0.1810569E-04  0.1896893E+04  0.7818609E-02  0.8656405E-01
       -2   -1    0    0    0  501  0.00000000000E+00  0.00000000000E+00  0.76341892548E+03  0.76341892549E+03  0.25500000920E-02 0.  1.
        2   -1    0    0  501    0  0.00000000000E+00  0.00000000000E+00 -0.11783181838E+04  0.11783181838E+04  0.25500000920E-02 0. -1.
    10030    2    1    2    0    0  0.00000000000E+00  0.00000000000E+00 -0.41489925835E+03  0.19417371093E+04  0.18968926188E+04 0.  0.
        4    1    3    3  502    0  0.39381699804E+03  0.19202051568E+03 -0.10685167736E+04  0.11548564477E+04  0.12699999809E+01 0. -1.
       -4    1    3    3    0  502 -0.39381699804E+03 -0.19202051568E+03  0.65361751530E+03  0.78688066159E+03  0.12699999809E+01 0.  1.
</event>
<event>
 5   0  0.1799738E-04  0.1891632E+04  0.7818609E-02  0.8659033E-01
        2   -1    0    0  501    0  0.00000000000E+00  0.00000000000E+00  0.89572736928E+03  0.89572736928E+03  0.25500000920E-02 0. -1.
       -2   -1    0    0    0  501  0.00000000000E+00  0.00000000000E+00 -0.99870607401E+03  0.99870607401E+03  0.25500000920E-02 0.  1.
    10030    2    1    2    0    0  0.00000000000E+00  0.00000000000E+00 -0.10297870473E+03  0.18944334433E+04  0.18916324848E+04 0.  0.
        1    1    3    3  502    0 -0.27872534417E+02 -0.55874877112E+03  0.71226120102E+03  0.90570032898E+03  0.50400001928E-02 0. -1.
       -1    1    3    3    0  502  0.27872534417E+02  0.55874877112E+03 -0.81523990575E+03  0.98873311432E+03  0.50400001928E-02 0.  1.
</event>
<event>
 5   0  0.8905646E-05  0.1865603E+04  0.7818609E-02  0.8672170E-01
        1   -1    0    0  501    0  0.00000000000E+00  0.00000000000E+00  0.86687822166E+03  0.86687822167E+03  0.50400001928E-02 0. -1.
       -1   -1    0    0    0  501  0.00000000000E+00  0.00000000000E+00 -0.10037375433E+04  0.10037375433E+04  0.50400001928E-02 0.  1.
    10030    2    1    2    0    0  0.00000000000E+00  0.00000000000E+00 -0.13685932162E+03  0.18706157650E+04  0.18656025478E+04 0.  0.
        1    1    3    3  502    0 -0.47359598182E+03 -0.41774261259E+03  0.61993986350E+03  0.88494490154E+03  0.50400001928E-02 0. -1.
       -1    1    3    3    0  502  0.47359598182E+03  0.41774261259E+03 -0.75679918513E+03  0.98567086342E+03  0.50400001928E-02 0.  1.
</event>
<event>
 5   0  0.8681396E-05  0.1915746E+04  0.7818609E-02  0.8647058E-01
       -1   -1    0    0    0  501  0.00000000000E+00  0.00000000000E+00  0.15945975884E+04  0.15945975884E+04  0.50400001928E-02 0. -1.
        1   -1    0    0  501    0  0.00000000000E+00  0.00000000000E+00 -0.57539295538E+03  0.57539295540E+03  0.50400001928E-02 0.  1.
    10030    2    1    2    0    0  0.00000000000E+00  0.00000000000E+00  0.10192046330E+04  0.21699905438E+04  0.19157455145E+04 0.  0.
        3    1    3    3  502    0 -0.13708509122E+03  0.49321074874E+03  0.14266602651E+04  0.15157205175E+04  0.10100000352E+00 0. -1.
       -3    1    3    3    0  502  0.13708509122E+03 -0.49321074874E+03 -0.40745563214E+03  0.65427002627E+03  0.10100000352E+00 0.  1.
</event>
<event>
 5   0  0.8905646E-05  0.1888138E+04  0.7818609E-02  0.8660783E-01
        1   -1    0    0  501    0  0.00000000000E+00  0.00000000000E+00  0.19830878752E+04  0.19830878752E+04  0.50400001928E-02 0.  1.
       -1   -1    0    0    0  501  0.00000000000E+00  0.00000000000E+00 -0.44943380006E+03  0.44943380008E+03  0.50400001928E-02 0. -1.
    10030    2    1    2    0    0  0.00000000000E+00  0.00000000000E+00  0.15336540751E+04  0.24325216753E+04  0.18881384691E+04 0.  0.
        1    1    3    3  502    0  0.72721790881E+03  0.17185395773E+03  0.15101393529E+04  0.16849037168E+04  0.50400001928E-02 0.  1.
       -1    1    3    3    0  502 -0.72721790881E+03 -0.17185395773E+03  0.23514722262E+02  0.74761795850E+03  0.50400001928E-02 0. -1.
</event>
<event>
 5   0  0.1810569E-04  0.1926442E+04  0.7818609E-02  0.8641805E-01
       -2   -1    0    0    0  501  0.00000000000E+00  0.00000000000E+00  0.35766749901E+03  0.35766749902E+03  0.25500000920E-02 0.  1.
        2   -1    0    0  501    0  0.00000000000E+00  0.00000000000E+00 -0.25940140916E+04  0.25940140916E+04  0.25500000920E-02 0. -1.
    10030    2    1    2    0    0  0.00000000000E+00  0.00000000000E+00 -0.22363465926E+04  0.29516815906E+04  0.19264418315E+04 0.  0.
        4    1    3    3  502    0  0.58185855991E+03  0.46891019993E+03 -0.18698687873E+03  0.77032581746E+03  0.12699999809E+01 0.  1.
       -4    1    3    3    0  502 -0.58185855991E+03 -0.46891019993E+03 -0.20493597138E+04  0.21813557731E+04  0.12699999809E+01 0. -1.
</event>
<event>
 5   0  0.1658711E-04  0.1901601E+04  0.7818609E-02  0.8654060E-01
       -2   -1    0    0    0  501  0.00000000000E+00  0.00000000000E+00  0.74401100039E+03  0.74401100039E+03  0.25500000920E-02 0.  1.
        2   -1    0    0  501    0  0.00000000000E+00  0.00000000000E+00 -0.12150642542E+04  0.12150642542E+04  0.25500000920E-02 0. -1.
    10030    2    1    2    0    0  0.00000000000E+00  0.00000000000E+00 -0.47105325379E+03  0.19590752546E+04  0.19016005588E+04 0.  0.
        2    1    3    3  502    0 -0.57947802923E+03 -0.42161452398E+03  0.40823385293E+03  0.82474752008E+03  0.25500000920E-02 0.  1.
       -2    1    3    3    0  502  0.57947802923E+03  0.42161452398E+03 -0.87928710672E+03  0.11343277345E+04  0.25500000920E-02 0. -1.
</event>
<event>
 5   0  0.1658711E-04  0.1876141E+04  0.7818609E-02  0.8666824E-01
        2   -1    0    0  501    0  0.00000000000E+00  0.00000000000E+00  0.22700678647E+04  0.22700678647E+04  0.25500000920E-02 0. -1.
       -2   -1    0    0    0  501  0.00000000000E+00  0.00000000000E+00 -0.38764333980E+03  0.38764333980E+03  0.25500000920E-02 0.  1.
    10030    2    1    2    0    0  0.00000000000E+00  0.00000000000E+00  0.18824245249E+04  0.26577112045E+04  0.18761414538E+04 0.  0.
        2    1    3    3  502    0 -0.70963706243E+03  0.41729431382E+02  0.18082847661E+04  0.19429925119E+04  0.25500000920E-02 0. -1.
       -2    1    3    3    0  502  0.70963706243E+03 -0.41729431382E+02  0.74139758826E+02  0.71471869267E+03  0.25500000920E-02 0.  1.
</event>
<event>
 5   0  0.1799738E-04  0.1900179E+04  0.7818609E-02  0.8654767E-01
        2   -1    0    0  501    0  0.00000000000E+00  0.00000000000E+00  0.17915699478E+04  0.17915699478E+04  0.25500000920E-02 0. -1.
       -2   -1    0    0    0  501  0.00000000000E+00  0.00000000000E+00 -0.50384297844E+03  0.50384297844E+03  0.25500000920E-02 0.  1.
    10030    2    1    2    0    0  0.00000000000E+00  0.00000000000E+00  0.12877269694E+04  0.22954129262E+04  0.19001788743E+04 0.  0.
        1    1    3    3  502    0  0.39700495817E+02 -0.80361154522E+03  0.33492759334E+02  0.80528840171E+03  0.50400001928E-02 0. -1.
       -1    1    3    3    0  502 -0.39700495817E+02  0.80361154522E+03  0.12542342100E+04  0.14901245245E+04  0.50400001928E-02 0.  1.
</event>
<event>
 5   0  0.1790832E-04  0.1887246E+04  0.7818609E-02  0.8661231E-01
       -2   -1    0    0    0  501  0.00000000000E+00  0.00000000000E+00  0.74732393035E+03  0.74732393036E+03  0.25500000920E-02 0.  1.
        2   -1    0    0  501    0  0.00000000000E+00  0.00000000000E+00 -0.11914833854E+04  0.11914833854E+04  0.25500000920E-02 0. -1.
    10030    2    1    2    0    0  0.00000000000E+00  0.00000000000E+00 -0.44415945509E+03  0.19388073158E+04  0.18872456613E+04 0.  0.
        5    1    3    3  502    0  0.61733705905E+03  0.71188755966E+03 -0.17058014473E+03  0.95760566928E+03  0.46999998093E+01 0. -1.
       -5    1    3    3    0  502 -0.61733705905E+03 -0.71188755966E+03 -0.27357931035E+03  0.98120164651E+03  0.46999998093E+01 0.  1.
</event>
<event>
 5   0  0.8602017E-05  0.1898322E+04  0.7818609E-02  0.8655692E-01
        1   -1    0    0  501    0  0.00000000000E+00  0.00000000000E+00  0.16195825738E+04  0.16195825738E+04  0.50400001928E-02 0. -1.
       -1   -1    0    0    0  501  0.00000000000E+00  0.00000000000E+00 -0.55625867440E+03  0.55625867442E+03  0.50400001928E-02 0.  1.
    10030    2    1    2    0    0  0.00000000000E+00  0.00000000000E+00  0.10633238994E+04  0.21758412482E+04  0.18983222652E+04 0.  0.
        2    1    3    3  502    0 -0.48835389551E+03 -0.12177395422E+02 -0.40110787969E+03  0.63208017480E+03  0.25500000920E-02 0.  1.
       -2    1    3    3    0  502  0.48835389551E+03  0.12177395422E+02  0.14644317791E+04  0.15437610734E+04  0.25500000920E-02 0. -1.
</event>
<event>
 5   0  0.8681396E-05  0.2009547E+04  0.7818609E-02  0.8602170E-01
       -1   -1    0    0    0  501  0.00000000000E+00  0.00000000000E+00  0.93283664263E+03  0.93283664264E+03  0.50400001928E-02 0.  1.
        1   -1    0    0  501    0  0.00000000000E+00  0.00000000000E+00 -0.10822581743E+04  0.10822581743E+04  0.50400001928E-02 0. -1.
    10030    2    1    2    0    0  0.00000000000E+00  0.00000000000E+00 -0.14942153168E+03  0.20150948170E+04  0.20095472941E+04 0.  0.
        3    1    3    3  502    0  0.76988419485E+03 -0.10804776636E+03 -0.71300082508E+03  0.10548773294E+04  0.10100000352E+00 0. -1.
       -3    1    3    3    0  502 -0.76988419485E+03  0.10804776636E+03  0.56357929340E+03  0.96021748758E+03  0.10100000352E+00 0.  1.
</event>
<event>
 5   0  0.8905646E-05  0.1899166E+04  0.7818609E-02  0.8655272E-01
       -1   -1    0    0    0  501  0.00000000000E+00  0.00000000000E+00  0.77423000562E+03  0.77423000563E+03  0.50400001928E-02 0. -1.
        1   -1    0    0  501    0  0.00000000000E+00  0.00000000000E+00 -0.11646506150E+04  0.11646506150E+04  0.50400001928E-02 0.  1.
    10030    2    1    2    0    0  0.00000000000E+00  0.00000000000E+00 -0.39042060936E+03  0.19388806206E+04  0.18991655559E+04 0.  0.
        1    1    3    3  502    0 -0.34997050596E+03  0.29453890923E+03 -0.10447629013E+04  0.11405095546E+04  0.50400001928E-02 0.  1.
       -1    1    3    3    0  502  0.34997050596E+03 -0.29453890923E+03  0.65434229193E+03  0.79837106606E+03  0.50400001928E-02 0. -1.
</event>
<event>
 5   0  0.8602017E-05  0.1856000E+04  0.7818609E-02  0.8677073E-01
        1   -1    0    0  501    0  0.00000000000E+00  0.00000000000E+00  0.11234124280E+04  0.11234124280E+04  0.50400001928E-02 0.  1.
       -1   -1    0    0    0  501  0.00000000000E+00  0.00000000000E+00 -0.76657870809E+03  0.76657870811E+03  0.50400001928E-02 0. -1.
    10030    2    1    2    0    0  0.00000000000E+00  0.00000000000E+00  0.35683371992E+03  0.18899911361E+04  0.18560000515E+04 0.  0.
        2    1    3    3  502    0  0.27152300843E+03 -0.43438016788E+03 -0.60955906874E+03  0.79622429795E+03  0.25500000920E-02 0. -1.
       -2    1    3    3    0  502 -0.27152300843E+03  0.43438016788E+03  0.96639278866E+03  0.10937668382E+04  0.25500000920E-02 0.  1.
</event>
<event>
 5   0  0.1765328E-04  0.1879672E+04  0.7818609E-02  0.8665041E-01
        2   -1    0    0  501    0  0.00000000000E+00  0.00000000000E+00  0.62816663249E+03  0.62816663249E+03  0.25500000920E-02 0.  1.
       -2   -1    0    0    0  501  0.00000000000E+00  0.00000000000E+00 -0.14061429013E+04  0.14061429013E+04  0.25500000920E-02 0. -1.
    10030    2    1    2    0    0  0.00000000000E+00  0.00000000000E+00 -0.77797626879E+03  0.20343095338E+04  0.18796723662E+04 0.  0.
        3    1    3    3  502    0 -0.80850496783E+02  0.89623042776E+03 -0.95523270798E+02  0.90492568089E+03  0.10100000352E+00 0.  1.
       -3    1    3    3    0  502  0.80850496783E+02 -0.89623042776E+03 -0.68245299799E+03  0.11293838529E+04  0.10100000352E+00 0. -1.
</event>
<event>
 5   0  0.8602017E-05  0.1909289E+04  0.7818609E-02  0.8650246E-01
        1   -1    0    0  501    0  0.00000000000E+00  0.00000000000E+00  0.11957069289E+04  0.11957069289E+04  0.50400001928E-02 0.  1.
       -1   -1    0    0    0  501  0.00000000000E+00  0.00000000000E+00 -0.76218215575E+03  0.76218215577E+03  0.50400001928E-02 0. -1.
    10030    2    1    2    0    0  0.00000000000E+00  0.00000000000E+00  0.43352477315E+03  0.19578890847E+04  0.19092893806E+04 0.  0.
        2    1    3    3  502    0 -0.61663742266E+01  0.95456662841E+03  0.20595794718E+03  0.97655217386E+03  0.25500000920E-02 0. -1.
       -2    1    3    3    0  502  0.61663742266E+01 -0.95456662841E+03  0.22756682597E+03  0.98133691082E+03  0.25500000920E-02 0.  1.
</event>
<event>
 5   0  0.1790832E-04  0.1894460E+04  0.7818609E-02  0.8657619E-01
        2   -1    0    0  501    0  0.00000000000E+00  0.00000000000E+00  0.57657859395E+03  0.57657859396E+03  0.25500000920E-02 0.  1.
       -2   -1    0    0    0  501  0.00000000000E+00  0.00000000000E+00 -0.15561536195E+04  0.15561536195E+04  0.25500000920E-02 0. -1.
    10030    2    1    2    0    0  0.00000000000E+00  0.00000000000E+00 -0.97957502556E+03  0.21327322135E+04  0.18944602038E+04 0.  0.
        5    1    3    3  502    0 -0.31479579734E+03  0.28776789711E+03  0.46235031036E+03  0.62904424019E+03  0.46999998093E+01 0.  1.
       -5    1    3    3    0  502  0.31479579734E+03 -0.28776789711E+03 -0.14419253359E+04  0.15036879733E+04  0.46999998093E+01 0. -1.
</event>
<event>
 5   0  0.1810569E-04  0.1894777E+04  0.7818609E-02  0.8657460E-01
        2   -1    0    0  501    0  0.00000000000E+00  0.00000000000E+00  0.74770245498E+03  0.74770245499E+03  0.25500000920E-02 0. -1.
       -2   -1    0    0    0  501  0.00000000000E+00  0.00000000000E+00 -0.12004043433E+04  0.12004043433E+04  0.25500000920E-02 0.  1.
    10030    2    1    2    0    0  0.00000000000E+00  0.00000000000E+00 -0.45270188831E+03  0.19481067983E+04  0.18947773214E+04 0.  0.
        4    1    3    3  502    0 -0.90683425882E+02 -0.63982431293E+02 -0.11936967856E+04  0.11988456382E+04  0.12699999809E+01 0.  1.
       -4    1    3    3    0  502  0.90683425882E+02  0.63982431293E+02  0.74099489734E+03  0.74926116009E+03  0.12699999809E+01 0. -1.
</event>
<event>
 5   0  0.8587082E-05  0.1851633E+04  0.7818609E-02  0.8679313E-01
       -1   -1    0    0    0  501  0.00000000000E+00  0.00000000000E+00  0.47971795416E+03  0.47971795419E+03  0.50400001928E-02 0.  1.
        1   -1    0    0  501    0  0.00000000000E+00  0.00000000000E+00 -0.17867505148E+04  0.17867505148E+04  0.50400001928E-02 0. -1.
    10030    2    1    2    0    0  0.00000000000E+00  0.00000000000E+00 -0.13070325606E+04  0.22664684690E+04  0.18516331187E+04 0.  0.
        5    1    3    3  502    0 -0.21371060063E+03 -0.81843169600E+03 -0.19289491394E+03  0.86760198228E+03  0.46999998093E+01 0. -1.
       -5    1    3    3    0  502  0.21371060063E+03  0.81843169600E+03 -0.11141376467E+04  0.13988664867E+04  0.46999998093E+01 0.  1.
</event>
<event>
 5   0  0.8681396E-05  0.1885600E+04  0.7818609E-02  0.8662057E-01
       -1   -1    0    0    0  501  0.00000000000E+00  0.00000000000E+00  0.10879569335E+04  0.10879569335E+04  0.50400001928E-02 0.  1.
        1   -1    0    0  501    0  0.00000000000E+00  0.00000000000E+00 -0.81701042539E+03  0.81701042540E+03  0.50400001928E-02 0. -1.
    10030    2    1    2    0    0  0.00000000000E+00  0.00000000000E+00  0.27094650812E+03  0.19049673589E+04  0.18856003363E+04 0.  0.
        3    1    3    3  502    0 -0.91809774581E+03 -0.16861024563E+03  0.26926937981E+03  0.97151371318E+03  0.10100000352E+00 0.  1.
       -3    1    3    3    0  502  0.91809774581E+03  0.16861024563E+03  0.16771283118E+01  0.93345364574E+03  0.10100000352E+00 0. -1.
</event>
<event>
 5   0  0.8567844E-05  0.1896716E+04  0.7818609E-02  0.8656493E-01
       -1   -1    0    0    0  501  0.00000000000E+00  0.00000000000E+00  0.47672046670E+03  0.47672046672E+03  0.50400001928E-02 0. -1.
        1   -1    0    0  501    0  0.00000000000E+00  0.00000000000E+00 -0.18866047971E+04  0.18866047971E+04  0.50400001928E-02 0.  1.
    10030    2    1    2    0    0  0.00000000000E+00  0.00000000000E+00 -0.14098843304E+04  0.23633252638E+04  0.18967162354E+04 0.  0.
        4    1    3    3  502    0 -0.64142288667E+03 -0.47455041770E+03 -0.13436479288E+04  0.15626940801E+04  0.12699999809E+01 0.  1.
       -4    1    3    3    0  502  0.64142288667E+03  0.47455041770E+03 -0.66236401541E+02  0.80063118368E+03  0.12699999809E+01 0. -1.
</event>
<event>
 5   0  0.8587082E-05  0.1914565E+04  0.7818609E-02  0.8647640E-01
       -1   -1    0    0    0  501  0.00000000000E+00  0.00000000000E+00  0.11821707720E+04  0.11821707720E+04  0.50400001928E-02 0.  1.
        1   -1    0    0  501    0  0.00000000000E+00  0.00000000000E+00 -0.77517565995E+03  0.77517565996E+03  0.50400001928E-02 0. -1.
    10030    2    1    2    0    0  0.00000000000E+00  0.00000000000E+00  0.40699511205E+03  0.19573464320E+04  0.19145652335E+04 0.  0.
        5    1    3    3  502    0  0.87863595994E+03 -0.29783916497E+03  0.44468998414E+03  0.10288248589E+04  0.46999998093E+01 0. -1.
       -5    1    3    3    0  502 -0.87863595994E+03  0.29783916497E+03 -0.37694872090E+02  0.92852157307E+03  0.46999998093E+01 0.  1.
</event>
<event>
 5   0  0.1658711E-04  0.1909335E+04  0.7818609E-02  0.8650224E-01
       -2   -1    0    0    0  501  0.00000000000E+00  0.00000000000E+00  0.10198689020E+04  0.10198689020E+04  0.25500000920E-02 0. -1.
        2   -1    0    0  501    0  0.00000000000E+00  0.00000000000E+00 -0.89363427457E+03  0.89363427457E+03  0.25500000920E-02 0.  1.
    10030    2    1    2    0    0  0.00000000000E+00  0.00000000000E+00  0.12623462738E+03  0.19135031765E+04  0.19093347599E+04 0.  0.
        2    1    3    3  502    0  0.68220727956E+03  0.53427944746E+03  0.46465211373E+03  0.98324101169E+03  0.25500000920E-02 0.  1.
       -2    1    3    3    0  502 -0.68220727956E+03 -0.53427944746E+03 -0.33841748635E+03  0.93026216484E+03  0.25500000920E-02 0. -1.
</event>
<event>
 5   0  0.8602017E-05  0.1900561E+04  0.7818609E-02  0.8654577E-01
        1   -1    0    0  501    0  0.00000000000E+00  0.00000000000E+00  0.11740836195E+04  0.11740836195E+04  0.50400001928E-02 0. -1.
       -1   -1    0    0    0  501  0.00000000000E+00  0.00000000000E+00 -0.76913860597E+03  0.76913860599E+03  0.50400001928E-02 0.  1.
    10030    2    1    2    0    0  0.00000000000E+00  0.00000000000E+00  0.40494501355E+03  0.19432222255E+04  0.19005610103E+04 0.  0.
        2    1    3    3  502    0 -0.32821136001E+03  0.26878256946E+03  0.10718926651E+04  0.11527882078E+04  0.25500000920E-02 0. -1.
       -2    1    3    3    0  502  0.32821136001E+03 -0.26878256946E+03 -0.66694765156E+03  0.79043401774E+03  0.25500000920E-02 0.  1.
</event>
<event>
 5   0  0.1790832E-04  0.1934785E+04  0.7818609E-02  0.8637733E-01
        2   -1    0    0  501    0  0.00000000000E+00  0.00000000000E+00  0.17141120747E+04  0.17141120747E+04  0.25500000920E-02 0. -1.
       -2   -1    0    0    0  501  0.00000000000E+00  0.00000000000E+00 -0.54596698260E+03  0.54596698261E+03  0.25500000920E-02 0.  1.
    10030    2    1    2    0    0  0.00000000000E+00  0.00000000000E+00  0.11681450921E+04  0.22600790573E+04  0.19347853599E+04 0.  0.
        5    1    3    3  502    0 -0.23896169905E+03  0.58494693644E+03 -0.27158571454E+03  0.68778376137E+03  0.46999998093E+01 0.  1.
       -5    1    3    3    0  502  0.23896169905E+03 -0.58494693644E+03  0.14397308066E+04  0.15722952959E+04  0.46999998093E+01 0. -1.
</event>
<event>
 5   0  0.8905646E-05  0.1903146E+04  0.7818609E-02  0.8653292E-01
       -1   -1    0    0    0  501  0.00000000000E+00  0.00000000000E+00  0.18021263276E+04  0.18021263276E+04  0.50400001928E-02 0.  1.
        1   -1    0    0  501    0  0.00000000000E+00  0.00000000000E+00 -0.50245700732E+03  0.50245700734E+03  0.50400001928E-02 0. -1.
    10030    2    1    2    0    0  0.00000000000E+00  0.00000000000E+00  0.12996693203E+04  0.23045833350E+04  0.19031458183E+04 0.  0.
        1    1    3    3  502    0  0.60507630669E+03  0.60361530208E+03  0.14323258961E+03  0.86659352904E+03  0.50400001928E-02 0. -1.
       -1    1    3    3    0  502 -0.60507630669E+03 -0.60361530208E+03  0.11564367307E+04  0.14379898059E+04  0.50400001928E-02 0.  1.
</event>
<event>
 5   0  0.1765328E-04  0.1874467E+04  0.7818609E-02  0.8667671E-01
       -2   -1    0    0    0  501  0.00000000000E+00  0.00000000000E+00  0.77018118541E+03  0.77018118541E+03  0.25500000920E-02 0. -1.
        2   -1    0    0  501    0  0.00000000000E+00  0.00000000000E+00 -0.11405195473E+04  0.11405195473E+04  0.25500000920E-02 0.  1.
    10030    2    1    2    0    0  0.00000000000E+00  0.00000000000E+00 -0.37033836188E+03  0.19107007327E+04  0.18744670676E+04 0.  0.
        3    1    3    3  502    0 -0.53857489433E+03 -0.59525953631E+03  0.30792732886E+03  0.85977676314E+03  0.10100000352E+00 0. -1.
       -3    1    3    3    0  502  0.53857489433E+03  0.59525953631E+03 -0.67826569074E+03  0.10509239696E+04  0.10100000352E+00 0.  1.
</event>
<event>
 5   0  0.1790832E-04  0.1916259E+04  0.7818609E-02  0.8646805E-01
       -2   -1    0    0    0  501  0.00000000000E+00  0.00000000000E+00  0.67831517231E+03  0.67831517231E+03  0.25500000920E-02 0.  1.
        2   -1    0    0  501    0  0.00000000000E+00  0.00000000000E+00 -0.13533713528E+04  0.13533713528E+04  0.25500000920E-02 0. -1.
    10030    2    1    2    0    0  0.00000000000E+00  0.00000000000E+00 -0.67505618047E+03  0.20316865251E+04  0.19162591916E+04 0.  0.
        5    1    3    3  502    0 -0.52953598013E+03 -0.49758817858E+03  0.32457864509E+03  0.79584906645E+03  0.46999998093E+01 0. -1.
       -5    1    3    3    0  502  0.52953598013E+03  0.49758817858E+03 -0.99963482557E+03  0.12358374586E+04  0.46999998093E+01 0.  1.
</event>
<event>
 5   0  0.1790832E-04  0.1900928E+04  0.7818609E-02  0.8654394E-01
       -2   -1    0    0    0  501  0.00000000000E+00  0.00000000000E+00  0.83352334026E+03  0.83352334027E+03  0.25500000920E-02 0. -1.
        2   -1    0    0  501    0  0.00000000000E+00  0.00000000000E+00 -0.10838116159E+04  0.10838116159E+04  0.25500000920E-02 0.  1.
    10030    2    1    2    0    0  0.00000000000E+00  0.00000000000E+00 -0.25028827560E+03  0.19173349561E+04  0.19009284871E+04 0.  0.
        5    1    3    3  502    0  0.76174691099E+03  0.32547146411E+03 -0.59518139655E+03  0.10200259875E+04  0.46999998093E+01 0.  1.
       -5    1    3    3    0  502 -0.76174691099E+03 -0.32547146411E+03  0.34489312095E+03  0.89730896865E+03  0.46999998093E+01 0. -1.
</event>
<event>
 5   0  0.1765328E-04  0.1903961E+04  0.7818609E-02  0.8652887E-01
        2   -1    0    0  501    0  0.00000000000E+00  0.00000000000E+00  0.47617052483E+03  0.47617052484E+03  0.25500000920E-02 0. -1.
       -2   -1    0    0    0  501  0.00000000000E+00  0.00000000000E+00 -0.19032403042E+04  0.19032403042E+04  0.25500000920E-02 0.  1.
    10030    2    1    2    0    0  0.00000000000E+00  0.00000000000E+00 -0.14270697794E+04  0.23794108291E+04  0.19039610653E+04 0.  0.
        3    1    3    3  502    0  0.76251338334E+03  0.27161160162E+03 -0.87344302087E+02  0.81414283711E+03  0.10100000352E+00 0. -1.
       -3    1    3    3    0  502 -0.76251338334E+03 -0.27161160162E+03 -0.13397254773E+04  0.15652679919E+04  0.10100000352E+00 0.  1.
</event>
<event>
 5   0  0.8905646E-05  0.1901246E+04  0.7818609E-02  0.8654236E-01
        1   -1    0    0  501    0  0.00000000000E+00  0.00000000000E+00  0.16212847157E+04  0.16212847157E+04  0.50400001928E-02 0. -1.
       -1   -1    0    0    0  501  0.00000000000E+00  0.00000000000E+00 -0.55738790724E+03  0.55738790726E+03  0.50400001928E-02 0.  1.
    10030    2    1    2    0    0  0.00000000000E+00  0.00000000000E+00  0.10638968084E+04  0.21786726229E+04  0.19012464277E+04 0.  0.
        1    1    3    3  502    0 -0.12982944191E+03  0.95956907152E+02  0.16054608625E+04  0.16135575580E+04  0.50400001928E-02 0. -1.
       -1    1    3    3    0  502  0.12982944191E+03 -0.95956907152E+02 -0.54156405402E+03  0.56511506497E+03  0.50400001928E-02 0.  1.
</event>
<event>
 5   0  0.8567844E-05  0.1901076E+04  0.7818609E-02  0.8654321E-01
        1   -1    0    0  501    0  0.00000000000E+00  0.00000000000E+00  0.79545966824E+03  0.79545966825E+03  0.50400001928E-02 0.  1.
       -1   -1    0    0    0  501  0.00000000000E+00  0.00000000000E+00 -0.11358495287E+04  0.11358495287E+04  0.50400001928E-02 0. -1.
    10030    2    1    2    0    0  0.00000000000E+00  0.00000000000E+00 -0.34038986050E+03  0.19313091970E+04  0.19010759999E+04 0.  0.
        4    1    3    3  502    0  0.45989603483E+03  0.51456536916E+03 -0.83422503873E+03  0.10826887411E+04  0.12699999809E+01 0. -1.
       -4    1    3    3    0  502 -0.45989603483E+03 -0.51456536916E+03  0.49383517823E+03  0.84862045589E+03  0.12699999809E+01 0.  1.
</event>
<event>
 5   0  0.8587082E-05  0.1915316E+04  0.7818609E-02  0.8647270E-01
        1   -1    0    0  501    0  0.00000000000E+00  0.00000000000E+00  0.61737310357E+03  0.61737310359E+03  0.50400001928E-02 0. -1.
       -1   -1    0    0    0  501  0.00000000000E+00  0.00000000000E+00 -0.14855019737E+04  0.14855019737E+04  0.50400001928E-02 0.  1.
    10030    2    1    2    0    0  0.00000000000E+00  0.00000000000E+00 -0.86812887015E+03  0.21028750773E+04  0.19153161242E+04 0.  0.
        5    1    3    3  502    0 -0.30718635839E+03 -0.14154378607E+03  0.54959917002E+03  0.64535218280E+03  0.46999998093E+01 0. -1.
       -5    1    3    3    0  502  0.30718635839E+03  0.14154378607E+03 -0.14177280402E+04  0.14575228945E+04  0.46999998093E+01 0.  1.
</event>
<event>
 5   0  0.1658711E-04  0.1841621E+04  0.7818609E-02  0.8684474E-01
       -2   -1    0    0    0  501  0.00000000000E+00  0.00000000000E+00  0.11417275922E+04  0.11417275922E+04  0.25500000920E-02 0. -1.
        2   -1    0    0  501    0  0.00000000000E+00  0.00000000000E+00 -0.74263946489E+03  0.74263946490E+03  0.25500000920E-02 0.  1.
    10030    2    1    2    0    0  0.00000000000E+00  0.00000000000E+00  0.39908812728E+03  0.18843670571E+04  0.18416209904E+04 0.  0.
        2    1    3    3  502    0 -0.32688628182E+03 -0.86073485441E+03  0.21299597340E+03  0.94503249443E+03  0.25500000920E-02 0.  1.
       -2    1    3    3    0  502  0.32688628182E+03  0.86073485441E+03  0.18609215388E+03  0.93933456265E+03  0.25500000920E-02 0. -1.
</event>
<event>
 5   0  0.8681396E-05  0.1920622E+04  0.7818609E-02  0.8644659E-01
        1   -1    0    0  501    0  0.00000000000E+00  0.00000000000E+00  0.18893728716E+04  0.18893728716E+04  0.50400001928E-02 0.  1.
       -1   -1    0    0    0  501  0.00000000000E+00  0.00000000000E+00 -0.48809721376E+03  0.48809721379E+03  0.50400001928E-02 0. -1.
    10030    2    1    2    0    0  0.00000000000E+00  0.00000000000E+00  0.14012756579E+04  0.23774700854E+04  0.19206224350E+04 0.  0.
        3    1    3    3  502    0 -0.36030407513E+03  0.46526346466E+03 -0.23876055792E+03  0.63505569229E+03  0.10100000352E+00 0. -1.
       -3    1    3    3    0  502  0.36030407513E+03 -0.46526346466E+03  0.16400362158E+04  0.17424143931E+04  0.10100000352E+00 0.  1.
</event>
<event>
 5   0  0.8567844E-05  0.1893409E+04  0.7818609E-02  0.8658144E-01
       -1   -1    0    0    0  501  0.00000000000E+00  0.00000000000E+00  0.94238296839E+03  0.94238296840E+03  0.50400001928E-02 0. -1.
        1   -1    0    0  501    0  0.00000000000E+00  0.00000000000E+00 -0.95104571334E+03  0.95104571336E+03  0.50400001928E-02 0.  1.
    10030    2    1    2    0    0  0.00000000000E+00  0.00000000000E+00 -0.86627449535E+01  0.18934286818E+04  0.18934088649E+04 0.  0.
        4    1    3    3  502    0 -0.20815242730E+03 -0.80509316265E+03  0.44816119303E+03  0.94464411361E+03  0.12699999809E+01 0. -1.
       -4    1    3    3    0  502  0.20815242730E+03  0.80509316265E+03 -0.45682393799E+03  0.94878456815E+03  0.12699999809E+01 0.  1.
</event>
<event>
 5   0  0.1810569E-04  0.1948997E+04  0.7818609E-02  0.8630844E-01
       -2   -1    0    0    0  501  0.00000000000E+00  0.00000000000E+00  0.65424467986E+03  0.65424467987E+03  0.25500000920E-02 0.  1.
        2   -1    0    0  501    0  0.00000000000E+00  0.00000000000E+00 -0.14515175388E+04  0.14515175388E+04  0.25500000920E-02 0. -1.
    10030    2    1    2    0    0  0.00000000000E+00  0.00000000000E+00 -0.79727285896E+03  0.21057622187E+04  0.19489973089E+04 0.  0.
        4    1    3    3  502    0 -0.42492639391E+03 -0.82593195128E+03 -0.71717198367E+03  0.11734834023E+04  0.12699999809E+01 0. -1.
       -4    1    3    3    0  502  0.42492639391E+03  0.82593195128E+03 -0.80100875290E+02  0.93227881640E+03  0.12699999809E+01 0.  1.
</event>
<event>
 5   0  0.8567844E-05  0.1935723E+04  0.7818609E-02  0.8637276E-01
       -1   -1    0    0    0  501  0.00000000000E+00  0.00000000000E+00  0.61532019312E+03  0.61532019314E+03  0.50400001928E-02 0. -1.
        1   -1    0    0  501    0  0.00000000000E+00  0.00000000000E+00 -0.15223875993E+04  0.15223875993E+04  0.50400001928E-02 0.  1.
    10030    2    1    2    0    0  0.00000000000E+00  0.00000000000E+00 -0.90706740618E+03  0.21377077925E+04  0.19357229467E+04 0.  0.
        4    1    3    3  502    0  0.37617868924E+03  0.36201643540E+03  0.44648311716E+03  0.68696076493E+03  0.12699999809E+01 0. -1.
       -4    1    3    3    0  502 -0.37617868924E+03 -0.36201643540E+03 -0.13535505233E+04  0.14507470275E+04  0.12699999809E+01 0.  1.
</event>
<event>
 5   0  0.8567844E-05  0.1893069E+04  0.7818609E-02  0.8658314E-01
        1   -1    0    0  501    0  0.00000000000E+00  0.00000000000E+00  0.11501698454E+04  0.11501698454E+04  0.50400001928E-02 0.  1.
       -1   -1    0    0    0  501  0.00000000000E+00  0.00000000000E+00 -0.77895255768E+03  0.77895255770E+03  0.50400001928E-02 0. -1.
    10030    2    1    2    0    0  0.00000000000E+00  0.00000000000E+00  0.37121728771E+03  0.19291224031E+04  0.18930691935E+04 0.  0.
        4    1    3    3  502    0  0.31635400506E+03  0.10299989147E+03  0.10886211308E+04  0.11383261455E+04  0.12699999809E+01 0.  1.
       -4    1    3    3    0  502 -0.31635400506E+03 -0.10299989147E+03 -0.71740384307E+03  0.79079625764E+03  0.12699999809E+01 0. -1.
</event>
<event>
 5   0  0.8905646E-05  0.1871891E+04  0.7818609E-02  0.8668976E-01
        1   -1    0    0  501    0  0.00000000000E+00  0.00000000000E+00  0.27473446630E+04  0.27473446630E+04  0.50400001928E-02 0.  1.
       -1   -1    0    0    0  501  0.00000000000E+00  0.00000000000E+00 -0.31885107358E+03  0.31885107362E+03  0.50400001928E-02 0. -1.
    10030    2    1    2    0    0  0.00000000000E+00  0.00000000000E+00  0.24284935894E+04  0.30661957366E+04  0.18718908038E+04 0.  0.
        1    1    3    3  502    0  0.23434329099E+03  0.89909112954E+03  0.13989306821E+04  0.16793715165E+04  0.50400001928E-02 0.  1.
       -1    1    3    3    0  502 -0.23434329099E+03 -0.89909112954E+03  0.10295629074E+04  0.13868242201E+04  0.50400001928E-02 0. -1.
</event>
<event>
 5   0  0.1799738E-04  0.1897332E+04  0.7818609E-02  0.8656185E-01
       -2   -1    0    0    0  501  0.00000000000E+00  0.00000000000E+00  0.10571501067E+04  0.10571501067E+04  0.25500000920E-02 0.  1.
        2   -1    0    0  501    0  0.00000000000E+00  0.00000000000E+00 -0.85131478460E+03  0.85131478461E+03  0.25500000920E-02 0. -1.
    10030    2    1    2    0    0  0.00000000000E+00  0.00000000000E+00  0.20583532211E+03  0.19084648913E+04  0.18973323540E+04 0.  0.
        1    1    3    3  502    0 -0.26802268331E+03 -0.43546271403E+03 -0.70083501367E+03  0.86754461009E+03  0.50400001928E-02 0. -1.
       -1    1    3    3    0  502  0.26802268331E+03  0.43546271403E+03  0.90667033578E+03  0.10409202812E+04  0.50400001928E-02 0.  1.
</event>
<event>
 5   0  0.8681396E-05  0.1902580E+04  0.7818609E-02  0.8653573E-01
       -1   -1    0    0    0  501  0.00000000000E+00  0.00000000000E+00  0.89278770400E+03  0.89278770402E+03  0.50400001928E-02 0. -1.
        1   -1    0    0  501    0  0.00000000000E+00  0.00000000000E+00 -0.10136260283E+04  0.10136260284E+04  0.50400001928E-02 0.  1.
    10030    2    1    2    0    0  0.00000000000E+00  0.00000000000E+00 -0.12083832434E+03  0.19064137324E+04  0.19025802002E+04 0.  0.
        3    1    3    3  502    0  0.53811671827E+03 -0.74884365929E+03  0.17375327890E+03  0.93836381040E+03  0.10100000352E+00 0. -1.
       -3    1    3    3    0  502 -0.53811671827E+03  0.74884365929E+03 -0.29459160325E+03  0.96804992198E+03  0.10100000352E+00 0.  1.
</event>
<event>
 5   0  0.1658711E-04  0.1963869E+04  0.7818609E-02  0.8623702E-01
        2   -1    0    0  501    0  0.00000000000E+00  0.00000000000E+00  0.11157803540E+04  0.11157803540E+04  0.25500000920E-02 0.  1.
       -2   -1    0    0    0  501  0.00000000000E+00  0.00000000000E+00 -0.86414420150E+03  0.86414420150E+03  0.25500000920E-02 0. -1.
    10030    2    1    2    0    0  0.00000000000E+00  0.00000000000E+00  0.25163615253E+03  0.19799245555E+04  0.19638687564E+04 0.  0.
        2    1    3    3  502    0  0.24174310799E+03  0.68671192233E+03  0.79013016069E+03  0.10743922307E+04  0.25500000920E-02 0.  1.
       -2    1    3    3    0  502 -0.24174310799E+03 -0.68671192233E+03 -0.53849400816E+03  0.90553232485E+03  0.25500000920E-02 0. -1.
</event>
<event>
 5   0  0.1765328E-04  0.1898295E+04  0.7818609E-02  0.8655706E-01
       -2   -1    0    0    0  501  0.00000000000E+00  0.00000000000E+00  0.86980555437E+03  0.86980555437E+03  0.25500000920E-02 0.  1.
        2   -1    0    0  501    0  0.00000000000E+00  0.00000000000E+00 -0.10357267757E+04  0.10357267757E+04  0.25500000920E-02 0. -1.
    10030    2    1    2    0    0  0.00000000000E+00  0.00000000000E+00 -0.16592122137E+03  0.19055323301E+04  0.18982949216E+04 0.  0.
        3    1    3    3  502    0  0.66929384513E+03 -0.44938717532E+03 -0.58584748037E+03  0.99655424585E+03  0.10100000352E+00 0. -1.
       -3    1    3    3    0  502 -0.66929384513E+03  0.44938717532E+03  0.41992625899E+03  0.90897808426E+03  0.10100000352E+00 0.  1.
</event>
<event>
 5   0  0.6375750E-05  0.1942156E+04  0.7818609E-02  0.8634153E-01
        3   -1    0    0  501    0  0.00000000000E+00  0.00000000000E+00  0.86568724651E+03  0.86568725241E+03  0.10100000352E+00 0. -1.
       -3   -1    0    0    0  501  0.00000000000E+00  0.00000000000E+00 -0.10892987202E+04  0.10892987249E+04  0.10100000352E+00 0.  1.
    10030    2    1    2    0    0  0.00000000000E+00  0.00000000000E+00 -0.22361147373E+03  0.19549859773E+04  0.19421555242E+04 0.  0.
        5    1    3    3  502    0 -0.30432704560E+03 -0.46646666134E+03  0.68891387614E+03  0.88590660657E+03  0.46999998093E+01 0. -1.
       -5    1    3    3    0  502  0.30432704560E+03  0.46646666134E+03 -0.91252534987E+03  0.10690793708E+04  0.46999998093E+01 0.  1.
</event>
<event>
 5   0  0.8587082E-05  0.1932275E+04  0.7818609E-02  0.8638956E-01
       -1   -1    0    0    0  501  0.00000000000E+00  0.00000000000E+00  0.14061057279E+04  0.14061057279E+04  0.50400001928E-02 0. -1.
        1   -1    0    0  501    0  0.00000000000E+00  0.00000000000E+00 -0.66383489215E+03  0.66383489217E+03  0.50400001928E-02 0.  1.
    10030    2    1    2    0    0  0.00000000000E+00  0.00000000000E+00  0.74227083576E+03  0.20699406201E+04  0.19322753885E+04 0.  0.
        5    1    3    3  502    0 -0.52499579025E+03  0.22017925892E+03 -0.46505391081E+03  0.73511680418E+03  0.46999998093E+01 0.  1.
       -5    1    3    3    0  502  0.52499579025E+03 -0.22017925892E+03  0.12073247466E+04  0.13348238159E+04  0.46999998093E+01 0. -1.
</event>
<event>
 5   0  0.1810569E-04  0.1908632E+04  0.7818609E-02  0.8650571E-01
        2   -1    0    0  501    0  0.00000000000E+00  0.00000000000E+00  0.19755868096E+04  0.19755868096E+04  0.25500000920E-02 0.  1.
       -2   -1    0    0    0  501  0.00000000000E+00  0.00000000000E+00 -0.46098671513E+03  0.46098671513E+03  0.25500000920E-02 0. -1.
    10030    2    1    2    0    0  0.00000000000E+00  0.00000000000E+00  0.15146000944E+04  0.24365735247E+04  0.19086322577E+04 0.  0.
        4    1    3    3  502    0  0.14488316040E+03 -0.26514700455E+03  0.19129105876E+04  0.19366266014E+04  0.12699999809E+01 0.  1.
       -4    1    3    3    0  502 -0.14488316040E+03  0.26514700455E+03 -0.39831049320E+03  0.49994692326E+03  0.12699999809E+01 0. -1.
</event>
<event>
 5   0  0.1810569E-04  0.1945098E+04  0.7818609E-02  0.8632728E-01
        2   -1    0    0  501    0  0.00000000000E+00  0.00000000000E+00  0.21511663354E+04  0.21511663354E+04  0.25500000920E-02 0.  1.
       -2   -1    0    0    0  501  0.00000000000E+00  0.00000000000E+00 -0.43969224528E+03  0.43969224528E+03  0.25500000920E-02 0. -1.
    10030    2    1    2    0    0  0.00000000000E+00  0.00000000000E+00  0.17114740901E+04  0.25908585807E+04  0.19450975873E+04 0.  0.
        4    1    3    3  502    0 -0.37733417763E+03 -0.85352662340E+03  0.49105085572E+03  0.10545242218E+04  0.12699999809E+01 0. -1.
       -4    1    3    3    0  502  0.37733417763E+03  0.85352662340E+03  0.12204232344E+04  0.15363343589E+04  0.12699999809E+01 0.  1.
</event>
<event>
 5   0  0.1658711E-04  0.1888269E+04  0.7818609E-02  0.8660718E-01
       -2   -1    0    0    0  501  0.00000000000E+00  0.00000000000E+00  0.12185793202E+04  0.12185793202E+04  0.25500000920E-02 0.  1.
        2   -1    0    0  501    0  0.00000000000E+00  0.00000000000E+00 -0.73149943104E+03  0.73149943105E+03  0.25500000920E-02 0. -1.
    10030    2    1    2    0    0  0.00000000000E+00  0.00000000000E+00  0.48707988915E+03  0.19500787512E+04  0.18882691327E+04 0.  0.
        2    1    3    3  502    0  0.58439316119E+03  0.64145439305E+03  0.62775423945E+03  0.10710062980E+04  0.25500000920E-02 0. -1.
       -2    1    3    3    0  502 -0.58439316119E+03 -0.64145439305E+03 -0.14067435030E+03  0.87907245324E+03  0.25500000920E-02 0.  1.
</event>
<event>
 5   0  0.8587082E-05  0.1905527E+04  0.7818609E-02  0.8652110E-01
        1   -1    0    0  501    0  0.00000000000E+00  0.00000000000E+00  0.16611306784E+04  0.16611306784E+04  0.50400001928E-02 0. -1.
       -1   -1    0    0    0  501  0.00000000000E+00  0.00000000000E+00 -0.54647010910E+03  0.54647010912E+03  0.50400001928E-02 0.  1.
    10030    2    1    2    0    0  0.00000000000E+00  0.00000000000E+00  0.11146605693E+04  0.22076007875E+04  0.19055269749E+04 0.  0.
        5    1    3    3  502    0  0.49162154544E+03 -0.80464047608E+03  0.39933645789E+03  0.10240262381E+04  0.46999998093E+01 0. -1.
       -5    1    3    3    0  502 -0.49162154544E+03  0.80464047608E+03  0.71532411137E+03  0.11835745494E+04  0.46999998093E+01 0.  1.
</event>
<event>
 5   0  0.1765328E-04  0.1911492E+04  0.7818609E-02  0.8649157E-01
       -2   -1    0    0    0  501  0.00000000000E+00  0.00000000000E+00  0.74468704267E+03  0.74468704267E+03  0.25500000920E-02 0. -1.
        2   -1    0    0  501    0  0.00000000000E+00  0.00000000000E+00 -0.12266233912E+04  0.12266233912E+04  0.25500000920E-02 0.  1.
    10030    2    1    2    0    0  0.00000000000E+00  0.00000000000E+00 -0.48193634852E+03  0.19713104339E+04  0.19114921351E+04 0.  0.
        3    1    3    3  502    0 -0.15720880698E+03  0.83479050069E+03 -0.69269467563E+03  0.10960911061E+04  0.10100000352E+00 0.  1.
       -3    1    3    3    0  502  0.15720880698E+03 -0.83479050069E+03  0.21075832711E+03  0.87521932776E+03  0.10100000352E+00 0. -1.
</event>
<event>
 5   0  0.6375750E-05  0.1902057E+04  0.7818609E-02  0.8653833E-01
       -3   -1    0    0    0  501  0.00000000000E+00  0.00000000000E+00  0.50740886328E+03  0.50740887333E+03  0.10100000352E+00 0. -1.
        3   -1    0    0  501    0  0.00000000000E+00  0.00000000000E+00 -0.17824985679E+04  0.17824985708E+04  0.10100000352E+00 0.  1.
    10030    2    1    2    0    0  0.00000000000E+00  0.00000000000E+00 -0.12750897046E+04  0.22899074441E+04  0.19020573986E+04 0.  0.
        4    1    3    3  502    0  0.72092824252E+02 -0.89691916227E+03 -0.10082098376E+04  0.13513511936E+04  0.12699999809E+01 0.  1.
       -4    1    3    3    0  502 -0.72092824252E+02  0.89691916227E+03 -0.26687986700E+03  0.93855625046E+03  0.12699999809E+01 0. -1.
</event>
<event>
 5   0  0.8681396E-05  0.1886564E+04  0.7818609E-02  0.8661573E-01
       -1   -1    0    0    0  501  0.00000000000E+00  0.00000000000E+00  0.14665441566E+04  0.14665441566E+04  0.50400001928E-02 0. -1.
        1   -1    0    0  501    0  0.00000000000E+00  0.00000000000E+00 -0.60671973209E+03  0.60671973211E+03  0.50400001928E-02 0.  1.
    10030    2    1    2    0    0  0.00000000000E+00  0.00000000000E+00  0.85982442453E+03  0.20732638887E+04  0.18865643671E+04 0.  0.
        3    1    3    3  502    0  0.31879016841E+03  0.54308675073E+03 -0.34187802210E+03  0.71655494031E+03  0.10100000352E+00 0.  1.
       -3    1    3    3    0  502 -0.31879016841E+03 -0.54308675073E+03  0.12017024466E+04  0.13567089484E+04  0.10100000352E+00 0. -1.
</event>
<event>
 5   0  0.6375750E-05  0.1863377E+04  0.7818609E-02  0.8673304E-01
        3   -1    0    0  501    0  0.00000000000E+00  0.00000000000E+00  0.49694380076E+03  0.49694381103E+03  0.10100000352E+00 0.  1.
       -3   -1    0    0    0  501  0.00000000000E+00  0.00000000000E+00 -0.17467635197E+04  0.17467635226E+04  0.10100000352E+00 0. -1.
    10030    2    1    2    0    0  0.00000000000E+00  0.00000000000E+00 -0.12498197189E+04  0.22437073336E+04  0.18633768457E+04 0.  0.
        1    1    3    3  502    0  0.23928935375E+03  0.10694186071E+03  0.45163786057E+03  0.52218072878E+03  0.50400001928E-02 0.  1.
       -1    1    3    3    0  502 -0.23928935375E+03 -0.10694186071E+03 -0.17014575795E+04  0.17215266048E+04  0.50400001928E-02 0. -1.
</event>
<event>
 5   0  0.1810569E-04  0.1886013E+04  0.7818609E-02  0.8661850E-01
        2   -1    0    0  501    0  0.00000000000E+00  0.00000000000E+00  0.63484730815E+03  0.63484730815E+03  0.25500000920E-02 0.  1.
       -2   -1    0    0    0  501  0.00000000000E+00  0.00000000000E+00 -0.14007475598E+04  0.14007475598E+04  0.25500000920E-02 0. -1.
    10030    2    1    2    0    0  0.00000000000E+00  0.00000000000E+00 -0.76590025160E+03  0.20355948679E+04  0.18860125320E+04 0.  0.
        4    1    3    3  502    0  0.11417721321E+03  0.33990758691E+03 -0.13242963196E+04  0.13719824921E+04  0.12699999809E+01 0. -1.
       -4    1    3    3    0  502 -0.11417721321E+03 -0.33990758691E+03  0.55839606800E+03  0.66361237579E+03  0.12699999809E+01 0.  1.
</event>
<event>
 5   0  0.8567844E-05  0.1899767E+04  0.7818609E-02  0.8654972E-01
       -1   -1    0    0    0  501  0.00000000000E+00  0.00000000000E+00  0.52856936933E+03  0.52856936936E+03  0.50400001928E-02 0.  1.
        1   -1    0    0  501    0  0.00000000000E+00  0.00000000000E+00 -0.17070200098E+04  0.17070200098E+04  0.50400001928E-02 0. -1.
    10030    2    1    2    0    0  0.00000000000E+00  0.00000000000E+00 -0.11784506404E+04  0.22355893791E+04  0.18997668173E+04 0.  0.
        4    1    3    3  502    0  0.89380082973E+03 -0.32063675716E+03 -0.56066532128E+03  0.11027398010E+04  0.12699999809E+01 0.  1.
       -4    1    3    3    0  502 -0.89380082973E+03  0.32063675716E+03 -0.61778531917E+03  0.11328495782E+04  0.12699999809E+01 0. -1.
</event>
<event>
 5   0  0.8681396E-05  0.1901040E+04  0.7818609E-02  0.8654339E-01
        1   -1    0    0  501    0  0.00000000000E+00  0.00000000000E+00  0.11936726910E+04  0.11936726910E+04  0.50400001928E-02 0. -1.
       -1   -1    0    0    0  501  0.00000000000E+00  0.00000000000E+00 -0.75689811963E+03  0.75689811965E+03  0.50400001928E-02 0.  1.
    10030    2    1    2    0    0  0.00000000000E+00  0.00000000000E+00  0.43677457137E+03  0.19505708107E+04  0.19010403628E+04 0.  0.
        3    1    3    3  502    0  0.47822046630E+03  0.53862586910E+03  0.85476931670E+03  0.11177849687E+04  0.10100000352E+00 0. -1.
       -3    1    3    3    0  502 -0.47822046630E+03 -0.53862586910E+03 -0.41799474533E+03  0.83278584197E+03  0.10100000352E+00 0.  1.
</event>
<event>
 5   0  0.1658711E-04  0.1865780E+04  0.7818609E-02  0.8672080E-01
        2   -1    0    0  501    0  0.00000000000E+00  0.00000000000E+00  0.96551404357E+03  0.96551404357E+03  0.25500000920E-02 0.  1.
       -2   -1    0    0    0  501  0.00000000000E+00  0.00000000000E+00 -0.90136835456E+03  0.90136835456E+03  0.25500000920E-02 0. -1.
    10030    2    1    2    0    0  0.00000000000E+00  0.00000000000E+00  0.64145689015E+02  0.18668823981E+04  0.18657800564E+04 0.  0.
        2    1    3    3  502    0  0.22039766439E+03 -0.29520219170E+03 -0.82550081910E+03  0.90397514722E+03  0.25500000920E-02 0. -1.
       -2    1    3    3    0  502 -0.22039766439E+03  0.29520219170E+03  0.88964650811E+03  0.96290725091E+03  0.25500000920E-02 0.  1.
</event>
<event>
 5   0  0.8681396E-05  0.1912709E+04  0.7818609E-02  0.8648556E-01
       -1   -1    0    0    0  501  0.00000000000E+00  0.00000000000E+00  0.81050896864E+03  0.81050896866E+03  0.50400001928E-02 0. -1.
        1   -1    0    0  501    0  0.00000000000E+00  0.00000000000E+00 -0.11284445060E+04  0.11284445061E+04  0.50400001928E-02 0.  1.
    10030    2    1    2    0    0  0.00000000000E+00  0.00000000000E+00 -0.31793553741E+03  0.19389534747E+04  0.19127094843E+04 0.  0.
        3    1    3    3  502    0  0.18372992465E+03 -0.89392796572E+03  0.13087572625E+03  0.92195030182E+03  0.10100000352E+00 0. -1.
       -3    1    3    3    0  502 -0.18372992465E+03  0.89392796572E+03 -0.44881126365E+03  0.10170031729E+04  0.10100000352E+00 0.  1.
</event>
<event>
 5   0  0.1810569E-04  0.1900840E+04  0.7818609E-02  0.8654439E-01
       -2   -1    0    0    0  501  0.00000000000E+00  0.00000000000E+00  0.60226453662E+03  0.60226453663E+03  0.25500000920E-02 0. -1.
        2   -1    0    0  501    0  0.00000000000E+00  0.00000000000E+00 -0.14998357647E+04  0.14998357647E+04  0.25500000920E-02 0.  1.
    10030    2    1    2    0    0  0.00000000000E+00  0.00000000000E+00 -0.89757122808E+03  0.21021003013E+04  0.19008397006E+04 0.  0.
        4    1    3    3  502    0  0.28542081788E+03 -0.15679517084E+03 -0.14362109215E+04  0.14726687315E+04  0.12699999809E+01 0.  1.
       -4    1    3    3    0  502 -0.28542081788E+03  0.15679517084E+03  0.53863969340E+03  0.62943156982E+03  0.12699999809E+01 0. -1.
</event>
<event>
 5   0  0.1799738E-04  0.2103813E+04  0.7818609E-02  0.8559566E-01
       -2   -1    0    0    0  501  0.00000000000E+00  0.00000000000E+00  0.23193860793E+04  0.23193860793E+04  0.25500000920E-02 0. -1.
        2   -1    0    0  501    0  0.00000000000E+00  0.00000000000E+00 -0.47706909560E+03  0.47706909561E+03  0.25500000920E-02 0.  1.
    10030    2    1    2    0    0  0.00000000000E+00  0.00000000000E+00  0.18423169837E+04  0.27964551749E+04  0.21038131278E+04 0.  0.
        1    1    3    3  502    0  0.55432834332E+03 -0.23107461849E+02 -0.26677134559E+03  0.61561417938E+03  0.50400001928E-02 0.  1.
       -1    1    3    3    0  502 -0.55432834332E+03  0.23107461849E+02  0.21090883293E+04  0.21808409955E+04  0.50400001928E-02 0. -1.
</event>
<event>
 5   0  0.1799738E-04  0.1894785E+04  0.7818609E-02  0.8657457E-01
       -2   -1    0    0    0  501  0.00000000000E+00  0.00000000000E+00  0.10277139883E+04  0.10277139883E+04  0.25500000920E-02 0. -1.
        2   -1    0    0  501    0  0.00000000000E+00  0.00000000000E+00 -0.87334844558E+03  0.87334844558E+03  0.25500000920E-02 0.  1.
    10030    2    1    2    0    0  0.00000000000E+00  0.00000000000E+00  0.15436554274E+03  0.19010624339E+04  0.18947848577E+04 0.  0.
        1    1    3    3  502    0  0.89228839268E+03  0.30660738924E+03 -0.89255024078E+01  0.94353925804E+03  0.50400001928E-02 0. -1.
       -1    1    3    3    0  502 -0.89228839268E+03 -0.30660738924E+03  0.16329104514E+03  0.95752317585E+03  0.50400001928E-02 0.  1.
</event>
<event>
 5   0  0.1765328E-04  0.1893459E+04  0.7818609E-02  0.8658119E-01
        2   -1    0    0  501    0  0.00000000000E+00  0.00000000000E+00  0.14929527517E+04  0.14929527517E+04  0.25500000920E-02 0. -1.
       -2   -1    0    0    0  501  0.00000000000E+00  0.00000000000E+00 -0.60035142388E+03  0.60035142388E+03  0.25500000920E-02 0.  1.
    10030    2    1    2    0    0  0.00000000000E+00  0.00000000000E+00  0.89260132779E+03  0.20933041755E+04  0.18934585396E+04 0.  0.
        3    1    3    3  502    0  0.14296899370E+03 -0.23107883446E+03  0.14489142830E+04  0.14741744030E+04  0.10100000352E+00 0. -1.
       -3    1    3    3    0  502 -0.14296899370E+03  0.23107883446E+03 -0.55631295520E+03  0.61912977252E+03  0.10100000352E+00 0.  1.
</event>
<event>
 5   0  0.1790832E-04  0.1895663E+04  0.7818609E-02  0.8657018E-01
       -2   -1    0    0    0  501  0.00000000000E+00  0.00000000000E+00  0.58188691209E+03  0.58188691209E+03  0.25500000920E-02 0. -1.
        2   -1    0    0  501    0  0.00000000000E+00  0.00000000000E+00 -0.15439154056E+04  0.15439154057E+04  0.25500000920E-02 0.  1.
    10030    2    1    2    0    0  0.00000000000E+00  0.00000000000E+00 -0.96202849356E+03  0.21258023177E+04  0.18956625944E+04 0.  0.
        5    1    3    3  502    0  0.83288403783E+02 -0.51057357291E+02 -0.15382414303E+04  0.15413476570E+04  0.46999998093E+01 0.  1.
       -5    1    3    3    0  502 -0.83288403783E+02  0.51057357291E+02  0.57621293675E+03  0.58445466070E+03  0.46999998093E+01 0. -1.
</event>
<event>
 5   0  0.8681396E-05  0.1893263E+04  0.7818609E-02  0.8658217E-01
       -1   -1    0    0    0  501  0.00000000000E+00  0.00000000000E+00  0.74393614585E+03  0.74393614587E+03  0.50400001928E-02 0.  1.
        1   -1    0    0  501    0  0.00000000000E+00  0.00000000000E+00 -0.12045537170E+04  0.12045537170E+04  0.50400001928E-02 0. -1.
    10030    2    1    2    0    0  0.00000000000E+00  0.00000000000E+00 -0.46061757116E+03  0.19484898629E+04  0.18932628446E+04 0.  0.
        3    1    3    3  502    0  0.87852090230E+03 -0.15989464227E+03  0.93096030304E+02  0.89779293463E+03  0.10100000352E+00 0.  1.
       -3    1    3    3    0  502 -0.87852090230E+03  0.15989464227E+03 -0.55371360147E+03  0.10506969283E+04  0.10100000352E+00 0. -1.
</event>
<event>
 5   0  0.8567844E-05  0.1884601E+04  0.7818609E-02  0.8662560E-01
       -1   -1    0    0    0  501  0.00000000000E+00  0.00000000000E+00  0.76452057440E+03  0.76452057442E+03  0.50400001928E-02 0. -1.
        1   -1    0    0  501    0  0.00000000000E+00  0.00000000000E+00 -0.11614212493E+04  0.11614212493E+04  0.50400001928E-02 0.  1.
    10030    2    1    2    0    0  0.00000000000E+00  0.00000000000E+00 -0.39690067490E+03  0.19259418237E+04  0.18846012211E+04 0.  0.
        4    1    3    3  502    0 -0.36027158996E+03  0.24314258394E+02 -0.10879116475E+04  0.11462722919E+04  0.12699999809E+01 0.  1.
       -4    1    3    3    0  502  0.36027158996E+03 -0.24314258394E+02  0.69101097256E+03  0.77966953179E+03  0.12699999809E+01 0. -1.
</event>
<event>
 5   0  0.1810569E-04  0.1900550E+04  0.7818609E-02  0.8654583E-01
       -2   -1    0    0    0  501  0.00000000000E+00  0.00000000000E+00  0.86465215604E+03  0.86465215604E+03  0.25500000920E-02 0.  1.
        2   -1    0    0  501    0  0.00000000000E+00  0.00000000000E+00 -0.10443766348E+04  0.10443766348E+04  0.25500000920E-02 0. -1.
    10030    2    1    2    0    0  0.00000000000E+00  0.00000000000E+00 -0.17972447880E+03  0.19090287909E+04  0.19005499299E+04 0.  0.
        4    1    3    3  502    0  0.11908513003E+03 -0.54906660060E+03 -0.85967908457E+03  0.10269883843E+04  0.12699999809E+01 0. -1.
       -4    1    3    3    0  502 -0.11908513003E+03  0.54906660060E+03  0.67995460577E+03  0.88204040661E+03  0.12699999809E+01 0.  1.
</event>
<event>
 5   0  0.8681396E-05  0.1924139E+04  0.7818609E-02  0.8642933E-01
       -1   -1    0    0    0  501  0.00000000000E+00  0.00000000000E+00  0.10009171970E+04  0.10009171970E+04  0.50400001928E-02 0. -1.
        1   -1    0    0  501    0  0.00000000000E+00  0.00000000000E+00 -0.92472939311E+03  0.92472939313E+03  0.50400001928E-02 0.  1.
    10030    2    1    2    0    0  0.00000000000E+00  0.00000000000E+00  0.76187803892E+02  0.19256465901E+04  0.19241388226E+04 0.  0.
        3    1    3    3  502    0  0.68587685545E+03 -0.67444310088E+03  0.54749803498E+02  0.96348228233E+03  0.10100000352E+00 0. -1.
       -3    1    3    3    0  502 -0.68587685545E+03  0.67444310088E+03  0.21438000394E+02  0.96216430782E+03  0.10100000352E+00 0.  1.
</event>
<event>
 5   0  0.8602017E-05  0.1812892E+04  0.7818609E-02  0.8699474E-01
        1   -1    0    0  501    0  0.00000000000E+00  0.00000000000E+00  0.26198351837E+04  0.26198351837E+04  0.50400001928E-02 0. -1.
       -1   -1    0    0    0  501  0.00000000000E+00  0.00000000000E+00 -0.31362438584E+03  0.31362438588E+03  0.50400001928E-02 0.  1.
    10030    2    1    2    0    0  0.00000000000E+00  0.00000000000E+00  0.23062107978E+04  0.29334595696E+04  0.18128918341E+04 0.  0.
        2    1    3    3  502    0  0.64326230414E+03  0.17049041392E+03  0.15722326537E+03  0.68379275249E+03  0.25500000920E-02 0. -1.
       -2    1    3    3    0  502 -0.64326230414E+03 -0.17049041392E+03  0.21489875325E+04  0.22496668171E+04  0.25500000920E-02 0.  1.
</event>
<event>
 5   0  0.8681396E-05  0.1918746E+04  0.7818609E-02  0.8645581E-01
       -1   -1    0    0    0  501  0.00000000000E+00  0.00000000000E+00  0.74638944404E+03  0.74638944406E+03  0.50400001928E-02 0. -1.
        1   -1    0    0  501    0  0.00000000000E+00  0.00000000000E+00 -0.12331317451E+04  0.12331317451E+04  0.50400001928E-02 0.  1.
    10030    2    1    2    0    0  0.00000000000E+00  0.00000000000E+00 -0.48674230104E+03  0.19795211891E+04  0.19187459630E+04 0.  0.
        3    1    3    3  502    0  0.72807299599E+03 -0.14718140834E+03 -0.86976310961E+03  0.11437834286E+04  0.10100000352E+00 0.  1.
       -3    1    3    3    0  502 -0.72807299599E+03  0.14718140834E+03  0.38302080857E+03  0.83573776057E+03  0.10100000352E+00 0. -1.
</event>
<event>
 5   0  0.8681396E-05  0.1900743E+04  0.7818609E-02  0.8654487E-01
       -1   -1    0    0    0  501  0.00000000000E+00  0.00000000000E+00  0.73444113206E+03  0.73444113208E+03  0.50400001928E-02 0.  1.
        1   -1    0    0  501    0  0.00000000000E+00  0.00000000000E+00 -0.12297861553E+04  0.12297861553E+04  0.50400001928E-02 0. -1.
    10030    2    1    2    0    0  0.00000000000E+00  0.00000000000E+00 -0.49534502325E+03  0.19642272874E+04  0.19007425245E+04 0.  0.
        3    1    3    3  502    0 -0.85755431005E+03  0.39447899926E+03 -0.36177994775E+03  0.10108896163E+04  0.10100000352E+00 0.  1.
       -3    1    3    3    0  502  0.85755431005E+03 -0.39447899926E+03 -0.13356507550E+03  0.95333767110E+03  0.10100000352E+00 0. -1.
</event>
<event>
 5   0  0.8587082E-05  0.1911883E+04  0.7818609E-02  0.8648964E-01
       -1   -1    0    0    0  501  0.00000000000E+00  0.00000000000E+00  0.76317997440E+03  0.76317997442E+03  0.50400001928E-02 0.  1.
        1   -1    0    0  501    0  0.00000000000E+00  0.00000000000E+00 -0.11973902126E+04  0.11973902126E+04  0.50400001928E-02 0. -1.
    10030    2    1    2    0    0  0.00000000000E+00  0.00000000000E+00 -0.43421023820E+03  0.19605701870E+04  0.19118830841E+04 0.  0.
        5    1    3    3  502    0  0.78637345564E+03  0.49073465220E+03 -0.45671854351E+03  0.10333526158E+04  0.46999998093E+01 0. -1.
       -5    1    3    3    0  502 -0.78637345564E+03 -0.49073465220E+03  0.22508305308E+02  0.92721757123E+03  0.46999998093E+01 0.  1.
</event>
<event>
 5   0  0.8602017E-05  0.1930891E+04  0.7818609E-02  0.8639631E-01
       -1   -1    0    0    0  501  0.00000000000E+00  0.00000000000E+00  0.98291411751E+03  0.98291411752E+03  0.50400001928E-02 0. -1.
        1   -1    0    0  501    0  0.00000000000E+00  0.00000000000E+00 -0.94828768911E+03  0.94828768913E+03  0.50400001928E-02 0.  1.
    10030    2    1    2    0    0  0.00000000000E+00  0.00000000000E+00  0.34626428399E+02  0.19312018067E+04  0.19308913559E+04 0.  0.
        2    1    3    3  502    0 -0.72833178755E+02 -0.56651227017E+03  0.79579851605E+03  0.97955913673E+03  0.25500000920E-02 0. -1.
       -2    1    3    3    0  502  0.72833178755E+02  0.56651227017E+03 -0.76117208766E+03  0.95164266992E+03  0.25500000920E-02 0.  1.
</event>
<event>
 5   0  0.8602017E-05  0.1908605E+04  0.7818609E-02  0.8650585E-01
        1   -1    0    0  501    0  0.00000000000E+00  0.00000000000E+00  0.10608864626E+04  0.10608864626E+04  0.50400001928E-02 0.  1.
       -1   -1    0    0    0  501  0.00000000000E+00  0.00000000000E+00 -0.85842649346E+03  0.85842649347E+03  0.50400001928E-02 0. -1.
    10030    2    1    2    0    0  0.00000000000E+00  0.00000000000E+00  0.20245996910E+03  0.19193129560E+04  0.19086047742E+04 0.  0.
        2    1    3    3  502    0  0.49196861473E+03  0.80155218647E+03 -0.61461569750E+02  0.94249485414E+03  0.25500000920E-02 0. -1.
       -2    1    3    3    0  502 -0.49196861473E+03 -0.80155218647E+03  0.26392153885E+03  0.97681810190E+03  0.25500000920E-02 0.  1.
</event>
<event>
 5   0  0.1790832E-04  0.1909931E+04  0.7818609E-02  0.8649929E-01
       -2   -1    0    0    0  501  0.00000000000E+00  0.00000000000E+00  0.34488615313E+03  0.34488615314E+03  0.25500000920E-02 0. -1.
        2   -1    0    0  501    0  0.00000000000E+00  0.00000000000E+00 -0.26442325547E+04  0.26442325547E+04  0.25500000920E-02 0.  1.
    10030    2    1    2    0    0  0.00000000000E+00  0.00000000000E+00 -0.22993464015E+04  0.29891187078E+04  0.19099310917E+04 0.  0.
        5    1    3    3  502    0  0.59144269233E+03 -0.74948055372E+03 -0.11814225021E+04  0.15189821517E+04  0.46999998093E+01 0.  1.
       -5    1    3    3    0  502 -0.59144269233E+03  0.74948055372E+03 -0.11179238994E+04  0.14701365561E+04  0.46999998093E+01 0. -1.
</event>
<event>
 5   0  0.8681396E-05  0.1953308E+04  0.7818609E-02  0.8628767E-01
        1   -1    0    0  501    0  0.00000000000E+00  0.00000000000E+00  0.72224418214E+03  0.72224418216E+03  0.50400001928E-02 0.  1.
       -1   -1    0    0    0  501  0.00000000000E+00  0.00000000000E+00 -0.13206795997E+04  0.13206795997E+04  0.50400001928E-02 0. -1.
    10030    2    1    2    0    0  0.00000000000E+00  0.00000000000E+00 -0.59843541754E+03  0.20429237819E+04  0.19533081246E+04 0.  0.
        3    1    3    3  502    0  0.54978073702E+03 -0.35057430560E+03 -0.10596888788E+04  0.12442273637E+04  0.10100000352E+00 0. -1.
       -3    1    3    3    0  502 -0.54978073702E+03  0.35057430560E+03  0.46125346130E+03  0.79869641811E+03  0.10100000352E+00 0.  1.
</event>
<event>
 5   0  0.1790832E-04  0.1880754E+04  0.7818609E-02  0.8664496E-01
       -2   -1    0    0    0  501  0.00000000000E+00  0.00000000000E+00  0.48548503400E+03  0.48548503401E+03  0.25500000920E-02 0. -1.
        2   -1    0    0  501    0  0.00000000000E+00  0.00000000000E+00 -0.18214961296E+04  0.18214961296E+04  0.25500000920E-02 0.  1.
    10030    2    1    2    0    0  0.00000000000E+00  0.00000000000E+00 -0.13360110956E+04  0.23069811636E+04  0.18807542215E+04 0.  0.
        5    1    3    3  502    0 -0.78844268853E+01 -0.83703285437E+03 -0.14241281084E+03  0.84911110120E+03  0.46999998093E+01 0.  1.
       -5    1    3    3    0  502  0.78844268853E+01  0.83703285437E+03 -0.11935982848E+04  0.14578700624E+04  0.46999998093E+01 0. -1.
</event>
<event>
 5   0  0.8681396E-05  0.1939231E+04  0.7818609E-02  0.8635571E-01
        1   -1    0    0  501    0  0.00000000000E+00  0.00000000000E+00  0.79702867257E+03  0.79702867259E+03  0.50400001928E-02 0.  1.
       -1   -1    0    0    0  501  0.00000000000E+00  0.00000000000E+00 -0.11795739748E+04  0.11795739748E+04  0.50400001928E-02 0. -1.
    10030    2    1    2    0    0  0.00000000000E+00  0.00000000000E+00 -0.38254530225E+03  0.19766026474E+04  0.19392310635E+04 0.  0.
        3    1    3    3  502    0 -0.19535315619E+03  0.73937114170E+03  0.41630346928E+03  0.87071300067E+03  0.10100000352E+00 0.  1.
       -3    1    3    3    0  502  0.19535315619E+03 -0.73937114170E+03 -0.79884877153E+03  0.11058896467E+04  0.10100000352E+00 0. -1.
</event>
<event>
 5   0  0.1810569E-04  0.1905141E+04  0.7818609E-02  0.8652301E-01
       -2   -1    0    0    0  501  0.00000000000E+00  0.00000000000E+00  0.61502589386E+03  0.61502589386E+03  0.25500000920E-02 0.  1.
        2   -1    0    0  501    0  0.00000000000E+00  0.00000000000E+00 -0.14753702690E+04  0.14753702690E+04  0.25500000920E-02 0. -1.
    10030    2    1    2    0    0  0.00000000000E+00  0.00000000000E+00 -0.86034437518E+03  0.20903961629E+04  0.19051413790E+04 0.  0.
        4    1    3    3  502    0 -0.50738949307E+03  0.21482819570E+03 -0.12827731248E+04  0.13961030600E+04  0.12699999809E+01 0. -1.
       -4    1    3    3    0  502  0.50738949307E+03 -0.21482819570E+03  0.42242874966E+03  0.69429310293E+03  0.12699999809E+01 0.  1.
</event>
<event>
 5   0  0.8567844E-05  0.1900807E+04  0.7818609E-02  0.8654455E-01
       -1   -1    0    0    0  501  0.00000000000E+00  0.00000000000E+00  0.10811671803E+04  0.10811671803E+04  0.50400001928E-02 0. -1.
        1   -1    0    0  501    0  0.00000000000E+00  0.00000000000E+00 -0.83545517116E+03  0.83545517118E+03  0.50400001928E-02 0.  1.
    10030    2    1    2    0    0  0.00000000000E+00  0.00000000000E+00  0.24571200912E+03  0.19166223515E+04  0.19008068936E+04 0.  0.
        4    1    3    3  502    0  0.75365742599E+03 -0.56310733971E+03 -0.13083037955E+02  0.94088371788E+03  0.12699999809E+01 0.  1.
       -4    1    3    3    0  502 -0.75365742599E+03  0.56310733971E+03  0.25879504707E+03  0.97573863359E+03  0.12699999809E+01 0. -1.
</event>
<event>
 5   0  0.1810569E-04  0.1905212E+04  0.7818609E-02  0.8652266E-01
       -2   -1    0    0    0  501  0.00000000000E+00  0.00000000000E+00  0.92425738687E+03  0.92425738687E+03  0.25500000920E-02 0.  1.
        2   -1    0    0  501    0  0.00000000000E+00  0.00000000000E+00 -0.98182426551E+03  0.98182426551E+03  0.25500000920E-02 0. -1.
    10030    2    1    2    0    0  0.00000000000E+00  0.00000000000E+00 -0.57566878643E+02  0.19060816524E+04  0.19052121457E+04 0.  0.
        4    1    3    3  502    0  0.59630120094E+03  0.20289641872E+03  0.68618572618E+03  0.93144755230E+03  0.12699999809E+01 0.  1.
       -4    1    3    3    0  502 -0.59630120094E+03 -0.20289641872E+03 -0.74375260482E+03  0.97463410009E+03  0.12699999809E+01 0. -1.
</event>
<event>
 5   0  0.1658711E-04  0.1879408E+04  0.7818609E-02  0.8665175E-01
        2   -1    0    0  501    0  0.00000000000E+00  0.00000000000E+00  0.18865942328E+04  0.18865942328E+04  0.25500000920E-02 0. -1.
       -2   -1    0    0    0  501  0.00000000000E+00  0.00000000000E+00 -0.46806246169E+03  0.46806246169E+03  0.25500000920E-02 0.  1.
    10030    2    1    2    0    0  0.00000000000E+00  0.00000000000E+00  0.14185317711E+04  0.23546566945E+04  0.18794083546E+04 0.  0.
        2    1    3    3  502    0  0.77645083809E+03 -0.52736284736E+03  0.76608140820E+03  0.12115561071E+04  0.25500000920E-02 0. -1.
       -2    1    3    3    0  502 -0.77645083809E+03  0.52736284736E+03  0.65245036291E+03  0.11431005874E+04  0.25500000920E-02 0.  1.
</event>
<event>
 5   0  0.8905646E-05  0.1904328E+04  0.7818609E-02  0.8652705E-01
        1   -1    0    0  501    0  0.00000000000E+00  0.00000000000E+00  0.18199651867E+04  0.18199651867E+04  0.50400001928E-02 0.  1.
       -1   -1    0    0    0  501  0.00000000000E+00  0.00000000000E+00 -0.49815018432E+03  0.49815018435E+03  0.50400001928E-02 0. -1.
    10030    2    1    2    0    0  0.00000000000E+00  0.00000000000E+00  0.13218150024E+04  0.23181153711E+04  0.19043276958E+04 0.  0.
        1    1    3    3  502    0 -0.34805032842E+03  0.37327261371E+03 -0.31758656211E+03  0.60110955717E+03  0.50400001928E-02 0. -1.
       -1    1    3    3    0  502  0.34805032842E+03 -0.37327261371E+03  0.16394015645E+04  0.17170058139E+04  0.50400001928E-02 0.  1.
</event>
<event>
 5   0  0.6375750E-05  0.1711684E+04  0.7818609E-02  0.8754728E-01
        3   -1    0    0  501    0  0.00000000000E+00  0.00000000000E+00  0.11234464420E+04  0.11234464466E+04  0.10100000352E+00 0.  1.
       -3   -1    0    0    0  501  0.00000000000E+00  0.00000000000E+00 -0.65198082835E+03  0.65198083617E+03  0.10100000352E+00 0. -1.
    10030    2    1    2    0    0  0.00000000000E+00  0.00000000000E+00  0.47146561369E+03  0.17754272827E+04  0.17116840279E+04 0.  0.
        1    1    3    3  502    0  0.15652510468E+03 -0.67982587529E+03 -0.27851470009E+03  0.75115495558E+03  0.50400001928E-02 0. -1.
       -1    1    3    3    0  502 -0.15652510468E+03  0.67982587529E+03  0.74998031379E+03  0.10242723272E+04  0.50400001928E-02 0.  1.
</event>
<event>
 5   0  0.8905646E-05  0.1912851E+04  0.7818609E-02  0.8648486E-01
       -1   -1    0    0    0  501  0.00000000000E+00  0.00000000000E+00  0.56420287673E+03  0.56420287675E+03  0.50400001928E-02 0. -1.
        1   -1    0    0  501    0  0.00000000000E+00  0.00000000000E+00 -0.16213142456E+04  0.16213142456E+04  0.50400001928E-02 0.  1.
    10030    2    1    2    0    0  0.00000000000E+00  0.00000000000E+00 -0.10571113689E+04  0.21855171224E+04  0.19128514438E+04 0.  0.
        1    1    3    3  502    0 -0.10524853576E+03 -0.88154705367E+03 -0.12211226426E+03  0.89616620513E+03  0.50400001928E-02 0. -1.
       -1    1    3    3    0  502  0.10524853576E+03  0.88154705367E+03 -0.93499910461E+03  0.12893509172E+04  0.50400001928E-02 0.  1.
</event>
<event>
 5   0  0.1790832E-04  0.1880262E+04  0.7818609E-02  0.8664744E-01
        2   -1    0    0  501    0  0.00000000000E+00  0.00000000000E+00  0.13370923084E+04  0.13370923084E+04  0.25500000920E-02 0. -1.
       -2   -1    0    0    0  501  0.00000000000E+00  0.00000000000E+00 -0.66102145328E+03  0.66102145328E+03  0.25500000920E-02 0.  1.
    10030    2    1    2    0    0  0.00000000000E+00  0.00000000000E+00  0.67607085508E+03  0.19981137616E+04  0.18802624294E+04 0.  0.
        5    1    3    3  502    0  0.56651781799E+03 -0.65706276535E+03  0.72288148440E+03  0.11292712899E+04  0.46999998093E+01 0. -1.
       -5    1    3    3    0  502 -0.56651781799E+03  0.65706276535E+03 -0.46810629318E+02  0.86884247175E+03  0.46999998093E+01 0.  1.
</event>
<event>
 5   0  0.1765328E-04  0.2230268E+04  0.7818609E-02  0.8505935E-01
       -2   -1    0    0    0  501  0.00000000000E+00  0.00000000000E+00  0.50943146662E+03  0.50943146663E+03  0.25500000920E-02 0.  1.
        2   -1    0    0  501    0  0.00000000000E+00  0.00000000000E+00 -0.24410031191E+04  0.24410031191E+04  0.25500000920E-02 0. -1.
    10030    2    1    2    0    0  0.00000000000E+00  0.00000000000E+00 -0.19315716525E+04  0.29504345857E+04  0.22302679651E+04 0.  0.
        3    1    3    3  502    0  0.10989926046E+03  0.35120842455E+03  0.42678772952E+03  0.56353614009E+03  0.10100000352E+00 0.  1.
       -3    1    3    3    0  502 -0.10989926046E+03 -0.35120842455E+03 -0.23583593820E+04  0.23868984456E+04  0.10100000352E+00 0. -1.
</event>
<event>
 5   0  0.1790832E-04  0.1892438E+04  0.7818609E-02  0.8658630E-01
        2   -1    0    0  501    0  0.00000000000E+00  0.00000000000E+00  0.10400458172E+04  0.10400458172E+04  0.25500000920E-02 0. -1.
       -2   -1    0    0    0  501  0.00000000000E+00  0.00000000000E+00 -0.86085678757E+03  0.86085678757E+03  0.25500000920E-02 0.  1.
    10030    2    1    2    0    0  0.00000000000E+00  0.00000000000E+00  0.17918902965E+03  0.19009026048E+04  0.18924381112E+04 0.  0.
        5    1    3    3  502    0 -0.41373459610E+03  0.60493340930E+03  0.69075924561E+03  0.10071202367E+04  0.46999998093E+01 0. -1.
       -5    1    3    3    0  502  0.41373459610E+03 -0.60493340930E+03 -0.51157021596E+03  0.89378236812E+03  0.46999998093E+01 0.  1.
</event>
<event>
 5   0  0.8602017E-05  0.1887248E+04  0.7818609E-02  0.8661230E-01
        1   -1    0    0  501    0  0.00000000000E+00  0.00000000000E+00  0.73585606557E+03  0.73585606558E+03  0.50400001928E-02 0. -1.
       -1   -1    0    0    0  501  0.00000000000E+00  0.00000000000E+00 -0.12100550761E+04  0.12100550761E+04  0.50400001928E-02 0.  1.
    10030    2    1    2    0    0  0.00000000000E+00  0.00000000000E+00 -0.47419901050E+03  0.19459111417E+04  0.18872481209E+04 0.  0.
        2    1    3    3  502    0 -0.93062619781E+03 -0.74827283480E+02 -0.37833212528E+03  0.10073725425E+04  0.25500000920E-02 0.  1.
       -2    1    3    3    0  502  0.93062619781E+03  0.74827283480E+02 -0.95866885220E+02  0.93853859914E+03  0.25500000920E-02 0. -1.
</event>
<event>
 5   0  0.1810569E-04  0.1923819E+04  0.7818609E-02  0.8643090E-01
       -2   -1    0    0    0  501  0.00000000000E+00  0.00000000000E+00  0.64846687805E+03  0.64846687806E+03  0.25500000920E-02 0. -1.
        2   -1    0    0  501    0  0.00000000000E+00  0.00000000000E+00 -0.14268581398E+04  0.14268581398E+04  0.25500000920E-02 0.  1.
    10030    2    1    2    0    0  0.00000000000E+00  0.00000000000E+00 -0.77839126178E+03  0.20753250179E+04  0.19238193713E+04 0.  0.
        4    1    3    3  502    0 -0.34521074835E+03  0.79322655860E+03 -0.84290026916E+03  0.12078333125E+04  0.12699999809E+01 0.  1.
       -4    1    3    3    0  502  0.34521074835E+03 -0.79322655860E+03  0.64509007385E+02  0.86749170542E+03  0.12699999809E+01 0. -1.
</event>
<event>
 5   0  0.8905646E-05  0.1895960E+04  0.7818609E-02  0.8656870E-01
        1   -1    0    0  501    0  0.00000000000E+00  0.00000000000E+00  0.11508472467E+04  0.11508472467E+04  0.50400001928E-02 0.  1.
       -1   -1    0    0    0  501  0.00000000000E+00  0.00000000000E+00 -0.78087331413E+03  0.78087331415E+03  0.50400001928E-02 0. -1.
    10030    2    1    2    0    0  0.00000000000E+00  0.00000000000E+00  0.36997393255E+03  0.19317205608E+04  0.18959598135E+04 0.  0.
        1    1    3    3  502    0  0.30558901125E+03  0.43382486318E+03  0.98534616634E+03  0.11191495536E+04  0.50400001928E-02 0.  1.
       -1    1    3    3    0  502 -0.30558901125E+03 -0.43382486318E+03 -0.61537223379E+03  0.81257100727E+03  0.50400001928E-02 0. -1.
</event>
<event>
 5   0  0.1765328E-04  0.1553459E+04  0.7818609E-02  0.8849661E-01
        2   -1    0    0  501    0  0.00000000000E+00  0.00000000000E+00  0.15024545440E+04  0.15024545440E+04  0.25500000920E-02 0.  1.
       -2   -1    0    0    0  501  0.00000000000E+00  0.00000000000E+00 -0.40154866074E+03  0.40154866075E+03  0.25500000920E-02 0. -1.
    10030    2    1    2    0    0  0.00000000000E+00  0.00000000000E+00  0.11009058832E+04  0.19040032047E+04  0.15534588633E+04 0.  0.
        3    1    3    3  502    0  0.66919414719E+03  0.14688237887E+03  0.10193494764E+03  0.69266585278E+03  0.10100000352E+00 0. -1.
       -3    1    3    3    0  502 -0.66919414719E+03 -0.14688237887E+03  0.99897093558E+03  0.12113373519E+04  0.10100000352E+00 0.  1.
</event>
<event>
 5   0  0.8905646E-05  0.1872751E+04  0.7818609E-02  0.8668540E-01
        1   -1    0    0  501    0  0.00000000000E+00  0.00000000000E+00  0.15679572274E+04  0.15679572274E+04  0.50400001928E-02 0.  1.
       -1   -1    0    0    0  501  0.00000000000E+00  0.00000000000E+00 -0.55919822939E+03  0.55919822941E+03  0.50400001928E-02 0. -1.
    10030    2    1    2    0    0  0.00000000000E+00  0.00000000000E+00  0.10087589980E+04  0.21271554568E+04  0.18727508167E+04 0.  0.
        1    1    3    3  502    0 -0.29240056888E+02 -0.10445497326E+03  0.15607970156E+04  0.15645616467E+04  0.50400001928E-02 0.  1.
       -1    1    3    3    0  502  0.29240056888E+02  0.10445497326E+03 -0.55203801756E+03  0.56259381016E+03  0.50400001928E-02 0. -1.
</event>
<event>
 5   0  0.1790832E-04  0.1931458E+04  0.7818609E-02  0.8639354E-01
        2   -1    0    0  501    0  0.00000000000E+00  0.00000000000E+00  0.22388777651E+04  0.22388777651E+04  0.25500000920E-02 0.  1.
       -2   -1    0    0    0  501  0.00000000000E+00  0.00000000000E+00 -0.41656248727E+03  0.41656248727E+03  0.25500000920E-02 0. -1.
    10030    2    1    2    0    0  0.00000000000E+00  0.00000000000E+00  0.18223152779E+04  0.26554402524E+04  0.19314579887E+04 0.  0.
        5    1    3    3  502    0  0.92783001329E+03 -0.23911229152E+03  0.74522225802E+03  0.12138457585E+04  0.46999998093E+01 0. -1.
       -5    1    3    3    0  502 -0.92783001329E+03  0.23911229152E+03  0.10770930198E+04  0.14415944939E+04  0.46999998093E+01 0.  1.
</event>
<event>
 5   0  0.6375750E-05  0.1904697E+04  0.7818609E-02  0.8652522E-01
       -3   -1    0    0    0  501  0.00000000000E+00  0.00000000000E+00  0.77501080183E+03  0.77501080841E+03  0.10100000352E+00 0. -1.
        3   -1    0    0  501    0  0.00000000000E+00  0.00000000000E+00 -0.11702644559E+04  0.11702644603E+04  0.10100000352E+00 0.  1.
    10030    2    1    2    0    0  0.00000000000E+00  0.00000000000E+00 -0.39525365410E+03  0.19452752687E+04  0.19046969365E+04 0.  0.
        3    1    3    3  502    0  0.37619044787E+03  0.74067920218E+03  0.27795751359E+03  0.87600532143E+03  0.10100000352E+00 0.  1.
       -3    1    3    3    0  502 -0.37619044787E+03 -0.74067920218E+03 -0.67321116769E+03  0.10692699473E+04  0.10100000352E+00 0. -1.
</event>
<event>
 5   0  0.8567844E-05  0.1850026E+04  0.7818609E-02  0.8680139E-01
        1   -1    0    0  501    0  0.00000000000E+00  0.00000000000E+00  0.15067654507E+04  0.15067654507E+04  0.50400001928E-02 0. -1.
       -1   -1    0    0    0  501  0.00000000000E+00  0.00000000000E+00 -0.56787153789E+03  0.56787153791E+03  0.50400001928E-02 0.  1.
    10030    2    1    2    0    0  0.00000000000E+00  0.00000000000E+00  0.93889391285E+03  0.20746369887E+04  0.18500261769E+04 0.  0.
        4    1    3    3  502    0  0.77867213457E+02  0.42098165271E+03  0.13889745631E+04  0.14534582225E+04  0.12699999809E+01 0. -1.
       -4    1    3    3    0  502 -0.77867213457E+02 -0.42098165271E+03 -0.45008065024E+03  0.62117876611E+03  0.12699999809E+01 0.  1.
</event>
<event>
 5   0  0.1658711E-04  0.1898719E+04  0.7818609E-02  0.8655494E-01
       -2   -1    0    0    0  501  0.00000000000E+00  0.00000000000E+00  0.53885968885E+03  0.53885968885E+03  0.25500000920E-02 0. -1.
        2   -1    0    0  501    0  0.00000000000E+00  0.00000000000E+00 -0.16725751046E+04  0.16725751046E+04  0.25500000920E-02 0.  1.
    10030    2    1    2    0    0  0.00000000000E+00  0.00000000000E+00 -0.11337154158E+04  0.22114347935E+04  0.18987188317E+04 0.  0.
        2    1    3    3  502    0  0.59150588730E+03  0.13265735666E+03  0.28409466036E+03  0.66946767289E+03  0.25500000920E-02 0. -1.
       -2    1    3    3    0  502 -0.59150588730E+03 -0.13265735666E+03 -0.14178100761E+04  0.15419671206E+04  0.25500000920E-02 0.  1.
</event>
<event>
 5   0  0.1765328E-04  0.1882426E+04  0.7818609E-02  0.8663654E-01
        2   -1    0    0  501    0  0.00000000000E+00  0.00000000000E+00  0.16515430225E+04  0.16515430225E+04  0.25500000920E-02 0.  1.
       -2   -1    0    0    0  501  0.00000000000E+00  0.00000000000E+00 -0.53639666052E+03  0.53639666053E+03  0.25500000920E-02 0. -1.
    10030    2    1    2    0    0  0.00000000000E+00  0.00000000000E+00  0.11151463620E+04  0.21879396830E+04  0.18824262663E+04 0.  0.
        3    1    3    3  502    0 -0.61960606277E+03 -0.70325472176E+03  0.65757993130E+03  0.11449411570E+04  0.10100000352E+00 0. -1.
       -3    1    3    3    0  502  0.61960606277E+03  0.70325472176E+03  0.45756643070E+03  0.10429985261E+04  0.10100000352E+00 0.  1.
</event>
<event>
 5   0  0.8587082E-05  0.1898143E+04  0.7818609E-02  0.8655781E-01
       -1   -1    0    0    0  501  0.00000000000E+00  0.00000000000E+00  0.88975586823E+03  0.88975586824E+03  0.50400001928E-02 0.  1.
        1   -1    0    0  501    0  0.00000000000E+00  0.00000000000E+00 -0.10123412952E+04  0.10123412952E+04  0.50400001928E-02 0. -1.
    10030    2    1    2    0    0  0.00000000000E+00  0.00000000000E+00 -0.12258542700E+03  0.19020971635E+04  0.18981428904E+04 0.  0.
        5    1    3    3  502    0  0.74287268017E+03 -0.99443977681E+02 -0.64471310556E+03  0.98864857362E+03  0.46999998093E+01 0. -1.
       -5    1    3    3    0  502 -0.74287268017E+03  0.99443977681E+02  0.52212767856E+03  0.91344858988E+03  0.46999998093E+01 0.  1.
</event>
<event>
 5   0  0.6375750E-05  0.1898748E+04  0.7818609E-02  0.8655480E-01
       -4   -1    0    0    0  501  0.00000000000E+00  0.00000000000E+00  0.99381578365E+03  0.99381659512E+03  0.12699999809E+01 0. -1.
        4   -1    0    0  501    0  0.00000000000E+00  0.00000000000E+00 -0.90691762790E+03  0.90691851712E+03  0.12699999809E+01 0.  1.
    10030    2    1    2    0    0  0.00000000000E+00  0.00000000000E+00  0.86898155752E+02  0.19007351122E+04  0.18987476603E+04 0.  0.
        4    1    3    3  502    0  0.25161007783E+03 -0.44697580537E+03  0.84316828684E+03  0.98692926529E+03  0.12699999809E+01 0. -1.
       -4    1    3    3    0  502 -0.25161007783E+03  0.44697580537E+03 -0.75627013108E+03  0.91380584695E+03  0.12699999809E+01 0.  1.
</event>
<event>
 5   0  0.1810569E-04  0.1879918E+04  0.7818609E-02  0.8664917E-01
        2   -1    0    0  501    0  0.00000000000E+00  0.00000000000E+00  0.88353048847E+03  0.88353048847E+03  0.25500000920E-02 0.  1.
       -2   -1    0    0    0  501  0.00000000000E+00  0.00000000000E+00 -0.99999179365E+03  0.99999179365E+03  0.25500000920E-02 0. -1.
    10030    2    1    2    0    0  0.00000000000E+00  0.00000000000E+00 -0.11646130518E+03  0.18835222821E+04  0.18799183364E+04 0.  0.
        4    1    3    3  502    0  0.32184878247E+02  0.56681326120E+03 -0.80880530334E+03  0.98817041601E+03  0.12699999809E+01 0. -1.
       -4    1    3    3    0  502 -0.32184878247E+02 -0.56681326120E+03  0.69234399816E+03  0.89535186611E+03  0.12699999809E+01 0.  1.
</event>
<event>
 5   0  0.1658711E-04  0.1879942E+04  0.7818609E-02  0.8664905E-01
       -2   -1    0    0    0  501  0.00000000000E+00  0.00000000000E+00  0.56904259404E+03  0.56904259405E+03  0.25500000920E-02 0.  1.
        2   -1    0    0  501    0  0.00000000000E+00  0.00000000000E+00 -0.15526878708E+04  0.15526878708E+04  0.25500000920E-02 0. -1.
    10030    2    1    2    0    0  0.00000000000E+00  0.00000000000E+00 -0.98364527676E+03  0.21217304649E+04  0.18799420563E+04 0.  0.
        2    1    3    3  502    0 -0.54943989330E+03 -0.50668928166E+03 -0.11351601215E+04  0.13591198351E+04  0.25500000920E-02 0. -1.
       -2    1    3    3    0  502  0.54943989330E+03  0.50668928166E+03  0.15151484477E+03  0.76261062981E+03  0.25500000920E-02 0.  1.
</event>
<event>
 5   0  0.8602017E-05  0.1826848E+04  0.7818609E-02  0.8692151E-01
       -1   -1    0    0    0  501  0.00000000000E+00  0.00000000000E+00  0.63307184515E+03  0.63307184517E+03  0.50400001928E-02 0. -1.
        1   -1    0    0  501    0  0.00000000000E+00  0.00000000000E+00 -0.13179287417E+04  0.13179287417E+04  0.50400001928E-02 0.  1.
    10030    2    1    2    0    0  0.00000000000E+00  0.00000000000E+00 -0.68485689656E+03  0.19510005869E+04  0.18268481933E+04 0.  0.
        2    1    3    3  502    0  0.66181005009E+02  0.45566607451E+03  0.50006403642E+03  0.67976138270E+03  0.25500000920E-02 0. -1.
       -2    1    3    3    0  502 -0.66181005009E+02 -0.45566607451E+03 -0.11849209330E+04  0.12712392042E+04  0.25500000920E-02 0.  1.
</event>
<event>
 5   0  0.1658711E-04  0.1898901E+04  0.7818609E-02  0.8655404E-01
        2   -1    0    0  501    0  0.00000000000E+00  0.00000000000E+00  0.16112836141E+04  0.16112836141E+04  0.25500000920E-02 0.  1.
       -2   -1    0    0    0  501  0.00000000000E+00  0.00000000000E+00 -0.55946461947E+03  0.55946461948E+03  0.25500000920E-02 0. -1.
    10030    2    1    2    0    0  0.00000000000E+00  0.00000000000E+00  0.10518189946E+04  0.21707482336E+04  0.18989009179E+04 0.  0.
        2    1    3    3  502    0 -0.34465751853E+03  0.43284331567E+03  0.14079331102E+04  0.15127517257E+04  0.25500000920E-02 0.  1.
       -2    1    3    3    0  502  0.34465751853E+03 -0.43284331567E+03 -0.35611411556E+03  0.65799650783E+03  0.25500000920E-02 0. -1.
</event>
<event>
 5   0  0.1790832E-04  0.1899036E+04  0.7818609E-02  0.8655336E-01
       -2   -1    0    0    0  501  0.00000000000E+00  0.00000000000E+00  0.84769191501E+03  0.84769191501E+03  0.25500000920E-02 0.  1.
        2   -1    0    0  501    0  0.00000000000E+00  0.00000000000E+00 -0.10635754448E+04  0.10635754448E+04  0.25500000920E-02 0. -1.
    10030    2    1    2    0    0  0.00000000000E+00  0.00000000000E+00 -0.21588352979E+03  0.19112673598E+04  0.18990358665E+04 0.  0.
        5    1    3    3  502    0 -0.20693299311E+03 -0.38268428702E+03  0.74146912374E+03  0.85969010616E+03  0.46999998093E+01 0.  1.
       -5    1    3    3    0  502  0.20693299311E+03  0.38268428702E+03 -0.95735265353E+03  0.10515772536E+04  0.46999998093E+01 0. -1.
</event>
<event>
 5   0  0.1810569E-04  0.1986455E+04  0.7818609E-02  0.8612980E-01
       -2   -1    0    0    0  501  0.00000000000E+00  0.00000000000E+00  0.12071126601E+04  0.12071126601E+04  0.25500000920E-02 0. -1.
        2   -1    0    0  501    0  0.00000000000E+00  0.00000000000E+00 -0.81723970382E+03  0.81723970382E+03  0.25500000920E-02 0.  1.
    10030    2    1    2    0    0  0.00000000000E+00  0.00000000000E+00  0.38987295626E+03  0.20243523639E+04  0.19864545228E+04 0.  0.
        4    1    3    3  502    0  0.21524781567E+03  0.70406304594E+03 -0.48446265509E+03  0.88132971803E+03  0.12699999809E+01 0.  1.
       -4    1    3    3    0  502 -0.21524781567E+03 -0.70406304594E+03  0.87433561134E+03  0.11430226459E+04  0.12699999809E+01 0. -1.
</event>
<event>
 5   0  0.1658711E-04  0.1716108E+04  0.7818609E-02  0.8752230E-01
        2   -1    0    0  501    0  0.00000000000E+00  0.00000000000E+00  0.14241886658E+04  0.14241886658E+04  0.25500000920E-02 0.  1.
       -2   -1    0    0    0  501  0.00000000000E+00  0.00000000000E+00 -0.51696573271E+03  0.51696573272E+03  0.25500000920E-02 0. -1.
    10030    2    1    2    0    0  0.00000000000E+00  0.00000000000E+00  0.90722293312E+03  0.19411543986E+04  0.17161080819E+04 0.  0.
        2    1    3    3  502    0  0.62838119147E+03 -0.47248286846E+03  0.64799872493E+02  0.78886120849E+03  0.25500000920E-02 0.  1.
       -2    1    3    3    0  502 -0.62838119147E+03  0.47248286846E+03  0.84242306063E+03  0.11522931901E+04  0.25500000920E-02 0. -1.
</event>
<event>
 5   0  0.1790832E-04  0.1894737E+04  0.7818609E-02  0.8657481E-01
       -2   -1    0    0    0  501  0.00000000000E+00  0.00000000000E+00  0.26238966384E+04  0.26238966384E+04  0.25500000920E-02 0. -1.
        2   -1    0    0  501    0  0.00000000000E+00  0.00000000000E+00 -0.34205118737E+03  0.34205118738E+03  0.25500000920E-02 0.  1.
    10030    2    1    2    0    0  0.00000000000E+00  0.00000000000E+00  0.22818454510E+04  0.29659478258E+04  0.18947368796E+04 0.  0.
        5    1    3    3  502    0 -0.39838134028E+03 -0.70638162742E+03  0.37437154386E+03  0.89322944348E+03  0.46999998093E+01 0.  1.
       -5    1    3    3    0  502  0.39838134028E+03  0.70638162742E+03  0.19074739072E+04  0.20727183823E+04  0.46999998093E+01 0. -1.
</event>
<event>
 5   0  0.8905646E-05  0.1926219E+04  0.7818609E-02  0.8641915E-01
        1   -1    0    0  501    0  0.00000000000E+00  0.00000000000E+00  0.15518220276E+04  0.15518220276E+04  0.50400001928E-02 0.  1.
       -1   -1    0    0    0  501  0.00000000000E+00  0.00000000000E+00 -0.59773594236E+03  0.59773594238E+03  0.50400001928E-02 0. -1.
    10030    2    1    2    0    0  0.00000000000E+00  0.00000000000E+00  0.95408608522E+03  0.21495579700E+04  0.19262188890E+04 0.  0.
        1    1    3    3  502    0  0.50521825027E+03  0.70194597097E+03  0.41051008256E+01  0.86486442779E+03  0.50400001928E-02 0. -1.
       -1    1    3    3    0  502 -0.50521825027E+03 -0.70194597097E+03  0.94998098440E+03  0.12846935422E+04  0.50400001928E-02 0.  1.
</event>
<event>
 5   0  0.1765328E-04  0.1807123E+04  0.7818609E-02  0.8702521E-01
       -2   -1    0    0    0  501  0.00000000000E+00  0.00000000000E+00  0.73622717731E+03  0.73622717731E+03  0.25500000920E-02 0.  1.
        2   -1    0    0  501    0  0.00000000000E+00  0.00000000000E+00 -0.11089286691E+04  0.11089286691E+04  0.25500000920E-02 0. -1.
    10030    2    1    2    0    0  0.00000000000E+00  0.00000000000E+00 -0.37270149177E+03  0.18451558464E+04  0.18071230438E+04 0.  0.
        3    1    3    3  502    0 -0.52880164051E+03 -0.40278951387E+02  0.56059859233E+03  0.77170224883E+03  0.10100000352E+00 0.  1.
       -3    1    3    3    0  502  0.52880164051E+03  0.40278951387E+02 -0.93330008410E+03  0.10734535976E+04  0.10100000352E+00 0. -1.
</event>
<event>
 5   0  0.8905646E-05  0.1886746E+04  0.7818609E-02  0.8661482E-01
       -1   -1    0    0    0  501  0.00000000000E+00  0.00000000000E+00  0.11278287956E+04  0.11278287956E+04  0.50400001928E-02 0. -1.
        1   -1    0    0  501    0  0.00000000000E+00  0.00000000000E+00 -0.78908469062E+03  0.78908469063E+03  0.50400001928E-02 0.  1.
    10030    2    1    2    0    0  0.00000000000E+00  0.00000000000E+00  0.33874410496E+03  0.19169134862E+04  0.18867458083E+04 0.  0.
        1    1    3    3  502    0 -0.59328512635E+03  0.70616793076E+03  0.37076370041E+03  0.99404532550E+03  0.50400001928E-02 0.  1.
       -1    1    3    3    0  502  0.59328512635E+03 -0.70616793076E+03 -0.32019595443E+02  0.92286816073E+03  0.50400001928E-02 0. -1.
</event>
<event>
 5   0  0.1658711E-04  0.1920877E+04  0.7818609E-02  0.8644534E-01
       -2   -1    0    0    0  501  0.00000000000E+00  0.00000000000E+00  0.90411794969E+03  0.90411794970E+03  0.25500000920E-02 0. -1.
        2   -1    0    0  501    0  0.00000000000E+00  0.00000000000E+00 -0.10202671559E+04  0.10202671559E+04  0.25500000920E-02 0.  1.
    10030    2    1    2    0    0  0.00000000000E+00  0.00000000000E+00 -0.11614920619E+03  0.19243851056E+04  0.19208767260E+04 0.  0.
        2    1    3    3  502    0 -0.47849778090E+03 -0.55308198813E+03  0.56562334163E+03  0.92454830946E+03  0.25500000920E-02 0. -1.
       -2    1    3    3    0  502  0.47849778090E+03  0.55308198813E+03 -0.68177254782E+03  0.99983679612E+03  0.25500000920E-02 0.  1.
</event>
<event>
 5   0  0.1790832E-04  0.1908946E+04  0.7818609E-02  0.8650416E-01
       -2   -1    0    0    0  501  0.00000000000E+00  0.00000000000E+00  0.13909564498E+04  0.13909564498E+04  0.25500000920E-02 0.  1.
        2   -1    0    0  501    0  0.00000000000E+00  0.00000000000E+00 -0.65495822823E+03  0.65495822824E+03  0.25500000920E-02 0. -1.
    10030    2    1    2    0    0  0.00000000000E+00  0.00000000000E+00  0.73599822158E+03  0.20459146781E+04  0.19089456482E+04 0.  0.
        5    1    3    3  502    0  0.26889389508E+03  0.87235270558E+03  0.69264725553E+02  0.91549050347E+03  0.46999998093E+01 0. -1.
       -5    1    3    3    0  502 -0.26889389508E+03 -0.87235270558E+03  0.66673349603E+03  0.11304241746E+04  0.46999998093E+01 0.  1.
</event>
<event>
 5   0  0.8905646E-05  0.1884284E+04  0.7818609E-02  0.8662719E-01
       -1   -1    0    0    0  501  0.00000000000E+00  0.00000000000E+00  0.75056584748E+03  0.75056584750E+03  0.50400001928E-02 0. -1.
        1   -1    0    0  501    0  0.00000000000E+00  0.00000000000E+00 -0.11826170602E+04  0.11826170602E+04  0.50400001928E-02 0.  1.
    10030    2    1    2    0    0  0.00000000000E+00  0.00000000000E+00 -0.43205121273E+03  0.19331829077E+04  0.18842844542E+04 0.  0.
        1    1    3    3  502    0 -0.75912566798E+03 -0.61249320726E+02  0.35299212616E+03  0.83942045497E+03  0.50400001928E-02 0. -1.
       -1    1    3    3    0  502  0.75912566798E+03  0.61249320726E+02 -0.78504333888E+03  0.10937624527E+04  0.50400001928E-02 0.  1.
</event>
<event>
 5   0  0.8567844E-05  0.1920265E+04  0.7818609E-02  0.8644834E-01
       -1   -1    0    0    0  501  0.00000000000E+00  0.00000000000E+00  0.37262829775E+03  0.37262829779E+03  0.50400001928E-02 0. -1.
        1   -1    0    0  501    0  0.00000000000E+00  0.00000000000E+00 -0.24739257285E+04  0.24739257285E+04  0.50400001928E-02 0.  1.
    10030    2    1    2    0    0  0.00000000000E+00  0.00000000000E+00 -0.21012974308E+04  0.28465540263E+04  0.19202653286E+04 0.  0.
        4    1    3    3  502    0 -0.50290339777E+03 -0.51128302400E+03 -0.10432767724E+03  0.72471238106E+03  0.12699999809E+01 0. -1.
       -4    1    3    3    0  502  0.50290339777E+03  0.51128302400E+03 -0.19969697535E+04  0.21218416452E+04  0.12699999809E+01 0.  1.
</event>
<event>
 5   0  0.8587082E-05  0.1885490E+04  0.7818609E-02  0.8662113E-01
       -1   -1    0    0    0  501  0.00000000000E+00  0.00000000000E+00  0.11126933195E+04  0.11126933195E+04  0.50400001928E-02 0.  1.
        1   -1    0    0  501    0  0.00000000000E+00  0.00000000000E+00 -0.79875368222E+03  0.79875368224E+03  0.50400001928E-02 0. -1.
    10030    2    1    2    0    0  0.00000000000E+00  0.00000000000E+00  0.31393963727E+03  0.19114470017E+04  0.18854897360E+04 0.  0.
        5    1    3    3  502    0  0.51789288233E+03 -0.33390502900E+03  0.88026258973E+03  0.10745184609E+04  0.46999998093E+01 0.  1.
       -5    1    3    3    0  502 -0.51789288233E+03  0.33390502900E+03 -0.56632295247E+03  0.83692854083E+03  0.46999998093E+01 0. -1.
</event>
<event>
 5   0  0.6375750E-05  0.1938423E+04  0.7818609E-02  0.8635964E-01
        3   -1    0    0  501    0  0.00000000000E+00  0.00000000000E+00  0.70855287122E+03  0.70855287842E+03  0.10100000352E+00 0.  1.
       -3   -1    0    0    0  501  0.00000000000E+00  0.00000000000E+00 -0.13257596224E+04  0.13257596263E+04  0.10100000352E+00 0. -1.
    10030    2    1    2    0    0  0.00000000000E+00  0.00000000000E+00 -0.61720675122E+03  0.20343125047E+04  0.19384228623E+04 0.  0.
        3    1    3    3  502    0 -0.15391926491E+03  0.26358138293E+03  0.65679555015E+03  0.72425595644E+03  0.10100000352E+00 0.  1.
       -3    1    3    3    0  502  0.15391926491E+03 -0.26358138293E+03 -0.12740023014E+04  0.13100565483E+04  0.10100000352E+00 0. -1.
</event>
<event>
 5   0  0.6375750E-05  0.1887731E+04  0.7818609E-02  0.8660987E-01
        3   -1    0    0  501    0  0.00000000000E+00  0.00000000000E+00  0.51691804240E+03  0.51691805226E+03  0.10100000352E+00 0. -1.
       -3   -1    0    0    0  501  0.00000000000E+00  0.00000000000E+00 -0.17234502556E+04  0.17234502586E+04  0.10100000352E+00 0.  1.
    10030    2    1    2    0    0  0.00000000000E+00  0.00000000000E+00 -0.12065322132E+04  0.22403683108E+04  0.18877314922E+04 0.  0.
        4    1    3    3  502    0  0.29382252368E+03  0.49331032865E+02 -0.16661790867E+04  0.16926073343E+04  0.12699999809E+01 0.  1.
       -4    1    3    3    0  502 -0.29382252368E+03 -0.49331032865E+02  0.45964687349E+03  0.54776097655E+03  0.12699999809E+01 0. -1.
</event>
<event>
 5   0  0.8681396E-05  0.1908643E+04  0.7818609E-02  0.8650566E-01
       -1   -1    0    0    0  501  0.00000000000E+00  0.00000000000E+00  0.16906358433E+04  0.16906358433E+04  0.50400001928E-02 0. -1.
        1   -1    0    0  501    0  0.00000000000E+00  0.00000000000E+00 -0.53869043877E+03  0.53869043880E+03  0.50400001928E-02 0.  1.
    10030    2    1    2    0    0  0.00000000000E+00  0.00000000000E+00  0.11519454045E+04  0.22293262821E+04  0.19086428312E+04 0.  0.
        3    1    3    3  502    0  0.37132453389E+03 -0.78327050761E+03  0.10422070135E+04  0.13555773924E+04  0.10100000352E+00 0. -1.
       -3    1    3    3    0  502 -0.37132453389E+03  0.78327050761E+03  0.10973839098E+03  0.87374888968E+03  0.10100000352E+00 0.  1.
</event>
<event>
 5   0  0.1790832E-04  0.1910717E+04  0.7818609E-02  0.8649540E-01
        2   -1    0    0  501    0  0.00000000000E+00  0.00000000000E+00  0.16251317944E+04  0.16251317944E+04  0.25500000920E-02 0.  1.
       -2   -1    0    0    0  501  0.00000000000E+00  0.00000000000E+00 -0.56162196354E+03  0.56162196355E+03  0.25500000920E-02 0. -1.
    10030    2    1    2    0    0  0.00000000000E+00  0.00000000000E+00  0.10635098309E+04  0.21867537580E+04  0.19107168387E+04 0.  0.
        5    1    3    3  502    0 -0.84809386072E+03  0.43777567916E+03  0.48351213805E+03  0.10699143982E+04  0.46999998093E+01 0.  1.
       -5    1    3    3    0  502  0.84809386072E+03 -0.43777567916E+03  0.57999769285E+03  0.11168393598E+04  0.46999998093E+01 0. -1.
</event>
<event>
 5   0  0.6375750E-05  0.2074518E+04  0.7818609E-02  0.8572552E-01
        3   -1    0    0  501    0  0.00000000000E+00  0.00000000000E+00  0.11394526710E+04  0.11394526755E+04  0.10100000352E+00 0. -1.
       -3   -1    0    0    0  501  0.00000000000E+00  0.00000000000E+00 -0.94423085739E+03  0.94423086279E+03  0.10100000352E+00 0.  1.
    10030    2    1    2    0    0  0.00000000000E+00  0.00000000000E+00  0.19522181363E+03  0.20836835383E+04  0.20745181444E+04 0.  0.
        4    1    3    3  502    0 -0.83626820664E+03 -0.61238995019E+03  0.58209985960E+02  0.10381502685E+04  0.12699999809E+01 0. -1.
       -4    1    3    3    0  502  0.83626820664E+03  0.61238995019E+03  0.13701182767E+03  0.10455332698E+04  0.12699999809E+01 0.  1.
</event>
<event>
 5   0  0.1790832E-04  0.1896105E+04  0.7818609E-02  0.8656798E-01
       -2   -1    0    0    0  501  0.00000000000E+00  0.00000000000E+00  0.49042622514E+03  0.49042622514E+03  0.25500000920E-02 0.  1.
        2   -1    0    0  501    0  0.00000000000E+00  0.00000000000E+00 -0.18326989531E+04  0.18326989531E+04  0.25500000920E-02 0. -1.
    10030    2    1    2    0    0  0.00000000000E+00  0.00000000000E+00 -0.13422727280E+04  0.23231251783E+04  0.18961050914E+04 0.  0.
        5    1    3    3  502    0 -0.29449959836E+03 -0.54520717908E+03 -0.15502191057E+04  0.16694856235E+04  0.46999998093E+01 0. -1.
       -5    1    3    3    0  502  0.29449959836E+03  0.54520717908E+03  0.20794637767E+03  0.65363955476E+03  0.46999998093E+01 0.  1.
</event>
<event>
 5   0  0.8567844E-05  0.1903694E+04  0.7818609E-02  0.8653020E-01
        1   -1    0    0  501    0  0.00000000000E+00  0.00000000000E+00  0.13868337466E+04  0.13868337466E+04  0.50400001928E-02 0.  1.
       -1   -1    0    0    0  501  0.00000000000E+00  0.00000000000E+00 -0.65329600113E+03  0.65329600115E+03  0.50400001928E-02 0. -1.
    10030    2    1    2    0    0  0.00000000000E+00  0.00000000000E+00  0.73353774544E+03  0.20401297477E+04  0.19036942411E+04 0.  0.
        4    1    3    3  502    0  0.19013852719E+03  0.40951427939E+03  0.12647715299E+04  0.13429457324E+04  0.12699999809E+01 0.  1.
       -4    1    3    3    0  502 -0.19013852719E+03 -0.40951427939E+03 -0.53123378445E+03  0.69718401530E+03  0.12699999809E+01 0. -1.
</event>
<event>
 5   0  0.8587082E-05  0.1935374E+04  0.7818609E-02  0.8637446E-01
       -1   -1    0    0    0  501  0.00000000000E+00  0.00000000000E+00  0.90659290230E+03  0.90659290231E+03  0.50400001928E-02 0.  1.
        1   -1    0    0  501    0  0.00000000000E+00  0.00000000000E+00 -0.10328979359E+04  0.10328979360E+04  0.50400001928E-02 0. -1.
    10030    2    1    2    0    0  0.00000000000E+00  0.00000000000E+00 -0.12630503365E+03  0.19394908383E+04  0.19353738012E+04 0.  0.
        5    1    3    3  502    0  0.16079882128E+03 -0.69552521831E+03  0.59152446311E+03  0.92711103471E+03  0.46999998093E+01 0.  1.
       -5    1    3    3    0  502 -0.16079882128E+03  0.69552521831E+03 -0.71782949676E+03  0.10123798036E+04  0.46999998093E+01 0. -1.
</event>
<event>
 5   0  0.1765328E-04  0.1935157E+04  0.7818609E-02  0.8637552E-01
       -2   -1    0    0    0  501  0.00000000000E+00  0.00000000000E+00  0.40803397978E+03  0.40803397978E+03  0.25500000920E-02 0.  1.
        2   -1    0    0  501    0  0.00000000000E+00  0.00000000000E+00 -0.22944359820E+04  0.22944359820E+04  0.25500000920E-02 0. -1.
    10030    2    1    2    0    0  0.00000000000E+00  0.00000000000E+00 -0.18864020022E+04  0.27024699617E+04  0.19351566811E+04 0.  0.
        3    1    3    3  502    0 -0.84079695122E+03  0.50880157944E+02 -0.27830932700E+03  0.88712140959E+03  0.10100000352E+00 0.  1.
       -3    1    3    3    0  502  0.84079695122E+03 -0.50880157944E+02 -0.16080926752E+04  0.18153485522E+04  0.10100000352E+00 0. -1.
</event>
<event>
 5   0  0.1790832E-04  0.1919977E+04  0.7818609E-02  0.8644976E-01
        2   -1    0    0  501    0  0.00000000000E+00  0.00000000000E+00  0.19466692911E+04  0.19466692911E+04  0.25500000920E-02 0.  1.
       -2   -1    0    0    0  501  0.00000000000E+00  0.00000000000E+00 -0.47341256978E+03  0.47341256979E+03  0.25500000920E-02 0. -1.
    10030    2    1    2    0    0  0.00000000000E+00  0.00000000000E+00  0.14732567213E+04  0.24200818609E+04  0.19199767828E+04 0.  0.
        5    1    3    3  502    0  0.28091018545E+02 -0.53368375949E+03  0.17418109033E+04  0.18219590482E+04  0.46999998093E+01 0.  1.
       -5    1    3    3    0  502 -0.28091018545E+02  0.53368375949E+03 -0.26855418194E+03  0.59812281273E+03  0.46999998093E+01 0. -1.
</event>
<event>
 5   0  0.6375750E-05  0.1843856E+04  0.7818609E-02  0.8683319E-01
       -3   -1    0    0    0  501  0.00000000000E+00  0.00000000000E+00  0.18269770913E+04  0.18269770941E+04  0.10100000352E+00 0. -1.
        3   -1    0    0  501    0  0.00000000000E+00  0.00000000000E+00 -0.46522258367E+03  0.46522259464E+03  0.10100000352E+00 0.  1.
    10030    2    1    2    0    0  0.00000000000E+00  0.00000000000E+00  0.13617545077E+04  0.22921996888E+04  0.18438557628E+04 0.  0.
        1    1    3    3  502    0 -0.14937168698E+03  0.75890835390E+03  0.57193084767E+02  0.77558032431E+03  0.50400001928E-02 0.  1.
       -1    1    3    3    0  502  0.14937168698E+03 -0.75890835390E+03  0.13045614229E+04  0.15166193645E+04  0.50400001928E-02 0. -1.
</event>
<event>
 5   0  0.1810569E-04  0.1899975E+04  0.7818609E-02  0.8654869E-01
        2   -1    0    0  501    0  0.00000000000E+00  0.00000000000E+00  0.13028906523E+04  0.13028906523E+04  0.25500000920E-02 0.  1.
       -2   -1    0    0    0  501  0.00000000000E+00  0.00000000000E+00 -0.69267256026E+03  0.69267256026E+03  0.25500000920E-02 0. -1.
    10030    2    1    2    0    0  0.00000000000E+00  0.00000000000E+00  0.61021809205E+03  0.19955632126E+04  0.18999753723E+04 0.  0.
        4    1    3    3  502    0  0.56743951043E+03  0.58589953943E+03  0.81665330068E+03  0.11542053954E+04  0.12699999809E+01 0.  1.
       -4    1    3    3    0  502 -0.56743951043E+03 -0.58589953943E+03 -0.20643520863E+03  0.84135781720E+03  0.12699999809E+01 0. -1.
</event>
<event>
 5   0  0.8905646E-05  0.1929722E+04  0.7818609E-02  0.8640201E-01
        1   -1    0    0  501    0  0.00000000000E+00  0.00000000000E+00  0.76874014167E+03  0.76874014168E+03  0.50400001928E-02 0. -1.
       -1   -1    0    0    0  501  0.00000000000E+00  0.00000000000E+00 -0.12110167616E+04  0.12110167616E+04  0.50400001928E-02 0.  1.
    10030    2    1    2    0    0  0.00000000000E+00  0.00000000000E+00 -0.44227661989E+03  0.19797569032E+04  0.19297224638E+04 0.  0.
        1    1    3    3  502    0 -0.37667153429E+03  0.70134968368E+03  0.33814260321E+03  0.86493539855E+03  0.50400001928E-02 0. -1.
       -1    1    3    3    0  502  0.37667153429E+03 -0.70134968368E+03 -0.78041922310E+03  0.11148215047E+04  0.50400001928E-02 0.  1.
</event>
<event>
 5   0  0.8567844E-05  0.1904172E+04  0.7818609E-02  0.8652782E-01
       -1   -1    0    0    0  501  0.00000000000E+00  0.00000000000E+00  0.79368703346E+03  0.79368703347E+03  0.50400001928E-02 0.  1.
        1   -1    0    0  501    0  0.00000000000E+00  0.00000000000E+00 -0.11420977161E+04  0.11420977161E+04  0.50400001928E-02 0. -1.
    10030    2    1    2    0    0  0.00000000000E+00  0.00000000000E+00 -0.34841068267E+03  0.19357847496E+04  0.19041724168E+04 0.  0.
        4    1    3    3  502    0 -0.91105284461E+03 -0.23155996838E+03 -0.32780718661E+03  0.99553828109E+03  0.12699999809E+01 0. -1.
       -4    1    3    3    0  502  0.91105284461E+03  0.23155996838E+03 -0.20603496063E+02  0.94024646852E+03  0.12699999809E+01 0.  1.
</event>
<event>
 5   0  0.8567844E-05  0.1916597E+04  0.7818609E-02  0.8646639E-01
        1   -1    0    0  501    0  0.00000000000E+00  0.00000000000E+00  0.16070513717E+04  0.16070513717E+04  0.50400001928E-02 0.  1.
       -1   -1    0    0    0  501  0.00000000000E+00  0.00000000000E+00 -0.57144166460E+03  0.57144166462E+03  0.50400001928E-02 0. -1.
    10030    2    1    2    0    0  0.00000000000E+00  0.00000000000E+00  0.10356097071E+04  0.21784930363E+04  0.19165971000E+04 0.  0.
        4    1    3    3  502    0  0.63540763843E+03 -0.66744498977E+03  0.81661275528E+03  0.12312935013E+04  0.12699999809E+01 0.  1.
       -4    1    3    3    0  502 -0.63540763843E+03  0.66744498977E+03  0.21899695180E+03  0.94719953502E+03  0.12699999809E+01 0. -1.
</event>
<event>
 5   0  0.8567844E-05  0.1856604E+04  0.7818609E-02  0.8676764E-01
       -1   -1    0    0    0  501  0.00000000000E+00  0.00000000000E+00  0.10110159045E+04  0.10110159045E+04  0.50400001928E-02 0. -1.
        1   -1    0    0  501    0  0.00000000000E+00  0.00000000000E+00 -0.85235509163E+03  0.85235509164E+03  0.50400001928E-02 0.  1.
    10030    2    1    2    0    0  0.00000000000E+00  0.00000000000E+00  0.15866081287E+03  0.18633709962E+04  0.18566039469E+04 0.  0.
        4    1    3    3  502    0  0.87620062431E+03 -0.19325915844E+03  0.31824490627E+03  0.95202839749E+03  0.12699999809E+01 0. -1.
       -4    1    3    3    0  502 -0.87620062431E+03  0.19325915844E+03 -0.15958409340E+03  0.91134259866E+03  0.12699999809E+01 0.  1.
</event>
<event>
 5   0  0.8905646E-05  0.1838042E+04  0.7818609E-02  0.8686327E-01
        1   -1    0    0  501    0  0.00000000000E+00  0.00000000000E+00  0.11071753050E+04  0.11071753050E+04  0.50400001928E-02 0. -1.
       -1   -1    0    0    0  501  0.00000000000E+00  0.00000000000E+00 -0.76284215929E+03  0.76284215931E+03  0.50400001928E-02 0.  1.
    10030    2    1    2    0    0  0.00000000000E+00  0.00000000000E+00  0.34433314573E+03  0.18700174643E+04  0.18380424374E+04 0.  0.
        1    1    3    3  502    0  0.14463067907E+03 -0.55080778735E+03 -0.56169477577E+03  0.79988016171E+03  0.50400001928E-02 0.  1.
       -1    1    3    3    0  502 -0.14463067907E+03  0.55080778735E+03  0.90602792151E+03  0.10701373026E+04  0.50400001928E-02 0. -1.
</event>
<event>
 5   0  0.8587082E-05  0.1896546E+04  0.7818609E-02  0.8656578E-01
       -1   -1    0    0    0  501  0.00000000000E+00  0.00000000000E+00  0.14181077273E+04  0.14181077273E+04  0.50400001928E-02 0.  1.
        1   -1    0    0  501    0  0.00000000000E+00  0.00000000000E+00 -0.63409961809E+03  0.63409961811E+03  0.50400001928E-02 0. -1.
    10030    2    1    2    0    0  0.00000000000E+00  0.00000000000E+00  0.78400810917E+03  0.20522073454E+04  0.18965458795E+04 0.  0.
        5    1    3    3  502    0  0.70138308663E+03 -0.35535309718E+03 -0.18158357647E+03  0.80697505731E+03  0.46999998093E+01 0. -1.
       -5    1    3    3    0  502 -0.70138308663E+03  0.35535309718E+03  0.96559168564E+03  0.12452322881E+04  0.46999998093E+01 0.  1.
</event>
<event>
 5   0  0.1810569E-04  0.1883305E+04  0.7818609E-02  0.8663211E-01
       -2   -1    0    0    0  501  0.00000000000E+00  0.00000000000E+00  0.62186633948E+03  0.62186633948E+03  0.25500000920E-02 0.  1.
        2   -1    0    0  501    0  0.00000000000E+00  0.00000000000E+00 -0.14258841953E+04  0.14258841953E+04  0.25500000920E-02 0. -1.
    10030    2    1    2    0    0  0.00000000000E+00  0.00000000000E+00 -0.80401785578E+03  0.20477505347E+04  0.18833049514E+04 0.  0.
        4    1    3    3  502    0 -0.54845857067E+02 -0.30578249977E+03 -0.13685582577E+04  0.14033760447E+04  0.12699999809E+01 0. -1.
       -4    1    3    3    0  502  0.54845857067E+02  0.30578249977E+03  0.56454040188E+03  0.64437449008E+03  0.12699999809E+01 0.  1.
</event>
<event>
 5   0  0.8587082E-05  0.1893006E+04  0.7818609E-02  0.8658345E-01
        1   -1    0    0  501    0  0.00000000000E+00  0.00000000000E+00  0.68870657606E+03  0.68870657608E+03  0.50400001928E-02 0. -1.
       -1   -1    0    0    0  501  0.00000000000E+00  0.00000000000E+00 -0.13007982063E+04  0.13007982063E+04  0.50400001928E-02 0.  1.
    10030    2    1    2    0    0  0.00000000000E+00  0.00000000000E+00 -0.61209163023E+03  0.19895047824E+04  0.18930063696E+04 0.  0.
        5    1    3    3  502    0 -0.15506312788E+02  0.94503300675E+03 -0.35878722721E+03  0.10109788296E+04  0.46999998093E+01 0. -1.
       -5    1    3    3    0  502  0.15506312788E+02 -0.94503300675E+03 -0.25330440302E+03  0.97852595273E+03  0.46999998093E+01 0.  1.
</event>
<event>
 5   0  0.1810569E-04  0.1910687E+04  0.7818609E-02  0.8649555E-01
        2   -1    0    0  501    0  0.00000000000E+00  0.00000000000E+00  0.25961198631E+04  0.25961198631E+04  0.25500000920E-02 0.  1.
       -2   -1    0    0    0  501  0.00000000000E+00  0.00000000000E+00 -0.35155590406E+03  0.35155590407E+03  0.25500000920E-02 0. -1.
    10030    2    1    2    0    0  0.00000000000E+00  0.00000000000E+00  0.22445639591E+04  0.29476757672E+04  0.19106870655E+04 0.  0.
        4    1    3    3  502    0  0.11919993840E+03  0.42236030173E+03 -0.18684377563E+03  0.47697909722E+03  0.12699999809E+01 0. -1.
       -4    1    3    3    0  502 -0.11919993840E+03 -0.42236030173E+03  0.24314077347E+04  0.24706966700E+04  0.12699999809E+01 0.  1.
</event>
<event>
 5   0  0.8905646E-05  0.1900414E+04  0.7818609E-02  0.8654650E-01
       -1   -1    0    0    0  501  0.00000000000E+00  0.00000000000E+00  0.96708078242E+03  0.96708078243E+03  0.50400001928E-02 0. -1.
        1   -1    0    0  501    0  0.00000000000E+00  0.00000000000E+00 -0.93362736764E+03  0.93362736766E+03  0.50400001928E-02 0.  1.
    10030    2    1    2    0    0  0.00000000000E+00  0.00000000000E+00  0.33453414778E+02  0.19007081501E+04  0.19004137289E+04 0.  0.
        1    1    3    3  502    0 -0.31038161763E+03  0.18765658774E+03  0.89512317825E+03  0.96581429258E+03  0.50400001928E-02 0. -1.
       -1    1    3    3    0  502  0.31038161763E+03 -0.18765658774E+03 -0.86166976348E+03  0.93489385751E+03  0.50400001928E-02 0.  1.
</event>
<event>
 5   0  0.1799738E-04  0.1885776E+04  0.7818609E-02  0.8661969E-01
       -2   -1    0    0    0  501  0.00000000000E+00  0.00000000000E+00  0.67575704767E+03  0.67575704767E+03  0.25500000920E-02 0. -1.
        2   -1    0    0  501    0  0.00000000000E+00  0.00000000000E+00 -0.13156180783E+04  0.13156180783E+04  0.25500000920E-02 0.  1.
    10030    2    1    2    0    0  0.00000000000E+00  0.00000000000E+00 -0.63986103059E+03  0.19913751259E+04  0.18857764326E+04 0.  0.
        1    1    3    3  502    0  0.72133379147E+03 -0.51676612916E+03 -0.65664059652E+03  0.11038779570E+04  0.50400001928E-02 0.  1.
       -1    1    3    3    0  502 -0.72133379147E+03  0.51676612916E+03  0.16779565929E+02  0.88749716891E+03  0.50400001928E-02 0. -1.
</event>
<event>
 5   0  0.8681396E-05  0.1902668E+04  0.7818609E-02  0.8653529E-01
       -1   -1    0    0    0  501  0.00000000000E+00  0.00000000000E+00  0.10444582518E+04  0.10444582519E+04  0.50400001928E-02 0.  1.
        1   -1    0    0  501    0  0.00000000000E+00  0.00000000000E+00 -0.86651281355E+03  0.86651281356E+03  0.50400001928E-02 0. -1.
    10030    2    1    2    0    0  0.00000000000E+00  0.00000000000E+00  0.17794543829E+03  0.19109710654E+04  0.19026680829E+04 0.  0.
        3    1    3    3  502    0 -0.71730427712E+03  0.57469666982E+03  0.33547144024E+03  0.97843895349E+03  0.10100000352E+00 0.  1.
       -3    1    3    3    0  502  0.71730427712E+03 -0.57469666982E+03 -0.15752600195E+03  0.93253211193E+03  0.10100000352E+00 0. -1.
</event>
<event>
 5   0  0.1658711E-04  0.1909408E+04  0.7818609E-02  0.8650187E-01
       -2   -1    0    0    0  501  0.00000000000E+00  0.00000000000E+00  0.23501031355E+04  0.23501031355E+04  0.25500000920E-02 0.  1.
        2   -1    0    0  501    0  0.00000000000E+00  0.00000000000E+00 -0.38783822728E+03  0.38783822728E+03  0.25500000920E-02 0. -1.
    10030    2    1    2    0    0  0.00000000000E+00  0.00000000000E+00  0.19622649083E+04  0.27379413628E+04  0.19094081115E+04 0.  0.
        2    1    3    3  502    0  0.33424332409E+03 -0.74155439364E+03  0.26440357927E+03  0.85529572146E+03  0.25500000920E-02 0. -1.
       -2    1    3    3    0  502 -0.33424332409E+03  0.74155439364E+03  0.16978613290E+04  0.18826456414E+04  0.25500000920E-02 0.  1.
</event>
<event>
 5   0  0.8905646E-05  0.1907380E+04  0.7818609E-02  0.8651191E-01
        1   -1    0    0  501    0  0.00000000000E+00  0.00000000000E+00  0.11601247017E+04  0.11601247017E+04  0.50400001928E-02 0.  1.
       -1   -1    0    0    0  501  0.00000000000E+00  0.00000000000E+00 -0.78398891495E+03  0.78398891497E+03  0.50400001928E-02 0. -1.
    10030    2    1    2    0    0  0.00000000000E+00  0.00000000000E+00  0.37613578670E+03  0.19441136166E+04  0.19073803041E+04 0.  0.
        1    1    3    3  502    0 -0.64171301132E+03  0.62783574742E+03  0.51605950528E+03  0.10355147163E+04  0.50400001928E-02 0.  1.
       -1    1    3    3    0  502  0.64171301132E+03 -0.62783574742E+03 -0.13992371858E+03  0.90859890034E+03  0.50400001928E-02 0. -1.
</event>
<event>
 5   0  0.8681396E-05  0.1928704E+04  0.7818609E-02  0.8640699E-01
       -1   -1    0    0    0  501  0.00000000000E+00  0.00000000000E+00  0.37466381060E+03  0.37466381063E+03  0.50400001928E-02 0.  1.
        1   -1    0    0  501    0  0.00000000000E+00  0.00000000000E+00 -0.24821583237E+04  0.24821583237E+04  0.50400001928E-02 0. -1.
    10030    2    1    2    0    0  0.00000000000E+00  0.00000000000E+00 -0.21074945131E+04  0.28568221343E+04  0.19287041205E+04 0.  0.
        3    1    3    3  502    0  0.10153351922E+03 -0.10243413275E+03  0.35859800597E+03  0.38651564932E+03  0.10100000352E+00 0.  1.
       -3    1    3    3    0  502 -0.10153351922E+03  0.10243413275E+03 -0.24660925191E+04  0.24703064850E+04  0.10100000352E+00 0. -1.
</event>
<event>
 5   0  0.8905646E-05  0.1861596E+04  0.7818609E-02  0.8674212E-01
       -1   -1    0    0    0  501  0.00000000000E+00  0.00000000000E+00  0.10059338348E+04  0.10059338348E+04  0.50400001928E-02 0.  1.
        1   -1    0    0  501    0  0.00000000000E+00  0.00000000000E+00 -0.86127390724E+03  0.86127390725E+03  0.50400001928E-02 0. -1.
    10030    2    1    2    0    0  0.00000000000E+00  0.00000000000E+00  0.14465992758E+03  0.18672077421E+04  0.18615956214E+04 0.  0.
        1    1    3    3  502    0  0.20980941220E+03  0.15781638940E+03  0.96802744579E+03  0.10029970778E+04  0.50400001928E-02 0.  1.
       -1    1    3    3    0  502 -0.20980941220E+03 -0.15781638940E+03 -0.82336751821E+03  0.86421066430E+03  0.50400001928E-02 0. -1.
</event>
<event>
 5   0  0.1790832E-04  0.1918057E+04  0.7818609E-02  0.8645920E-01
        2   -1    0    0  501    0  0.00000000000E+00  0.00000000000E+00  0.26985100424E+04  0.26985100424E+04  0.25500000920E-02 0.  1.
       -2   -1    0    0    0  501  0.00000000000E+00  0.00000000000E+00 -0.34083085324E+03  0.34083085325E+03  0.25500000920E-02 0. -1.
    10030    2    1    2    0    0  0.00000000000E+00  0.00000000000E+00  0.23576791892E+04  0.30393408957E+04  0.19180568086E+04 0.  0.
        5    1    3    3  502    0  0.46628896167E+03 -0.12854498520E+03 -0.13337645888E+03  0.50175749001E+03  0.46999998093E+01 0. -1.
       -5    1    3    3    0  502 -0.46628896167E+03  0.12854498520E+03  0.24910556481E+04  0.25375834057E+04  0.46999998093E+01 0.  1.
</event>
<event>
 5   0  0.1765328E-04  0.1919230E+04  0.7818609E-02  0.8645343E-01
       -2   -1    0    0    0  501  0.00000000000E+00  0.00000000000E+00  0.64194205438E+03  0.64194205438E+03  0.25500000920E-02 0. -1.
        2   -1    0    0  501    0  0.00000000000E+00  0.00000000000E+00 -0.14344929821E+04  0.14344929821E+04  0.25500000920E-02 0.  1.
    10030    2    1    2    0    0  0.00000000000E+00  0.00000000000E+00 -0.79255092770E+03  0.20764350365E+04  0.19192304415E+04 0.  0.
        3    1    3    3  502    0  0.22470589730E+03 -0.90402358998E+03 -0.14694275601E+03  0.94305014462E+03  0.10100000352E+00 0. -1.
       -3    1    3    3    0  502 -0.22470589730E+03  0.90402358998E+03 -0.64560817169E+03  0.11333848918E+04  0.10100000352E+00 0.  1.
</event>
<event>
 5   0  0.1799738E-04  0.1899993E+04  0.7818609E-02  0.8654860E-01
        2   -1    0    0  501    0  0.00000000000E+00  0.00000000000E+00  0.12672566128E+04  0.12672566128E+04  0.25500000920E-02 0.  1.
       -2   -1    0    0    0  501  0.00000000000E+00  0.00000000000E+00 -0.71216287615E+03  0.71216287615E+03  0.25500000920E-02 0. -1.
    10030    2    1    2    0    0  0.00000000000E+00  0.00000000000E+00  0.55509373664E+03  0.19794194889E+04  0.18999927518E+04 0.  0.
        1    1    3    3  502    0 -0.32485714616E+03 -0.82659368978E+03  0.62884304804E+03  0.10882246425E+04  0.50400001928E-02 0.  1.
       -1    1    3    3    0  502  0.32485714616E+03  0.82659368978E+03 -0.73749311403E+02  0.89119484646E+03  0.50400001928E-02 0. -1.
</event>
<event>
 5   0  0.8602017E-05  0.1730446E+04  0.7818609E-02  0.8744188E-01
       -1   -1    0    0    0  501  0.00000000000E+00  0.00000000000E+00  0.42594953150E+03  0.42594953153E+03  0.50400001928E-02 0. -1.
        1   -1    0    0  501    0  0.00000000000E+00  0.00000000000E+00 -0.17575103183E+04  0.17575103183E+04  0.50400001928E-02 0.  1.
    10030    2    1    2    0    0  0.00000000000E+00  0.00000000000E+00 -0.13315607868E+04  0.21834598498E+04  0.17304458347E+04 0.  0.
        2    1    3    3  502    0  0.78350546790E+03 -0.49969895569E+02 -0.11246158198E+04  0.13715460440E+04  0.25500000920E-02 0. -1.
       -2    1    3    3    0  502 -0.78350546790E+03  0.49969895569E+02 -0.20694496698E+03  0.81191380580E+03  0.25500000920E-02 0.  1.
</event>
<event>
 5   0  0.8905646E-05  0.1906497E+04  0.7818609E-02  0.8651629E-01
       -1   -1    0    0    0  501  0.00000000000E+00  0.00000000000E+00  0.42748813093E+03  0.42748813096E+03  0.50400001928E-02 0.  1.
        1   -1    0    0  501    0  0.00000000000E+00  0.00000000000E+00 -0.21256332688E+04  0.21256332688E+04  0.50400001928E-02 0. -1.
    10030    2    1    2    0    0  0.00000000000E+00  0.00000000000E+00 -0.16981451378E+04  0.25531213997E+04  0.19064973046E+04 0.  0.
        1    1    3    3  502    0  0.49839845583E+03  0.30729421536E+03  0.15829227185E+03  0.60653705486E+03  0.50400001928E-02 0.  1.
       -1    1    3    3    0  502 -0.49839845583E+03 -0.30729421536E+03 -0.18564374097E+04  0.19465843449E+04  0.50400001928E-02 0. -1.
</event>
<event>
 5   0  0.1790832E-04  0.1913285E+04  0.7818609E-02  0.8648272E-01
       -2   -1    0    0    0  501  0.00000000000E+00  0.00000000000E+00  0.87263749405E+03  0.87263749406E+03  0.25500000920E-02 0.  1.
        2   -1    0    0  501    0  0.00000000000E+00  0.00000000000E+00 -0.10487347033E+04  0.10487347033E+04  0.25500000920E-02 0. -1.
    10030    2    1    2    0    0  0.00000000000E+00  0.00000000000E+00 -0.17609720920E+03  0.19213721973E+04  0.19132853665E+04 0.  0.
        5    1    3    3  502    0  0.93612919368E+03  0.11482028482E+02 -0.28553541400E+03  0.97878611907E+03  0.46999998093E+01 0.  1.
       -5    1    3    3    0  502 -0.93612919368E+03 -0.11482028482E+02  0.10943820479E+03  0.94258607825E+03  0.46999998093E+01 0. -1.
</event>
<event>
 5   0  0.8587082E-05  0.1901620E+04  0.7818609E-02  0.8654050E-01
       -1   -1    0    0    0  501  0.00000000000E+00  0.00000000000E+00  0.49109611710E+03  0.49109611713E+03  0.50400001928E-02 0.  1.
        1   -1    0    0  501    0  0.00000000000E+00  0.00000000000E+00 -0.18408609464E+04  0.18408609464E+04  0.50400001928E-02 0. -1.
    10030    2    1    2    0    0  0.00000000000E+00  0.00000000000E+00 -0.13497648293E+04  0.23319570635E+04  0.19016200072E+04 0.  0.
        5    1    3    3  502    0 -0.11272931119E+03 -0.17152241847E+03  0.46359040375E+03  0.50701675523E+03  0.46999998093E+01 0.  1.
       -5    1    3    3    0  502  0.11272931119E+03  0.17152241847E+03 -0.18133552330E+04  0.18249403083E+04  0.46999998093E+01 0. -1.
</event>
<event>
 5   0  0.8567844E-05  0.1961035E+04  0.7818609E-02  0.8625058E-01
        1   -1    0    0  501    0  0.00000000000E+00  0.00000000000E+00  0.14411839918E+04  0.14411839918E+04  0.50400001928E-02 0.  1.
       -1   -1    0    0    0  501  0.00000000000E+00  0.00000000000E+00 -0.66710031017E+03  0.66710031019E+03  0.50400001928E-02 0. -1.
    10030    2    1    2    0    0  0.00000000000E+00  0.00000000000E+00  0.77408368165E+03  0.21082843020E+04  0.19610347146E+04 0.  0.
        4    1    3    3  502    0 -0.33109129110E+03 -0.92276478498E+03  0.36853334972E+03  0.10473465206E+04  0.12699999809E+01 0. -1.
       -4    1    3    3    0  502  0.33109129110E+03  0.92276478498E+03  0.40555033193E+03  0.10609377814E+04  0.12699999809E+01 0.  1.
</event>
<event>
 5   0  0.1790832E-04  0.1899337E+04  0.7818609E-02  0.8655186E-01
        2   -1    0    0  501    0  0.00000000000E+00  0.00000000000E+00  0.77010052211E+03  0.77010052211E+03  0.25500000920E-02 0. -1.
       -2   -1    0    0    0  501  0.00000000000E+00  0.00000000000E+00 -0.11711071891E+04  0.11711071891E+04  0.25500000920E-02 0.  1.
    10030    2    1    2    0    0  0.00000000000E+00  0.00000000000E+00 -0.40100666700E+03  0.19412077112E+04  0.18993369978E+04 0.  0.
        5    1    3    3  502    0  0.30647707080E+03 -0.78687675509E+03  0.24352189302E+03  0.87887895924E+03  0.46999998093E+01 0.  1.
       -5    1    3    3    0  502 -0.30647707080E+03  0.78687675509E+03 -0.64452856002E+03  0.10623287520E+04  0.46999998093E+01 0. -1.
</event>
<event>
 5   0  0.8587082E-05  0.1912587E+04  0.7818609E-02  0.8648616E-01
       -1   -1    0    0    0  501  0.00000000000E+00  0.00000000000E+00  0.46122112407E+03  0.46122112410E+03  0.50400001928E-02 0. -1.
        1   -1    0    0  501    0  0.00000000000E+00  0.00000000000E+00 -0.19827742260E+04  0.19827742260E+04  0.50400001928E-02 0.  1.
    10030    2    1    2    0    0  0.00000000000E+00  0.00000000000E+00 -0.15215531019E+04  0.24439953501E+04  0.19125871037E+04 0.  0.
        5    1    3    3  502    0 -0.85420258935E+03 -0.41989933064E+03 -0.64298035235E+03  0.11486615407E+04  0.46999998093E+01 0. -1.
       -5    1    3    3    0  502  0.85420258935E+03  0.41989933064E+03 -0.87857274957E+03  0.12953338094E+04  0.46999998093E+01 0.  1.
</event>
<event>
 5   0  0.1790832E-04  0.1909161E+04  0.7818609E-02  0.8650310E-01
        2   -1    0    0  501    0  0.00000000000E+00  0.00000000000E+00  0.12379955856E+04  0.12379955856E+04  0.25500000920E-02 0. -1.
       -2   -1    0    0    0  501  0.00000000000E+00  0.00000000000E+00 -0.73604758815E+03  0.73604758816E+03  0.25500000920E-02 0.  1.
    10030    2    1    2    0    0  0.00000000000E+00  0.00000000000E+00  0.50194799742E+03  0.19740431737E+04  0.19091607213E+04 0.  0.
        5    1    3    3  502    0  0.78281387876E+03 -0.21438393897E+03 -0.26853883522E+03  0.85492294277E+03  0.46999998093E+01 0.  1.
       -5    1    3    3    0  502 -0.78281387876E+03  0.21438393897E+03  0.77048683264E+03  0.11191202310E+04  0.46999998093E+01 0. -1.
</event>
<event>
 5   0  0.1810569E-04  0.1916735E+04  0.7818609E-02  0.8646571E-01
       -2   -1    0    0    0  501  0.00000000000E+00  0.00000000000E+00  0.85529475361E+03  0.85529475362E+03  0.25500000920E-02 0.  1.
        2   -1    0    0  501    0  0.00000000000E+00  0.00000000000E+00 -0.10738618381E+04  0.10738618381E+04  0.25500000920E-02 0. -1.
    10030    2    1    2    0    0  0.00000000000E+00  0.00000000000E+00 -0.21856708444E+03  0.19291565917E+04  0.19167351368E+04 0.  0.
        4    1    3    3  502    0 -0.52135562816E+03  0.66508763166E+02 -0.91587057955E+03  0.10559619491E+04  0.12699999809E+01 0. -1.
       -4    1    3    3    0  502  0.52135562816E+03 -0.66508763166E+02  0.69730349511E+03  0.87319464255E+03  0.12699999809E+01 0.  1.
</event>
<event>
 5   0  0.1799738E-04  0.1892302E+04  0.7818609E-02  0.8658698E-01
        2   -1    0    0  501    0  0.00000000000E+00  0.00000000000E+00  0.11425247060E+04  0.11425247060E+04  0.25500000920E-02 0. -1.
       -2   -1    0    0    0  501  0.00000000000E+00  0.00000000000E+00 -0.78352960168E+03  0.78352960169E+03  0.25500000920E-02 0.  1.
    10030    2    1    2    0    0  0.00000000000E+00  0.00000000000E+00  0.35899510428E+03  0.19260543077E+04  0.18923022251E+04 0.  0.
        1    1    3    3  502    0  0.63157936504E+03 -0.53320815296E+03 -0.28914791575E+03  0.87567685018E+03  0.50400001928E-02 0.  1.
       -1    1    3    3    0  502 -0.63157936504E+03  0.53320815296E+03  0.64814302003E+03  0.10503774575E+04  0.50400001928E-02 0. -1.
</event>
<event>
 5   0  0.1799738E-04  0.1898656E+04  0.7818609E-02  0.8655526E-01
        2   -1    0    0  501    0  0.00000000000E+00  0.00000000000E+00  0.71846135879E+03  0.71846135879E+03  0.25500000920E-02 0.  1.
       -2   -1    0    0    0  501  0.00000000000E+00  0.00000000000E+00 -0.12543799395E+04  0.12543799395E+04  0.25500000920E-02 0. -1.
    10030    2    1    2    0    0  0.00000000000E+00  0.00000000000E+00 -0.53591858068E+03  0.19728412983E+04  0.18986558569E+04 0.  0.
        1    1    3    3  502    0 -0.16080210667E+03  0.20089996348E+03  0.68153102658E+03  0.72849341319E+03  0.50400001928E-02 0.  1.
       -1    1    3    3    0  502  0.16080210667E+03 -0.20089996348E+03 -0.12174496073E+04  0.12443478851E+04  0.50400001928E-02 0. -1.
</event>
<event>
 5   0  0.8602017E-05  0.1778321E+04  0.7818609E-02  0.8717914E-01
       -1   -1    0    0    0  501  0.00000000000E+00  0.00000000000E+00  0.50239298717E+03  0.50239298720E+03  0.50400001928E-02 0. -1.
        1   -1    0    0  501    0  0.00000000000E+00  0.00000000000E+00 -0.15736805079E+04  0.15736805079E+04  0.50400001928E-02 0.  1.
    10030    2    1    2    0    0  0.00000000000E+00  0.00000000000E+00 -0.10712875207E+04  0.20760734951E+04  0.17783206137E+04 0.  0.
        2    1    3    3  502    0  0.56438935586E+03  0.10149575123E+03 -0.13289579056E+04  0.14473996847E+04  0.25500000920E-02 0.  1.
       -2    1    3    3    0  502 -0.56438935586E+03 -0.10149575123E+03  0.25767038491E+03  0.62867381033E+03  0.25500000920E-02 0. -1.
</event>
<event>
 5   0  0.1799738E-04  0.1894288E+04  0.7818609E-02  0.8657705E-01
       -2   -1    0    0    0  501  0.00000000000E+00  0.00000000000E+00  0.51075790053E+03  0.51075790054E+03  0.25500000920E-02 0. -1.
        2   -1    0    0  501    0  0.00000000000E+00  0.00000000000E+00 -0.17563729118E+04  0.17563729118E+04  0.25500000920E-02 0.  1.
    10030    2    1    2    0    0  0.00000000000E+00  0.00000000000E+00 -0.12456150113E+04  0.22671308123E+04  0.18942875611E+04 0.  0.
        1    1    3    3  502    0  0.22018551946E+03 -0.71870427105E+03 -0.13124777210E+04  0.15124864496E+04  0.50400001928E-02 0.  1.
       -1    1    3    3    0  502 -0.22018551946E+03  0.71870427105E+03  0.66862709714E+02  0.75464436271E+03  0.50400001928E-02 0. -1.
</event>
<event>
 5   0  0.8587082E-05  0.1725260E+04  0.7818609E-02  0.8747087E-01
       -1   -1    0    0    0  501  0.00000000000E+00  0.00000000000E+00  0.65929571233E+03  0.65929571235E+03  0.50400001928E-02 0.  1.
        1   -1    0    0  501    0  0.00000000000E+00  0.00000000000E+00 -0.11286753467E+04  0.11286753467E+04  0.50400001928E-02 0. -1.
    10030    2    1    2    0    0  0.00000000000E+00  0.00000000000E+00 -0.46937963434E+03  0.17879710590E+04  0.17252603475E+04 0.  0.
        5    1    3    3  502    0  0.69990683626E+03 -0.50260000690E+03 -0.19281851010E+03  0.88299343951E+03  0.46999998093E+01 0.  1.
       -5    1    3    3    0  502 -0.69990683626E+03  0.50260000690E+03 -0.27656112424E+03  0.90497761951E+03  0.46999998093E+01 0. -1.
</event>
<event>
 5   0  0.8681396E-05  0.1899994E+04  0.7818609E-02  0.8654859E-01
       -1   -1    0    0    0  501  0.00000000000E+00  0.00000000000E+00  0.96974764563E+03  0.96974764565E+03  0.50400001928E-02 0. -1.
        1   -1    0    0  501    0  0.00000000000E+00  0.00000000000E+00 -0.93064898804E+03  0.93064898806E+03  0.50400001928E-02 0.  1.
    10030    2    1    2    0    0  0.00000000000E+00  0.00000000000E+00  0.39098657589E+02  0.19003966337E+04  0.18999943843E+04 0.  0.
        3    1    3    3  502    0 -0.14206578064E+03  0.16003551596E+03 -0.90622785093E+03  0.93115142721E+03  0.10100000352E+00 0.  1.
       -3    1    3    3    0  502  0.14206578064E+03 -0.16003551596E+03  0.94532650852E+03  0.96924520649E+03  0.10100000352E+00 0. -1.
</event>
<event>
 5   0  0.1810569E-04  0.1901592E+04  0.7818609E-02  0.8654064E-01
        2   -1    0    0  501    0  0.00000000000E+00  0.00000000000E+00  0.10228079634E+04  0.10228079634E+04  0.25500000920E-02 0.  1.
       -2   -1    0    0    0  501  0.00000000000E+00  0.00000000000E+00 -0.88385434659E+03  0.88385434659E+03  0.25500000920E-02 0. -1.
    10030    2    1    2    0    0  0.00000000000E+00  0.00000000000E+00  0.13895361686E+03  0.19066623100E+04  0.19015922425E+04 0.  0.
        4    1    3    3  502    0  0.39279305339E+02 -0.46987630018E+03  0.89732035863E+03  0.10136626856E+04  0.12699999809E+01 0.  1.
       -4    1    3    3    0  502 -0.39279305339E+02  0.46987630018E+03 -0.75836674177E+03  0.89299962442E+03  0.12699999809E+01 0. -1.
</event>
<event>
 5   0  0.8567844E-05  0.1910987E+04  0.7818609E-02  0.8649407E-01
       -1   -1    0    0    0  501  0.00000000000E+00  0.00000000000E+00  0.12904000680E+04  0.12904000680E+04  0.50400001928E-02 0. -1.
        1   -1    0    0  501    0  0.00000000000E+00  0.00000000000E+00 -0.70750757099E+03  0.70750757101E+03  0.50400001928E-02 0.  1.
    10030    2    1    2    0    0  0.00000000000E+00  0.00000000000E+00  0.58289249698E+03  0.19979076390E+04  0.19109869887E+04 0.  0.
        4    1    3    3  502    0 -0.23645868762E+03 -0.51150590561E+03  0.10981751886E+04  0.12343181762E+04  0.12699999809E+01 0. -1.
       -4    1    3    3    0  502  0.23645868762E+03  0.51150590561E+03 -0.51528269163E+03  0.76358946274E+03  0.12699999809E+01 0.  1.
</event>
<event>
 5   0  0.1765328E-04  0.1899693E+04  0.7818609E-02  0.8655009E-01
       -2   -1    0    0    0  501  0.00000000000E+00  0.00000000000E+00  0.54858971684E+03  0.54858971684E+03  0.25500000920E-02 0. -1.
        2   -1    0    0  501    0  0.00000000000E+00  0.00000000000E+00 -0.16445954868E+04  0.16445954868E+04  0.25500000920E-02 0.  1.
    10030    2    1    2    0    0  0.00000000000E+00  0.00000000000E+00 -0.10960057699E+04  0.21931852036E+04  0.18996927882E+04 0.  0.
        3    1    3    3  502    0 -0.54118194908E+03 -0.23371088994E+03 -0.14078569075E+04  0.15262895414E+04  0.10100000352E+00 0.  1.
       -3    1    3    3    0  502  0.54118194908E+03  0.23371088994E+03  0.31185113754E+03  0.66689566221E+03  0.10100000352E+00 0. -1.
</event>
<event>
 5   0  0.1765328E-04  0.1892282E+04  0.7818609E-02  0.8658708E-01
       -2   -1    0    0    0  501  0.00000000000E+00  0.00000000000E+00  0.55762858816E+03  0.55762858817E+03  0.25500000920E-02 0. -1.
        2   -1    0    0  501    0  0.00000000000E+00  0.00000000000E+00 -0.16053379510E+04  0.16053379510E+04  0.25500000920E-02 0.  1.
    10030    2    1    2    0    0  0.00000000000E+00  0.00000000000E+00 -0.10477093628E+04  0.21629665392E+04  0.18922815173E+04 0.  0.
        3    1    3    3  502    0  0.69280005213E+01 -0.17576889899E+03 -0.15864823996E+04  0.15962045976E+04  0.10100000352E+00 0.  1.
       -3    1    3    3    0  502 -0.69280005213E+01  0.17576889899E+03  0.53877303676E+03  0.56676194154E+03  0.10100000352E+00 0. -1.
</event>
<event>
 5   0  0.1765328E-04  0.1893055E+04  0.7818609E-02  0.8658321E-01
       -2   -1    0    0    0  501  0.00000000000E+00  0.00000000000E+00  0.46548898039E+03  0.46548898040E+03  0.25500000920E-02 0. -1.
        2   -1    0    0  501    0  0.00000000000E+00  0.00000000000E+00 -0.19246740139E+04  0.19246740139E+04  0.25500000920E-02 0.  1.
    10030    2    1    2    0    0  0.00000000000E+00  0.00000000000E+00 -0.14591850335E+04  0.23901629943E+04  0.18930552494E+04 0.  0.
        3    1    3    3  502    0 -0.17710506760E+03  0.58127772784E+03  0.18669393491E+03  0.63569225053E+03  0.10100000352E+00 0. -1.
       -3    1    3    3    0  502  0.17710506760E+03 -0.58127772784E+03 -0.16458789684E+04  0.17544707437E+04  0.10100000352E+00 0.  1.
</event>
<event>
 5   0  0.8602017E-05  0.1910261E+04  0.7818609E-02  0.8649766E-01
        1   -1    0    0  501    0  0.00000000000E+00  0.00000000000E+00  0.13142328531E+04  0.13142328531E+04  0.50400001928E-02 0. -1.
       -1   -1    0    0    0  501  0.00000000000E+00  0.00000000000E+00 -0.69414940564E+03  0.69414940566E+03  0.50400001928E-02 0.  1.
    10030    2    1    2    0    0  0.00000000000E+00  0.00000000000E+00  0.62008344748E+03  0.20083822588E+04  0.19102606669E+04 0.  0.
        2    1    3    3  502    0  0.25019100772E+03  0.86533851302E+03 -0.23868518311E+02  0.90109710278E+03  0.25500000920E-02 0.  1.
       -2    1    3    3    0  502 -0.25019100772E+03 -0.86533851302E+03  0.64395196579E+03  0.11072851560E+04  0.25500000920E-02 0. -1.
</event>
<event>
 5   0  0.1790832E-04  0.1894425E+04  0.7818609E-02  0.8657636E-01
       -2   -1    0    0    0  501  0.00000000000E+00  0.00000000000E+00  0.84224852964E+03  0.84224852965E+03  0.25500000920E-02 0.  1.
        2   -1    0    0  501    0  0.00000000000E+00  0.00000000000E+00 -0.10652575160E+04  0.10652575160E+04  0.25500000920E-02 0. -1.
    10030    2    1    2    0    0  0.00000000000E+00  0.00000000000E+00 -0.22300898631E+03  0.19075060456E+04  0.18944250595E+04 0.  0.
        5    1    3    3  502    0  0.15989330666E+03 -0.47002955812E+03  0.70072266249E+03  0.85879450089E+03  0.46999998093E+01 0.  1.
       -5    1    3    3    0  502 -0.15989330666E+03  0.47002955812E+03 -0.92373164880E+03  0.10487115447E+04  0.46999998093E+01 0. -1.
</event>
<event>
 5   0  0.1790832E-04  0.1902021E+04  0.7818609E-02  0.8653851E-01
       -2   -1    0    0    0  501  0.00000000000E+00  0.00000000000E+00  0.87449277865E+03  0.87449277865E+03  0.25500000920E-02 0.  1.
        2   -1    0    0  501    0  0.00000000000E+00  0.00000000000E+00 -0.10342238264E+04  0.10342238264E+04  0.25500000920E-02 0. -1.
    10030    2    1    2    0    0  0.00000000000E+00  0.00000000000E+00 -0.15973104776E+03  0.19087166051E+04  0.19020213119E+04 0.  0.
        5    1    3    3  502    0  0.33781261226E+03  0.17814619649E+03  0.79414560463E+03  0.88121663606E+03  0.46999998093E+01 0.  1.
       -5    1    3    3    0  502 -0.33781261226E+03 -0.17814619649E+03 -0.95387665239E+03  0.10274999690E+04  0.46999998093E+01 0. -1.
</event>
<event>
 5   0  0.1810569E-04  0.1911677E+04  0.7818609E-02  0.8649066E-01
       -2   -1    0    0    0  501  0.00000000000E+00  0.00000000000E+00  0.28481646130E+03  0.28481646131E+03  0.25500000920E-02 0.  1.
        2   -1    0    0  501    0  0.00000000000E+00  0.00000000000E+00 -0.32077742942E+04  0.32077742942E+04  0.25500000920E-02 0. -1.
    10030    2    1    2    0    0  0.00000000000E+00  0.00000000000E+00 -0.29229578329E+04  0.34925907555E+04  0.19116766705E+04 0.  0.
        4    1    3    3  502    0 -0.76449349315E+02 -0.55141764249E+02 -0.31992605467E+04  0.32006491179E+04  0.12699999809E+01 0. -1.
       -4    1    3    3    0  502  0.76449349315E+02  0.55141764249E+02  0.27630271385E+03  0.29194163758E+03  0.12699999809E+01 0.  1.
</event>
<event>
 5   0  0.1810569E-04  0.1882209E+04  0.7818609E-02  0.8663763E-01
        2   -1    0    0  501    0  0.00000000000E+00  0.00000000000E+00  0.22472417479E+04  0.22472417479E+04  0.25500000920E-02 0.  1.
       -2   -1    0    0    0  501  0.00000000000E+00  0.00000000000E+00 -0.39411775788E+03  0.39411775789E+03  0.25500000920E-02 0. -1.
    10030    2    1    2    0    0  0.00000000000E+00  0.00000000000E+00  0.18531239901E+04  0.26413595058E+04  0.18822092117E+04 0.  0.
        4    1    3    3  502    0  0.41344423312E+03 -0.70496432906E+03  0.27169351650E+03  0.86123737666E+03  0.12699999809E+01 0. -1.
       -4    1    3    3    0  502 -0.41344423312E+03  0.70496432906E+03  0.15814304736E+04  0.17801221292E+04  0.12699999809E+01 0.  1.
</event>
<event>
 5   0  0.8602017E-05  0.1891726E+04  0.7818609E-02  0.8658986E-01
       -1   -1    0    0    0  501  0.00000000000E+00  0.00000000000E+00  0.82801664819E+03  0.82801664821E+03  0.50400001928E-02 0.  1.
        1   -1    0    0  501    0  0.00000000000E+00  0.00000000000E+00 -0.10804822081E+04  0.10804822082E+04  0.50400001928E-02 0. -1.
    10030    2    1    2    0    0  0.00000000000E+00  0.00000000000E+00 -0.25246555994E+03  0.19084988564E+04  0.18917264670E+04 0.  0.
        2    1    3    3  502    0 -0.44761937071E+03  0.62979418832E+03 -0.67664619966E+03  0.10270608065E+04  0.25500000920E-02 0. -1.
       -2    1    3    3    0  502  0.44761937071E+03 -0.62979418832E+03  0.42418063971E+03  0.88143804989E+03  0.25500000920E-02 0.  1.
</event>
<event>
 5   0  0.1765328E-04  0.1882368E+04  0.7818609E-02  0.8663683E-01
       -2   -1    0    0    0  501  0.00000000000E+00  0.00000000000E+00  0.10268701792E+04  0.10268701792E+04  0.25500000920E-02 0.  1.
        2   -1    0    0  501    0  0.00000000000E+00  0.00000000000E+00 -0.86264738790E+03  0.86264738791E+03  0.25500000920E-02 0. -1.
    10030    2    1    2    0    0  0.00000000000E+00  0.00000000000E+00  0.16422279132E+03  0.18895175671E+04  0.18823675282E+04 0.  0.
        3    1    3    3  502    0  0.45323630024E+03 -0.20338489691E+03  0.88454657092E+03  0.10145004714E+04  0.10100000352E+00 0.  1.
       -3    1    3    3    0  502 -0.45323630024E+03  0.20338489691E+03 -0.72032377960E+03  0.87501709573E+03  0.10100000352E+00 0. -1.
</event>
<event>
 5   0  0.8567844E-05  0.1930178E+04  0.7818609E-02  0.8639979E-01
        1   -1    0    0  501    0  0.00000000000E+00  0.00000000000E+00  0.24431787691E+04  0.24431787691E+04  0.50400001928E-02 0.  1.
       -1   -1    0    0    0  501  0.00000000000E+00  0.00000000000E+00 -0.38122331614E+03  0.38122331618E+03  0.50400001928E-02 0. -1.
    10030    2    1    2    0    0  0.00000000000E+00  0.00000000000E+00  0.20619554530E+04  0.28244020853E+04  0.19301779321E+04 0.  0.
        4    1    3    3  502    0  0.46624228789E+03 -0.17222848337E+03 -0.17953259456E+03  0.52846767821E+03  0.12699999809E+01 0. -1.
       -4    1    3    3    0  502 -0.46624228789E+03  0.17222848337E+03  0.22414880475E+04  0.22959344071E+04  0.12699999809E+01 0.  1.
</event>
<event>
 5   0  0.1799738E-04  0.1832882E+04  0.7818609E-02  0.8689006E-01
       -2   -1    0    0    0  501  0.00000000000E+00  0.00000000000E+00  0.92727932379E+03  0.92727932379E+03  0.25500000920E-02 0. -1.
        2   -1    0    0  501    0  0.00000000000E+00  0.00000000000E+00 -0.90572933998E+03  0.90572933999E+03  0.25500000920E-02 0.  1.
    10030    2    1    2    0    0  0.00000000000E+00  0.00000000000E+00  0.21549983803E+02  0.18330086638E+04  0.18328819819E+04 0.  0.
        1    1    3    3  502    0 -0.32265629822E+03 -0.60453940016E+02  0.86646391202E+03  0.92656434019E+03  0.50400001928E-02 0. -1.
       -1    1    3    3    0  502  0.32265629822E+03  0.60453940016E+02 -0.84491392822E+03  0.90644432359E+03  0.50400001928E-02 0.  1.
</event>
<event>
 5   0  0.1658711E-04  0.1897724E+04  0.7818609E-02  0.8655990E-01
       -2   -1    0    0    0  501  0.00000000000E+00  0.00000000000E+00  0.45029554929E+03  0.45029554929E+03  0.25500000920E-02 0.  1.
        2   -1    0    0  501    0  0.00000000000E+00  0.00000000000E+00 -0.19994410312E+04  0.19994410312E+04  0.25500000920E-02 0. -1.
    10030    2    1    2    0    0  0.00000000000E+00  0.00000000000E+00 -0.15491454819E+04  0.24497365805E+04  0.18977243187E+04 0.  0.
        2    1    3    3  502    0  0.28934824472E+03  0.37486555940E+03  0.28685252388E+03  0.55365238626E+03  0.25500000920E-02 0.  1.
       -2    1    3    3    0  502 -0.28934824472E+03 -0.37486555940E+03 -0.18359980058E+04  0.18960841942E+04  0.25500000920E-02 0. -1.
</event>
<event>
 5   0  0.8567844E-05  0.1894427E+04  0.7818609E-02  0.8657635E-01
        1   -1    0    0  501    0  0.00000000000E+00  0.00000000000E+00  0.12140946107E+04  0.12140946107E+04  0.50400001928E-02 0.  1.
       -1   -1    0    0    0  501  0.00000000000E+00  0.00000000000E+00 -0.73899791803E+03  0.73899791805E+03  0.50400001928E-02 0. -1.
    10030    2    1    2    0    0  0.00000000000E+00  0.00000000000E+00  0.47509669271E+03  0.19530925288E+04  0.18944269737E+04 0.  0.
        4    1    3    3  502    0 -0.70966249526E+02 -0.16437606234E+03  0.11964899958E+04  0.12098122256E+04  0.12699999809E+01 0.  1.
       -4    1    3    3    0  502  0.70966249526E+02  0.16437606234E+03 -0.72139330306E+03  0.74328030315E+03  0.12699999809E+01 0. -1.
</event>
<event>
 5   0  0.8602017E-05  0.1887444E+04  0.7818609E-02  0.8661132E-01
        1   -1    0    0  501    0  0.00000000000E+00  0.00000000000E+00  0.11749450839E+04  0.11749450839E+04  0.50400001928E-02 0. -1.
       -1   -1    0    0    0  501  0.00000000000E+00  0.00000000000E+00 -0.75800221263E+03  0.75800221265E+03  0.50400001928E-02 0.  1.
    10030    2    1    2    0    0  0.00000000000E+00  0.00000000000E+00  0.41694287128E+03  0.19329472966E+04  0.18874437458E+04 0.  0.
        2    1    3    3  502    0 -0.72443794861E+02  0.73283436472E+03  0.81288349685E+03  0.10968472496E+04  0.25500000920E-02 0. -1.
       -2    1    3    3    0  502  0.72443794861E+02 -0.73283436472E+03 -0.39594062557E+03  0.83610004695E+03  0.25500000920E-02 0.  1.
</event>
<event>
 5   0  0.1810569E-04  0.1864605E+04  0.7818609E-02  0.8672678E-01
       -2   -1    0    0    0  501  0.00000000000E+00  0.00000000000E+00  0.64893672602E+03  0.64893672603E+03  0.25500000920E-02 0.  1.
        2   -1    0    0  501    0  0.00000000000E+00  0.00000000000E+00 -0.13394038320E+04  0.13394038320E+04  0.25500000920E-02 0. -1.
    10030    2    1    2    0    0  0.00000000000E+00  0.00000000000E+00 -0.69046710600E+03  0.19883405580E+04  0.18646054141E+04 0.  0.
        4    1    3    3  502    0 -0.88443602637E+01  0.18259262422E+03 -0.13201037933E+04  0.13327017398E+04  0.12699999809E+01 0. -1.
       -4    1    3    3    0  502  0.88443602637E+01 -0.18259262422E+03  0.62963668732E+03  0.65563881829E+03  0.12699999809E+01 0.  1.
</event>
<event>
 5   0  0.1810569E-04  0.1872401E+04  0.7818609E-02  0.8668718E-01
       -2   -1    0    0    0  501  0.00000000000E+00  0.00000000000E+00  0.35432937711E+03  0.35432937712E+03  0.25500000920E-02 0. -1.
        2   -1    0    0  501    0  0.00000000000E+00  0.00000000000E+00 -0.24736049828E+04  0.24736049828E+04  0.25500000920E-02 0.  1.
    10030    2    1    2    0    0  0.00000000000E+00  0.00000000000E+00 -0.21192756056E+04  0.28279343599E+04  0.18724005050E+04 0.  0.
        4    1    3    3  502    0 -0.39955713668E+03  0.76022057227E+03 -0.16225012626E+04  0.18357813551E+04  0.12699999809E+01 0.  1.
       -4    1    3    3    0  502  0.39955713668E+03 -0.76022057227E+03 -0.49677434308E+03  0.99215300474E+03  0.12699999809E+01 0. -1.
</event>
<event>
 5   0  0.8567844E-05  0.1892810E+04  0.7818609E-02  0.8658444E-01
        1   -1    0    0  501    0  0.00000000000E+00  0.00000000000E+00  0.89072816228E+03  0.89072816230E+03  0.50400001928E-02 0.  1.
       -1   -1    0    0    0  501  0.00000000000E+00  0.00000000000E+00 -0.10055620110E+04  0.10055620111E+04  0.50400001928E-02 0. -1.
    10030    2    1    2    0    0  0.00000000000E+00  0.00000000000E+00 -0.11483384877E+03  0.18962901734E+04  0.18928099769E+04 0.  0.
        4    1    3    3  502    0  0.60007718462E+03  0.42704445918E+03 -0.65283381960E+03  0.98420181189E+03  0.12699999809E+01 0. -1.
       -4    1    3    3    0  502 -0.60007718462E+03 -0.42704445918E+03  0.53799997083E+03  0.91208836147E+03  0.12699999809E+01 0.  1.
</event>
<event>
 5   0  0.8602017E-05  0.1922673E+04  0.7818609E-02  0.8643652E-01
        1   -1    0    0  501    0  0.00000000000E+00  0.00000000000E+00  0.10095824745E+04  0.10095824745E+04  0.50400001928E-02 0. -1.
       -1   -1    0    0    0  501  0.00000000000E+00  0.00000000000E+00 -0.91539626164E+03  0.91539626165E+03  0.50400001928E-02 0.  1.
    10030    2    1    2    0    0  0.00000000000E+00  0.00000000000E+00  0.94186212890E+02  0.19249787362E+04  0.19226731631E+04 0.  0.
        2    1    3    3  502    0 -0.57971211509E+03 -0.17259742430E+03  0.79519190878E+03  0.99909267791E+03  0.25500000920E-02 0. -1.
       -2    1    3    3    0  502  0.57971211509E+03  0.17259742430E+03 -0.70100569589E+03  0.92588605829E+03  0.25500000920E-02 0.  1.
</event>
<event>
 5   0  0.1790832E-04  0.1916369E+04  0.7818609E-02  0.8646751E-01
       -2   -1    0    0    0  501  0.00000000000E+00  0.00000000000E+00  0.10610896021E+04  0.10610896021E+04  0.25500000920E-02 0. -1.
        2   -1    0    0  501    0  0.00000000000E+00  0.00000000000E+00 -0.86525918943E+03  0.86525918943E+03  0.25500000920E-02 0.  1.
    10030    2    1    2    0    0  0.00000000000E+00  0.00000000000E+00  0.19583041265E+03  0.19263487915E+04  0.19163689927E+04 0.  0.
        5    1    3    3  502    0 -0.86292256059E+03 -0.32695772258E+03 -0.16141812506E+03  0.93681086620E+03  0.46999998093E+01 0. -1.
       -5    1    3    3    0  502  0.86292256059E+03  0.32695772258E+03  0.35724853771E+03  0.98953792531E+03  0.46999998093E+01 0.  1.
</event>
<event>
 5   0  0.1790832E-04  0.1926616E+04  0.7818609E-02  0.8641720E-01
       -2   -1    0    0    0  501  0.00000000000E+00  0.00000000000E+00  0.16316044429E+04  0.16316044429E+04  0.25500000920E-02 0.  1.
        2   -1    0    0  501    0  0.00000000000E+00  0.00000000000E+00 -0.56874236694E+03  0.56874236694E+03  0.25500000920E-02 0. -1.
    10030    2    1    2    0    0  0.00000000000E+00  0.00000000000E+00  0.10628620760E+04  0.22003468099E+04  0.19266162802E+04 0.  0.
        5    1    3    3  502    0 -0.79556319611E+03  0.54306738304E+03  0.54270823017E+03  0.11056207734E+04  0.46999998093E+01 0.  1.
       -5    1    3    3    0  502  0.79556319611E+03 -0.54306738304E+03  0.52015384580E+03  0.10947260364E+04  0.46999998093E+01 0. -1.
</event>
<event>
 5   0  0.8587082E-05  0.1899226E+04  0.7818609E-02  0.8655242E-01
        1   -1    0    0  501    0  0.00000000000E+00  0.00000000000E+00  0.18451530052E+04  0.18451530052E+04  0.50400001928E-02 0.  1.
       -1   -1    0    0    0  501  0.00000000000E+00  0.00000000000E+00 -0.48872113078E+03  0.48872113081E+03  0.50400001928E-02 0. -1.
    10030    2    1    2    0    0  0.00000000000E+00  0.00000000000E+00  0.13564318744E+04  0.23338741360E+04  0.18992264354E+04 0.  0.
        5    1    3    3  502    0  0.67154912871E+03 -0.94572397158E+02  0.14950312353E+04  0.16416645988E+04  0.46999998093E+01 0.  1.
       -5    1    3    3    0  502 -0.67154912871E+03  0.94572397158E+02 -0.13859936085E+03  0.69220953721E+03  0.46999998093E+01 0. -1.
</event>
<event>
 5   0  0.1658711E-04  0.1773305E+04  0.7818609E-02  0.8720626E-01
       -2   -1    0    0    0  501  0.00000000000E+00  0.00000000000E+00  0.57651103168E+03  0.57651103168E+03  0.25500000920E-02 0. -1.
        2   -1    0    0  501    0  0.00000000000E+00  0.00000000000E+00 -0.13636382923E+04  0.13636382924E+04  0.25500000920E-02 0.  1.
    10030    2    1    2    0    0  0.00000000000E+00  0.00000000000E+00 -0.78712726067E+03  0.19401493240E+04  0.17733048455E+04 0.  0.
        2    1    3    3  502    0 -0.70003940270E+03  0.43168208019E+01 -0.98889031853E+03  0.12116013628E+04  0.25500000920E-02 0.  1.
       -2    1    3    3    0  502  0.70003940270E+03 -0.43168208019E+01  0.20176305787E+03  0.72854796122E+03  0.25500000920E-02 0. -1.
</event>
<event>
 5   0  0.8567844E-05  0.1706087E+04  0.7818609E-02  0.8757901E-01
        1   -1    0    0  501    0  0.00000000000E+00  0.00000000000E+00  0.19886003197E+04  0.19886003197E+04  0.50400001928E-02 0.  1.
       -1   -1    0    0    0  501  0.00000000000E+00  0.00000000000E+00 -0.36592716820E+03  0.36592716824E+03  0.50400001928E-02 0. -1.
    10030    2    1    2    0    0  0.00000000000E+00  0.00000000000E+00  0.16226731515E+04  0.23545274879E+04  0.17060866141E+04 0.  0.
        4    1    3    3  502    0 -0.13950835509E+03 -0.39130717862E+03  0.18395594920E+04  0.18858856345E+04  0.12699999809E+01 0.  1.
       -4    1    3    3    0  502  0.13950835509E+03  0.39130717862E+03 -0.21688634047E+03  0.46864185341E+03  0.12699999809E+01 0. -1.
</event>
<event>
 5   0  0.1765328E-04  0.1895996E+04  0.7818609E-02  0.8656852E-01
        2   -1    0    0  501    0  0.00000000000E+00  0.00000000000E+00  0.17195591780E+04  0.17195591780E+04  0.25500000920E-02 0. -1.
       -2   -1    0    0    0  501  0.00000000000E+00  0.00000000000E+00 -0.52263405463E+03  0.52263405464E+03  0.25500000920E-02 0.  1.
    10030    2    1    2    0    0  0.00000000000E+00  0.00000000000E+00  0.11969251233E+04  0.22421932326E+04  0.18959959761E+04 0.  0.
        3    1    3    3  502    0 -0.77664951396E+03  0.74457468244E+01 -0.44351206574E+02  0.77795047812E+03  0.10100000352E+00 0.  1.
       -3    1    3    3    0  502  0.77664951396E+03 -0.74457468244E+01  0.12412763299E+04  0.14642427545E+04  0.10100000352E+00 0. -1.
</event>
<event>
 5   0  0.6375750E-05  0.1927313E+04  0.7818609E-02  0.8641379E-01
        4   -1    0    0  501    0  0.00000000000E+00  0.00000000000E+00  0.41746784546E+03  0.41746977722E+03  0.12699999809E+01 0. -1.
       -4   -1    0    0    0  501  0.00000000000E+00  0.00000000000E+00 -0.22244357938E+04  0.22244361563E+04  0.12699999809E+01 0.  1.
    10030    2    1    2    0    0  0.00000000000E+00  0.00000000000E+00 -0.18069679483E+04  0.26419059336E+04  0.19273125837E+04 0.  0.
        2    1    3    3  502    0 -0.52556006765E+03 -0.34674900136E+03  0.96508167757E+02  0.63699456913E+03  0.25500000920E-02 0. -1.
       -2    1    3    3    0  502  0.52556006765E+03  0.34674900136E+03 -0.19034761161E+04  0.20049113644E+04  0.25500000920E-02 0.  1.
</event>
<event>
 5   0  0.1658711E-04  0.1894249E+04  0.7818609E-02  0.8657724E-01
        2   -1    0    0  501    0  0.00000000000E+00  0.00000000000E+00  0.70166538052E+03  0.70166538052E+03  0.25500000920E-02 0. -1.
       -2   -1    0    0    0  501  0.00000000000E+00  0.00000000000E+00 -0.12784510366E+04  0.12784510366E+04  0.25500000920E-02 0.  1.
    10030    2    1    2    0    0  0.00000000000E+00  0.00000000000E+00 -0.57678565611E+03  0.19801164171E+04  0.18942490154E+04 0.  0.
        2    1    3    3  502    0 -0.88560454178E+03 -0.22053018751E+03 -0.55308214150E+03  0.10671592305E+04  0.25500000920E-02 0. -1.
       -2    1    3    3    0  502  0.88560454178E+03  0.22053018751E+03 -0.23703514611E+02  0.91295718664E+03  0.25500000920E-02 0.  1.
</event>
<event>
 5   0  0.8681396E-05  0.1916488E+04  0.7818609E-02  0.8646692E-01
       -1   -1    0    0    0  501  0.00000000000E+00  0.00000000000E+00  0.92962377638E+03  0.92962377639E+03  0.50400001928E-02 0.  1.
        1   -1    0    0  501    0  0.00000000000E+00  0.00000000000E+00 -0.98774542586E+03  0.98774542587E+03  0.50400001928E-02 0. -1.
    10030    2    1    2    0    0  0.00000000000E+00  0.00000000000E+00 -0.58121649479E+02  0.19173692023E+04  0.19164880724E+04 0.  0.
        3    1    3    3  502    0  0.45038414185E+03 -0.26488032117E+03  0.77456694943E+03  0.93432404931E+03  0.10100000352E+00 0.  1.
       -3    1    3    3    0  502 -0.45038414185E+03  0.26488032117E+03 -0.83268859891E+03  0.98304515295E+03  0.10100000352E+00 0. -1.
</event>
<event>
 5   0  0.1658711E-04  0.1825839E+04  0.7818609E-02  0.8692678E-01
        2   -1    0    0  501    0  0.00000000000E+00  0.00000000000E+00  0.23902541932E+04  0.23902541932E+04  0.25500000920E-02 0. -1.
       -2   -1    0    0    0  501  0.00000000000E+00  0.00000000000E+00 -0.34867490281E+03  0.34867490282E+03  0.25500000920E-02 0.  1.
    10030    2    1    2    0    0  0.00000000000E+00  0.00000000000E+00  0.20415792904E+04  0.27389290960E+04  0.18258386002E+04 0.  0.
        2    1    3    3  502    0 -0.38007378653E+03  0.43948325782E+03 -0.35493718008E+02  0.58211804742E+03  0.25500000920E-02 0.  1.
       -2    1    3    3    0  502  0.38007378653E+03 -0.43948325782E+03  0.20770730084E+04  0.21568110486E+04  0.25500000920E-02 0. -1.
</event>
<event>
 5   0  0.8587082E-05  0.1905029E+04  0.7818609E-02  0.8652357E-01
       -1   -1    0    0    0  501  0.00000000000E+00  0.00000000000E+00  0.46157909699E+03  0.46157909702E+03  0.50400001928E-02 0.  1.
        1   -1    0    0  501    0  0.00000000000E+00  0.00000000000E+00 -0.19656092213E+04  0.19656092213E+04  0.50400001928E-02 0. -1.
    10030    2    1    2    0    0  0.00000000000E+00  0.00000000000E+00 -0.15040301243E+04  0.24271883184E+04  0.19050292695E+04 0.  0.
        5    1    3    3  502    0  0.39359916281E+03  0.84549703552E+03 -0.50536493652E+03  0.10607550835E+04  0.46999998093E+01 0. -1.
       -5    1    3    3    0  502 -0.39359916281E+03 -0.84549703552E+03 -0.99866518782E+03  0.13664332349E+04  0.46999998093E+01 0.  1.
</event>
<event>
 5   0  0.8567844E-05  0.1891462E+04  0.7818609E-02  0.8659118E-01
       -1   -1    0    0    0  501  0.00000000000E+00  0.00000000000E+00  0.59007658031E+03  0.59007658033E+03  0.50400001928E-02 0. -1.
        1   -1    0    0  501    0  0.00000000000E+00  0.00000000000E+00 -0.15157481758E+04  0.15157481758E+04  0.50400001928E-02 0.  1.
    10030    2    1    2    0    0  0.00000000000E+00  0.00000000000E+00 -0.92567159553E+03  0.21058247562E+04  0.18914623975E+04 0.  0.
        4    1    3    3  502    0 -0.67905118257E+03 -0.76966938023E+02 -0.11906613156E+04  0.13728475514E+04  0.12699999809E+01 0.  1.
       -4    1    3    3    0  502  0.67905118257E+03  0.76966938023E+02  0.26498972005E+03  0.73297720478E+03  0.12699999809E+01 0. -1.
</event>
<event>
 5   0  0.1765328E-04  0.1905937E+04  0.7818609E-02  0.8651907E-01
        2   -1    0    0  501    0  0.00000000000E+00  0.00000000000E+00  0.14937977724E+04  0.14937977724E+04  0.25500000920E-02 0. -1.
       -2   -1    0    0    0  501  0.00000000000E+00  0.00000000000E+00 -0.60794616812E+03  0.60794616812E+03  0.25500000920E-02 0.  1.
    10030    2    1    2    0    0  0.00000000000E+00  0.00000000000E+00  0.88585160429E+03  0.21017439405E+04  0.19059366534E+04 0.  0.
        3    1    3    3  502    0  0.46428020575E+03 -0.12407493885E+03  0.13503892693E+04  0.14333533719E+04  0.10100000352E+00 0. -1.
       -3    1    3    3    0  502 -0.46428020575E+03  0.12407493885E+03 -0.46453766498E+03  0.66839056867E+03  0.10100000352E+00 0.  1.
</event>
<event>
 5   0  0.8681396E-05  0.2108447E+04  0.7818609E-02  0.8557531E-01
        1   -1    0    0  501    0  0.00000000000E+00  0.00000000000E+00  0.12798067702E+04  0.12798067702E+04  0.50400001928E-02 0. -1.
       -1   -1    0    0    0  501  0.00000000000E+00  0.00000000000E+00 -0.86840242872E+03  0.86840242873E+03  0.50400001928E-02 0.  1.
    10030    2    1    2    0    0  0.00000000000E+00  0.00000000000E+00  0.41140434143E+03  0.21482091989E+04  0.21084471134E+04 0.  0.
        3    1    3    3  502    0  0.84280158455E+03 -0.47510403868E+03 -0.22094162152E+03  0.99239788836E+03  0.10100000352E+00 0. -1.
       -3    1    3    3    0  502 -0.84280158455E+03  0.47510403868E+03  0.63234596295E+03  0.11558113105E+04  0.10100000352E+00 0.  1.
</event>
<event>
 5   0  0.8602017E-05  0.1896990E+04  0.7818609E-02  0.8656356E-01
        1   -1    0    0  501    0  0.00000000000E+00  0.00000000000E+00  0.79544853497E+03  0.79544853499E+03  0.50400001928E-02 0. -1.
       -1   -1    0    0    0  501  0.00000000000E+00  0.00000000000E+00 -0.11309876462E+04  0.11309876462E+04  0.50400001928E-02 0.  1.
    10030    2    1    2    0    0  0.00000000000E+00  0.00000000000E+00 -0.33553911122E+03  0.19264361812E+04  0.18969896850E+04 0.  0.
        2    1    3    3  502    0  0.50561259704E+03  0.23093292735E+02  0.64684495989E+03  0.82133172385E+03  0.25500000920E-02 0. -1.
       -2    1    3    3    0  502 -0.50561259704E+03 -0.23093292735E+02 -0.98238407111E+03  0.11051044573E+04  0.25500000920E-02 0.  1.
</event>
<event>
 5   0  0.8602017E-05  0.1876822E+04  0.7818609E-02  0.8666480E-01
       -1   -1    0    0    0  501  0.00000000000E+00  0.00000000000E+00  0.48620613352E+03  0.48620613355E+03  0.50400001928E-02 0. -1.
        1   -1    0    0  501    0  0.00000000000E+00  0.00000000000E+00 -0.18111970760E+04  0.18111970760E+04  0.50400001928E-02 0.  1.
    10030    2    1    2    0    0  0.00000000000E+00  0.00000000000E+00 -0.13249909425E+04  0.22974032096E+04  0.18768219174E+04 0.  0.
        2    1    3    3  502    0 -0.39852338596E+03 -0.82817390046E+03 -0.89449964329E+03  0.12825063393E+04  0.25500000920E-02 0. -1.
       -2    1    3    3    0  502  0.39852338596E+03  0.82817390046E+03 -0.43049129922E+03  0.10148968703E+04  0.25500000920E-02 0.  1.
</event>
<event>
 5   0  0.1810569E-04  0.1905315E+04  0.7818609E-02  0.8652216E-01
        2   -1    0    0  501    0  0.00000000000E+00  0.00000000000E+00  0.85605561636E+03  0.85605561637E+03  0.25500000920E-02 0. -1.
       -2   -1    0    0    0  501  0.00000000000E+00  0.00000000000E+00 -0.10601599369E+04  0.10601599369E+04  0.25500000920E-02 0.  1.
    10030    2    1    2    0    0  0.00000000000E+00  0.00000000000E+00 -0.20410432049E+03  0.19162155532E+04  0.19053145338E+04 0.  0.
        4    1    3    3  502    0 -0.58298643244E+03 -0.15700198047E+03  0.63907063802E+03  0.87916761517E+03  0.12699999809E+01 0. -1.
       -4    1    3    3    0  502  0.58298643244E+03  0.15700198047E+03 -0.84317495851E+03  0.10370479381E+04  0.12699999809E+01 0.  1.
</event>
<event>
 5   0  0.8905646E-05  0.1993268E+04  0.7818609E-02  0.8609775E-01
       -1   -1    0    0    0  501  0.00000000000E+00  0.00000000000E+00  0.54894290352E+03  0.54894290354E+03  0.50400001928E-02 0. -1.
        1   -1    0    0  501    0  0.00000000000E+00  0.00000000000E+00 -0.18094393816E+04  0.18094393816E+04  0.50400001928E-02 0.  1.
    10030    2    1    2    0    0  0.00000000000E+00  0.00000000000E+00 -0.12604964781E+04  0.23583822851E+04  0.19932675765E+04 0.  0.
        1    1    3    3  502    0 -0.73434732138E+03  0.66858777533E+03 -0.72926304881E+03  0.12321120875E+04  0.50400001928E-02 0.  1.
       -1    1    3    3    0  502  0.73434732138E+03 -0.66858777533E+03 -0.53123342925E+03  0.11262701976E+04  0.50400001928E-02 0. -1.
</event>
<event>
 5   0  0.8905646E-05  0.1900716E+04  0.7818609E-02  0.8654500E-01
       -1   -1    0    0    0  501  0.00000000000E+00  0.00000000000E+00  0.22628942211E+04  0.22628942211E+04  0.50400001928E-02 0.  1.
        1   -1    0    0  501    0  0.00000000000E+00  0.00000000000E+00 -0.39912629463E+03  0.39912629466E+03  0.50400001928E-02 0. -1.
    10030    2    1    2    0    0  0.00000000000E+00  0.00000000000E+00  0.18637679264E+04  0.26620205157E+04  0.19007162709E+04 0.  0.
        1    1    3    3  502    0  0.50261113485E+03 -0.62271644765E+03  0.21393110742E+03  0.82834790142E+03  0.50400001928E-02 0. -1.
       -1    1    3    3    0  502 -0.50261113485E+03  0.62271644765E+03  0.16498368190E+04  0.18336726143E+04  0.50400001928E-02 0.  1.
</event>
<event>
 5   0  0.1790832E-04  0.1903805E+04  0.7818609E-02  0.8652965E-01
       -2   -1    0    0    0  501  0.00000000000E+00  0.00000000000E+00  0.13257592389E+04  0.13257592389E+04  0.25500000920E-02 0.  1.
        2   -1    0    0  501    0  0.00000000000E+00  0.00000000000E+00 -0.68347151139E+03  0.68347151140E+03  0.25500000920E-02 0. -1.
    10030    2    1    2    0    0  0.00000000000E+00  0.00000000000E+00  0.64228772746E+03  0.20092307503E+04  0.19038053164E+04 0.  0.
        5    1    3    3  502    0  0.74409773619E+03  0.16272459489E+03  0.92366646722E+03  0.11972228562E+04  0.46999998093E+01 0.  1.
       -5    1    3    3    0  502 -0.74409773619E+03 -0.16272459489E+03 -0.28137873976E+03  0.81200789404E+03  0.46999998093E+01 0. -1.
</event>
<event>
 5   0  0.1799738E-04  0.2100365E+04  0.7818609E-02  0.8561083E-01
        2   -1    0    0  501    0  0.00000000000E+00  0.00000000000E+00  0.13515452718E+04  0.13515452718E+04  0.25500000920E-02 0. -1.
       -2   -1    0    0    0  501  0.00000000000E+00  0.00000000000E+00 -0.81601633339E+03  0.81601633339E+03  0.25500000920E-02 0.  1.
    10030    2    1    2    0    0  0.00000000000E+00  0.00000000000E+00  0.53552893846E+03  0.21675616052E+04  0.21003647466E+04 0.  0.
        1    1    3    3  502    0 -0.70716944800E+03 -0.73863227146E+03  0.51461743349E+03  0.11447695679E+04  0.50400001928E-02 0. -1.
       -1    1    3    3    0  502  0.70716944800E+03  0.73863227146E+03  0.20911504970E+02  0.10227920374E+04  0.50400001928E-02 0.  1.
</event>
<event>
 5   0  0.1799738E-04  0.1898424E+04  0.7818609E-02  0.8655641E-01
       -2   -1    0    0    0  501  0.00000000000E+00  0.00000000000E+00  0.71209027007E+03  0.71209027008E+03  0.25500000920E-02 0.  1.
        2   -1    0    0  501    0  0.00000000000E+00  0.00000000000E+00 -0.12652936840E+04  0.12652936840E+04  0.25500000920E-02 0. -1.
    10030    2    1    2    0    0  0.00000000000E+00  0.00000000000E+00 -0.55320341389E+03  0.19773839540E+04  0.18984238949E+04 0.  0.
        1    1    3    3  502    0  0.47335606527E+03 -0.26199726983E+03  0.53577013460E+03  0.76141852557E+03  0.50400001928E-02 0.  1.
       -1    1    3    3    0  502 -0.47335606527E+03  0.26199726983E+03 -0.10889735485E+04  0.12159654285E+04  0.50400001928E-02 0. -1.
</event>
<event>
 5   0  0.8681396E-05  0.1909624E+04  0.7818609E-02  0.8650081E-01
        1   -1    0    0  501    0  0.00000000000E+00  0.00000000000E+00  0.12418664031E+04  0.12418664031E+04  0.50400001928E-02 0. -1.
       -1   -1    0    0    0  501  0.00000000000E+00  0.00000000000E+00 -0.73410966433E+03  0.73410966435E+03  0.50400001928E-02 0.  1.
    10030    2    1    2    0    0  0.00000000000E+00  0.00000000000E+00  0.50775673878E+03  0.19759760675E+04  0.19096241812E+04 0.  0.
        3    1    3    3  502    0  0.31490385936E+03 -0.46978447839E+03  0.10498962150E+04  0.11925367790E+04  0.10100000352E+00 0. -1.
       -3    1    3    3    0  502 -0.31490385936E+03  0.46978447839E+03 -0.54213947626E+03  0.78343928845E+03  0.10100000352E+00 0.  1.
</event>
<event>
 5   0  0.1790832E-04  0.1896229E+04  0.7818609E-02  0.8656736E-01
       -2   -1    0    0    0  501  0.00000000000E+00  0.00000000000E+00  0.57700526476E+03  0.57700526476E+03  0.25500000920E-02 0.  1.
        2   -1    0    0  501    0  0.00000000000E+00  0.00000000000E+00 -0.15579080434E+04  0.15579080434E+04  0.25500000920E-02 0. -1.
    10030    2    1    2    0    0  0.00000000000E+00  0.00000000000E+00 -0.98090277867E+03  0.21349133082E+04  0.18962290400E+04 0.  0.
        5    1    3    3  502    0 -0.59922021860E+03  0.57410781767E+03  0.25776349675E+02  0.83027174280E+03  0.46999998093E+01 0.  1.
       -5    1    3    3    0  502  0.59922021860E+03 -0.57410781767E+03 -0.10066791283E+04  0.13046415654E+04  0.46999998093E+01 0. -1.
</event>
<event>
 5   0  0.1658711E-04  0.1871323E+04  0.7818609E-02  0.8669264E-01
        2   -1    0    0  501    0  0.00000000000E+00  0.00000000000E+00  0.13704059573E+04  0.13704059573E+04  0.25500000920E-02 0.  1.
       -2   -1    0    0    0  501  0.00000000000E+00  0.00000000000E+00 -0.63883464114E+03  0.63883464115E+03  0.25500000920E-02 0. -1.
    10030    2    1    2    0    0  0.00000000000E+00  0.00000000000E+00  0.73157131612E+03  0.20092405984E+04  0.18713233798E+04 0.  0.
        2    1    3    3  502    0 -0.55404273056E+03 -0.48841408447E+03 -0.25096257382E+03  0.78006017631E+03  0.25500000920E-02 0. -1.
       -2    1    3    3    0  502  0.55404273056E+03  0.48841408447E+03  0.98253388993E+03  0.12291804221E+04  0.25500000920E-02 0.  1.
</event>
<event>
 5   0  0.8587082E-05  0.1890311E+04  0.7818609E-02  0.8659694E-01
       -1   -1    0    0    0  501  0.00000000000E+00  0.00000000000E+00  0.70706317220E+03  0.70706317222E+03  0.50400001928E-02 0.  1.
        1   -1    0    0  501    0  0.00000000000E+00  0.00000000000E+00 -0.12634213754E+04  0.12634213754E+04  0.50400001928E-02 0. -1.
    10030    2    1    2    0    0  0.00000000000E+00  0.00000000000E+00 -0.55635820320E+03  0.19704845476E+04  0.18903107951E+04 0.  0.
        5    1    3    3  502    0  0.30375325051E+03 -0.63591227239E+02  0.65242587522E+03  0.72248978819E+03  0.46999998093E+01 0.  1.
       -5    1    3    3    0  502 -0.30375325051E+03  0.63591227239E+02 -0.12087840784E+04  0.12479947595E+04  0.46999998093E+01 0. -1.
</event>
<event>
 5   0  0.1799738E-04  0.1904375E+04  0.7818609E-02  0.8652682E-01
        2   -1    0    0  501    0  0.00000000000E+00  0.00000000000E+00  0.17143500489E+04  0.17143500489E+04  0.25500000920E-02 0.  1.
       -2   -1    0    0    0  501  0.00000000000E+00  0.00000000000E+00 -0.52886564357E+03  0.52886564357E+03  0.25500000920E-02 0. -1.
    10030    2    1    2    0    0  0.00000000000E+00  0.00000000000E+00  0.11854844053E+04  0.22432156924E+04  0.19043747970E+04 0.  0.
        1    1    3    3  502    0 -0.47918654422E+03 -0.18236981687E+03  0.15378647874E+04  0.16210819222E+04  0.50400001928E-02 0.  1.
       -1    1    3    3    0  502  0.47918654422E+03  0.18236981687E+03 -0.35238038212E+03  0.62213377018E+03  0.50400001928E-02 0. -1.
</event>
<event>
 5   0  0.1810569E-04  0.1905334E+04  0.7818609E-02  0.8652206E-01
       -2   -1    0    0    0  501  0.00000000000E+00  0.00000000000E+00  0.56176265399E+03  0.56176265400E+03  0.25500000920E-02 0.  1.
        2   -1    0    0  501    0  0.00000000000E+00  0.00000000000E+00 -0.16155837438E+04  0.16155837438E+04  0.25500000920E-02 0. -1.
    10030    2    1    2    0    0  0.00000000000E+00  0.00000000000E+00 -0.10538210898E+04  0.21773463978E+04  0.19053342087E+04 0.  0.
        4    1    3    3  502    0 -0.26720169972E+03 -0.90342753362E+03 -0.36531981752E+03  0.10104643679E+04  0.12699999809E+01 0. -1.
       -4    1    3    3    0  502  0.26720169972E+03  0.90342753362E+03 -0.68850127231E+03  0.11668820299E+04  0.12699999809E+01 0.  1.
</event>
<event>
 5   0  0.1799738E-04  0.1784099E+04  0.7818609E-02  0.8714802E-01
       -2   -1    0    0    0  501  0.00000000000E+00  0.00000000000E+00  0.65357956908E+03  0.65357956908E+03  0.25500000920E-02 0.  1.
        2   -1    0    0  501    0  0.00000000000E+00  0.00000000000E+00 -0.12175288888E+04  0.12175288888E+04  0.25500000920E-02 0. -1.
    10030    2    1    2    0    0  0.00000000000E+00  0.00000000000E+00 -0.56394931976E+03  0.18711084579E+04  0.17840986593E+04 0.  0.
        1    1    3    3  502    0  0.12006969326E+03 -0.85106809054E+03 -0.53240534063E+03  0.10110336655E+04  0.50400001928E-02 0.  1.
       -1    1    3    3    0  502 -0.12006969326E+03  0.85106809054E+03 -0.31543979132E+02  0.86007479245E+03  0.50400001928E-02 0. -1.
</event>
<event>
 5   0  0.1658711E-04  0.1993445E+04  0.7818609E-02  0.8609691E-01
        2   -1    0    0  501    0  0.00000000000E+00  0.00000000000E+00  0.93546083582E+03  0.93546083583E+03  0.25500000920E-02 0. -1.
       -2   -1    0    0    0  501  0.00000000000E+00  0.00000000000E+00 -0.10619961081E+04  0.10619961081E+04  0.25500000920E-02 0.  1.
    10030    2    1    2    0    0  0.00000000000E+00  0.00000000000E+00 -0.12653527228E+03  0.19974569439E+04  0.19934450250E+04 0.  0.
        2    1    3    3  502    0  0.29853774944E+03  0.56355785336E+03 -0.83079455370E+03  0.10473499092E+04  0.25500000920E-02 0.  1.
       -2    1    3    3    0  502 -0.29853774944E+03 -0.56355785336E+03  0.70425928141E+03  0.95010703470E+03  0.25500000920E-02 0. -1.
</event>
<event>
 5   0  0.8602017E-05  0.1889345E+04  0.7818609E-02  0.8660179E-01
        1   -1    0    0  501    0  0.00000000000E+00  0.00000000000E+00  0.18409948797E+04  0.18409948797E+04  0.50400001928E-02 0.  1.
       -1   -1    0    0    0  501  0.00000000000E+00  0.00000000000E+00 -0.48474100999E+03  0.48474101002E+03  0.50400001928E-02 0. -1.
    10030    2    1    2    0    0  0.00000000000E+00  0.00000000000E+00  0.13562538697E+04  0.23257358897E+04  0.18893445609E+04 0.  0.
        2    1    3    3  502    0 -0.62222613779E+03 -0.29653867351E+03  0.14733264518E+04  0.16265888802E+04  0.25500000920E-02 0.  1.
       -2    1    3    3    0  502  0.62222613779E+03  0.29653867351E+03 -0.11707258214E+03  0.69914700953E+03  0.25500000920E-02 0. -1.
</event>
<event>
 5   0  0.8602017E-05  0.1877505E+04  0.7818609E-02  0.8666135E-01
       -1   -1    0    0    0  501  0.00000000000E+00  0.00000000000E+00  0.16091688874E+04  0.16091688874E+04  0.50400001928E-02 0.  1.
        1   -1    0    0  501    0  0.00000000000E+00  0.00000000000E+00 -0.54764690569E+03  0.54764690571E+03  0.50400001928E-02 0. -1.
    10030    2    1    2    0    0  0.00000000000E+00  0.00000000000E+00  0.10615219817E+04  0.21568157931E+04  0.18775051126E+04 0.  0.
        2    1    3    3  502    0 -0.36316075683E+03 -0.70075509900E+03  0.11146159713E+04  0.13657643309E+04  0.25500000920E-02 0.  1.
       -2    1    3    3    0  502  0.36316075683E+03  0.70075509900E+03 -0.53093989633E+02  0.79105146218E+03  0.25500000920E-02 0. -1.
</event>
<event>
 5   0  0.1799738E-04  0.1890659E+04  0.7818609E-02  0.8659520E-01
        2   -1    0    0  501    0  0.00000000000E+00  0.00000000000E+00  0.18436893692E+04  0.18436893692E+04  0.25500000920E-02 0. -1.
       -2   -1    0    0    0  501  0.00000000000E+00  0.00000000000E+00 -0.48470653434E+03  0.48470653435E+03  0.25500000920E-02 0.  1.
    10030    2    1    2    0    0  0.00000000000E+00  0.00000000000E+00  0.13589828348E+04  0.23283959035E+04  0.18906594453E+04 0.  0.
        1    1    3    3  502    0 -0.38803332567E+03 -0.85475839596E+03  0.54198723303E+03  0.10839427744E+04  0.50400001928E-02 0.  1.
       -1    1    3    3    0  502  0.38803332567E+03  0.85475839596E+03  0.81699560181E+03  0.12444531292E+04  0.50400001928E-02 0. -1.
</event>
<event>
 5   0  0.8905646E-05  0.1612944E+04  0.7818609E-02  0.8812635E-01
       -1   -1    0    0    0  501  0.00000000000E+00  0.00000000000E+00  0.32248710821E+03  0.32248710825E+03  0.50400001928E-02 0.  1.
        1   -1    0    0  501    0  0.00000000000E+00  0.00000000000E+00 -0.20168153294E+04  0.20168153294E+04  0.50400001928E-02 0. -1.
    10030    2    1    2    0    0  0.00000000000E+00  0.00000000000E+00 -0.16943282212E+04  0.23393024376E+04  0.16129438222E+04 0.  0.
        1    1    3    3  502    0 -0.37480862464E+03  0.49575050627E+02 -0.18803229073E+04  0.19179555330E+04  0.50400001928E-02 0. -1.
       -1    1    3    3    0  502  0.37480862464E+03 -0.49575050627E+02  0.18599468614E+03  0.42134690464E+03  0.50400001928E-02 0.  1.
</event>
<event>
 5   0  0.8587082E-05  0.1899030E+04  0.7818609E-02  0.8655340E-01
        1   -1    0    0  501    0  0.00000000000E+00  0.00000000000E+00  0.10242516078E+04  0.10242516078E+04  0.50400001928E-02 0.  1.
       -1   -1    0    0    0  501  0.00000000000E+00  0.00000000000E+00 -0.88023127300E+03  0.88023127302E+03  0.50400001928E-02 0. -1.
    10030    2    1    2    0    0  0.00000000000E+00  0.00000000000E+00  0.14402033476E+03  0.19044828808E+04  0.18990295380E+04 0.  0.
        5    1    3    3  502    0 -0.38513123632E+03 -0.50630759996E+03  0.77893349629E+03  0.10057002220E+04  0.46999998093E+01 0.  1.
       -5    1    3    3    0  502  0.38513123632E+03  0.50630759996E+03 -0.63491316153E+03  0.89878265874E+03  0.46999998093E+01 0. -1.
</event>
<event>
 5   0  0.1799738E-04  0.1942549E+04  0.7818609E-02  0.8633962E-01
       -2   -1    0    0    0  501  0.00000000000E+00  0.00000000000E+00  0.73282773948E+03  0.73282773948E+03  0.25500000920E-02 0. -1.
        2   -1    0    0  501    0  0.00000000000E+00  0.00000000000E+00 -0.12873070741E+04  0.12873070741E+04  0.25500000920E-02 0.  1.
    10030    2    1    2    0    0  0.00000000000E+00  0.00000000000E+00 -0.55447933459E+03  0.20201348135E+04  0.19425491840E+04 0.  0.
        1    1    3    3  502    0  0.17086681880E+03 -0.49139646763E+03 -0.11301860792E+04  0.12441810688E+04  0.50400001928E-02 0.  1.
       -1    1    3    3    0  502 -0.17086681880E+03  0.49139646763E+03  0.57570674465E+03  0.77595374477E+03  0.50400001928E-02 0. -1.
</event>
<event>
 5   0  0.8567844E-05  0.1809493E+04  0.7818609E-02  0.8701267E-01
        1   -1    0    0  501    0  0.00000000000E+00  0.00000000000E+00  0.99692202164E+03  0.99692202165E+03  0.50400001928E-02 0.  1.
       -1   -1    0    0    0  501  0.00000000000E+00  0.00000000000E+00 -0.82109358945E+03  0.82109358946E+03  0.50400001928E-02 0. -1.
    10030    2    1    2    0    0  0.00000000000E+00  0.00000000000E+00  0.17582843219E+03  0.18180156111E+04  0.18094930574E+04 0.  0.
        4    1    3    3  502    0 -0.30744671250E+03  0.75229158376E+03  0.48740304963E+03  0.94764415986E+03  0.12699999809E+01 0.  1.
       -4    1    3    3    0  502  0.30744671250E+03 -0.75229158376E+03 -0.31157461744E+03  0.87037145125E+03  0.12699999809E+01 0. -1.
</event>
<event>
 5   0  0.1658711E-04  0.1620834E+04  0.7818609E-02  0.8807850E-01
       -2   -1    0    0    0  501  0.00000000000E+00  0.00000000000E+00  0.74779525258E+03  0.74779525258E+03  0.25500000920E-02 0. -1.
        2   -1    0    0  501    0  0.00000000000E+00  0.00000000000E+00 -0.87828299318E+03  0.87828299318E+03  0.25500000920E-02 0.  1.
    10030    2    1    2    0    0  0.00000000000E+00  0.00000000000E+00 -0.13048774060E+03  0.16260782458E+04  0.16208341713E+04 0.  0.
        2    1    3    3  502    0  0.76975305449E+02  0.74536102650E+03  0.24444174918E+03  0.78818781152E+03  0.25500000920E-02 0. -1.
       -2    1    3    3    0  502 -0.76975305449E+02 -0.74536102650E+03 -0.37492948979E+03  0.83789043424E+03  0.25500000920E-02 0.  1.
</event>
<event>
 5   0  0.8567844E-05  0.1900288E+04  0.7818609E-02  0.8654713E-01
        1   -1    0    0  501    0  0.00000000000E+00  0.00000000000E+00  0.18494020205E+04  0.18494020205E+04  0.50400001928E-02 0. -1.
       -1   -1    0    0    0  501  0.00000000000E+00  0.00000000000E+00 -0.48814340101E+03  0.48814340104E+03  0.50400001928E-02 0.  1.
    10030    2    1    2    0    0  0.00000000000E+00  0.00000000000E+00  0.13612586194E+04  0.23375454215E+04  0.19002877594E+04 0.  0.
        4    1    3    3  502    0 -0.19104631283E+03  0.87510601412E+03  0.29073869102E+03  0.94172173648E+03  0.12699999809E+01 0. -1.
       -4    1    3    3    0  502  0.19104631283E+03 -0.87510601412E+03  0.10705199284E+04  0.13958236850E+04  0.12699999809E+01 0.  1.
</event>
<event>
 5   0  0.8905646E-05  0.1901599E+04  0.7818609E-02  0.8654061E-01
       -1   -1    0    0    0  501  0.00000000000E+00  0.00000000000E+00  0.71920196209E+03  0.71920196211E+03  0.50400001928E-02 0.  1.
        1   -1    0    0  501    0  0.00000000000E+00  0.00000000000E+00 -0.12569762921E+04  0.12569762921E+04  0.50400001928E-02 0. -1.
    10030    2    1    2    0    0  0.00000000000E+00  0.00000000000E+00 -0.53777432999E+03  0.19761782542E+04  0.19015991329E+04 0.  0.
        1    1    3    3  502    0 -0.93146782803E+02  0.75474756541E+03  0.32419622492E+03  0.82669426206E+03  0.50400001928E-02 0.  1.
       -1    1    3    3    0  502  0.93146782803E+02 -0.75474756541E+03 -0.86197055491E+03  0.11494839921E+04  0.50400001928E-02 0. -1.
</event>
<event>
 5   0  0.1790832E-04  0.1903272E+04  0.7818609E-02  0.8653229E-01
       -2   -1    0    0    0  501  0.00000000000E+00  0.00000000000E+00  0.95271241323E+03  0.95271241323E+03  0.25500000920E-02 0. -1.
        2   -1    0    0  501    0  0.00000000000E+00  0.00000000000E+00 -0.95056117345E+03  0.95056117345E+03  0.25500000920E-02 0.  1.
    10030    2    1    2    0    0  0.00000000000E+00  0.00000000000E+00  0.21512397810E+01  0.19032735867E+04  0.19032723709E+04 0.  0.
        5    1    3    3  502    0  0.38723884185E+03 -0.17222633792E+01  0.87034739443E+03  0.95261931736E+03  0.46999998093E+01 0. -1.
       -5    1    3    3    0  502 -0.38723884185E+03  0.17222633792E+01 -0.86819615465E+03  0.95065426932E+03  0.46999998093E+01 0.  1.
</event>
<event>
 5   0  0.8681396E-05  0.1887616E+04  0.7818609E-02  0.8661046E-01
       -1   -1    0    0    0  501  0.00000000000E+00  0.00000000000E+00  0.12890599811E+04  0.12890599811E+04  0.50400001928E-02 0.  1.
        1   -1    0    0  501    0  0.00000000000E+00  0.00000000000E+00 -0.69102535129E+03  0.69102535131E+03  0.50400001928E-02 0. -1.
    10030    2    1    2    0    0  0.00000000000E+00  0.00000000000E+00  0.59803462977E+03  0.19800853324E+04  0.18876155607E+04 0.  0.
        3    1    3    3  502    0 -0.41061005128E+03  0.49986071079E+03  0.10199334451E+04  0.12077771264E+04  0.10100000352E+00 0.  1.
       -3    1    3    3    0  502  0.41061005128E+03 -0.49986071079E+03 -0.42189881535E+03  0.77230820596E+03  0.10100000352E+00 0. -1.
</event>
<event>
 5   0  0.8681396E-05  0.1907663E+04  0.7818609E-02  0.8651051E-01
       -1   -1    0    0    0  501  0.00000000000E+00  0.00000000000E+00  0.58273961446E+03  0.58273961448E+03  0.50400001928E-02 0.  1.
        1   -1    0    0  501    0  0.00000000000E+00  0.00000000000E+00 -0.15612371527E+04  0.15612371527E+04  0.50400001928E-02 0. -1.
    10030    2    1    2    0    0  0.00000000000E+00  0.00000000000E+00 -0.97849753819E+03  0.21439767671E+04  0.19076632160E+04 0.  0.
        3    1    3    3  502    0  0.19875206273E+03  0.30440056889E+03  0.50182414970E+03  0.61966892467E+03  0.10100000352E+00 0.  1.
       -3    1    3    3    0  502 -0.19875206273E+03 -0.30440056889E+03 -0.14803216879E+04  0.15243078425E+04  0.10100000352E+00 0. -1.
</event>
<event>
 5   0  0.1658711E-04  0.1837275E+04  0.7818609E-02  0.8686725E-01
       -2   -1    0    0    0  501  0.00000000000E+00  0.00000000000E+00  0.38281136903E+03  0.38281136904E+03  0.25500000920E-02 0. -1.
        2   -1    0    0  501    0  0.00000000000E+00  0.00000000000E+00 -0.22044656929E+04  0.22044656929E+04  0.25500000920E-02 0.  1.
    10030    2    1    2    0    0  0.00000000000E+00  0.00000000000E+00 -0.18216543239E+04  0.25872770619E+04  0.18372746446E+04 0.  0.
        2    1    3    3  502    0  0.47237632948E+03  0.60660798618E+02  0.19538384031E+03  0.51477565424E+03  0.25500000920E-02 0.  1.
       -2    1    3    3    0  502 -0.47237632948E+03 -0.60660798618E+02 -0.20170381642E+04  0.20725014077E+04  0.25500000920E-02 0. -1.
</event>
<event>
 5   0  0.1810569E-04  0.1925974E+04  0.7818609E-02  0.8642034E-01
       -2   -1    0    0    0  501  0.00000000000E+00  0.00000000000E+00  0.52269270300E+03  0.52269270300E+03  0.25500000920E-02 0.  1.
        2   -1    0    0  501    0  0.00000000000E+00  0.00000000000E+00 -0.17741664038E+04  0.17741664038E+04  0.25500000920E-02 0. -1.
    10030    2    1    2    0    0  0.00000000000E+00  0.00000000000E+00 -0.12514737008E+04  0.22968591068E+04  0.19259738660E+04 0.  0.
        4    1    3    3  502    0 -0.27843427454E+03 -0.90388036524E+03 -0.40969769022E+03  0.10307177937E+04  0.12699999809E+01 0.  1.
       -4    1    3    3    0  502  0.27843427454E+03  0.90388036524E+03 -0.84177601054E+03  0.12661413131E+04  0.12699999809E+01 0. -1.
</event>
<event>
 5   0  0.8681396E-05  0.1879548E+04  0.7818609E-02  0.8665104E-01
        1   -1    0    0  501    0  0.00000000000E+00  0.00000000000E+00  0.19485624669E+04  0.19485624669E+04  0.50400001928E-02 0. -1.
       -1   -1    0    0    0  501  0.00000000000E+00  0.00000000000E+00 -0.45324464496E+03  0.45324464499E+03  0.50400001928E-02 0.  1.
    10030    2    1    2    0    0  0.00000000000E+00  0.00000000000E+00  0.14953178220E+04  0.24018071119E+04  0.18795483538E+04 0.  0.
        3    1    3    3  502    0  0.66320552025E+03  0.31644535528E+03 -0.95156795906E+00  0.73483341014E+03  0.10100000352E+00 0.  1.
       -3    1    3    3    0  502 -0.66320552025E+03 -0.31644535528E+03  0.14962693899E+04  0.16669737018E+04  0.10100000352E+00 0. -1.
</event>
<event>
 5   0  0.1658711E-04  0.1597812E+04  0.7818609E-02  0.8821893E-01
       -2   -1    0    0    0  501  0.00000000000E+00  0.00000000000E+00  0.44369194160E+03  0.44369194161E+03  0.25500000920E-02 0. -1.
        2   -1    0    0  501    0  0.00000000000E+00  0.00000000000E+00 -0.14385000337E+04  0.14385000337E+04  0.25500000920E-02 0.  1.
    10030    2    1    2    0    0  0.00000000000E+00  0.00000000000E+00 -0.99480809208E+03  0.18821919753E+04  0.15978120953E+04 0.  0.
        2    1    3    3  502    0 -0.71676112706E+03 -0.17900120926E+03 -0.85560111778E+03  0.11304163918E+04  0.25500000920E-02 0. -1.
       -2    1    3    3    0  502  0.71676112706E+03  0.17900120926E+03 -0.13920697430E+03  0.75177558345E+03  0.25500000920E-02 0.  1.
</event>
<event>
 5   0  0.1810569E-04  0.1907296E+04  0.7818609E-02  0.8651233E-01
        2   -1    0    0  501    0  0.00000000000E+00  0.00000000000E+00  0.19470915500E+04  0.19470915500E+04  0.25500000920E-02 0.  1.
       -2   -1    0    0    0  501  0.00000000000E+00  0.00000000000E+00 -0.46707824447E+03  0.46707824448E+03  0.25500000920E-02 0. -1.
    10030    2    1    2    0    0  0.00000000000E+00  0.00000000000E+00  0.14800133056E+04  0.24141697945E+04  0.19072955754E+04 0.  0.
        4    1    3    3  502    0 -0.23449491005E+03  0.89320414403E+03  0.10412484339E+04  0.13917619839E+04  0.12699999809E+01 0. -1.
       -4    1    3    3    0  502  0.23449491005E+03 -0.89320414403E+03  0.43876487166E+03  0.10224078106E+04  0.12699999809E+01 0.  1.
</event>
<event>
 5   0  0.1765328E-04  0.1876727E+04  0.7818609E-02  0.8666528E-01
       -2   -1    0    0    0  501  0.00000000000E+00  0.00000000000E+00  0.90954001053E+03  0.90954001053E+03  0.25500000920E-02 0.  1.
        2   -1    0    0  501    0  0.00000000000E+00  0.00000000000E+00 -0.96810038487E+03  0.96810038487E+03  0.25500000920E-02 0. -1.
    10030    2    1    2    0    0  0.00000000000E+00  0.00000000000E+00 -0.58560374339E+02  0.18776403954E+04  0.18767269745E+04 0.  0.
        3    1    3    3  502    0  0.47572453210E+03 -0.62643876176E+03 -0.54118013981E+03  0.95478547674E+03  0.10100000352E+00 0. -1.
       -3    1    3    3    0  502 -0.47572453210E+03  0.62643876176E+03  0.48261976547E+03  0.92285491866E+03  0.10100000352E+00 0.  1.
</event>
<event>
 5   0  0.8681396E-05  0.1898744E+04  0.7818609E-02  0.8655482E-01
        1   -1    0    0  501    0  0.00000000000E+00  0.00000000000E+00  0.12591754885E+04  0.12591754885E+04  0.50400001928E-02 0. -1.
       -1   -1    0    0    0  501  0.00000000000E+00  0.00000000000E+00 -0.71579155510E+03  0.71579155512E+03  0.50400001928E-02 0.  1.
    10030    2    1    2    0    0  0.00000000000E+00  0.00000000000E+00  0.54338393342E+03  0.19749670436E+04  0.18987439860E+04 0.  0.
        3    1    3    3  502    0  0.29546448352E+03  0.84016349056E+03  0.61372890280E+03  0.10815900925E+04  0.10100000352E+00 0. -1.
       -3    1    3    3    0  502 -0.29546448352E+03 -0.84016349056E+03 -0.70344969384E+02  0.89337695113E+03  0.10100000352E+00 0.  1.
</event>
<event>
 5   0  0.1658711E-04  0.1882232E+04  0.7818609E-02  0.8663751E-01
       -2   -1    0    0    0  501  0.00000000000E+00  0.00000000000E+00  0.62410817630E+03  0.62410817630E+03  0.25500000920E-02 0. -1.
        2   -1    0    0  501    0  0.00000000000E+00  0.00000000000E+00 -0.14191443307E+04  0.14191443307E+04  0.25500000920E-02 0.  1.
    10030    2    1    2    0    0  0.00000000000E+00  0.00000000000E+00 -0.79503615441E+03  0.20432525070E+04  0.18822322706E+04 0.  0.
        2    1    3    3  502    0 -0.18409189075E+03 -0.23008678265E+03 -0.13677751895E+04  0.13991564318E+04  0.25500000920E-02 0.  1.
       -2    1    3    3    0  502  0.18409189075E+03  0.23008678265E+03  0.57273903506E+03  0.64409607519E+03  0.25500000920E-02 0. -1.
</event>
<event>
 5   0  0.6375750E-05  0.1893456E+04  0.7818609E-02  0.8658120E-01
       -3   -1    0    0    0  501  0.00000000000E+00  0.00000000000E+00  0.51257446823E+03  0.51257447818E+03  0.10100000352E+00 0.  1.
        3   -1    0    0  501    0  0.00000000000E+00  0.00000000000E+00 -0.17486127660E+04  0.17486127690E+04  0.10100000352E+00 0. -1.
    10030    2    1    2    0    0  0.00000000000E+00  0.00000000000E+00 -0.12360382978E+04  0.22611872471E+04  0.18934563879E+04 0.  0.
        2    1    3    3  502    0  0.45014158836E+02  0.21731098144E+03 -0.17171115110E+04  0.17313931611E+04  0.25500000920E-02 0. -1.
       -2    1    3    3    0  502 -0.45014158836E+02 -0.21731098144E+03  0.48107321318E+03  0.52979408603E+03  0.25500000920E-02 0.  1.
</event>
<event>
 5   0  0.8567844E-05  0.1889140E+04  0.7818609E-02  0.8660281E-01
        1   -1    0    0  501    0  0.00000000000E+00  0.00000000000E+00  0.56588956478E+03  0.56588956480E+03  0.50400001928E-02 0.  1.
       -1   -1    0    0    0  501  0.00000000000E+00  0.00000000000E+00 -0.15766549884E+04  0.15766549884E+04  0.50400001928E-02 0. -1.
    10030    2    1    2    0    0  0.00000000000E+00  0.00000000000E+00 -0.10107654236E+04  0.21425445532E+04  0.18891401274E+04 0.  0.
        4    1    3    3  502    0  0.25747886126E+03 -0.82970910068E+03 -0.84835683337E+02  0.87287528423E+03  0.12699999809E+01 0.  1.
       -4    1    3    3    0  502 -0.25747886126E+03  0.82970910068E+03 -0.92592974027E+03  0.12696692690E+04  0.12699999809E+01 0. -1.
</event>
<event>
 5   0  0.1658711E-04  0.1912769E+04  0.7818609E-02  0.8648527E-01
        2   -1    0    0  501    0  0.00000000000E+00  0.00000000000E+00  0.27262014290E+04  0.27262014290E+04  0.25500000920E-02 0.  1.
       -2   -1    0    0    0  501  0.00000000000E+00  0.00000000000E+00 -0.33551109789E+03  0.33551109790E+03  0.25500000920E-02 0. -1.
    10030    2    1    2    0    0  0.00000000000E+00  0.00000000000E+00  0.23906903311E+04  0.30617125269E+04  0.19127685009E+04 0.  0.
        2    1    3    3  502    0 -0.57910813468E+03 -0.71627108853E+02 -0.17551554765E+02  0.58378483318E+03  0.25500000920E-02 0. -1.
       -2    1    3    3    0  502  0.57910813468E+03  0.71627108853E+02  0.24082418858E+04  0.24779276937E+04  0.25500000920E-02 0.  1.
</event>
<event>
 5   0  0.8587082E-05  0.1926441E+04  0.7818609E-02  0.8641806E-01
        1   -1    0    0  501    0  0.00000000000E+00  0.00000000000E+00  0.95044610237E+03  0.95044610239E+03  0.50400001928E-02 0. -1.
       -1   -1    0    0    0  501  0.00000000000E+00  0.00000000000E+00 -0.97616692218E+03  0.97616692220E+03  0.50400001928E-02 0.  1.
    10030    2    1    2    0    0  0.00000000000E+00  0.00000000000E+00 -0.25720819811E+02  0.19266130246E+04  0.19264413269E+04 0.  0.
        5    1    3    3  502    0 -0.28174760620E+03  0.69594095982E+03 -0.61628507020E+03  0.97136239936E+03  0.46999998093E+01 0.  1.
       -5    1    3    3    0  502  0.28174760620E+03 -0.69594095982E+03  0.59056425039E+03  0.95525062522E+03  0.46999998093E+01 0. -1.
</event>
<event>
 5   0  0.8587082E-05  0.1905350E+04  0.7818609E-02  0.8652198E-01
        1   -1    0    0  501    0  0.00000000000E+00  0.00000000000E+00  0.14905241982E+04  0.14905241982E+04  0.50400001928E-02 0.  1.
       -1   -1    0    0    0  501  0.00000000000E+00  0.00000000000E+00 -0.60890660468E+03  0.60890660470E+03  0.50400001928E-02 0. -1.
    10030    2    1    2    0    0  0.00000000000E+00  0.00000000000E+00  0.88161759356E+03  0.20994308030E+04  0.19053503917E+04 0.  0.
        5    1    3    3  502    0 -0.52541642424E+03 -0.42516211124E+03  0.11805691667E+04  0.13603642479E+04  0.46999998093E+01 0.  1.
       -5    1    3    3    0  502  0.52541642424E+03  0.42516211124E+03 -0.29895157312E+03  0.73906655503E+03  0.46999998093E+01 0. -1.
</event>
<event>
 5   0  0.8681396E-05  0.1885175E+04  0.7818609E-02  0.8662271E-01
        1   -1    0    0  501    0  0.00000000000E+00  0.00000000000E+00  0.77992206036E+03  0.77992206037E+03  0.50400001928E-02 0.  1.
       -1   -1    0    0    0  501  0.00000000000E+00  0.00000000000E+00 -0.11391791937E+04  0.11391791937E+04  0.50400001928E-02 0. -1.
    10030    2    1    2    0    0  0.00000000000E+00  0.00000000000E+00 -0.35925713331E+03  0.19191012541E+04  0.18851747758E+04 0.  0.
        3    1    3    3  502    0 -0.80910415870E+03  0.48256577920E+03 -0.14822370096E+03  0.95367161361E+03  0.10100000352E+00 0.  1.
       -3    1    3    3    0  502  0.80910415870E+03 -0.48256577920E+03 -0.21103343235E+03  0.96542964044E+03  0.10100000352E+00 0. -1.
</event>
<event>
 5   0  0.8602017E-05  0.1961830E+04  0.7818609E-02  0.8624677E-01
        1   -1    0    0  501    0  0.00000000000E+00  0.00000000000E+00  0.11864079475E+04  0.11864079475E+04  0.50400001928E-02 0.  1.
       -1   -1    0    0    0  501  0.00000000000E+00  0.00000000000E+00 -0.81101451169E+03  0.81101451170E+03  0.50400001928E-02 0. -1.
    10030    2    1    2    0    0  0.00000000000E+00  0.00000000000E+00  0.37539343584E+03  0.19974224592E+04  0.19618298216E+04 0.  0.
        2    1    3    3  502    0  0.24581478336E+03  0.16817868844E+02  0.11543888097E+04  0.11803903051E+04  0.25500000920E-02 0.  1.
       -2    1    3    3    0  502 -0.24581478336E+03 -0.16817868844E+02 -0.77899537385E+03  0.81703215415E+03  0.25500000920E-02 0. -1.
</event>
<event>
 5   0  0.1790832E-04  0.1903183E+04  0.7818609E-02  0.8653274E-01
       -2   -1    0    0    0  501  0.00000000000E+00  0.00000000000E+00  0.34751500610E+03  0.34751500611E+03  0.25500000920E-02 0. -1.
        2   -1    0    0  501    0  0.00000000000E+00  0.00000000000E+00 -0.26057182841E+04  0.26057182841E+04  0.25500000920E-02 0.  1.
    10030    2    1    2    0    0  0.00000000000E+00  0.00000000000E+00 -0.22582032780E+04  0.29532332902E+04  0.19031828135E+04 0.  0.
        5    1    3    3  502    0 -0.82844562712E+03 -0.41863668665E+03 -0.80388367118E+03  0.12279372457E+04  0.46999998093E+01 0.  1.
       -5    1    3    3    0  502  0.82844562712E+03  0.41863668665E+03 -0.14543196068E+04  0.17252960445E+04  0.46999998093E+01 0. -1.
</event>
<event>
 5   0  0.8567844E-05  0.1915615E+04  0.7818609E-02  0.8647123E-01
        1   -1    0    0  501    0  0.00000000000E+00  0.00000000000E+00  0.13507023247E+04  0.13507023247E+04  0.50400001928E-02 0. -1.
       -1   -1    0    0    0  501  0.00000000000E+00  0.00000000000E+00 -0.67919862018E+03  0.67919862020E+03  0.50400001928E-02 0.  1.
    10030    2    1    2    0    0  0.00000000000E+00  0.00000000000E+00  0.67150370454E+03  0.20299009449E+04  0.19156149459E+04 0.  0.
        4    1    3    3  502    0  0.18307261595E+03  0.53874266436E+03  0.11521953274E+04  0.12850349904E+04  0.12699999809E+01 0. -1.
       -4    1    3    3    0  502 -0.18307261595E+03 -0.53874266436E+03 -0.48069162284E+03  0.74486595457E+03  0.12699999809E+01 0.  1.
</event>
<event>
 5   0  0.8587082E-05  0.1730735E+04  0.7818609E-02  0.8744027E-01
        1   -1    0    0  501    0  0.00000000000E+00  0.00000000000E+00  0.75314107861E+03  0.75314107862E+03  0.50400001928E-02 0. -1.
       -1   -1    0    0    0  501  0.00000000000E+00  0.00000000000E+00 -0.99431682018E+03  0.99431682020E+03  0.50400001928E-02 0.  1.
    10030    2    1    2    0    0  0.00000000000E+00  0.00000000000E+00 -0.24117574158E+03  0.17474578988E+04  0.17307349219E+04 0.  0.
        5    1    3    3  502    0 -0.16414034321E+03 -0.71203384080E+03  0.34746932788E+03  0.80912994415E+03  0.46999998093E+01 0. -1.
       -5    1    3    3    0  502  0.16414034321E+03  0.71203384080E+03 -0.58864506946E+03  0.93832795467E+03  0.46999998093E+01 0.  1.
</event>
<event>
 5   0  0.1658711E-04  0.1863201E+04  0.7818609E-02  0.8673394E-01
        2   -1    0    0  501    0  0.00000000000E+00  0.00000000000E+00  0.21195628850E+04  0.21195628850E+04  0.25500000920E-02 0.  1.
       -2   -1    0    0    0  501  0.00000000000E+00  0.00000000000E+00 -0.40946147062E+03  0.40946147063E+03  0.25500000920E-02 0. -1.
    10030    2    1    2    0    0  0.00000000000E+00  0.00000000000E+00  0.17101014143E+04  0.25290243556E+04  0.18632008329E+04 0.  0.
        2    1    3    3  502    0 -0.88239415760E+03 -0.12046266528E+03  0.12261541377E+04  0.15154486704E+04  0.25500000920E-02 0.  1.
       -2    1    3    3    0  502  0.88239415760E+03  0.12046266528E+03  0.48394727662E+03  0.10135756852E+04  0.25500000920E-02 0. -1.
</event>
<event>
 5   0  0.8602017E-05  0.1902136E+04  0.7818609E-02  0.8653794E-01
       -1   -1    0    0    0  501  0.00000000000E+00  0.00000000000E+00  0.11942287317E+04  0.11942287317E+04  0.50400001928E-02 0. -1.
        1   -1    0    0  501    0  0.00000000000E+00  0.00000000000E+00 -0.75741827668E+03  0.75741827669E+03  0.50400001928E-02 0.  1.
    10030    2    1    2    0    0  0.00000000000E+00  0.00000000000E+00  0.43681045506E+03  0.19516470084E+04  0.19021363442E+04 0.  0.
        2    1    3    3  502    0  0.51918752766E+03 -0.79071051019E+03  0.31972717705E+03  0.99850101029E+03  0.25500000920E-02 0.  1.
       -2    1    3    3    0  502 -0.51918752766E+03  0.79071051019E+03  0.11708327801E+03  0.95314599815E+03  0.25500000920E-02 0. -1.
</event>
<event>
 5   0  0.1790832E-04  0.1919286E+04  0.7818609E-02  0.8645315E-01
        2   -1    0    0  501    0  0.00000000000E+00  0.00000000000E+00  0.99618441552E+03  0.99618441553E+03  0.25500000920E-02 0.  1.
       -2   -1    0    0    0  501  0.00000000000E+00  0.00000000000E+00 -0.92444223271E+03  0.92444223272E+03  0.25500000920E-02 0. -1.
    10030    2    1    2    0    0  0.00000000000E+00  0.00000000000E+00  0.71742182812E+02  0.19206266482E+04  0.19192862687E+04 0.  0.
        5    1    3    3  502    0 -0.64971400101E+03 -0.22036845688E+02 -0.67051064869E+03  0.93392747345E+03  0.46999998093E+01 0. -1.
       -5    1    3    3    0  502  0.64971400101E+03  0.22036845688E+02  0.74225283150E+03  0.98669917479E+03  0.46999998093E+01 0.  1.
</event>
<event>
 5   0  0.8905646E-05  0.1909502E+04  0.7818609E-02  0.8650141E-01
       -1   -1    0    0    0  501  0.00000000000E+00  0.00000000000E+00  0.63315412591E+03  0.63315412593E+03  0.50400001928E-02 0.  1.
        1   -1    0    0  501    0  0.00000000000E+00  0.00000000000E+00 -0.14396960374E+04  0.14396960374E+04  0.50400001928E-02 0. -1.
    10030    2    1    2    0    0  0.00000000000E+00  0.00000000000E+00 -0.80654191150E+03  0.20728501633E+04  0.19095020148E+04 0.  0.
        1    1    3    3  502    0  0.81986611945E+03 -0.43183193506E+03 -0.65292318233E+03  0.11335642708E+04  0.50400001928E-02 0. -1.
       -1    1    3    3    0  502 -0.81986611945E+03  0.43183193506E+03 -0.15361872917E+03  0.93928589255E+03  0.50400001928E-02 0.  1.
</event>
<event>
 5   0  0.1765328E-04  0.1904669E+04  0.7818609E-02  0.8652536E-01
        2   -1    0    0  501    0  0.00000000000E+00  0.00000000000E+00  0.11443393858E+04  0.11443393858E+04  0.25500000920E-02 0. -1.
       -2   -1    0    0    0  501  0.00000000000E+00  0.00000000000E+00 -0.79254569038E+03  0.79254569038E+03  0.25500000920E-02 0.  1.
    10030    2    1    2    0    0  0.00000000000E+00  0.00000000000E+00  0.35179369544E+03  0.19368850762E+04  0.19046692611E+04 0.  0.
        3    1    3    3  502    0  0.56057906604E+03 -0.76973752928E+03  0.16164244301E+03  0.96585353075E+03  0.10100000352E+00 0.  1.
       -3    1    3    3    0  502 -0.56057906604E+03  0.76973752928E+03  0.19015125243E+03  0.97103154546E+03  0.10100000352E+00 0. -1.
</event>
<event>
 5   0  0.1790832E-04  0.1921705E+04  0.7818609E-02  0.8644127E-01
       -2   -1    0    0    0  501  0.00000000000E+00  0.00000000000E+00  0.52647894090E+03  0.52647894090E+03  0.25500000920E-02 0. -1.
        2   -1    0    0  501    0  0.00000000000E+00  0.00000000000E+00 -0.17536085931E+04  0.17536085931E+04  0.25500000920E-02 0.  1.
    10030    2    1    2    0    0  0.00000000000E+00  0.00000000000E+00 -0.12271296522E+04  0.22800875340E+04  0.19217054872E+04 0.  0.
        5    1    3    3  502    0  0.19291726902E+03  0.88821307684E+03 -0.24388867245E+03  0.94108624318E+03  0.46999998093E+01 0. -1.
       -5    1    3    3    0  502 -0.19291726902E+03 -0.88821307684E+03 -0.98324097975E+03  0.13390012908E+04  0.46999998093E+01 0.  1.
</event>
<event>
 5   0  0.8905646E-05  0.1847853E+04  0.7818609E-02  0.8681258E-01
       -1   -1    0    0    0  501  0.00000000000E+00  0.00000000000E+00  0.54803288599E+03  0.54803288601E+03  0.50400001928E-02 0.  1.
        1   -1    0    0  501    0  0.00000000000E+00  0.00000000000E+00 -0.15576434121E+04  0.15576434121E+04  0.50400001928E-02 0. -1.
    10030    2    1    2    0    0  0.00000000000E+00  0.00000000000E+00 -0.10096105261E+04  0.21056762981E+04  0.18478526072E+04 0.  0.
        1    1    3    3  502    0  0.58559176091E+03  0.40462497312E+03  0.16645274381E+03  0.73098946317E+03  0.50400001928E-02 0.  1.
       -1    1    3    3    0  502 -0.58559176091E+03 -0.40462497312E+03 -0.11760632699E+04  0.13746868350E+04  0.50400001928E-02 0. -1.
</event>
<event>
 5   0  0.1658711E-04  0.1905651E+04  0.7818609E-02  0.8652049E-01
       -2   -1    0    0    0  501  0.00000000000E+00  0.00000000000E+00  0.69651730837E+03  0.69651730838E+03  0.25500000920E-02 0.  1.
        2   -1    0    0  501    0  0.00000000000E+00  0.00000000000E+00 -0.13034511318E+04  0.13034511318E+04  0.25500000920E-02 0. -1.
    10030    2    1    2    0    0  0.00000000000E+00  0.00000000000E+00 -0.60693382341E+03  0.19999684402E+04  0.19056508326E+04 0.  0.
        2    1    3    3  502    0 -0.65189852913E+03 -0.67580916474E+03 -0.13363511925E+03  0.94844507723E+03  0.25500000920E-02 0. -1.
       -2    1    3    3    0  502  0.65189852913E+03  0.67580916474E+03 -0.47329870417E+03  0.10515233629E+04  0.25500000920E-02 0.  1.
</event>
<event>
 5   0  0.1790832E-04  0.1898915E+04  0.7818609E-02  0.8655396E-01
       -2   -1    0    0    0  501  0.00000000000E+00  0.00000000000E+00  0.87785973372E+03  0.87785973372E+03  0.25500000920E-02 0.  1.
        2   -1    0    0  501    0  0.00000000000E+00  0.00000000000E+00 -0.10268950817E+04  0.10268950817E+04  0.25500000920E-02 0. -1.
    10030    2    1    2    0    0  0.00000000000E+00  0.00000000000E+00 -0.14903534794E+03  0.19047548154E+04  0.18989153145E+04 0.  0.
        5    1    3    3  502    0  0.39151551651E+03  0.10107766056E+03 -0.93619758651E+03  0.10197985606E+04  0.46999998093E+01 0. -1.
       -5    1    3    3    0  502 -0.39151551651E+03 -0.10107766056E+03  0.78716223856E+03  0.88495625482E+03  0.46999998093E+01 0.  1.
</event>
<event>
 5   0  0.8602017E-05  0.1905677E+04  0.7818609E-02  0.8652036E-01
        1   -1    0    0  501    0  0.00000000000E+00  0.00000000000E+00  0.83157312349E+03  0.83157312350E+03  0.50400001928E-02 0. -1.
       -1   -1    0    0    0  501  0.00000000000E+00  0.00000000000E+00 -0.10917875375E+04  0.10917875375E+04  0.50400001928E-02 0.  1.
    10030    2    1    2    0    0  0.00000000000E+00  0.00000000000E+00 -0.26021441404E+03  0.19233606610E+04  0.19056769640E+04 0.  0.
        2    1    3    3  502    0  0.30406789148E+03  0.50715412093E+03  0.62397965006E+03  0.85965876295E+03  0.25500000920E-02 0. -1.
       -2    1    3    3    0  502 -0.30406789148E+03 -0.50715412093E+03 -0.88419406410E+03  0.10637018981E+04  0.25500000920E-02 0.  1.
</event>
<event>
 5   0  0.1790832E-04  0.1883720E+04  0.7818609E-02  0.8663003E-01
       -2   -1    0    0    0  501  0.00000000000E+00  0.00000000000E+00  0.66180332904E+03  0.66180332904E+03  0.25500000920E-02 0. -1.
        2   -1    0    0  501    0  0.00000000000E+00  0.00000000000E+00 -0.13404290566E+04  0.13404290566E+04  0.25500000920E-02 0.  1.
    10030    2    1    2    0    0  0.00000000000E+00  0.00000000000E+00 -0.67862572758E+03  0.20022323857E+04  0.18837201618E+04 0.  0.
        5    1    3    3  502    0 -0.14026618810E+03  0.23815980944E+03  0.61771326617E+03  0.67674697455E+03  0.46999998093E+01 0. -1.
       -5    1    3    3    0  502  0.14026618810E+03 -0.23815980944E+03 -0.12963389938E+04  0.13254854111E+04  0.46999998093E+01 0.  1.
</event>
<event>
 5   0  0.8567844E-05  0.1915532E+04  0.7818609E-02  0.8647163E-01
        1   -1    0    0  501    0  0.00000000000E+00  0.00000000000E+00  0.16177312134E+04  0.16177312134E+04  0.50400001928E-02 0.  1.
       -1   -1    0    0    0  501  0.00000000000E+00  0.00000000000E+00 -0.56703863276E+03  0.56703863278E+03  0.50400001928E-02 0. -1.
    10030    2    1    2    0    0  0.00000000000E+00  0.00000000000E+00  0.10506925806E+04  0.21847698462E+04  0.19155324017E+04 0.  0.
        4    1    3    3  502    0 -0.32114739667E+03  0.10761951083E+03  0.15471439937E+04  0.15837846318E+04  0.12699999809E+01 0.  1.
       -4    1    3    3    0  502  0.32114739667E+03 -0.10761951083E+03 -0.49645141311E+03  0.60098521444E+03  0.12699999809E+01 0. -1.
</event>
<event>
 5   0  0.8587082E-05  0.1878605E+04  0.7818609E-02  0.8665580E-01
        1   -1    0    0  501    0  0.00000000000E+00  0.00000000000E+00  0.20054196055E+04  0.20054196055E+04  0.50400001928E-02 0.  1.
       -1   -1    0    0    0  501  0.00000000000E+00  0.00000000000E+00 -0.43995254907E+03  0.43995254910E+03  0.50400001928E-02 0. -1.
    10030    2    1    2    0    0  0.00000000000E+00  0.00000000000E+00  0.15654670564E+04  0.24453721546E+04  0.18786052991E+04 0.  0.
        5    1    3    3  502    0  0.73447549613E+03 -0.33257184130E+03  0.14099956041E+04  0.16242438171E+04  0.46999998093E+01 0.  1.
       -5    1    3    3    0  502 -0.73447549613E+03  0.33257184130E+03  0.15547145234E+03  0.82112833743E+03  0.46999998093E+01 0. -1.
</event>
<event>
 5   0  0.8587082E-05  0.1903222E+04  0.7818609E-02  0.8653254E-01
       -1   -1    0    0    0  501  0.00000000000E+00  0.00000000000E+00  0.64885438426E+03  0.64885438428E+03  0.50400001928E-02 0. -1.
        1   -1    0    0  501    0  0.00000000000E+00  0.00000000000E+00 -0.13956340293E+04  0.13956340293E+04  0.50400001928E-02 0.  1.
    10030    2    1    2    0    0  0.00000000000E+00  0.00000000000E+00 -0.74677964505E+03  0.20444884136E+04  0.19032217514E+04 0.  0.
        5    1    3    3  502    0  0.20128580624E+03 -0.87825703944E+03 -0.70219703666E+03  0.11423459071E+04  0.46999998093E+01 0.  1.
       -5    1    3    3    0  502 -0.20128580624E+03  0.87825703944E+03 -0.44582608382E+02  0.90214250652E+03  0.46999998093E+01 0. -1.
</event>
<event>
 5   0  0.6375750E-05  0.1904055E+04  0.7818609E-02  0.8652841E-01
        3   -1    0    0  501    0  0.00000000000E+00  0.00000000000E+00  0.20706012675E+04  0.20706012700E+04  0.10100000352E+00 0.  1.
       -3   -1    0    0    0  501  0.00000000000E+00  0.00000000000E+00 -0.43772608409E+03  0.43772609574E+03  0.10100000352E+00 0. -1.
    10030    2    1    2    0    0  0.00000000000E+00  0.00000000000E+00  0.16328751834E+04  0.25083273657E+04  0.19040548335E+04 0.  0.
        4    1    3    3  502    0 -0.65914384751E+03 -0.49505734349E+03  0.18906086971E+03  0.84575292516E+03  0.12699999809E+01 0. -1.
       -4    1    3    3    0  502  0.65914384751E+03  0.49505734349E+03  0.14438143137E+04  0.16625744405E+04  0.12699999809E+01 0.  1.
</event>
<event>
 5   0  0.1765328E-04  0.1908415E+04  0.7818609E-02  0.8650679E-01
        2   -1    0    0  501    0  0.00000000000E+00  0.00000000000E+00  0.15359271768E+04  0.15359271768E+04  0.25500000920E-02 0. -1.
       -2   -1    0    0    0  501  0.00000000000E+00  0.00000000000E+00 -0.59280926381E+03  0.59280926381E+03  0.25500000920E-02 0.  1.
    10030    2    1    2    0    0  0.00000000000E+00  0.00000000000E+00  0.94311791303E+03  0.21287364407E+04  0.19084149014E+04 0.  0.
        3    1    3    3  502    0 -0.77712652533E+02 -0.23163127250E+03  0.15004463000E+04  0.15202076871E+04  0.10100000352E+00 0. -1.
       -3    1    3    3    0  502  0.77712652533E+02  0.23163127250E+03 -0.55732838693E+03  0.60852875351E+03  0.10100000352E+00 0.  1.
</event>
<event>
 5   0  0.8587082E-05  0.1902302E+04  0.7818609E-02  0.8653711E-01
        1   -1    0    0  501    0  0.00000000000E+00  0.00000000000E+00  0.10579835159E+04  0.10579835159E+04  0.50400001928E-02 0. -1.
       -1   -1    0    0    0  501  0.00000000000E+00  0.00000000000E+00 -0.85510647915E+03  0.85510647916E+03  0.50400001928E-02 0.  1.
    10030    2    1    2    0    0  0.00000000000E+00  0.00000000000E+00  0.20287703677E+03  0.19130899951E+04  0.19023023517E+04 0.  0.
        5    1    3    3  502    0  0.18725965604E+03  0.84098993924E+02 -0.83255178767E+03  0.85749833160E+03  0.46999998093E+01 0.  1.
       -5    1    3    3    0  502 -0.18725965604E+03 -0.84098993924E+02  0.10354288244E+04  0.10555916635E+04  0.46999998093E+01 0. -1.
</event>
<event>
 5   0  0.8587082E-05  0.1925372E+04  0.7818609E-02  0.8642329E-01
       -1   -1    0    0    0  501  0.00000000000E+00  0.00000000000E+00  0.12377789808E+04  0.12377789808E+04  0.50400001928E-02 0. -1.
        1   -1    0    0  501    0  0.00000000000E+00  0.00000000000E+00 -0.74873199033E+03  0.74873199035E+03  0.50400001928E-02 0.  1.
    10030    2    1    2    0    0  0.00000000000E+00  0.00000000000E+00  0.48904699050E+03  0.19865109712E+04  0.19253724003E+04 0.  0.
        5    1    3    3  502    0  0.21668234375E+02  0.39632986532E+03  0.11494111546E+04  0.12160242460E+04  0.46999998093E+01 0. -1.
       -5    1    3    3    0  502 -0.21668234375E+02 -0.39632986532E+03 -0.66036416408E+03  0.77048672521E+03  0.46999998093E+01 0.  1.
</event>
<event>
 5   0  0.1765328E-04  0.1819300E+04  0.7818609E-02  0.8696103E-01
        2   -1    0    0  501    0  0.00000000000E+00  0.00000000000E+00  0.14489005602E+04  0.14489005602E+04  0.25500000920E-02 0. -1.
       -2   -1    0    0    0  501  0.00000000000E+00  0.00000000000E+00 -0.57109718049E+03  0.57109718050E+03  0.25500000920E-02 0.  1.
    10030    2    1    2    0    0  0.00000000000E+00  0.00000000000E+00  0.87780337974E+03  0.20199977407E+04  0.18192998926E+04 0.  0.
        3    1    3    3  502    0  0.34085201605E+03 -0.23030638822E+03  0.13397244423E+04  0.14014573560E+04  0.10100000352E+00 0. -1.
       -3    1    3    3    0  502 -0.34085201605E+03  0.23030638822E+03 -0.46192106254E+03  0.61854038471E+03  0.10100000352E+00 0.  1.
</event>
<event>
 5   0  0.1799738E-04  0.1875204E+04  0.7818609E-02  0.8667298E-01
        2   -1    0    0  501    0  0.00000000000E+00  0.00000000000E+00  0.18856017421E+04  0.18856017421E+04  0.25500000920E-02 0. -1.
       -2   -1    0    0    0  501  0.00000000000E+00  0.00000000000E+00 -0.46621587387E+03  0.46621587388E+03  0.25500000920E-02 0.  1.
    10030    2    1    2    0    0  0.00000000000E+00  0.00000000000E+00  0.14193858682E+04  0.23518176160E+04  0.18752039505E+04 0.  0.
        1    1    3    3  502    0  0.25746006516E+03 -0.89431396048E+03  0.56661724327E+03  0.10895587389E+04  0.50400001928E-02 0. -1.
       -1    1    3    3    0  502 -0.25746006516E+03  0.89431396048E+03  0.85276862494E+03  0.12622588771E+04  0.50400001928E-02 0.  1.
</event>
<event>
 5   0  0.1810569E-04  0.1898253E+04  0.7818609E-02  0.8655726E-01
        2   -1    0    0  501    0  0.00000000000E+00  0.00000000000E+00  0.16619994298E+04  0.16619994298E+04  0.25500000920E-02 0. -1.
       -2   -1    0    0    0  501  0.00000000000E+00  0.00000000000E+00 -0.54202248854E+03  0.54202248855E+03  0.25500000920E-02 0.  1.
    10030    2    1    2    0    0  0.00000000000E+00  0.00000000000E+00  0.11199769412E+04  0.22040219183E+04  0.18982529514E+04 0.  0.
        4    1    3    3  502    0  0.65166842297E+03 -0.21077592562E+03 -0.20292202101E+03  0.71433688399E+03  0.12699999809E+01 0.  1.
       -4    1    3    3    0  502 -0.65166842297E+03  0.21077592562E+03  0.13228989622E+04  0.14896850343E+04  0.12699999809E+01 0. -1.
</event>
<event>
 5   0  0.8602017E-05  0.1900880E+04  0.7818609E-02  0.8654418E-01
        1   -1    0    0  501    0  0.00000000000E+00  0.00000000000E+00  0.94693321423E+03  0.94693321424E+03  0.50400001928E-02 0.  1.
       -1   -1    0    0    0  501  0.00000000000E+00  0.00000000000E+00 -0.95395995582E+03  0.95395995583E+03  0.50400001928E-02 0. -1.
    10030    2    1    2    0    0  0.00000000000E+00  0.00000000000E+00 -0.70267415882E+01  0.19008931701E+04  0.19008801827E+04 0.  0.
        2    1    3    3  502    0  0.15591204502E+02  0.49800559781E+03 -0.81289131564E+03  0.95343848893E+03  0.25500000920E-02 0. -1.
       -2    1    3    3    0  502 -0.15591204502E+02 -0.49800559781E+03  0.80586457406E+03  0.94745468115E+03  0.25500000920E-02 0.  1.
</event>
<event>
 5   0  0.1790832E-04  0.1895228E+04  0.7818609E-02  0.8657235E-01
       -2   -1    0    0    0  501  0.00000000000E+00  0.00000000000E+00  0.50871652268E+03  0.50871652269E+03  0.25500000920E-02 0. -1.
        2   -1    0    0  501    0  0.00000000000E+00  0.00000000000E+00 -0.17651729673E+04  0.17651729673E+04  0.25500000920E-02 0.  1.
    10030    2    1    2    0    0  0.00000000000E+00  0.00000000000E+00 -0.12564564447E+04  0.22738894900E+04  0.18952283808E+04 0.  0.
        5    1    3    3  502    0  0.75425601904E+03 -0.32074654079E+03 -0.11988198267E+04  0.14522298553E+04  0.46999998093E+01 0.  1.
       -5    1    3    3    0  502 -0.75425601904E+03  0.32074654079E+03 -0.57636617989E+02  0.82165963477E+03  0.46999998093E+01 0. -1.
</event>
<event>
 5   0  0.8567844E-05  0.1884529E+04  0.7818609E-02  0.8662596E-01
        1   -1    0    0  501    0  0.00000000000E+00  0.00000000000E+00  0.84880143701E+03  0.84880143703E+03  0.50400001928E-02 0.  1.
       -1   -1    0    0    0  501  0.00000000000E+00  0.00000000000E+00 -0.10460185793E+04  0.10460185793E+04  0.50400001928E-02 0. -1.
    10030    2    1    2    0    0  0.00000000000E+00  0.00000000000E+00 -0.19721714229E+03  0.18948200163E+04  0.18845286660E+04 0.  0.
        4    1    3    3  502    0 -0.45913019867E+02 -0.56400251582E+03 -0.85615092773E+03  0.10262567258E+04  0.12699999809E+01 0. -1.
       -4    1    3    3    0  502  0.45913019867E+02  0.56400251582E+03  0.65893378543E+03  0.86856329057E+03  0.12699999809E+01 0.  1.
</event>
<event>
 5   0  0.1799738E-04  0.1840466E+04  0.7818609E-02  0.8685071E-01
        2   -1    0    0  501    0  0.00000000000E+00  0.00000000000E+00  0.13223751124E+04  0.13223751124E+04  0.25500000920E-02 0.  1.
       -2   -1    0    0    0  501  0.00000000000E+00  0.00000000000E+00 -0.64038457646E+03  0.64038457647E+03  0.25500000920E-02 0. -1.
    10030    2    1    2    0    0  0.00000000000E+00  0.00000000000E+00  0.68199053596E+03  0.19627596889E+04  0.18404658392E+04 0.  0.
        1    1    3    3  502    0 -0.49996978655E+03 -0.32023125540E+03  0.10907848652E+04  0.12419055788E+04  0.50400001928E-02 0.  1.
       -1    1    3    3    0  502  0.49996978655E+03  0.32023125540E+03 -0.40879432926E+03  0.72085411011E+03  0.50400001928E-02 0. -1.
</event>
<event>
 5   0  0.1790832E-04  0.1893621E+04  0.7818609E-02  0.8658038E-01
       -2   -1    0    0    0  501  0.00000000000E+00  0.00000000000E+00  0.80694718759E+03  0.80694718760E+03  0.25500000920E-02 0. -1.
        2   -1    0    0  501    0  0.00000000000E+00  0.00000000000E+00 -0.11109153259E+04  0.11109153259E+04  0.25500000920E-02 0.  1.
    10030    2    1    2    0    0  0.00000000000E+00  0.00000000000E+00 -0.30396813828E+03  0.19178625135E+04  0.18936208679E+04 0.  0.
        5    1    3    3  502    0  0.53948100156E+03 -0.54137415106E+03 -0.71797823063E+03  0.10486374741E+04  0.46999998093E+01 0.  1.
       -5    1    3    3    0  502 -0.53948100156E+03  0.54137415106E+03  0.41401009235E+03  0.86922503936E+03  0.46999998093E+01 0. -1.
</event>
<event>
 5   0  0.1658711E-04  0.1908880E+04  0.7818609E-02  0.8650449E-01
       -2   -1    0    0    0  501  0.00000000000E+00  0.00000000000E+00  0.10351383378E+04  0.10351383378E+04  0.25500000920E-02 0.  1.
        2   -1    0    0  501    0  0.00000000000E+00  0.00000000000E+00 -0.88003299835E+03  0.88003299836E+03  0.25500000920E-02 0. -1.
    10030    2    1    2    0    0  0.00000000000E+00  0.00000000000E+00  0.15510533948E+03  0.19151713362E+04  0.19088801902E+04 0.  0.
        2    1    3    3  502    0  0.64559921246E+03  0.40731507555E+03  0.65237368868E+03  0.10041391057E+04  0.25500000920E-02 0.  1.
       -2    1    3    3    0  502 -0.64559921246E+03 -0.40731507555E+03 -0.49726834920E+03  0.91103223050E+03  0.25500000920E-02 0. -1.
</event>
<event>
 5   0  0.8905646E-05  0.1909361E+04  0.7818609E-02  0.8650211E-01
       -1   -1    0    0    0  501  0.00000000000E+00  0.00000000000E+00  0.10624395704E+04  0.10624395705E+04  0.50400001928E-02 0.  1.
        1   -1    0    0  501    0  0.00000000000E+00  0.00000000000E+00 -0.85785075182E+03  0.85785075184E+03  0.50400001928E-02 0. -1.
    10030    2    1    2    0    0  0.00000000000E+00  0.00000000000E+00  0.20458881862E+03  0.19202903223E+04  0.19093607143E+04 0.  0.
        1    1    3    3  502    0 -0.53933090724E+03  0.78626662451E+03  0.53836116034E+02  0.95498238714E+03  0.50400001928E-02 0. -1.
       -1    1    3    3    0  502  0.53933090724E+03 -0.78626662451E+03  0.15075270259E+03  0.96530793516E+03  0.50400001928E-02 0.  1.
</event>
<event>
 5   0  0.8567844E-05  0.1910800E+04  0.7818609E-02  0.8649499E-01
       -1   -1    0    0    0  501  0.00000000000E+00  0.00000000000E+00  0.11371149772E+04  0.11371149772E+04  0.50400001928E-02 0.  1.
        1   -1    0    0  501    0  0.00000000000E+00  0.00000000000E+00 -0.80272387814E+03  0.80272387816E+03  0.50400001928E-02 0. -1.
    10030    2    1    2    0    0  0.00000000000E+00  0.00000000000E+00  0.33439109901E+03  0.19398388553E+04  0.19108001930E+04 0.  0.
        4    1    3    3  502    0 -0.33562360885E+03  0.43828992167E+03 -0.62442810539E+03  0.83345865762E+03  0.12699999809E+01 0. -1.
       -4    1    3    3    0  502  0.33562360885E+03 -0.43828992167E+03  0.95881920440E+03  0.11063801977E+04  0.12699999809E+01 0.  1.
</event>
<event>
 5   0  0.1658711E-04  0.1897884E+04  0.7818609E-02  0.8655910E-01
       -2   -1    0    0    0  501  0.00000000000E+00  0.00000000000E+00  0.11026359546E+04  0.11026359546E+04  0.25500000920E-02 0.  1.
        2   -1    0    0  501    0  0.00000000000E+00  0.00000000000E+00 -0.81667121692E+03  0.81667121693E+03  0.25500000920E-02 0. -1.
    10030    2    1    2    0    0  0.00000000000E+00  0.00000000000E+00  0.28596473764E+03  0.19193071715E+04  0.18978841343E+04 0.  0.
        2    1    3    3  502    0 -0.76229273318E+03  0.29335456542E+03  0.63149190860E+03  0.10324384450E+04  0.25500000920E-02 0.  1.
       -2    1    3    3    0  502  0.76229273318E+03 -0.29335456542E+03 -0.34552717096E+03  0.88686872647E+03  0.25500000920E-02 0. -1.
</event>
<event>
 5   0  0.1790832E-04  0.1930064E+04  0.7818609E-02  0.8640035E-01
       -2   -1    0    0    0  501  0.00000000000E+00  0.00000000000E+00  0.94706209196E+03  0.94706209196E+03  0.25500000920E-02 0.  1.
        2   -1    0    0  501    0  0.00000000000E+00  0.00000000000E+00 -0.98334291896E+03  0.98334291896E+03  0.25500000920E-02 0. -1.
    10030    2    1    2    0    0  0.00000000000E+00  0.00000000000E+00 -0.36280826998E+02  0.19304050109E+04  0.19300640424E+04 0.  0.
        5    1    3    3  502    0 -0.38048364422E+02 -0.24367415660E+03 -0.95127894201E+03  0.98274029537E+03  0.46999998093E+01 0. -1.
       -5    1    3    3    0  502  0.38048364422E+02  0.24367415660E+03  0.91499811501E+03  0.94766471555E+03  0.46999998093E+01 0.  1.
</event>
<event>
 5   0  0.8567844E-05  0.1920433E+04  0.7818609E-02  0.8644752E-01
        1   -1    0    0  501    0  0.00000000000E+00  0.00000000000E+00  0.81174387708E+03  0.81174387710E+03  0.50400001928E-02 0. -1.
       -1   -1    0    0    0  501  0.00000000000E+00  0.00000000000E+00 -0.11358458618E+04  0.11358458619E+04  0.50400001928E-02 0.  1.
    10030    2    1    2    0    0  0.00000000000E+00  0.00000000000E+00 -0.32410198477E+03  0.19475897390E+04  0.19204332050E+04 0.  0.
        4    1    3    3  502    0 -0.29294776850E+03 -0.88006332651E+03  0.89824634560E+02  0.93187978389E+03  0.12699999809E+01 0. -1.
       -4    1    3    3    0  502  0.29294776850E+03  0.88006332651E+03 -0.41392661933E+03  0.10157099551E+04  0.12699999809E+01 0.  1.
</event>
<event>
 5   0  0.8602017E-05  0.1836584E+04  0.7818609E-02  0.8687083E-01
       -1   -1    0    0    0  501  0.00000000000E+00  0.00000000000E+00  0.76891631533E+03  0.76891631535E+03  0.50400001928E-02 0.  1.
        1   -1    0    0  501    0  0.00000000000E+00  0.00000000000E+00 -0.10966862293E+04  0.10966862293E+04  0.50400001928E-02 0. -1.
    10030    2    1    2    0    0  0.00000000000E+00  0.00000000000E+00 -0.32776991397E+03  0.18656025447E+04  0.18365837139E+04 0.  0.
        2    1    3    3  502    0  0.64660808696E+03  0.69937169375E+02  0.49463795666E+03  0.81710460405E+03  0.25500000920E-02 0.  1.
       -2    1    3    3    0  502 -0.64660808696E+03 -0.69937169375E+02 -0.82240787063E+03  0.10484979406E+04  0.25500000920E-02 0. -1.
</event>
<event>
 5   0  0.1810569E-04  0.1905724E+04  0.7818609E-02  0.8652013E-01
        2   -1    0    0  501    0  0.00000000000E+00  0.00000000000E+00  0.24109357018E+04  0.24109357018E+04  0.25500000920E-02 0.  1.
       -2   -1    0    0    0  501  0.00000000000E+00  0.00000000000E+00 -0.37659478189E+03  0.37659478190E+03  0.25500000920E-02 0. -1.
    10030    2    1    2    0    0  0.00000000000E+00  0.00000000000E+00  0.20343409199E+04  0.27875304837E+04  0.19057238045E+04 0.  0.
        4    1    3    3  502    0 -0.85520174514E+03 -0.36266303031E+03  0.70671050750E+03  0.11671914379E+04  0.12699999809E+01 0.  1.
       -4    1    3    3    0  502  0.85520174514E+03  0.36266303031E+03  0.13276304124E+04  0.16203390458E+04  0.12699999809E+01 0. -1.
</event>
<event>
 5   0  0.8587082E-05  0.1906673E+04  0.7818609E-02  0.8651542E-01
        1   -1    0    0  501    0  0.00000000000E+00  0.00000000000E+00  0.92135634282E+03  0.92135634284E+03  0.50400001928E-02 0. -1.
       -1   -1    0    0    0  501  0.00000000000E+00  0.00000000000E+00 -0.98642672392E+03  0.98642672393E+03  0.50400001928E-02 0.  1.
    10030    2    1    2    0    0  0.00000000000E+00  0.00000000000E+00 -0.65070381098E+02  0.19077830668E+04  0.19066730384E+04 0.  0.
        5    1    3    3  502    0  0.32067183603E+03  0.82825663123E+03 -0.37913107402E+03  0.96571317423E+03  0.46999998093E+01 0. -1.
       -5    1    3    3    0  502 -0.32067183603E+03 -0.82825663123E+03  0.31406069292E+03  0.94206989254E+03  0.46999998093E+01 0.  1.
</event>
<event>
 5   0  0.1810569E-04  0.1864487E+04  0.7818609E-02  0.8672738E-01
        2   -1    0    0  501    0  0.00000000000E+00  0.00000000000E+00  0.11615054616E+04  0.11615054616E+04  0.25500000920E-02 0.  1.
       -2   -1    0    0    0  501  0.00000000000E+00  0.00000000000E+00 -0.74823407759E+03  0.74823407759E+03  0.25500000920E-02 0. -1.
    10030    2    1    2    0    0  0.00000000000E+00  0.00000000000E+00  0.41327138399E+03  0.19097395392E+04  0.18644870261E+04 0.  0.
        4    1    3    3  502    0 -0.47936974138E+03 -0.73934489258E+03 -0.10513680683E+03  0.88740158901E+03  0.12699999809E+01 0. -1.
       -4    1    3    3    0  502  0.47936974138E+03  0.73934489258E+03  0.51840819082E+03  0.10223379502E+04  0.12699999809E+01 0.  1.
</event>
<event>
 5   0  0.1810569E-04  0.1899698E+04  0.7818609E-02  0.8655007E-01
       -2   -1    0    0    0  501  0.00000000000E+00  0.00000000000E+00  0.11335751890E+04  0.11335751890E+04  0.25500000920E-02 0. -1.
        2   -1    0    0  501    0  0.00000000000E+00  0.00000000000E+00 -0.79590033927E+03  0.79590033928E+03  0.25500000920E-02 0.  1.
    10030    2    1    2    0    0  0.00000000000E+00  0.00000000000E+00  0.33767484969E+03  0.19294755282E+04  0.18996977417E+04 0.  0.
        4    1    3    3  502    0  0.13129391277E+03 -0.68741395526E+03  0.82111529505E+03  0.10788920141E+04  0.12699999809E+01 0. -1.
       -4    1    3    3    0  502 -0.13129391277E+03  0.68741395526E+03 -0.48344044536E+03  0.85058351414E+03  0.12699999809E+01 0.  1.
</event>
<event>
 5   0  0.1765328E-04  0.1901917E+04  0.7818609E-02  0.8653903E-01
        2   -1    0    0  501    0  0.00000000000E+00  0.00000000000E+00  0.71267162638E+03  0.71267162638E+03  0.25500000920E-02 0. -1.
       -2   -1    0    0    0  501  0.00000000000E+00  0.00000000000E+00 -0.12689180311E+04  0.12689180311E+04  0.25500000920E-02 0.  1.
    10030    2    1    2    0    0  0.00000000000E+00  0.00000000000E+00 -0.55624640470E+03  0.19815896575E+04  0.19019167983E+04 0.  0.
        3    1    3    3  502    0  0.43349239797E+02  0.13235001685E+03 -0.12582352671E+04  0.12659193027E+04  0.10100000352E+00 0.  1.
       -3    1    3    3    0  502 -0.43349239797E+02 -0.13235001685E+03  0.70198886237E+03  0.71567035473E+03  0.10100000352E+00 0. -1.
</event>
<event>
 5   0  0.8602017E-05  0.1869507E+04  0.7818609E-02  0.8670186E-01
       -1   -1    0    0    0  501  0.00000000000E+00  0.00000000000E+00  0.43650089821E+03  0.43650089824E+03  0.50400001928E-02 0.  1.
        1   -1    0    0  501    0  0.00000000000E+00  0.00000000000E+00 -0.20017455001E+04  0.20017455001E+04  0.50400001928E-02 0. -1.
    10030    2    1    2    0    0  0.00000000000E+00  0.00000000000E+00 -0.15652446019E+04  0.24382463983E+04  0.18695065753E+04 0.  0.
        2    1    3    3  502    0  0.65253708385E+03  0.42080428191E+02 -0.16538058857E+04  0.17783839057E+04  0.25500000920E-02 0. -1.
       -2    1    3    3    0  502 -0.65253708385E+03 -0.42080428191E+02  0.88561283846E+02  0.65986249267E+03  0.25500000920E-02 0.  1.
</event>
<event>
 5   0  0.8905646E-05  0.1890163E+04  0.7818609E-02  0.8659768E-01
        1   -1    0    0  501    0  0.00000000000E+00  0.00000000000E+00  0.12263226965E+04  0.12263226965E+04  0.50400001928E-02 0.  1.
       -1   -1    0    0    0  501  0.00000000000E+00  0.00000000000E+00 -0.72833921251E+03  0.72833921252E+03  0.50400001928E-02 0. -1.
    10030    2    1    2    0    0  0.00000000000E+00  0.00000000000E+00  0.49798348400E+03  0.19546619090E+04  0.18901628576E+04 0.  0.
        1    1    3    3  502    0 -0.60927683495E+03  0.67472825810E+03  0.51607288773E+03  0.10453744350E+04  0.50400001928E-02 0.  1.
       -1    1    3    3    0  502  0.60927683495E+03 -0.67472825810E+03 -0.18089403736E+02  0.90928747403E+03  0.50400001928E-02 0. -1.
</event>
<event>
 5   0  0.8587082E-05  0.1891203E+04  0.7818609E-02  0.8659248E-01
       -1   -1    0    0    0  501  0.00000000000E+00  0.00000000000E+00  0.61508011384E+03  0.61508011386E+03  0.50400001928E-02 0. -1.
        1   -1    0    0  501    0  0.00000000000E+00  0.00000000000E+00 -0.14537332078E+04  0.14537332078E+04  0.50400001928E-02 0.  1.
    10030    2    1    2    0    0  0.00000000000E+00  0.00000000000E+00 -0.83865309393E+03  0.20688133216E+04  0.18912032011E+04 0.  0.
        5    1    3    3  502    0 -0.46663985291E+03 -0.39624612282E+03 -0.12076860016E+04  0.13539908828E+04  0.46999998093E+01 0.  1.
       -5    1    3    3    0  502  0.46663985291E+03  0.39624612282E+03  0.36903290766E+03  0.71482243887E+03  0.46999998093E+01 0. -1.
</event>
<event>
 5   0  0.1799738E-04  0.1918103E+04  0.7818609E-02  0.8645898E-01
       -2   -1    0    0    0  501  0.00000000000E+00  0.00000000000E+00  0.64771872589E+03  0.64771872590E+03  0.25500000920E-02 0. -1.
        2   -1    0    0  501    0  0.00000000000E+00  0.00000000000E+00 -0.14200294748E+04  0.14200294748E+04  0.25500000920E-02 0.  1.
    10030    2    1    2    0    0  0.00000000000E+00  0.00000000000E+00 -0.77231074892E+03  0.20677482007E+04  0.19181028984E+04 0.  0.
        1    1    3    3  502    0 -0.22573015235E+03  0.33296446727E+03  0.55237636328E+03  0.68332941169E+03  0.50400001928E-02 0. -1.
       -1    1    3    3    0  502  0.22573015235E+03 -0.33296446727E+03 -0.13246871122E+04  0.13844187890E+04  0.50400001928E-02 0.  1.
</event>
<event>
 5   0  0.1790832E-04  0.1901805E+04  0.7818609E-02  0.8653959E-01
       -2   -1    0    0    0  501  0.00000000000E+00  0.00000000000E+00  0.71994892127E+03  0.71994892128E+03  0.25500000920E-02 0. -1.
        2   -1    0    0  501    0  0.00000000000E+00  0.00000000000E+00 -0.12559434066E+04  0.12559434066E+04  0.25500000920E-02 0.  1.
    10030    2    1    2    0    0  0.00000000000E+00  0.00000000000E+00 -0.53599448534E+03  0.19758923279E+04  0.19018045123E+04 0.  0.
        5    1    3    3  502    0 -0.83320337728E+03 -0.40533793863E+03 -0.45975602636E+02  0.92771900834E+03  0.46999998093E+01 0. -1.
       -5    1    3    3    0  502  0.83320337728E+03  0.40533793863E+03 -0.49001888271E+03  0.10481733195E+04  0.46999998093E+01 0.  1.
</event>
<event>
 5   0  0.1810569E-04  0.1900960E+04  0.7818609E-02  0.8654379E-01
       -2   -1    0    0    0  501  0.00000000000E+00  0.00000000000E+00  0.57111370736E+03  0.57111370737E+03  0.25500000920E-02 0.  1.
        2   -1    0    0  501    0  0.00000000000E+00  0.00000000000E+00 -0.15818428186E+04  0.15818428186E+04  0.25500000920E-02 0. -1.
    10030    2    1    2    0    0  0.00000000000E+00  0.00000000000E+00 -0.10107291113E+04  0.21529565260E+04  0.19009598803E+04 0.  0.
        4    1    3    3  502    0  0.78001821962E+02  0.35348311842E+03  0.48998738504E+03  0.60919935131E+03  0.12699999809E+01 0.  1.
       -4    1    3    3    0  502 -0.78001821962E+02 -0.35348311842E+03 -0.15007164963E+04  0.15437571747E+04  0.12699999809E+01 0. -1.
</event>
<event>
 5   0  0.8587082E-05  0.1980419E+04  0.7818609E-02  0.8615831E-01
        1   -1    0    0  501    0  0.00000000000E+00  0.00000000000E+00  0.36777365930E+03  0.36777365934E+03  0.50400001928E-02 0. -1.
       -1   -1    0    0    0  501  0.00000000000E+00  0.00000000000E+00 -0.26660811807E+04  0.26660811807E+04  0.50400001928E-02 0.  1.
    10030    2    1    2    0    0  0.00000000000E+00  0.00000000000E+00 -0.22983075214E+04  0.30338548401E+04  0.19804185738E+04 0.  0.
        5    1    3    3  502    0 -0.40513266401E+03 -0.88946268923E+03 -0.13924166307E+04  0.17012120722E+04  0.46999998093E+01 0.  1.
       -5    1    3    3    0  502  0.40513266401E+03  0.88946268923E+03 -0.90589089069E+03  0.13326427679E+04  0.46999998093E+01 0. -1.
</event>
<event>
 5   0  0.8905646E-05  0.1888525E+04  0.7818609E-02  0.8660590E-01
       -1   -1    0    0    0  501  0.00000000000E+00  0.00000000000E+00  0.75715308625E+03  0.75715308626E+03  0.50400001928E-02 0.  1.
        1   -1    0    0  501    0  0.00000000000E+00  0.00000000000E+00 -0.11776102475E+04  0.11776102476E+04  0.50400001928E-02 0. -1.
    10030    2    1    2    0    0  0.00000000000E+00  0.00000000000E+00 -0.42045716130E+03  0.19347633338E+04  0.18885245387E+04 0.  0.
        1    1    3    3  502    0  0.96567738244E+02  0.19051331170E+03 -0.11525370925E+04  0.11721614222E+04  0.50400001928E-02 0. -1.
       -1    1    3    3    0  502 -0.96567738244E+02 -0.19051331170E+03  0.73207993119E+03  0.76260191167E+03  0.50400001928E-02 0.  1.
</event>
<event>
 5   0  0.8602017E-05  0.1915585E+04  0.7818609E-02  0.8647137E-01
        1   -1    0    0  501    0  0.00000000000E+00  0.00000000000E+00  0.24758800499E+04  0.24758800499E+04  0.50400001928E-02 0. -1.
       -1   -1    0    0    0  501  0.00000000000E+00  0.00000000000E+00 -0.37052137726E+03  0.37052137730E+03  0.50400001928E-02 0.  1.
    10030    2    1    2    0    0  0.00000000000E+00  0.00000000000E+00  0.21053586727E+04  0.28464014272E+04  0.19155850136E+04 0.  0.
        2    1    3    3  502    0 -0.71907500457E+03 -0.23897146938E+03  0.19231661468E+04  0.20670617440E+04  0.25500000920E-02 0. -1.
       -2    1    3    3    0  502  0.71907500457E+03  0.23897146938E+03  0.18219252590E+03  0.77933968324E+03  0.25500000920E-02 0.  1.
</event>
<event>
 5   0  0.8602017E-05  0.1905263E+04  0.7818609E-02  0.8652241E-01
       -1   -1    0    0    0  501  0.00000000000E+00  0.00000000000E+00  0.59821864157E+03  0.59821864159E+03  0.50400001928E-02 0. -1.
        1   -1    0    0  501    0  0.00000000000E+00  0.00000000000E+00 -0.15170146576E+04  0.15170146576E+04  0.50400001928E-02 0.  1.
    10030    2    1    2    0    0  0.00000000000E+00  0.00000000000E+00 -0.91879601606E+03  0.21152332992E+04  0.19052626567E+04 0.  0.
        2    1    3    3  502    0  0.83210595904E+03  0.11740007283E+03 -0.95753694166E+03  0.12739937593E+04  0.25500000920E-02 0.  1.
       -2    1    3    3    0  502 -0.83210595904E+03 -0.11740007283E+03  0.38740925599E+02  0.84123953990E+03  0.25500000920E-02 0. -1.
</event>
<event>
 5   0  0.8587082E-05  0.1889084E+04  0.7818609E-02  0.8660309E-01
        1   -1    0    0  501    0  0.00000000000E+00  0.00000000000E+00  0.10200264936E+04  0.10200264936E+04  0.50400001928E-02 0.  1.
       -1   -1    0    0    0  501  0.00000000000E+00  0.00000000000E+00 -0.87464381122E+03  0.87464381124E+03  0.50400001928E-02 0. -1.
    10030    2    1    2    0    0  0.00000000000E+00  0.00000000000E+00  0.14538268237E+03  0.18946703048E+04  0.18890842860E+04 0.  0.
        5    1    3    3  502    0  0.92034508573E+03 -0.16231198009E+03  0.21005440068E+03  0.95787535564E+03  0.46999998093E+01 0.  1.
       -5    1    3    3    0  502 -0.92034508573E+03  0.16231198009E+03 -0.64671718313E+02  0.93679494920E+03  0.46999998093E+01 0. -1.
</event>
<event>
 5   0  0.1799738E-04  0.1925442E+04  0.7818609E-02  0.8642295E-01
        2   -1    0    0  501    0  0.00000000000E+00  0.00000000000E+00  0.94409597174E+03  0.94409597174E+03  0.25500000920E-02 0.  1.
       -2   -1    0    0    0  501  0.00000000000E+00  0.00000000000E+00 -0.98171375912E+03  0.98171375912E+03  0.25500000920E-02 0. -1.
    10030    2    1    2    0    0  0.00000000000E+00  0.00000000000E+00 -0.37617787379E+02  0.19258097309E+04  0.19254422924E+04 0.  0.
        1    1    3    3  502    0  0.45665902221E+03  0.21814930069E+02  0.82859457874E+03  0.94635211718E+03  0.50400001928E-02 0.  1.
       -1    1    3    3    0  502 -0.45665902221E+03 -0.21814930069E+02 -0.86621236612E+03  0.97945761368E+03  0.50400001928E-02 0. -1.
</event>
<event>
 5   0  0.8602017E-05  0.1904665E+04  0.7818609E-02  0.8652538E-01
       -1   -1    0    0    0  501  0.00000000000E+00  0.00000000000E+00  0.46485493034E+03  0.46485493037E+03  0.50400001928E-02 0. -1.
        1   -1    0    0  501    0  0.00000000000E+00  0.00000000000E+00 -0.19510103224E+04  0.19510103224E+04  0.50400001928E-02 0.  1.
    10030    2    1    2    0    0  0.00000000000E+00  0.00000000000E+00 -0.14861553921E+04  0.24158652528E+04  0.19046645558E+04 0.  0.
        2    1    3    3  502    0 -0.65077711309E+03  0.57377143461E+03 -0.12411743850E+04  0.15143442026E+04  0.25500000920E-02 0.  1.
       -2    1    3    3    0  502  0.65077711309E+03 -0.57377143461E+03 -0.24498100713E+03  0.90152105020E+03  0.25500000920E-02 0. -1.
</event>
<event>
 5   0  0.8905646E-05  0.2051227E+04  0.7818609E-02  0.8583038E-01
        1   -1    0    0  501    0  0.00000000000E+00  0.00000000000E+00  0.87874945659E+03  0.87874945661E+03  0.50400001928E-02 0.  1.
       -1   -1    0    0    0  501  0.00000000000E+00  0.00000000000E+00 -0.11970231764E+04  0.11970231764E+04  0.50400001928E-02 0. -1.
    10030    2    1    2    0    0  0.00000000000E+00  0.00000000000E+00 -0.31827371983E+03  0.20757726330E+04  0.20512274041E+04 0.  0.
        1    1    3    3  502    0  0.34074776183E+03  0.87182937253E+03 -0.58330396876E+03  0.11029229402E+04  0.50400001928E-02 0. -1.
       -1    1    3    3    0  502 -0.34074776183E+03 -0.87182937253E+03  0.26503024893E+03  0.97284969285E+03  0.50400001928E-02 0.  1.
</event>
<event>
 5   0  0.1810569E-04  0.1871335E+04  0.7818609E-02  0.8669258E-01
        2   -1    0    0  501    0  0.00000000000E+00  0.00000000000E+00  0.86941248109E+03  0.86941248110E+03  0.25500000920E-02 0. -1.
       -2   -1    0    0    0  501  0.00000000000E+00  0.00000000000E+00 -0.10069711896E+04  0.10069711896E+04  0.25500000920E-02 0.  1.
    10030    2    1    2    0    0  0.00000000000E+00  0.00000000000E+00 -0.13755870848E+03  0.18763836707E+04  0.18713346257E+04 0.  0.
        4    1    3    3  502    0 -0.45549821742E+03 -0.80314969544E+03 -0.22065964767E+03  0.94932626234E+03  0.12699999809E+01 0.  1.
       -4    1    3    3    0  502  0.45549821742E+03  0.80314969544E+03  0.83100939191E+02  0.92705740833E+03  0.12699999809E+01 0. -1.
</event>
<event>
 5   0  0.8587082E-05  0.1962716E+04  0.7818609E-02  0.8624253E-01
        1   -1    0    0  501    0  0.00000000000E+00  0.00000000000E+00  0.10270541195E+04  0.10270541196E+04  0.50400001928E-02 0. -1.
       -1   -1    0    0    0  501  0.00000000000E+00  0.00000000000E+00 -0.93769489509E+03  0.93769489511E+03  0.50400001928E-02 0.  1.
    10030    2    1    2    0    0  0.00000000000E+00  0.00000000000E+00  0.89359224450E+02  0.19647490147E+04  0.19627158785E+04 0.  0.
        5    1    3    3  502    0  0.22776435180E+03  0.31058517767E+03 -0.85886358047E+03  0.94128024116E+03  0.46999998093E+01 0.  1.
       -5    1    3    3    0  502 -0.22776435180E+03 -0.31058517767E+03  0.94822280492E+03  0.10234687735E+04  0.46999998093E+01 0. -1.
</event>
<event>
 5   0  0.8587082E-05  0.1883433E+04  0.7818609E-02  0.8663147E-01
        1   -1    0    0  501    0  0.00000000000E+00  0.00000000000E+00  0.17660341879E+04  0.17660341879E+04  0.50400001928E-02 0. -1.
       -1   -1    0    0    0  501  0.00000000000E+00  0.00000000000E+00 -0.50215879312E+03  0.50215879314E+03  0.50400001928E-02 0.  1.
    10030    2    1    2    0    0  0.00000000000E+00  0.00000000000E+00  0.12638753948E+04  0.22681929811E+04  0.18834326072E+04 0.  0.
        5    1    3    3  502    0 -0.49132829445E+03 -0.63523051208E+03  0.39646235462E+02  0.80406169563E+03  0.46999998093E+01 0. -1.
       -5    1    3    3    0  502  0.49132829445E+03  0.63523051208E+03  0.12242291593E+04  0.14641312854E+04  0.46999998093E+01 0.  1.
</event>
<event>
 5   0  0.8602017E-05  0.1868765E+04  0.7818609E-02  0.8670562E-01
       -1   -1    0    0    0  501  0.00000000000E+00  0.00000000000E+00  0.59667862538E+03  0.59667862540E+03  0.50400001928E-02 0.  1.
        1   -1    0    0  501    0  0.00000000000E+00  0.00000000000E+00 -0.14632173545E+04  0.14632173545E+04  0.50400001928E-02 0. -1.
    10030    2    1    2    0    0  0.00000000000E+00  0.00000000000E+00 -0.86653872907E+03  0.20598959799E+04  0.18687648538E+04 0.  0.
        2    1    3    3  502    0 -0.19490365984E+03 -0.84015834481E+03 -0.82950225670E+03  0.11966317206E+04  0.25500000920E-02 0. -1.
       -2    1    3    3    0  502  0.19490365984E+03  0.84015834481E+03 -0.37036472371E+02  0.86326425923E+03  0.25500000920E-02 0.  1.
</event>
<event>
 5   0  0.1799738E-04  0.1886197E+04  0.7818609E-02  0.8661757E-01
        2   -1    0    0  501    0  0.00000000000E+00  0.00000000000E+00  0.14680622111E+04  0.14680622111E+04  0.25500000920E-02 0.  1.
       -2   -1    0    0    0  501  0.00000000000E+00  0.00000000000E+00 -0.60585658715E+03  0.60585658715E+03  0.25500000920E-02 0. -1.
    10030    2    1    2    0    0  0.00000000000E+00  0.00000000000E+00  0.86220562399E+03  0.20739187983E+04  0.18861974032E+04 0.  0.
        1    1    3    3  502    0 -0.56014384740E+03 -0.42822601650E+03  0.11197738636E+04  0.13232657166E+04  0.50400001928E-02 0.  1.
       -1    1    3    3    0  502  0.56014384740E+03  0.42822601650E+03 -0.25756823963E+03  0.75065308171E+03  0.50400001928E-02 0. -1.
</event>
<event>
 5   0  0.8567844E-05  0.1882174E+04  0.7818609E-02  0.8663781E-01
        1   -1    0    0  501    0  0.00000000000E+00  0.00000000000E+00  0.10816154861E+04  0.10816154861E+04  0.50400001928E-02 0. -1.
       -1   -1    0    0    0  501  0.00000000000E+00  0.00000000000E+00 -0.81881690011E+03  0.81881690012E+03  0.50400001928E-02 0.  1.
    10030    2    1    2    0    0  0.00000000000E+00  0.00000000000E+00  0.26279858597E+03  0.19004323862E+04  0.18821743165E+04 0.  0.
        4    1    3    3  502    0 -0.43453009545E+03  0.40875121278E+03  0.86629861186E+03  0.10518406988E+04  0.12699999809E+01 0. -1.
       -4    1    3    3    0  502  0.43453009545E+03 -0.40875121278E+03 -0.60350002590E+03  0.84859168742E+03  0.12699999809E+01 0.  1.
</event>
<event>
 5   0  0.1799738E-04  0.1896798E+04  0.7818609E-02  0.8656452E-01
        2   -1    0    0  501    0  0.00000000000E+00  0.00000000000E+00  0.16791261340E+04  0.16791261340E+04  0.25500000920E-02 0.  1.
       -2   -1    0    0    0  501  0.00000000000E+00  0.00000000000E+00 -0.53567187249E+03  0.53567187250E+03  0.25500000920E-02 0. -1.
    10030    2    1    2    0    0  0.00000000000E+00  0.00000000000E+00  0.11434542615E+04  0.22147980065E+04  0.18967979759E+04 0.  0.
        1    1    3    3  502    0 -0.74693012792E+03 -0.23744166076E+03  0.11952762376E+04  0.14293244707E+04  0.50400001928E-02 0.  1.
       -1    1    3    3    0  502  0.74693012792E+03  0.23744166076E+03 -0.51821976093E+02  0.78547353583E+03  0.50400001928E-02 0. -1.
</event>
<event>
 5   0  0.1765328E-04  0.1840526E+04  0.7818609E-02  0.8685040E-01
       -2   -1    0    0    0  501  0.00000000000E+00  0.00000000000E+00  0.82545034986E+03  0.82545034986E+03  0.25500000920E-02 0.  1.
        2   -1    0    0  501    0  0.00000000000E+00  0.00000000000E+00 -0.10259654916E+04  0.10259654916E+04  0.25500000920E-02 0. -1.
    10030    2    1    2    0    0  0.00000000000E+00  0.00000000000E+00 -0.20051514177E+03  0.18514158415E+04  0.18405255489E+04 0.  0.
        3    1    3    3  502    0  0.71776665181E+03 -0.57402391691E+03 -0.53170984537E+02  0.92060827035E+03  0.10100000352E+00 0.  1.
       -3    1    3    3    0  502 -0.71776665181E+03  0.57402391691E+03 -0.14734415724E+03  0.93080757115E+03  0.10100000352E+00 0. -1.
</event>
<event>
 5   0  0.1765328E-04  0.1901844E+04  0.7818609E-02  0.8653939E-01
        2   -1    0    0  501    0  0.00000000000E+00  0.00000000000E+00  0.23508069823E+04  0.23508069823E+04  0.25500000920E-02 0. -1.
       -2   -1    0    0    0  501  0.00000000000E+00  0.00000000000E+00 -0.38465626540E+03  0.38465626541E+03  0.25500000920E-02 0.  1.
    10030    2    1    2    0    0  0.00000000000E+00  0.00000000000E+00  0.19661507169E+04  0.27354632477E+04  0.19018439836E+04 0.  0.
        3    1    3    3  502    0  0.69835939189E+03 -0.17667735638E+03  0.18759150253E+04  0.20094720503E+04  0.10100000352E+00 0. -1.
       -3    1    3    3    0  502 -0.69835939189E+03  0.17667735638E+03  0.90235691587E+02  0.72599119742E+03  0.10100000352E+00 0.  1.
</event>
<event>
 5   0  0.8905646E-05  0.1912656E+04  0.7818609E-02  0.8648582E-01
       -1   -1    0    0    0  501  0.00000000000E+00  0.00000000000E+00  0.79751902808E+03  0.79751902810E+03  0.50400001928E-02 0. -1.
        1   -1    0    0  501    0  0.00000000000E+00  0.00000000000E+00 -0.11467600143E+04  0.11467600143E+04  0.50400001928E-02 0.  1.
    10030    2    1    2    0    0  0.00000000000E+00  0.00000000000E+00 -0.34924098623E+03  0.19442790424E+04  0.19126556743E+04 0.  0.
        1    1    3    3  502    0  0.78124402301E+03  0.70852240735E+02  0.38141572584E+03  0.87226155449E+03  0.50400001928E-02 0. -1.
       -1    1    3    3    0  502 -0.78124402301E+03 -0.70852240735E+02 -0.73065671207E+03  0.10720174879E+04  0.50400001928E-02 0.  1.
</event>
<event>
 5   0  0.8587082E-05  0.1910524E+04  0.7818609E-02  0.8649636E-01
       -1   -1    0    0    0  501  0.00000000000E+00  0.00000000000E+00  0.76088476179E+03  0.76088476181E+03  0.50400001928E-02 0. -1.
        1   -1    0    0  501    0  0.00000000000E+00  0.00000000000E+00 -0.11992949250E+04  0.11992949250E+04  0.50400001928E-02 0.  1.
    10030    2    1    2    0    0  0.00000000000E+00  0.00000000000E+00 -0.43841016320E+03  0.19601796868E+04  0.19105237327E+04 0.  0.
        5    1    3    3  502    0 -0.33415880293E+03 -0.47466710737E+03  0.55915087132E+03  0.80600419062E+03  0.46999998093E+01 0. -1.
       -5    1    3    3    0  502  0.33415880293E+03  0.47466710737E+03 -0.99756103453E+03  0.11541754962E+04  0.46999998093E+01 0.  1.
</event>
<event>
 5   0  0.1765328E-04  0.1900748E+04  0.7818609E-02  0.8654484E-01
        2   -1    0    0  501    0  0.00000000000E+00  0.00000000000E+00  0.69435989170E+03  0.69435989170E+03  0.25500000920E-02 0. -1.
       -2   -1    0    0    0  501  0.00000000000E+00  0.00000000000E+00 -0.13007821504E+04  0.13007821504E+04  0.25500000920E-02 0.  1.
    10030    2    1    2    0    0  0.00000000000E+00  0.00000000000E+00 -0.60642225874E+03  0.19951420421E+04  0.19007482244E+04 0.  0.
        3    1    3    3  502    0  0.32717005893E+03  0.57392116497E+03 -0.10203574291E+04  0.12155472201E+04  0.10100000352E+00 0.  1.
       -3    1    3    3    0  502 -0.32717005893E+03 -0.57392116497E+03  0.41393517035E+03  0.77959482202E+03  0.10100000352E+00 0. -1.
</event>
<event>
 5   0  0.8587082E-05  0.1902979E+04  0.7818609E-02  0.8653375E-01
        1   -1    0    0  501    0  0.00000000000E+00  0.00000000000E+00  0.55488720091E+03  0.55488720093E+03  0.50400001928E-02 0.  1.
       -1   -1    0    0    0  501  0.00000000000E+00  0.00000000000E+00 -0.16315614034E+04  0.16315614034E+04  0.50400001928E-02 0. -1.
    10030    2    1    2    0    0  0.00000000000E+00  0.00000000000E+00 -0.10766742025E+04  0.21864486043E+04  0.19029792855E+04 0.  0.
        5    1    3    3  502    0 -0.73899606790E+03  0.35770554315E+03  0.14170906162E+02  0.82115245147E+03  0.46999998093E+01 0.  1.
       -5    1    3    3    0  502  0.73899606790E+03 -0.35770554315E+03 -0.10908451086E+04  0.13652961528E+04  0.46999998093E+01 0. -1.
</event>
<event>
 5   0  0.1658711E-04  0.1891315E+04  0.7818609E-02  0.8659192E-01
        2   -1    0    0  501    0  0.00000000000E+00  0.00000000000E+00  0.62830545300E+03  0.62830545301E+03  0.25500000920E-02 0.  1.
       -2   -1    0    0    0  501  0.00000000000E+00  0.00000000000E+00 -0.14233008119E+04  0.14233008119E+04  0.25500000920E-02 0. -1.
    10030    2    1    2    0    0  0.00000000000E+00  0.00000000000E+00 -0.79499535888E+03  0.20516062649E+04  0.18913145284E+04 0.  0.
        2    1    3    3  502    0  0.88714774463E+03  0.32263824121E+03 -0.33670216395E+03  0.10022449315E+04  0.25500000920E-02 0. -1.
       -2    1    3    3    0  502 -0.88714774463E+03 -0.32263824121E+03 -0.45829319493E+03  0.10493613334E+04  0.25500000920E-02 0.  1.
</event>
<event>
 5   0  0.8681396E-05  0.1893510E+04  0.7818609E-02  0.8658094E-01
        1   -1    0    0  501    0  0.00000000000E+00  0.00000000000E+00  0.89134316316E+03  0.89134316318E+03  0.50400001928E-02 0. -1.
       -1   -1    0    0    0  501  0.00000000000E+00  0.00000000000E+00 -0.10056114662E+04  0.10056114662E+04  0.50400001928E-02 0.  1.
    10030    2    1    2    0    0  0.00000000000E+00  0.00000000000E+00 -0.11426830307E+03  0.18969546294E+04  0.18935098682E+04 0.  0.
        3    1    3    3  502    0 -0.58167760802E+03 -0.31962194957E+03  0.61925178584E+03  0.90773333903E+03  0.10100000352E+00 0. -1.
       -3    1    3    3    0  502  0.58167760802E+03  0.31962194957E+03 -0.73352008891E+03  0.98922129039E+03  0.10100000352E+00 0.  1.
</event>
<event>
 5   0  0.8905646E-05  0.1919573E+04  0.7818609E-02  0.8645175E-01
       -1   -1    0    0    0  501  0.00000000000E+00  0.00000000000E+00  0.13738068133E+04  0.13738068133E+04  0.50400001928E-02 0.  1.
        1   -1    0    0  501    0  0.00000000000E+00  0.00000000000E+00 -0.67053802586E+03  0.67053802588E+03  0.50400001928E-02 0. -1.
    10030    2    1    2    0    0  0.00000000000E+00  0.00000000000E+00  0.70326878744E+03  0.20443448392E+04  0.19195725655E+04 0.  0.
        1    1    3    3  502    0  0.81205738439E+03  0.86039974942E+02 -0.18547800754E+03  0.83740203257E+03  0.50400001928E-02 0. -1.
       -1    1    3    3    0  502 -0.81205738439E+03 -0.86039974942E+02  0.88874679499E+03  0.12069428066E+04  0.50400001928E-02 0.  1.
</event>
<event>
 5   0  0.8567844E-05  0.1811297E+04  0.7818609E-02  0.8700315E-01
       -1   -1    0    0    0  501  0.00000000000E+00  0.00000000000E+00  0.70319951259E+03  0.70319951261E+03  0.50400001928E-02 0.  1.
        1   -1    0    0  501    0  0.00000000000E+00  0.00000000000E+00 -0.11663815693E+04  0.11663815693E+04  0.50400001928E-02 0. -1.
    10030    2    1    2    0    0  0.00000000000E+00  0.00000000000E+00 -0.46318205667E+03  0.18695810819E+04  0.18112967190E+04 0.  0.
        4    1    3    3  502    0  0.26463356096E+03  0.67173277481E+03  0.33275803168E+03  0.79497507061E+03  0.12699999809E+01 0.  1.
       -4    1    3    3    0  502 -0.26463356096E+03 -0.67173277481E+03 -0.79594008835E+03  0.10746060113E+04  0.12699999809E+01 0. -1.
</event>
<event>
 5   0  0.1658711E-04  0.1878125E+04  0.7818609E-02  0.8665822E-01
       -2   -1    0    0    0  501  0.00000000000E+00  0.00000000000E+00  0.65612964041E+03  0.65612964042E+03  0.25500000920E-02 0. -1.
        2   -1    0    0  501    0  0.00000000000E+00  0.00000000000E+00 -0.13440004210E+04  0.13440004210E+04  0.25500000920E-02 0.  1.
    10030    2    1    2    0    0  0.00000000000E+00  0.00000000000E+00 -0.68787078055E+03  0.20001300614E+04  0.18781251427E+04 0.  0.
        2    1    3    3  502    0 -0.75102476945E+03  0.10508304339E+03 -0.93377177917E+03  0.12029174477E+04  0.25500000920E-02 0.  1.
       -2    1    3    3    0  502  0.75102476945E+03 -0.10508304339E+03  0.24590099862E+03  0.79721261371E+03  0.25500000920E-02 0. -1.
</event>
<event>
 5   0  0.8681396E-05  0.1880457E+04  0.7818609E-02  0.8664646E-01
       -1   -1    0    0    0  501  0.00000000000E+00  0.00000000000E+00  0.88501688097E+03  0.88501688098E+03  0.50400001928E-02 0. -1.
        1   -1    0    0  501    0  0.00000000000E+00  0.00000000000E+00 -0.99888497277E+03  0.99888497279E+03  0.50400001928E-02 0.  1.
    10030    2    1    2    0    0  0.00000000000E+00  0.00000000000E+00 -0.11386809180E+03  0.18839018538E+04  0.18804574583E+04 0.  0.
        3    1    3    3  502    0 -0.81337499877E+03 -0.32113366074E+03 -0.40300031763E+03  0.96286810254E+03  0.10100000352E+00 0.  1.
       -3    1    3    3    0  502  0.81337499877E+03  0.32113366074E+03  0.28913222583E+03  0.92103375123E+03  0.10100000352E+00 0. -1.
</event>
<event>
 5   0  0.8587082E-05  0.1923499E+04  0.7818609E-02  0.8643247E-01
       -1   -1    0    0    0  501  0.00000000000E+00  0.00000000000E+00  0.10423462682E+04  0.10423462682E+04  0.50400001928E-02 0. -1.
        1   -1    0    0  501    0  0.00000000000E+00  0.00000000000E+00 -0.88738475620E+03  0.88738475622E+03  0.50400001928E-02 0.  1.
    10030    2    1    2    0    0  0.00000000000E+00  0.00000000000E+00  0.15496151198E+03  0.19297310244E+04  0.19234990919E+04 0.  0.
        5    1    3    3  502    0  0.93525646267E+03 -0.75674229352E+02  0.28913550857E+03  0.98186183971E+03  0.46999998093E+01 0. -1.
       -5    1    3    3    0  502 -0.93525646267E+03  0.75674229352E+02 -0.13417399659E+03  0.94786918471E+03  0.46999998093E+01 0.  1.
</event>
<event>
 5   0  0.8567844E-05  0.1908589E+04  0.7818609E-02  0.8650593E-01
       -1   -1    0    0    0  501  0.00000000000E+00  0.00000000000E+00  0.13849080333E+04  0.13849080333E+04  0.50400001928E-02 0. -1.
        1   -1    0    0  501    0  0.00000000000E+00  0.00000000000E+00 -0.65757258535E+03  0.65757258537E+03  0.50400001928E-02 0.  1.
    10030    2    1    2    0    0  0.00000000000E+00  0.00000000000E+00  0.72733544793E+03  0.20424806187E+04  0.19085885423E+04 0.  0.
        4    1    3    3  502    0 -0.95385387821E+01 -0.78705569828E+02  0.13813766929E+04  0.13836505090E+04  0.12699999809E+01 0. -1.
       -4    1    3    3    0  502  0.95385387821E+01  0.78705569828E+02 -0.65404124495E+03  0.65883010969E+03  0.12699999809E+01 0.  1.
</event>
<event>
 5   0  0.1658711E-04  0.1937871E+04  0.7818609E-02  0.8636232E-01
        2   -1    0    0  501    0  0.00000000000E+00  0.00000000000E+00  0.92166226317E+03  0.92166226317E+03  0.25500000920E-02 0.  1.
       -2   -1    0    0    0  501  0.00000000000E+00  0.00000000000E+00 -0.10186339614E+04  0.10186339614E+04  0.25500000920E-02 0. -1.
    10030    2    1    2    0    0  0.00000000000E+00  0.00000000000E+00 -0.96971698263E+02  0.19402962246E+04  0.19378714944E+04 0.  0.
        2    1    3    3  502    0  0.75113653436E+03 -0.60489587583E+03  0.45072859826E+02  0.96547225571E+03  0.25500000920E-02 0. -1.
       -2    1    3    3    0  502 -0.75113653436E+03  0.60489587583E+03 -0.14204455809E+03  0.97482396890E+03  0.25500000920E-02 0.  1.
</event>
<event>
 5   0  0.1810569E-04  0.1806450E+04  0.7818609E-02  0.8702877E-01
        2   -1    0    0  501    0  0.00000000000E+00  0.00000000000E+00  0.94715266598E+03  0.94715266598E+03  0.25500000920E-02 0. -1.
       -2   -1    0    0    0  501  0.00000000000E+00  0.00000000000E+00 -0.86133506868E+03  0.86133506869E+03  0.25500000920E-02 0.  1.
    10030    2    1    2    0    0  0.00000000000E+00  0.00000000000E+00  0.85817597291E+02  0.18084877347E+04  0.18064504495E+04 0.  0.
        4    1    3    3  502    0 -0.29582576869E+03  0.85158391793E+03 -0.12886802102E+02  0.90159621631E+03  0.12699999809E+01 0. -1.
       -4    1    3    3    0  502  0.29582576869E+03 -0.85158391793E+03  0.98704399392E+02  0.90689151835E+03  0.12699999809E+01 0.  1.
</event>
<event>
 5   0  0.1810569E-04  0.1945187E+04  0.7818609E-02  0.8632685E-01
       -2   -1    0    0    0  501  0.00000000000E+00  0.00000000000E+00  0.94789937408E+03  0.94789937409E+03  0.25500000920E-02 0. -1.
        2   -1    0    0  501    0  0.00000000000E+00  0.00000000000E+00 -0.99793088462E+03  0.99793088462E+03  0.25500000920E-02 0.  1.
    10030    2    1    2    0    0  0.00000000000E+00  0.00000000000E+00 -0.50031510536E+02  0.19458302587E+04  0.19451869431E+04 0.  0.
        4    1    3    3  502    0 -0.84757672176E+03  0.45941322377E+02 -0.49997752617E+03  0.98512742523E+03  0.12699999809E+01 0.  1.
       -4    1    3    3    0  502  0.84757672176E+03 -0.45941322377E+02  0.44994601563E+03  0.96070283348E+03  0.12699999809E+01 0. -1.
</event>
<event>
 5   0  0.8567844E-05  0.1897452E+04  0.7818609E-02  0.8656126E-01
       -1   -1    0    0    0  501  0.00000000000E+00  0.00000000000E+00  0.10968140138E+04  0.10968140138E+04  0.50400001928E-02 0.  1.
        1   -1    0    0  501    0  0.00000000000E+00  0.00000000000E+00 -0.82063220788E+03  0.82063220789E+03  0.50400001928E-02 0. -1.
    10030    2    1    2    0    0  0.00000000000E+00  0.00000000000E+00  0.27618180595E+03  0.19174462217E+04  0.18974518764E+04 0.  0.
        4    1    3    3  502    0 -0.20821538653E+02  0.38113626793E+03 -0.73961246468E+03  0.83230198968E+03  0.12699999809E+01 0. -1.
       -4    1    3    3    0  502  0.20821538653E+02 -0.38113626793E+03  0.10157942706E+04  0.10851442321E+04  0.12699999809E+01 0.  1.
</event>
<event>
 5   0  0.1658711E-04  0.1906412E+04  0.7818609E-02  0.8651671E-01
        2   -1    0    0  501    0  0.00000000000E+00  0.00000000000E+00  0.18657559600E+04  0.18657559600E+04  0.25500000920E-02 0. -1.
       -2   -1    0    0    0  501  0.00000000000E+00  0.00000000000E+00 -0.48698828164E+03  0.48698828165E+03  0.25500000920E-02 0.  1.
    10030    2    1    2    0    0  0.00000000000E+00  0.00000000000E+00  0.13787676783E+04  0.23527442416E+04  0.19064115914E+04 0.  0.
        2    1    3    3  502    0  0.52268173170E+03  0.97496581363E+02 -0.28697700899E+03  0.60419995012E+03  0.25500000920E-02 0.  1.
       -2    1    3    3    0  502 -0.52268173170E+03 -0.97496581363E+02  0.16657446873E+04  0.17485442915E+04  0.25500000920E-02 0. -1.
</event>
<event>
 5   0  0.1810569E-04  0.1896954E+04  0.7818609E-02  0.8656374E-01
       -2   -1    0    0    0  501  0.00000000000E+00  0.00000000000E+00  0.82094981151E+03  0.82094981151E+03  0.25500000920E-02 0.  1.
        2   -1    0    0  501    0  0.00000000000E+00  0.00000000000E+00 -0.10958143603E+04  0.10958143603E+04  0.25500000920E-02 0. -1.
    10030    2    1    2    0    0  0.00000000000E+00  0.00000000000E+00 -0.27486454883E+03  0.19167641718E+04  0.18969539716E+04 0.  0.
        4    1    3    3  502    0 -0.40133272339E+03 -0.24837803390E+03 -0.96873128761E+03  0.10775906101E+04  0.12699999809E+01 0. -1.
       -4    1    3    3    0  502  0.40133272339E+03  0.24837803390E+03  0.69386673878E+03  0.83917356170E+03  0.12699999809E+01 0.  1.
</event>
<event>
 5   0  0.1790832E-04  0.1899196E+04  0.7818609E-02  0.8655257E-01
        2   -1    0    0  501    0  0.00000000000E+00  0.00000000000E+00  0.74680902324E+03  0.74680902324E+03  0.25500000920E-02 0.  1.
       -2   -1    0    0    0  501  0.00000000000E+00  0.00000000000E+00 -0.12074519069E+04  0.12074519069E+04  0.25500000920E-02 0. -1.
    10030    2    1    2    0    0  0.00000000000E+00  0.00000000000E+00 -0.46064288369E+03  0.19542609302E+04  0.18991955973E+04 0.  0.
        5    1    3    3  502    0  0.27396586643E+03  0.42959806066E+03  0.59422457826E+03  0.78277501819E+03  0.46999998093E+01 0.  1.
       -5    1    3    3    0  502 -0.27396586643E+03 -0.42959806066E+03 -0.10548674620E+04  0.11714859120E+04  0.46999998093E+01 0. -1.
</event>
<event>
 5   0  0.6375750E-05  0.1903819E+04  0.7818609E-02  0.8652958E-01
        4   -1    0    0  501    0  0.00000000000E+00  0.00000000000E+00  0.12010252126E+04  0.12010258841E+04  0.12699999809E+01 0. -1.
       -4   -1    0    0    0  501  0.00000000000E+00  0.00000000000E+00 -0.75446340955E+03  0.75446447846E+03  0.12699999809E+01 0.  1.
    10030    2    1    2    0    0  0.00000000000E+00  0.00000000000E+00  0.44656180310E+03  0.19554903626E+04  0.19038185612E+04 0.  0.
        3    1    3    3  502    0  0.93617257032E+03 -0.30293927330E+02  0.48986021708E+02  0.93794266561E+03  0.10100000352E+00 0.  1.
       -3    1    3    3    0  502 -0.93617257032E+03  0.30293927330E+02  0.39757578139E+03  0.10175476970E+04  0.10100000352E+00 0. -1.
</event>
<event>
 5   0  0.1790832E-04  0.1898364E+04  0.7818609E-02  0.8655671E-01
        2   -1    0    0  501    0  0.00000000000E+00  0.00000000000E+00  0.12201672172E+04  0.12201672172E+04  0.25500000920E-02 0. -1.
       -2   -1    0    0    0  501  0.00000000000E+00  0.00000000000E+00 -0.73837939068E+03  0.73837939068E+03  0.25500000920E-02 0.  1.
    10030    2    1    2    0    0  0.00000000000E+00  0.00000000000E+00  0.48178782648E+03  0.19585466078E+04  0.18983638496E+04 0.  0.
        5    1    3    3  502    0  0.76288638750E+03  0.20609295675E+03 -0.30156409149E+03  0.84583268933E+03  0.46999998093E+01 0.  1.
       -5    1    3    3    0  502 -0.76288638750E+03 -0.20609295675E+03  0.78335191797E+03  0.11127139185E+04  0.46999998093E+01 0. -1.
</event>
<event>
 5   0  0.8587082E-05  0.1893776E+04  0.7818609E-02  0.8657961E-01
       -1   -1    0    0    0  501  0.00000000000E+00  0.00000000000E+00  0.72970945933E+03  0.72970945935E+03  0.50400001928E-02 0. -1.
        1   -1    0    0  501    0  0.00000000000E+00  0.00000000000E+00 -0.12287035331E+04  0.12287035331E+04  0.50400001928E-02 0.  1.
    10030    2    1    2    0    0  0.00000000000E+00  0.00000000000E+00 -0.49899407372E+03  0.19584129924E+04  0.18937756898E+04 0.  0.
        5    1    3    3  502    0  0.56227826765E+03  0.32132433696E+03 -0.96384785436E+03  0.11612195986E+04  0.46999998093E+01 0.  1.
       -5    1    3    3    0  502 -0.56227826765E+03 -0.32132433696E+03  0.46485378064E+03  0.79719339383E+03  0.46999998093E+01 0. -1.
</event>
<event>
 5   0  0.8602017E-05  0.1921431E+04  0.7818609E-02  0.8644262E-01
        1   -1    0    0  501    0  0.00000000000E+00  0.00000000000E+00  0.11722215000E+04  0.11722215000E+04  0.50400001928E-02 0.  1.
       -1   -1    0    0    0  501  0.00000000000E+00  0.00000000000E+00 -0.78737188295E+03  0.78737188297E+03  0.50400001928E-02 0. -1.
    10030    2    1    2    0    0  0.00000000000E+00  0.00000000000E+00  0.38484961707E+03  0.19595933830E+04  0.19214309769E+04 0.  0.
        2    1    3    3  502    0  0.39827504592E+03 -0.69066146868E+03 -0.35426085920E+03  0.87243167807E+03  0.25500000920E-02 0. -1.
       -2    1    3    3    0  502 -0.39827504592E+03  0.69066146868E+03  0.73911047627E+03  0.10871617049E+04  0.25500000920E-02 0.  1.
</event>
<event>
 5   0  0.1799738E-04  0.1943264E+04  0.7818609E-02  0.8633616E-01
       -2   -1    0    0    0  501  0.00000000000E+00  0.00000000000E+00  0.93582383267E+03  0.93582383268E+03  0.25500000920E-02 0.  1.
        2   -1    0    0  501    0  0.00000000000E+00  0.00000000000E+00 -0.10088105065E+04  0.10088105065E+04  0.25500000920E-02 0. -1.
    10030    2    1    2    0    0  0.00000000000E+00  0.00000000000E+00 -0.72986673813E+02  0.19446343392E+04  0.19432641762E+04 0.  0.
        1    1    3    3  502    0  0.23860917038E+01  0.60800149749E+03  0.72193113641E+03  0.94385172571E+03  0.50400001928E-02 0.  1.
       -1    1    3    3    0  502 -0.23860917038E+01 -0.60800149749E+03 -0.79491781022E+03  0.10007826135E+04  0.50400001928E-02 0. -1.
</event>
<event>
 5   0  0.8567844E-05  0.1901351E+04  0.7818609E-02  0.8654184E-01
       -1   -1    0    0    0  501  0.00000000000E+00  0.00000000000E+00  0.17899384921E+04  0.17899384921E+04  0.50400001928E-02 0. -1.
        1   -1    0    0  501    0  0.00000000000E+00  0.00000000000E+00 -0.50492467491E+03  0.50492467494E+03  0.50400001928E-02 0.  1.
    10030    2    1    2    0    0  0.00000000000E+00  0.00000000000E+00  0.12850138171E+04  0.22948631670E+04  0.19013512156E+04 0.  0.
        4    1    3    3  502    0  0.87278224277E+03  0.28694427090E+03  0.93740325664E+03  0.13125594601E+04  0.12699999809E+01 0. -1.
       -4    1    3    3    0  502 -0.87278224277E+03 -0.28694427090E+03  0.34761056051E+03  0.98230370689E+03  0.12699999809E+01 0.  1.
</event>
<event>
 5   0  0.1765328E-04  0.1893454E+04  0.7818609E-02  0.8658121E-01
       -2   -1    0    0    0  501  0.00000000000E+00  0.00000000000E+00  0.84839517872E+03  0.84839517873E+03  0.25500000920E-02 0. -1.
        2   -1    0    0  501    0  0.00000000000E+00  0.00000000000E+00 -0.10564560671E+04  0.10564560671E+04  0.25500000920E-02 0.  1.
    10030    2    1    2    0    0  0.00000000000E+00  0.00000000000E+00 -0.20806088839E+03  0.19048512458E+04  0.18934542338E+04 0.  0.
        3    1    3    3  502    0  0.27023990712E+02  0.75703400356E+03 -0.67530535591E+03  0.10148241781E+04  0.10100000352E+00 0.  1.
       -3    1    3    3    0  502 -0.27023990712E+02 -0.75703400356E+03  0.46724446752E+03  0.89002706770E+03  0.10100000352E+00 0. -1.
</event>
<event>
 5   0  0.8587082E-05  0.2092161E+04  0.7818609E-02  0.8564704E-01
       -1   -1    0    0    0  501  0.00000000000E+00  0.00000000000E+00  0.10677567916E+04  0.10677567916E+04  0.50400001928E-02 0. -1.
        1   -1    0    0  501    0  0.00000000000E+00  0.00000000000E+00 -0.10248445719E+04  0.10248445719E+04  0.50400001928E-02 0.  1.
    10030    2    1    2    0    0  0.00000000000E+00  0.00000000000E+00  0.42912219696E+02  0.20926013635E+04  0.20921613246E+04 0.  0.
        5    1    3    3  502    0 -0.84621489680E+03  0.29353432187E+03  0.56195908409E+03  0.10573845809E+04  0.46999998093E+01 0. -1.
       -5    1    3    3    0  502  0.84621489680E+03 -0.29353432187E+03 -0.51904686439E+03  0.10352167827E+04  0.46999998093E+01 0.  1.
</event>
<event>
 5   0  0.8681396E-05  0.1926915E+04  0.7818609E-02  0.8641574E-01
        1   -1    0    0  501    0  0.00000000000E+00  0.00000000000E+00  0.11032558722E+04  0.11032558722E+04  0.50400001928E-02 0.  1.
       -1   -1    0    0    0  501  0.00000000000E+00  0.00000000000E+00 -0.84137376123E+03  0.84137376124E+03  0.50400001928E-02 0. -1.
    10030    2    1    2    0    0  0.00000000000E+00  0.00000000000E+00  0.26188211092E+03  0.19446296334E+04  0.19269151956E+04 0.  0.
        3    1    3    3  502    0 -0.35844554444E+03 -0.17313018266E+03  0.10163855689E+04  0.10915571003E+04  0.10100000352E+00 0.  1.
       -3    1    3    3    0  502  0.35844554444E+03  0.17313018266E+03 -0.75450345793E+03  0.85307253309E+03  0.10100000352E+00 0. -1.
</event>
<event>
 5   0  0.6375750E-05  0.1849796E+04  0.7818609E-02  0.8680258E-01
       -3   -1    0    0    0  501  0.00000000000E+00  0.00000000000E+00  0.65453548535E+03  0.65453549314E+03  0.10100000352E+00 0.  1.
        3   -1    0    0  501    0  0.00000000000E+00  0.00000000000E+00 -0.13069361437E+04  0.13069361476E+04  0.10100000352E+00 0. -1.
    10030    2    1    2    0    0  0.00000000000E+00  0.00000000000E+00 -0.65240065833E+03  0.19614716407E+04  0.18497957667E+04 0.  0.
        4    1    3    3  502    0  0.34636367879E+03 -0.63406682748E+03 -0.93849142753E+03  0.11843885816E+04  0.12699999809E+01 0. -1.
       -4    1    3    3    0  502 -0.34636367879E+03  0.63406682748E+03  0.28609076920E+03  0.77708305915E+03  0.12699999809E+01 0.  1.
</event>
<event>
 5   0  0.1658711E-04  0.1873397E+04  0.7818609E-02  0.8668213E-01
        2   -1    0    0  501    0  0.00000000000E+00  0.00000000000E+00  0.16485531197E+04  0.16485531197E+04  0.25500000920E-02 0.  1.
       -2   -1    0    0    0  501  0.00000000000E+00  0.00000000000E+00 -0.53222653098E+03  0.53222653099E+03  0.25500000920E-02 0. -1.
    10030    2    1    2    0    0  0.00000000000E+00  0.00000000000E+00  0.11163265887E+04  0.21807796507E+04  0.18733966030E+04 0.  0.
        2    1    3    3  502    0 -0.40442950260E+03 -0.19553633965E+03  0.15149801440E+04  0.15801780024E+04  0.25500000920E-02 0.  1.
       -2    1    3    3    0  502  0.40442950260E+03  0.19553633965E+03 -0.39865355530E+03  0.60060164823E+03  0.25500000920E-02 0. -1.
</event>
<event>
 5   0  0.1790832E-04  0.1924709E+04  0.7818609E-02  0.8642654E-01
       -2   -1    0    0    0  501  0.00000000000E+00  0.00000000000E+00  0.59070338573E+03  0.59070338574E+03  0.25500000920E-02 0. -1.
        2   -1    0    0  501    0  0.00000000000E+00  0.00000000000E+00 -0.15678369733E+04  0.15678369733E+04  0.25500000920E-02 0.  1.
    10030    2    1    2    0    0  0.00000000000E+00  0.00000000000E+00 -0.97713358758E+03  0.21585403591E+04  0.19247094414E+04 0.  0.
        5    1    3    3  502    0 -0.28300750783E+03 -0.59103190113E+03  0.30181845130E+03  0.72147655900E+03  0.46999998093E+01 0. -1.
       -5    1    3    3    0  502  0.28300750783E+03  0.59103190113E+03 -0.12789520389E+04  0.14370638000E+04  0.46999998093E+01 0.  1.
</event>
<event>
 5   0  0.8567844E-05  0.1905416E+04  0.7818609E-02  0.8652165E-01
        1   -1    0    0  501    0  0.00000000000E+00  0.00000000000E+00  0.22758172003E+04  0.22758172003E+04  0.50400001928E-02 0. -1.
       -1   -1    0    0    0  501  0.00000000000E+00  0.00000000000E+00 -0.39882468117E+03  0.39882468120E+03  0.50400001928E-02 0.  1.
    10030    2    1    2    0    0  0.00000000000E+00  0.00000000000E+00  0.18769925191E+04  0.26746418815E+04  0.19054155131E+04 0.  0.
        4    1    3    3  502    0  0.19090255918E+03  0.40505418672E+03 -0.24190037603E+03  0.50894998389E+03  0.12699999809E+01 0.  1.
       -4    1    3    3    0  502 -0.19090255918E+03 -0.40505418672E+03  0.21188928952E+04  0.21656918976E+04  0.12699999809E+01 0. -1.
</event>
<event>
 5   0  0.1810569E-04  0.1906845E+04  0.7818609E-02  0.8651457E-01
        2   -1    0    0  501    0  0.00000000000E+00  0.00000000000E+00  0.14468144989E+04  0.14468144989E+04  0.25500000920E-02 0.  1.
       -2   -1    0    0    0  501  0.00000000000E+00  0.00000000000E+00 -0.62828652867E+03  0.62828652868E+03  0.25500000920E-02 0. -1.
    10030    2    1    2    0    0  0.00000000000E+00  0.00000000000E+00  0.81852797019E+03  0.20751010275E+04  0.19068445759E+04 0.  0.
        4    1    3    3  502    0 -0.74445951283E+01 -0.80766613671E+02  0.14430523049E+04  0.14453304935E+04  0.12699999809E+01 0.  1.
       -4    1    3    3    0  502  0.74445951283E+01  0.80766613671E+02 -0.62452433476E+03  0.62977053399E+03  0.12699999809E+01 0. -1.
</event>
<event>
 5   0  0.8587082E-05  0.1897713E+04  0.7818609E-02  0.8655996E-01
       -1   -1    0    0    0  501  0.00000000000E+00  0.00000000000E+00  0.87091124263E+03  0.87091124264E+03  0.50400001928E-02 0.  1.
        1   -1    0    0  501    0  0.00000000000E+00  0.00000000000E+00 -0.10337773468E+04  0.10337773468E+04  0.50400001928E-02 0. -1.
    10030    2    1    2    0    0  0.00000000000E+00  0.00000000000E+00 -0.16286610419E+03  0.19046885895E+04  0.18977126376E+04 0.  0.
        5    1    3    3  502    0 -0.67266637066E+03 -0.31215073219E+03  0.51267878187E+03  0.90154298245E+03  0.46999998093E+01 0.  1.
       -5    1    3    3    0  502  0.67266637066E+03  0.31215073219E+03 -0.67554488606E+03  0.10031456070E+04  0.46999998093E+01 0. -1.
</event>
<event>
 5   0  0.1658711E-04  0.1870028E+04  0.7818609E-02  0.8669921E-01
        2   -1    0    0  501    0  0.00000000000E+00  0.00000000000E+00  0.25610064040E+04  0.25610064040E+04  0.25500000920E-02 0. -1.
       -2   -1    0    0    0  501  0.00000000000E+00  0.00000000000E+00 -0.34137028599E+03  0.34137028600E+03  0.25500000920E-02 0.  1.
    10030    2    1    2    0    0  0.00000000000E+00  0.00000000000E+00  0.22196361180E+04  0.29023766899E+04  0.18700283298E+04 0.  0.
        2    1    3    3  502    0  0.79782213411E+03 -0.39577703763E+03  0.15517895355E+04  0.17891926625E+04  0.25500000920E-02 0. -1.
       -2    1    3    3    0  502 -0.79782213411E+03  0.39577703763E+03  0.66784658249E+03  0.11131840274E+04  0.25500000920E-02 0.  1.
</event>
<event>
 5   0  0.1765328E-04  0.1910944E+04  0.7818609E-02  0.8649428E-01
        2   -1    0    0  501    0  0.00000000000E+00  0.00000000000E+00  0.14204580249E+04  0.14204580249E+04  0.25500000920E-02 0. -1.
       -2   -1    0    0    0  501  0.00000000000E+00  0.00000000000E+00 -0.64269907086E+03  0.64269907087E+03  0.25500000920E-02 0.  1.
    10030    2    1    2    0    0  0.00000000000E+00  0.00000000000E+00  0.77775895408E+03  0.20631570958E+04  0.19109443245E+04 0.  0.
        3    1    3    3  502    0 -0.95473591518E+03  0.32291386836E+02  0.36829116106E+03  0.10238172644E+04  0.10100000352E+00 0.  1.
       -3    1    3    3    0  502  0.95473591518E+03 -0.32291386836E+02  0.40946779302E+03  0.10393398314E+04  0.10100000352E+00 0. -1.
</event>
<event>
 5   0  0.8602017E-05  0.1887469E+04  0.7818609E-02  0.8661119E-01
        1   -1    0    0  501    0  0.00000000000E+00  0.00000000000E+00  0.61740929098E+03  0.61740929101E+03  0.50400001928E-02 0.  1.
       -1   -1    0    0    0  501  0.00000000000E+00  0.00000000000E+00 -0.14425349051E+04  0.14425349051E+04  0.50400001928E-02 0. -1.
    10030    2    1    2    0    0  0.00000000000E+00  0.00000000000E+00 -0.82512561410E+03  0.20599441961E+04  0.18874686254E+04 0.  0.
        2    1    3    3  502    0  0.58128889768E+03 -0.57171067508E+03 -0.93126609545E+03  0.12377424688E+04  0.25500000920E-02 0. -1.
       -2    1    3    3    0  502 -0.58128889768E+03  0.57171067508E+03  0.10614048134E+03  0.82220172729E+03  0.25500000920E-02 0.  1.
</event>
<event>
 5   0  0.8587082E-05  0.1898946E+04  0.7818609E-02  0.8655381E-01
        1   -1    0    0  501    0  0.00000000000E+00  0.00000000000E+00  0.76520640418E+03  0.76520640420E+03  0.50400001928E-02 0.  1.
       -1   -1    0    0    0  501  0.00000000000E+00  0.00000000000E+00 -0.11781116448E+04  0.11781116448E+04  0.50400001928E-02 0. -1.
    10030    2    1    2    0    0  0.00000000000E+00  0.00000000000E+00 -0.41290524063E+03  0.19433180490E+04  0.18989455763E+04 0.  0.
        5    1    3    3  502    0  0.44233708022E+03 -0.82645755623E+03 -0.51987596388E+02  0.93883916885E+03  0.46999998093E+01 0.  1.
       -5    1    3    3    0  502 -0.44233708022E+03  0.82645755623E+03 -0.36091764424E+03  0.10044788802E+04  0.46999998093E+01 0. -1.
</event>
<event>
 5   0  0.1765328E-04  0.1891360E+04  0.7818609E-02  0.8659169E-01
       -2   -1    0    0    0  501  0.00000000000E+00  0.00000000000E+00  0.58062003785E+03  0.58062003786E+03  0.25500000920E-02 0.  1.
        2   -1    0    0  501    0  0.00000000000E+00  0.00000000000E+00 -0.15402677183E+04  0.15402677183E+04  0.25500000920E-02 0. -1.
    10030    2    1    2    0    0  0.00000000000E+00  0.00000000000E+00 -0.95964768045E+03  0.21208877562E+04  0.18913596178E+04 0.  0.
        3    1    3    3  502    0  0.80463229126E+03  0.23297505149E+03  0.12296685818E+02  0.83777187673E+03  0.10100000352E+00 0.  1.
       -3    1    3    3    0  502 -0.80463229126E+03 -0.23297505149E+03 -0.97194436627E+03  0.12831158794E+04  0.10100000352E+00 0. -1.
</event>
<event>
 5   0  0.1765328E-04  0.1873488E+04  0.7818609E-02  0.8668167E-01
       -2   -1    0    0    0  501  0.00000000000E+00  0.00000000000E+00  0.43923485710E+03  0.43923485710E+03  0.25500000920E-02 0.  1.
        2   -1    0    0  501    0  0.00000000000E+00  0.00000000000E+00 -0.19977681641E+04  0.19977681641E+04  0.25500000920E-02 0. -1.
    10030    2    1    2    0    0  0.00000000000E+00  0.00000000000E+00 -0.15585333070E+04  0.24370030212E+04  0.18734880988E+04 0.  0.
        3    1    3    3  502    0 -0.47794642356E+03 -0.38750782294E+03  0.13950884086E+03  0.63091823837E+03  0.10100000352E+00 0.  1.
       -3    1    3    3    0  502  0.47794642356E+03  0.38750782294E+03 -0.16980421478E+04  0.18060847828E+04  0.10100000352E+00 0. -1.
</event>
<event>
 5   0  0.1658711E-04  0.1944997E+04  0.7818609E-02  0.8632777E-01
        2   -1    0    0  501    0  0.00000000000E+00  0.00000000000E+00  0.10873946742E+04  0.10873946742E+04  0.25500000920E-02 0. -1.
       -2   -1    0    0    0  501  0.00000000000E+00  0.00000000000E+00 -0.86974217844E+03  0.86974217844E+03  0.25500000920E-02 0.  1.
    10030    2    1    2    0    0  0.00000000000E+00  0.00000000000E+00  0.21765249576E+03  0.19571368526E+04  0.19449966712E+04 0.  0.
        2    1    3    3  502    0  0.42447522966E+03  0.87497071525E+03  0.10902651685E+03  0.97859069816E+03  0.25500000920E-02 0. -1.
       -2    1    3    3    0  502 -0.42447522966E+03 -0.87497071525E+03  0.10862597890E+03  0.97854615448E+03  0.25500000920E-02 0.  1.
</event>
<event>
 5   0  0.8905646E-05  0.1937102E+04  0.7818609E-02  0.8636605E-01
        1   -1    0    0  501    0  0.00000000000E+00  0.00000000000E+00  0.12879137944E+04  0.12879137944E+04  0.50400001928E-02 0.  1.
       -1   -1    0    0    0  501  0.00000000000E+00  0.00000000000E+00 -0.72838048223E+03  0.72838048225E+03  0.50400001928E-02 0. -1.
    10030    2    1    2    0    0  0.00000000000E+00  0.00000000000E+00  0.55953331214E+03  0.20162942766E+04  0.19371022386E+04 0.  0.
        1    1    3    3  502    0  0.26069253854E+03 -0.59748744495E+03 -0.46585594815E+03  0.80123255736E+03  0.50400001928E-02 0. -1.
       -1    1    3    3    0  502 -0.26069253854E+03  0.59748744495E+03  0.10253892603E+04  0.12150617193E+04  0.50400001928E-02 0.  1.
</event>
<event>
 5   0  0.1810569E-04  0.1887615E+04  0.7818609E-02  0.8661046E-01
       -2   -1    0    0    0  501  0.00000000000E+00  0.00000000000E+00  0.12294841616E+04  0.12294841616E+04  0.25500000920E-02 0. -1.
        2   -1    0    0  501    0  0.00000000000E+00  0.00000000000E+00 -0.72450928798E+03  0.72450928798E+03  0.25500000920E-02 0.  1.
    10030    2    1    2    0    0  0.00000000000E+00  0.00000000000E+00  0.50497487364E+03  0.19539934496E+04  0.18876151033E+04 0.  0.
        4    1    3    3  502    0  0.18403804849E+03 -0.61278010630E+03  0.97071725837E+03  0.11626104552E+04  0.12699999809E+01 0. -1.
       -4    1    3    3    0  502 -0.18403804849E+03  0.61278010630E+03 -0.46574238473E+03  0.79138299439E+03  0.12699999809E+01 0.  1.
</event>
<event>
 5   0  0.1765328E-04  0.1899524E+04  0.7818609E-02  0.8655093E-01
        2   -1    0    0  501    0  0.00000000000E+00  0.00000000000E+00  0.12715464723E+04  0.12715464723E+04  0.25500000920E-02 0.  1.
       -2   -1    0    0    0  501  0.00000000000E+00  0.00000000000E+00 -0.70941009538E+03  0.70941009538E+03  0.25500000920E-02 0. -1.
    10030    2    1    2    0    0  0.00000000000E+00  0.00000000000E+00  0.56213637696E+03  0.19809565677E+04  0.18995240501E+04 0.  0.
        3    1    3    3  502    0 -0.30807474308E+03 -0.37228500827E+03  0.11337645585E+04  0.12324480756E+04  0.10100000352E+00 0.  1.
       -3    1    3    3    0  502  0.30807474308E+03  0.37228500827E+03 -0.57162818153E+03  0.74850849215E+03  0.10100000352E+00 0. -1.
</event>
<event>
 5   0  0.8602017E-05  0.1900939E+04  0.7818609E-02  0.8654389E-01
        1   -1    0    0  501    0  0.00000000000E+00  0.00000000000E+00  0.18861068098E+04  0.18861068098E+04  0.50400001928E-02 0.  1.
       -1   -1    0    0    0  501  0.00000000000E+00  0.00000000000E+00 -0.47897189664E+03  0.47897189666E+03  0.50400001928E-02 0. -1.
    10030    2    1    2    0    0  0.00000000000E+00  0.00000000000E+00  0.14071349132E+04  0.23650787065E+04  0.19009388796E+04 0.  0.
        2    1    3    3  502    0  0.52121908197E+03  0.73768969160E+03  0.10716732374E+04  0.14015487648E+04  0.25500000920E-02 0.  1.
       -2    1    3    3    0  502 -0.52121908197E+03 -0.73768969160E+03  0.33546167578E+03  0.96352994163E+03  0.25500000920E-02 0. -1.
</event>
<event>
 5   0  0.8905646E-05  0.1899507E+04  0.7818609E-02  0.8655102E-01
        1   -1    0    0  501    0  0.00000000000E+00  0.00000000000E+00  0.13424709995E+04  0.13424709995E+04  0.50400001928E-02 0.  1.
       -1   -1    0    0    0  501  0.00000000000E+00  0.00000000000E+00 -0.67191884768E+03  0.67191884770E+03  0.50400001928E-02 0. -1.
    10030    2    1    2    0    0  0.00000000000E+00  0.00000000000E+00  0.67055215180E+03  0.20143898472E+04  0.18995068487E+04 0.  0.
        1    1    3    3  502    0  0.38494910762E+03 -0.17809462720E+03  0.12364523913E+04  0.13071794168E+04  0.50400001928E-02 0.  1.
       -1    1    3    3    0  502 -0.38494910762E+03  0.17809462720E+03 -0.56590023954E+03  0.70721043037E+03  0.50400001928E-02 0. -1.
</event>
<event>
 5   0  0.1799738E-04  0.1853683E+04  0.7818609E-02  0.8678261E-01
       -2   -1    0    0    0  501  0.00000000000E+00  0.00000000000E+00  0.98091370518E+03  0.98091370518E+03  0.25500000920E-02 0. -1.
        2   -1    0    0  501    0  0.00000000000E+00  0.00000000000E+00 -0.87575014421E+03  0.87575014422E+03  0.25500000920E-02 0.  1.
    10030    2    1    2    0    0  0.00000000000E+00  0.00000000000E+00  0.10516356096E+03  0.18566638494E+04  0.18536831647E+04 0.  0.
        1    1    3    3  502    0 -0.68049038954E+03 -0.87443908860E+02  0.67673844520E+03  0.96368487105E+03  0.50400001928E-02 0. -1.
       -1    1    3    3    0  502  0.68049038954E+03  0.87443908860E+02 -0.57157488424E+03  0.89297897835E+03  0.50400001928E-02 0.  1.
</event>
<event>
 5   0  0.8587082E-05  0.1919608E+04  0.7818609E-02  0.8645158E-01
       -1   -1    0    0    0  501  0.00000000000E+00  0.00000000000E+00  0.68074209928E+03  0.68074209930E+03  0.50400001928E-02 0. -1.
        1   -1    0    0  501    0  0.00000000000E+00  0.00000000000E+00 -0.13532632804E+04  0.13532632804E+04  0.50400001928E-02 0.  1.
    10030    2    1    2    0    0  0.00000000000E+00  0.00000000000E+00 -0.67252118111E+03  0.20340053797E+04  0.19196075499E+04 0.  0.
        5    1    3    3  502    0 -0.34473169894E+03 -0.53989531191E+03  0.42108949280E+03  0.76659333614E+03  0.46999998093E+01 0. -1.
       -5    1    3    3    0  502  0.34473169894E+03  0.53989531191E+03 -0.10936106739E+04  0.12674120436E+04  0.46999998093E+01 0.  1.
</event>
<event>
 5   0  0.8567844E-05  0.1827316E+04  0.7818609E-02  0.8691907E-01
       -1   -1    0    0    0  501  0.00000000000E+00  0.00000000000E+00  0.63752334946E+03  0.63752334948E+03  0.50400001928E-02 0. -1.
        1   -1    0    0  501    0  0.00000000000E+00  0.00000000000E+00 -0.13093961760E+04  0.13093961760E+04  0.50400001928E-02 0.  1.
    10030    2    1    2    0    0  0.00000000000E+00  0.00000000000E+00 -0.67187282651E+03  0.19469195255E+04  0.18273156661E+04 0.  0.
        4    1    3    3  502    0  0.22612009117E+03  0.20680012457E+03 -0.12530141313E+04  0.12899389959E+04  0.12699999809E+01 0.  1.
       -4    1    3    3    0  502 -0.22612009117E+03 -0.20680012457E+03  0.58114130478E+03  0.65698052952E+03  0.12699999809E+01 0. -1.
</event>
<event>
 5   0  0.1765328E-04  0.1899654E+04  0.7818609E-02  0.8655029E-01
        2   -1    0    0  501    0  0.00000000000E+00  0.00000000000E+00  0.22616190310E+04  0.22616190310E+04  0.25500000920E-02 0. -1.
       -2   -1    0    0    0  501  0.00000000000E+00  0.00000000000E+00 -0.39890517198E+03  0.39890517198E+03  0.25500000920E-02 0.  1.
    10030    2    1    2    0    0  0.00000000000E+00  0.00000000000E+00  0.18627138590E+04  0.26605242029E+04  0.18996542091E+04 0.  0.
        3    1    3    3  502    0 -0.99247669927E+02  0.49128071723E+03 -0.19862466831E+03  0.53912763996E+03  0.10100000352E+00 0.  1.
       -3    1    3    3    0  502  0.99247669927E+02 -0.49128071723E+03  0.20613385273E+04  0.21213965630E+04  0.10100000352E+00 0. -1.
</event>
<event>
 5   0  0.8567844E-05  0.1871209E+04  0.7818609E-02  0.8669322E-01
        1   -1    0    0  501    0  0.00000000000E+00  0.00000000000E+00  0.17633098147E+04  0.17633098147E+04  0.50400001928E-02 0. -1.
       -1   -1    0    0    0  501  0.00000000000E+00  0.00000000000E+00 -0.49642743851E+03  0.49642743854E+03  0.50400001928E-02 0.  1.
    10030    2    1    2    0    0  0.00000000000E+00  0.00000000000E+00  0.12668823762E+04  0.22597372532E+04  0.18712085663E+04 0.  0.
        4    1    3    3  502    0 -0.10389548147E+03  0.49173454086E+03 -0.31956326271E+03  0.59558326162E+03  0.12699999809E+01 0.  1.
       -4    1    3    3    0  502  0.10389548147E+03 -0.49173454086E+03  0.15864456389E+04  0.16641539916E+04  0.12699999809E+01 0. -1.
</event>
<event>
 5   0  0.8905646E-05  0.1843111E+04  0.7818609E-02  0.8683704E-01
       -1   -1    0    0    0  501  0.00000000000E+00  0.00000000000E+00  0.84944135982E+03  0.84944135984E+03  0.50400001928E-02 0. -1.
        1   -1    0    0  501    0  0.00000000000E+00  0.00000000000E+00 -0.99979155773E+03  0.99979155774E+03  0.50400001928E-02 0.  1.
    10030    2    1    2    0    0  0.00000000000E+00  0.00000000000E+00 -0.15035019791E+03  0.18492329176E+04  0.18431107404E+04 0.  0.
        1    1    3    3  502    0 -0.86232801935E+03  0.55153770304E+02  0.24622118193E+03  0.89848562693E+03  0.50400001928E-02 0. -1.
       -1    1    3    3    0  502  0.86232801935E+03 -0.55153770304E+02 -0.39657137983E+03  0.95074729065E+03  0.50400001928E-02 0.  1.
</event>
<event>
 5   0  0.8602017E-05  0.1881107E+04  0.7818609E-02  0.8664318E-01
       -1   -1    0    0    0  501  0.00000000000E+00  0.00000000000E+00  0.10247924919E+04  0.10247924919E+04  0.50400001928E-02 0. -1.
        1   -1    0    0  501    0  0.00000000000E+00  0.00000000000E+00 -0.86323875787E+03  0.86323875789E+03  0.50400001928E-02 0.  1.
    10030    2    1    2    0    0  0.00000000000E+00  0.00000000000E+00  0.16155373402E+03  0.18880312498E+04  0.18811066932E+04 0.  0.
        2    1    3    3  502    0 -0.58108273580E+03 -0.21561126765E+02  0.82276713849E+03  0.10075057281E+04  0.25500000920E-02 0.  1.
       -2    1    3    3    0  502  0.58108273580E+03  0.21561126765E+02 -0.66121340447E+03  0.88052552166E+03  0.25500000920E-02 0. -1.
</event>
<event>
 5   0  0.1799738E-04  0.1921175E+04  0.7818609E-02  0.8644387E-01
        2   -1    0    0  501    0  0.00000000000E+00  0.00000000000E+00  0.13491755573E+04  0.13491755573E+04  0.25500000920E-02 0. -1.
       -2   -1    0    0    0  501  0.00000000000E+00  0.00000000000E+00 -0.68392048994E+03  0.68392048995E+03  0.25500000920E-02 0.  1.
    10030    2    1    2    0    0  0.00000000000E+00  0.00000000000E+00  0.66525506734E+03  0.20330960472E+04  0.19211754820E+04 0.  0.
        1    1    3    3  502    0  0.44798665940E+03  0.16360065968E+03 -0.54977775190E+03  0.72781371199E+03  0.50400001928E-02 0.  1.
       -1    1    3    3    0  502 -0.44798665940E+03 -0.16360065968E+03  0.12150328192E+04  0.13052823352E+04  0.50400001928E-02 0. -1.
</event>
<event>
 5   0  0.6375750E-05  0.1926510E+04  0.7818609E-02  0.8641772E-01
       -3   -1    0    0    0  501  0.00000000000E+00  0.00000000000E+00  0.17932790280E+04  0.17932790309E+04  0.10100000352E+00 0.  1.
        3   -1    0    0  501    0  0.00000000000E+00  0.00000000000E+00 -0.51741000122E+03  0.51741001108E+03  0.10100000352E+00 0. -1.
    10030    2    1    2    0    0  0.00000000000E+00  0.00000000000E+00  0.12758690268E+04  0.23106890419E+04  0.19265103361E+04 0.  0.
        4    1    3    3  502    0 -0.12197163801E+03 -0.71575802349E+03  0.13971495633E+04  0.15745523630E+04  0.12699999809E+01 0.  1.
       -4    1    3    3    0  502  0.12197163801E+03  0.71575802349E+03 -0.12128053650E+03  0.73613667895E+03  0.12699999809E+01 0. -1.
</event>
<event>
 5   0  0.1765328E-04  0.1917147E+04  0.7818609E-02  0.8646368E-01
        2   -1    0    0  501    0  0.00000000000E+00  0.00000000000E+00  0.16884927329E+04  0.16884927329E+04  0.25500000920E-02 0. -1.
       -2   -1    0    0    0  501  0.00000000000E+00  0.00000000000E+00 -0.54419117861E+03  0.54419117862E+03  0.25500000920E-02 0.  1.
    10030    2    1    2    0    0  0.00000000000E+00  0.00000000000E+00  0.11443015543E+04  0.22326839115E+04  0.19171466823E+04 0.  0.
        3    1    3    3  502    0 -0.38188036571E+03  0.13445784927E+03 -0.43973472372E+03  0.59772750012E+03  0.10100000352E+00 0.  1.
       -3    1    3    3    0  502  0.38188036571E+03 -0.13445784927E+03  0.15840362780E+04  0.16349564114E+04  0.10100000352E+00 0. -1.
</event>
<event>
 5   0  0.1658711E-04  0.1894641E+04  0.7818609E-02  0.8657528E-01
       -2   -1    0    0    0  501  0.00000000000E+00  0.00000000000E+00  0.41150951458E+03  0.41150951458E+03  0.25500000920E-02 0.  1.
        2   -1    0    0  501    0  0.00000000000E+00  0.00000000000E+00 -0.21807915123E+04  0.21807915123E+04  0.25500000920E-02 0. -1.
    10030    2    1    2    0    0  0.00000000000E+00  0.00000000000E+00 -0.17692819977E+04  0.25923010268E+04  0.18946413451E+04 0.  0.
        2    1    3    3  502    0 -0.67543473254E+03 -0.66047800961E+03 -0.98112946482E+03  0.13620052518E+04  0.25500000920E-02 0.  1.
       -2    1    3    3    0  502  0.67543473254E+03  0.66047800961E+03 -0.78815253286E+03  0.12302957751E+04  0.25500000920E-02 0. -1.
</event>
<event>
 5   0  0.1810569E-04  0.1670770E+04  0.7818609E-02  0.8778213E-01
       -2   -1    0    0    0  501  0.00000000000E+00  0.00000000000E+00  0.17146605503E+04  0.17146605503E+04  0.25500000920E-02 0. -1.
        2   -1    0    0  501    0  0.00000000000E+00  0.00000000000E+00 -0.40700077666E+03  0.40700077667E+03  0.25500000920E-02 0.  1.
    10030    2    1    2    0    0  0.00000000000E+00  0.00000000000E+00  0.13076597736E+04  0.21216613270E+04  0.16707700927E+04 0.  0.
        4    1    3    3  502    0  0.13997385270E+03  0.50269686357E+02 -0.39005204349E+03  0.41744691918E+03  0.12699999809E+01 0.  1.
       -4    1    3    3    0  502 -0.13997385270E+03 -0.50269686357E+02  0.16977118171E+04  0.17042144078E+04  0.12699999809E+01 0. -1.
</event>
<event>
 5   0  0.1765328E-04  0.1878312E+04  0.7818609E-02  0.8665728E-01
       -2   -1    0    0    0  501  0.00000000000E+00  0.00000000000E+00  0.47369820004E+03  0.47369820005E+03  0.25500000920E-02 0.  1.
        2   -1    0    0  501    0  0.00000000000E+00  0.00000000000E+00 -0.18619754986E+04  0.18619754986E+04  0.25500000920E-02 0. -1.
    10030    2    1    2    0    0  0.00000000000E+00  0.00000000000E+00 -0.13882772986E+04  0.23356736987E+04  0.18783124791E+04 0.  0.
        3    1    3    3  502    0 -0.10376312360E+03 -0.40382946169E+03  0.35229792076E+03  0.54585607547E+03  0.10100000352E+00 0.  1.
       -3    1    3    3    0  502  0.10376312360E+03  0.40382946169E+03 -0.17405752194E+04  0.17898176232E+04  0.10100000352E+00 0. -1.
</event>
<event>
 5   0  0.8905646E-05  0.1905323E+04  0.7818609E-02  0.8652211E-01
        1   -1    0    0  501    0  0.00000000000E+00  0.00000000000E+00  0.88759757788E+03  0.88759757790E+03  0.50400001928E-02 0. -1.
       -1   -1    0    0    0  501  0.00000000000E+00  0.00000000000E+00 -0.10224952209E+04  0.10224952209E+04  0.50400001928E-02 0.  1.
    10030    2    1    2    0    0  0.00000000000E+00  0.00000000000E+00 -0.13489764300E+03  0.19100927988E+04  0.19053233652E+04 0.  0.
        1    1    3    3  502    0 -0.32449201712E+02 -0.78620970246E+03  0.47091093177E+03  0.91702549180E+03  0.50400001928E-02 0. -1.
       -1    1    3    3    0  502  0.32449201712E+02  0.78620970246E+03 -0.60580857477E+03  0.99306730700E+03  0.50400001928E-02 0.  1.
</event>
<event>
 5   0  0.6375750E-05  0.1886406E+04  0.7818609E-02  0.8661653E-01
       -3   -1    0    0    0  501  0.00000000000E+00  0.00000000000E+00  0.60039108146E+03  0.60039108996E+03  0.10100000352E+00 0.  1.
        3   -1    0    0  501    0  0.00000000000E+00  0.00000000000E+00 -0.14817540671E+04  0.14817540706E+04  0.10100000352E+00 0. -1.
    10030    2    1    2    0    0  0.00000000000E+00  0.00000000000E+00 -0.88136298567E+03  0.20821451605E+04  0.18864060425E+04 0.  0.
        2    1    3    3  502    0  0.73475028471E+03 -0.57003865663E+03 -0.26675601388E+03  0.96745068189E+03  0.25500000920E-02 0. -1.
       -2    1    3    3    0  502 -0.73475028471E+03  0.57003865663E+03 -0.61460697179E+03  0.11146944786E+04  0.25500000920E-02 0.  1.
</event>
<event>
 5   0  0.6375750E-05  0.1894219E+04  0.7818609E-02  0.8657739E-01
        3   -1    0    0  501    0  0.00000000000E+00  0.00000000000E+00  0.93328251657E+03  0.93328252203E+03  0.10100000352E+00 0.  1.
       -3   -1    0    0    0  501  0.00000000000E+00  0.00000000000E+00 -0.96114124929E+03  0.96114125460E+03  0.10100000352E+00 0. -1.
    10030    2    1    2    0    0  0.00000000000E+00  0.00000000000E+00 -0.27858732725E+02  0.18944237766E+04  0.18942189252E+04 0.  0.
        5    1    3    3  502    0 -0.15278782554E+03  0.87225983854E+03 -0.34984200427E+03  0.95215170195E+03  0.46999998093E+01 0.  1.
       -5    1    3    3    0  502  0.15278782554E+03 -0.87225983854E+03  0.32198327154E+03  0.94227207468E+03  0.46999998093E+01 0. -1.
</event>
<event>
 5   0  0.1810569E-04  0.1882488E+04  0.7818609E-02  0.8663622E-01
       -2   -1    0    0    0  501  0.00000000000E+00  0.00000000000E+00  0.69633052886E+03  0.69633052886E+03  0.25500000920E-02 0.  1.
        2   -1    0    0  501    0  0.00000000000E+00  0.00000000000E+00 -0.12722991269E+04  0.12722991269E+04  0.25500000920E-02 0. -1.
    10030    2    1    2    0    0  0.00000000000E+00  0.00000000000E+00 -0.57596859804E+03  0.19686296558E+04  0.18824884849E+04 0.  0.
        4    1    3    3  502    0  0.73864978749E+03 -0.40085683904E+03 -0.73123004558E+03  0.11139967264E+04  0.12699999809E+01 0. -1.
       -4    1    3    3    0  502 -0.73864978749E+03  0.40085683904E+03  0.15526144754E+03  0.85463292937E+03  0.12699999809E+01 0.  1.
</event>
<event>
 5   0  0.1658711E-04  0.1943865E+04  0.7818609E-02  0.8633325E-01
        2   -1    0    0  501    0  0.00000000000E+00  0.00000000000E+00  0.69304748898E+03  0.69304748899E+03  0.25500000920E-02 0. -1.
       -2   -1    0    0    0  501  0.00000000000E+00  0.00000000000E+00 -0.13630412488E+04  0.13630412488E+04  0.25500000920E-02 0.  1.
    10030    2    1    2    0    0  0.00000000000E+00  0.00000000000E+00 -0.66999375982E+03  0.20560887378E+04  0.19438645168E+04 0.  0.
        2    1    3    3  502    0  0.94520758069E+03  0.18316965090E+03 -0.19433903959E+03  0.98220983192E+03  0.25500000920E-02 0. -1.
       -2    1    3    3    0  502 -0.94520758069E+03 -0.18316965090E+03 -0.47565472024E+03  0.10738789059E+04  0.25500000920E-02 0.  1.
</event>
<event>
 5   0  0.8602017E-05  0.1895006E+04  0.7818609E-02  0.8657346E-01
       -1   -1    0    0    0  501  0.00000000000E+00  0.00000000000E+00  0.48641659012E+03  0.48641659014E+03  0.50400001928E-02 0. -1.
        1   -1    0    0  501    0  0.00000000000E+00  0.00000000000E+00 -0.18456646926E+04  0.18456646926E+04  0.50400001928E-02 0.  1.
    10030    2    1    2    0    0  0.00000000000E+00  0.00000000000E+00 -0.13592481025E+04  0.23320812827E+04  0.18950059908E+04 0.  0.
        2    1    3    3  502    0 -0.70190514444E+03  0.63592078446E+03 -0.64716087287E+03  0.11471195540E+04  0.25500000920E-02 0.  1.
       -2    1    3    3    0  502  0.70190514444E+03 -0.63592078446E+03 -0.71208722960E+03  0.11849617287E+04  0.25500000920E-02 0. -1.
</event>
<event>
 5   0  0.6375750E-05  0.1899889E+04  0.7818609E-02  0.8654911E-01
        4   -1    0    0  501    0  0.00000000000E+00  0.00000000000E+00  0.99780993590E+03  0.99781074412E+03  0.12699999809E+01 0. -1.
       -4   -1    0    0    0  501  0.00000000000E+00  0.00000000000E+00 -0.90437404059E+03  0.90437493231E+03  0.12699999809E+01 0.  1.
    10030    2    1    2    0    0  0.00000000000E+00  0.00000000000E+00  0.93435895306E+02  0.19021856764E+04  0.18998894918E+04 0.  0.
        5    1    3    3  502    0 -0.56355602078E+03  0.73183121875E+03 -0.17536223477E+03  0.94018419721E+03  0.46999998093E+01 0.  1.
       -5    1    3    3    0  502  0.56355602078E+03 -0.73183121875E+03  0.26879813007E+03  0.96200147922E+03  0.46999998093E+01 0. -1.
</event>
<event>
 5   0  0.1799738E-04  0.1901318E+04  0.7818609E-02  0.8654201E-01
       -2   -1    0    0    0  501  0.00000000000E+00  0.00000000000E+00  0.91078128225E+03  0.91078128226E+03  0.25500000920E-02 0.  1.
        2   -1    0    0  501    0  0.00000000000E+00  0.00000000000E+00 -0.99228260312E+03  0.99228260313E+03  0.25500000920E-02 0. -1.
    10030    2    1    2    0    0  0.00000000000E+00  0.00000000000E+00 -0.81501320872E+02  0.19030638854E+04  0.19013178815E+04 0.  0.
        1    1    3    3  502    0  0.47957202983E+03  0.79890325363E+03 -0.22938242324E+03  0.95961035664E+03  0.50400001928E-02 0. -1.
       -1    1    3    3    0  502 -0.47957202983E+03 -0.79890325363E+03  0.14788110237E+03  0.94345352875E+03  0.50400001928E-02 0.  1.
</event>
<event>
 5   0  0.8567844E-05  0.1570615E+04  0.7818609E-02  0.8838806E-01
        1   -1    0    0  501    0  0.00000000000E+00  0.00000000000E+00  0.14020687926E+04  0.14020687927E+04  0.50400001928E-02 0.  1.
       -1   -1    0    0    0  501  0.00000000000E+00  0.00000000000E+00 -0.43985589583E+03  0.43985589586E+03  0.50400001928E-02 0. -1.
    10030    2    1    2    0    0  0.00000000000E+00  0.00000000000E+00  0.96221289681E+03  0.18419246885E+04  0.15706154524E+04 0.  0.
        4    1    3    3  502    0 -0.50060109082E+03  0.42793175052E+02 -0.22670247451E+03  0.55120625252E+03  0.12699999809E+01 0. -1.
       -4    1    3    3    0  502  0.50060109082E+03 -0.42793175052E+02  0.11889153713E+04  0.12907184360E+04  0.12699999809E+01 0.  1.
</event>
<event>
 5   0  0.8587082E-05  0.1899878E+04  0.7818609E-02  0.8654917E-01
       -1   -1    0    0    0  501  0.00000000000E+00  0.00000000000E+00  0.55285861830E+03  0.55285861832E+03  0.50400001928E-02 0. -1.
        1   -1    0    0  501    0  0.00000000000E+00  0.00000000000E+00 -0.16322157750E+04  0.16322157750E+04  0.50400001928E-02 0.  1.
    10030    2    1    2    0    0  0.00000000000E+00  0.00000000000E+00 -0.10793571567E+04  0.21850743933E+04  0.18998784784E+04 0.  0.
        5    1    3    3  502    0  0.20467763700E+03 -0.21317990259E+03  0.49862790674E+03  0.57964686261E+03  0.46999998093E+01 0. -1.
       -5    1    3    3    0  502 -0.20467763700E+03  0.21317990259E+03 -0.15779850635E+04  0.16054275307E+04  0.46999998093E+01 0.  1.
</event>
<event>
 5   0  0.8905646E-05  0.1910736E+04  0.7818609E-02  0.8649531E-01
       -1   -1    0    0    0  501  0.00000000000E+00  0.00000000000E+00  0.51320487717E+03  0.51320487720E+03  0.50400001928E-02 0. -1.
        1   -1    0    0  501    0  0.00000000000E+00  0.00000000000E+00 -0.17784861438E+04  0.17784861439E+04  0.50400001928E-02 0.  1.
    10030    2    1    2    0    0  0.00000000000E+00  0.00000000000E+00 -0.12652812667E+04  0.22916910210E+04  0.19107357358E+04 0.  0.
        1    1    3    3  502    0 -0.28769765890E+03 -0.86724183508E+03 -0.29799656883E+03  0.96108287807E+03  0.50400001928E-02 0. -1.
       -1    1    3    3    0  502  0.28769765890E+03  0.86724183508E+03 -0.96728469785E+03  0.13306081430E+04  0.50400001928E-02 0.  1.
</event>
<event>
 5   0  0.8681396E-05  0.1932127E+04  0.7818609E-02  0.8639028E-01
        1   -1    0    0  501    0  0.00000000000E+00  0.00000000000E+00  0.14611292448E+04  0.14611292448E+04  0.50400001928E-02 0. -1.
       -1   -1    0    0    0  501  0.00000000000E+00  0.00000000000E+00 -0.63873768403E+03  0.63873768405E+03  0.50400001928E-02 0.  1.
    10030    2    1    2    0    0  0.00000000000E+00  0.00000000000E+00  0.82239156074E+03  0.20998669288E+04  0.19321266107E+04 0.  0.
        3    1    3    3  502    0  0.69917998416E+03 -0.16132181344E+03  0.11141912209E+04  0.13252544905E+04  0.10100000352E+00 0. -1.
       -3    1    3    3    0  502 -0.69917998416E+03  0.16132181344E+03 -0.29179966013E+03  0.77461243832E+03  0.10100000352E+00 0.  1.
</event>
<event>
 5   0  0.1765328E-04  0.1908008E+04  0.7818609E-02  0.8650880E-01
        2   -1    0    0  501    0  0.00000000000E+00  0.00000000000E+00  0.14945589890E+04  0.14945589890E+04  0.25500000920E-02 0.  1.
       -2   -1    0    0    0  501  0.00000000000E+00  0.00000000000E+00 -0.60895829362E+03  0.60895829363E+03  0.25500000920E-02 0. -1.
    10030    2    1    2    0    0  0.00000000000E+00  0.00000000000E+00  0.88560069535E+03  0.21035172826E+04  0.19080084818E+04 0.  0.
        3    1    3    3  502    0 -0.50976228541E+03  0.79454223634E+03  0.29095920171E+03  0.98783208098E+03  0.10100000352E+00 0. -1.
       -3    1    3    3    0  502  0.50976228541E+03 -0.79454223634E+03  0.59464149364E+03  0.11156852016E+04  0.10100000352E+00 0.  1.
</event>
<event>
 5   0  0.1799738E-04  0.1728533E+04  0.7818609E-02  0.8745256E-01
        2   -1    0    0  501    0  0.00000000000E+00  0.00000000000E+00  0.63370564052E+03  0.63370564053E+03  0.25500000920E-02 0. -1.
       -2   -1    0    0    0  501  0.00000000000E+00  0.00000000000E+00 -0.11787124146E+04  0.11787124146E+04  0.25500000920E-02 0.  1.
    10030    2    1    2    0    0  0.00000000000E+00  0.00000000000E+00 -0.54500677407E+03  0.18124180551E+04  0.17285331419E+04 0.  0.
        1    1    3    3  502    0  0.57621649740E+03 -0.37235499067E+03 -0.82363809548E+03  0.10719390856E+04  0.50400001928E-02 0.  1.
       -1    1    3    3    0  502 -0.57621649740E+03  0.37235499067E+03  0.27863132142E+03  0.74047896948E+03  0.50400001928E-02 0. -1.
</event>
<event>
 5   0  0.6375750E-05  0.1822937E+04  0.7818609E-02  0.8694196E-01
       -3   -1    0    0    0  501  0.00000000000E+00  0.00000000000E+00  0.18058050420E+04  0.18058050449E+04  0.10100000352E+00 0.  1.
        3   -1    0    0  501    0  0.00000000000E+00  0.00000000000E+00 -0.46005793763E+03  0.46005794871E+03  0.10100000352E+00 0. -1.
    10030    2    1    2    0    0  0.00000000000E+00  0.00000000000E+00  0.13457471044E+04  0.22658629936E+04  0.18229371455E+04 0.  0.
        1    1    3    3  502    0  0.94707376299E+02  0.61420889235E+03 -0.15587671224E+03  0.64071803471E+03  0.50400001928E-02 0. -1.
       -1    1    3    3    0  502 -0.94707376299E+02 -0.61420889235E+03  0.15016238166E+04  0.16251449589E+04  0.50400001928E-02 0.  1.
</event>
<event>
 5   0  0.1810569E-04  0.1811912E+04  0.7818609E-02  0.8699990E-01
       -2   -1    0    0    0  501  0.00000000000E+00  0.00000000000E+00  0.45728618243E+03  0.45728618244E+03  0.25500000920E-02 0.  1.
        2   -1    0    0  501    0  0.00000000000E+00  0.00000000000E+00 -0.17948413898E+04  0.17948413898E+04  0.25500000920E-02 0. -1.
    10030    2    1    2    0    0  0.00000000000E+00  0.00000000000E+00 -0.13375552074E+04  0.22521275723E+04  0.18119118822E+04 0.  0.
        4    1    3    3  502    0 -0.72251327445E+03  0.39055510474E+03 -0.19352619675E+03  0.84380846365E+03  0.12699999809E+01 0.  1.
       -4    1    3    3    0  502  0.72251327445E+03 -0.39055510474E+03 -0.11440290107E+04  0.14083191086E+04  0.12699999809E+01 0. -1.
</event>
<event>
 5   0  0.8602017E-05  0.1899873E+04  0.7818609E-02  0.8654919E-01
       -1   -1    0    0    0  501  0.00000000000E+00  0.00000000000E+00  0.13859768398E+04  0.13859768398E+04  0.50400001928E-02 0.  1.
        1   -1    0    0  501    0  0.00000000000E+00  0.00000000000E+00 -0.65107846664E+03  0.65107846666E+03  0.50400001928E-02 0. -1.
    10030    2    1    2    0    0  0.00000000000E+00  0.00000000000E+00  0.73489837314E+03  0.20370553064E+04  0.18998733386E+04 0.  0.
        2    1    3    3  502    0 -0.54047693445E+03 -0.76416431236E+03  0.54138881180E+03  0.10812789920E+04  0.25500000920E-02 0.  1.
       -2    1    3    3    0  502  0.54047693445E+03  0.76416431236E+03  0.19350956134E+03  0.95577631446E+03  0.25500000920E-02 0. -1.
</event>
<event>
 5   0  0.1790832E-04  0.1689742E+04  0.7818609E-02  0.8767237E-01
        2   -1    0    0  501    0  0.00000000000E+00  0.00000000000E+00  0.16362973416E+04  0.16362973416E+04  0.25500000920E-02 0. -1.
       -2   -1    0    0    0  501  0.00000000000E+00  0.00000000000E+00 -0.43623303447E+03  0.43623303448E+03  0.25500000920E-02 0.  1.
    10030    2    1    2    0    0  0.00000000000E+00  0.00000000000E+00  0.12000643072E+04  0.20725303761E+04  0.16897419385E+04 0.  0.
        5    1    3    3  502    0 -0.29025115462E+03  0.59367385291E+02 -0.37041696101E+03  0.47434273917E+03  0.46999998093E+01 0.  1.
       -5    1    3    3    0  502  0.29025115462E+03 -0.59367385291E+02  0.15704812682E+04  0.15981876370E+04  0.46999998093E+01 0. -1.
</event>
<event>
 5   0  0.1790832E-04  0.1890705E+04  0.7818609E-02  0.8659497E-01
        2   -1    0    0  501    0  0.00000000000E+00  0.00000000000E+00  0.75269333041E+03  0.75269333041E+03  0.25500000920E-02 0. -1.
       -2   -1    0    0    0  501  0.00000000000E+00  0.00000000000E+00 -0.11873250239E+04  0.11873250239E+04  0.25500000920E-02 0.  1.
    10030    2    1    2    0    0  0.00000000000E+00  0.00000000000E+00 -0.43463169352E+03  0.19400183543E+04  0.18907052933E+04 0.  0.
        5    1    3    3  502    0 -0.57998066035E+03  0.67402260535E+03 -0.54659939632E+03  0.10437801631E+04  0.46999998093E+01 0.  1.
       -5    1    3    3    0  502  0.57998066035E+03 -0.67402260535E+03  0.11196770280E+03  0.89623819120E+03  0.46999998093E+01 0. -1.
</event>
<event>
 5   0  0.1765328E-04  0.1895848E+04  0.7818609E-02  0.8656926E-01
       -2   -1    0    0    0  501  0.00000000000E+00  0.00000000000E+00  0.10841670037E+04  0.10841670037E+04  0.25500000920E-02 0.  1.
        2   -1    0    0  501    0  0.00000000000E+00  0.00000000000E+00 -0.82880173596E+03  0.82880173596E+03  0.25500000920E-02 0. -1.
    10030    2    1    2    0    0  0.00000000000E+00  0.00000000000E+00  0.25536526778E+03  0.19129687397E+04  0.18958475622E+04 0.  0.
        3    1    3    3  502    0  0.96785097582E+02 -0.63947205017E+03  0.82695459608E+03  0.10498313066E+04  0.10100000352E+00 0.  1.
       -3    1    3    3    0  502 -0.96785097582E+02  0.63947205017E+03 -0.57158932830E+03  0.86313743314E+03  0.10100000352E+00 0. -1.
</event>
<event>
 5   0  0.1790832E-04  0.1894431E+04  0.7818609E-02  0.8657633E-01
       -2   -1    0    0    0  501  0.00000000000E+00  0.00000000000E+00  0.45178235087E+03  0.45178235088E+03  0.25500000920E-02 0. -1.
        2   -1    0    0  501    0  0.00000000000E+00  0.00000000000E+00 -0.19859510258E+04  0.19859510258E+04  0.25500000920E-02 0.  1.
    10030    2    1    2    0    0  0.00000000000E+00  0.00000000000E+00 -0.15341686750E+04  0.24377333767E+04  0.18944314431E+04 0.  0.
        5    1    3    3  502    0  0.23398975646E+03  0.78978812866E+03 -0.16534155700E+03  0.84016451649E+03  0.46999998093E+01 0. -1.
       -5    1    3    3    0  502 -0.23398975646E+03 -0.78978812866E+03 -0.13688271180E+04  0.15975688602E+04  0.46999998093E+01 0.  1.
</event>
<event>
 5   0  0.1658711E-04  0.1838759E+04  0.7818609E-02  0.8685955E-01
        2   -1    0    0  501    0  0.00000000000E+00  0.00000000000E+00  0.82301536564E+03  0.82301536565E+03  0.25500000920E-02 0.  1.
       -2   -1    0    0    0  501  0.00000000000E+00  0.00000000000E+00 -0.10270270471E+04  0.10270270471E+04  0.25500000920E-02 0. -1.
    10030    2    1    2    0    0  0.00000000000E+00  0.00000000000E+00 -0.20401168143E+03  0.18500424127E+04  0.18387594086E+04 0.  0.
        2    1    3    3  502    0 -0.86214393295E+03 -0.31874646470E+03 -0.82716060706E+02  0.92289404407E+03  0.25500000920E-02 0. -1.
       -2    1    3    3    0  502  0.86214393295E+03  0.31874646470E+03 -0.12129562072E+03  0.92714836865E+03  0.25500000920E-02 0.  1.
</event>
<event>
 5   0  0.1790832E-04  0.1910100E+04  0.7818609E-02  0.8649845E-01
       -2   -1    0    0    0  501  0.00000000000E+00  0.00000000000E+00  0.93215376307E+03  0.93215376307E+03  0.25500000920E-02 0. -1.
        2   -1    0    0  501    0  0.00000000000E+00  0.00000000000E+00 -0.97850844369E+03  0.97850844369E+03  0.25500000920E-02 0.  1.
    10030    2    1    2    0    0  0.00000000000E+00  0.00000000000E+00 -0.46354680622E+02  0.19106622068E+04  0.19100998173E+04 0.  0.
        5    1    3    3  502    0 -0.76311516195E+03 -0.49811761884E+03  0.26262049448E+03  0.94839734643E+03  0.46999998093E+01 0. -1.
       -5    1    3    3    0  502  0.76311516195E+03  0.49811761884E+03 -0.30897517510E+03  0.96226486033E+03  0.46999998093E+01 0.  1.
</event>
<event>
 5   0  0.1658711E-04  0.2026864E+04  0.7818609E-02  0.8594163E-01
        2   -1    0    0  501    0  0.00000000000E+00  0.00000000000E+00  0.13768432534E+04  0.13768432534E+04  0.25500000920E-02 0.  1.
       -2   -1    0    0    0  501  0.00000000000E+00  0.00000000000E+00 -0.74594156908E+03  0.74594156909E+03  0.25500000920E-02 0. -1.
    10030    2    1    2    0    0  0.00000000000E+00  0.00000000000E+00  0.63090168433E+03  0.21227848225E+04  0.20268641956E+04 0.  0.
        2    1    3    3  502    0 -0.49587144239E+03 -0.50340165779E+03 -0.44538773136E+03  0.83526759047E+03  0.25500000920E-02 0. -1.
       -2    1    3    3    0  502  0.49587144239E+03  0.50340165779E+03  0.10762894157E+04  0.12875172320E+04  0.25500000920E-02 0.  1.
</event>
<event>
 5   0  0.1810569E-04  0.1890785E+04  0.7818609E-02  0.8659457E-01
       -2   -1    0    0    0  501  0.00000000000E+00  0.00000000000E+00  0.94559506023E+03  0.94559506024E+03  0.25500000920E-02 0.  1.
        2   -1    0    0  501    0  0.00000000000E+00  0.00000000000E+00 -0.94519021745E+03  0.94519021745E+03  0.25500000920E-02 0. -1.
    10030    2    1    2    0    0  0.00000000000E+00  0.00000000000E+00  0.40484278468E+00  0.18907852777E+04  0.18907852343E+04 0.  0.
        4    1    3    3  502    0 -0.61702607591E+03  0.29459610533E+03  0.65308645674E+03  0.94553243017E+03  0.12699999809E+01 0.  1.
       -4    1    3    3    0  502  0.61702607591E+03 -0.29459610533E+03 -0.65268161396E+03  0.94525284751E+03  0.12699999809E+01 0. -1.
</event>
<event>
 5   0  0.1799738E-04  0.1899992E+04  0.7818609E-02  0.8654860E-01
       -2   -1    0    0    0  501  0.00000000000E+00  0.00000000000E+00  0.12276465100E+04  0.12276465100E+04  0.25500000920E-02 0.  1.
        2   -1    0    0  501    0  0.00000000000E+00  0.00000000000E+00 -0.73514055867E+03  0.73514055868E+03  0.25500000920E-02 0. -1.
    10030    2    1    2    0    0  0.00000000000E+00  0.00000000000E+00  0.49250595132E+03  0.19627870687E+04  0.18999923592E+04 0.  0.
        1    1    3    3  502    0 -0.15057121094E+03 -0.84120770515E+03 -0.18242000862E+03  0.87383016218E+03  0.50400001928E-02 0. -1.
       -1    1    3    3    0  502  0.15057121094E+03  0.84120770515E+03  0.67492595994E+03  0.10889569065E+04  0.50400001928E-02 0.  1.
</event>
<event>
 5   0  0.8905646E-05  0.1770209E+04  0.7818609E-02  0.8722304E-01
       -1   -1    0    0    0  501  0.00000000000E+00  0.00000000000E+00  0.78311890748E+03  0.78311890750E+03  0.50400001928E-02 0.  1.
        1   -1    0    0  501    0  0.00000000000E+00  0.00000000000E+00 -0.10003715116E+04  0.10003715116E+04  0.50400001928E-02 0. -1.
    10030    2    1    2    0    0  0.00000000000E+00  0.00000000000E+00 -0.21725260412E+03  0.17834904191E+04  0.17702088524E+04 0.  0.
        1    1    3    3  502    0  0.16967789315E+03  0.21246317689E+03 -0.95725153296E+03  0.99511893075E+03  0.50400001928E-02 0. -1.
       -1    1    3    3    0  502 -0.16967789315E+03 -0.21246317689E+03  0.73999892884E+03  0.78837148837E+03  0.50400001928E-02 0.  1.
</event>
<event>
 5   0  0.8587082E-05  0.1906764E+04  0.7818609E-02  0.8651497E-01
        1   -1    0    0  501    0  0.00000000000E+00  0.00000000000E+00  0.15927592394E+04  0.15927592394E+04  0.50400001928E-02 0.  1.
       -1   -1    0    0    0  501  0.00000000000E+00  0.00000000000E+00 -0.57066839081E+03  0.57066839084E+03  0.50400001928E-02 0. -1.
    10030    2    1    2    0    0  0.00000000000E+00  0.00000000000E+00  0.10220908486E+04  0.21634276302E+04  0.19067641198E+04 0.  0.
        5    1    3    3  502    0 -0.36189689136E+02  0.14877843417E+03  0.15787041670E+04  0.15861190539E+04  0.46999998093E+01 0.  1.
       -5    1    3    3    0  502  0.36189689136E+02 -0.14877843417E+03 -0.55661331845E+03  0.57730857636E+03  0.46999998093E+01 0. -1.
</event>
<event>
 5   0  0.8602017E-05  0.1899585E+04  0.7818609E-02  0.8655063E-01
        1   -1    0    0  501    0  0.00000000000E+00  0.00000000000E+00  0.10378497267E+04  0.10378497267E+04  0.50400001928E-02 0. -1.
       -1   -1    0    0    0  501  0.00000000000E+00  0.00000000000E+00 -0.86920639242E+03  0.86920639244E+03  0.50400001928E-02 0.  1.
    10030    2    1    2    0    0  0.00000000000E+00  0.00000000000E+00  0.16864333430E+03  0.19070561192E+04  0.18995848145E+04 0.  0.
        2    1    3    3  502    0 -0.65957455298E+03 -0.36281948027E+03  0.66576195506E+03  0.10049455443E+04  0.25500000920E-02 0. -1.
       -2    1    3    3    0  502  0.65957455298E+03  0.36281948027E+03 -0.49711862076E+03  0.90211057488E+03  0.25500000920E-02 0.  1.
</event>
<event>
 5   0  0.8587082E-05  0.1862435E+04  0.7818609E-02  0.8673784E-01
        1   -1    0    0  501    0  0.00000000000E+00  0.00000000000E+00  0.19255965758E+04  0.19255965758E+04  0.50400001928E-02 0. -1.
       -1   -1    0    0    0  501  0.00000000000E+00  0.00000000000E+00 -0.45033618822E+03  0.45033618824E+03  0.50400001928E-02 0.  1.
    10030    2    1    2    0    0  0.00000000000E+00  0.00000000000E+00  0.14752603876E+04  0.23759327641E+04  0.18624347742E+04 0.  0.
        5    1    3    3  502    0 -0.29165786164E+03 -0.30043544540E+03 -0.32345191768E+03  0.52912096741E+03  0.46999998093E+01 0.  1.
       -5    1    3    3    0  502  0.29165786164E+03  0.30043544540E+03  0.17987123053E+04  0.18468117966E+04  0.46999998093E+01 0. -1.
</event>
<event>
 5   0  0.1799738E-04  0.1872294E+04  0.7818609E-02  0.8668772E-01
       -2   -1    0    0    0  501  0.00000000000E+00  0.00000000000E+00  0.12155000864E+04  0.12155000864E+04  0.25500000920E-02 0.  1.
        2   -1    0    0  501    0  0.00000000000E+00  0.00000000000E+00 -0.72099647364E+03  0.72099647364E+03  0.25500000920E-02 0. -1.
    10030    2    1    2    0    0  0.00000000000E+00  0.00000000000E+00  0.49450361280E+03  0.19364965601E+04  0.18722940752E+04 0.  0.
        1    1    3    3  502    0  0.87143235286E+03 -0.32272922228E+03  0.36437253182E+03  0.99815621949E+03  0.50400001928E-02 0.  1.
       -1    1    3    3    0  502 -0.87143235286E+03  0.32272922228E+03  0.13013108098E+03  0.93834034060E+03  0.50400001928E-02 0. -1.
</event>
<event>
 5   0  0.1810569E-04  0.1863594E+04  0.7818609E-02  0.8673193E-01
       -2   -1    0    0    0  501  0.00000000000E+00  0.00000000000E+00  0.68604813604E+03  0.68604813604E+03  0.25500000920E-02 0.  1.
        2   -1    0    0  501    0  0.00000000000E+00  0.00000000000E+00 -0.12655748018E+04  0.12655748018E+04  0.25500000920E-02 0. -1.
    10030    2    1    2    0    0  0.00000000000E+00  0.00000000000E+00 -0.57952666576E+03  0.19516229378E+04  0.18635935542E+04 0.  0.
        4    1    3    3  502    0  0.33851782773E+03 -0.54805059194E+03  0.41530743844E+03  0.76644350890E+03  0.12699999809E+01 0.  1.
       -4    1    3    3    0  502 -0.33851782773E+03  0.54805059194E+03 -0.99483410419E+03  0.11851794289E+04  0.12699999809E+01 0. -1.
</event>
<event>
 5   0  0.8567844E-05  0.1932897E+04  0.7818609E-02  0.8638652E-01
       -1   -1    0    0    0  501  0.00000000000E+00  0.00000000000E+00  0.75673085288E+03  0.75673085289E+03  0.50400001928E-02 0. -1.
        1   -1    0    0  501    0  0.00000000000E+00  0.00000000000E+00 -0.12342867935E+04  0.12342867935E+04  0.50400001928E-02 0.  1.
    10030    2    1    2    0    0  0.00000000000E+00  0.00000000000E+00 -0.47755594065E+03  0.19910176464E+04  0.19328972016E+04 0.  0.
        4    1    3    3  502    0  0.21712817313E+03  0.89005720153E+03  0.78166803418E+02  0.91948797034E+03  0.12699999809E+01 0. -1.
       -4    1    3    3    0  502 -0.21712817313E+03 -0.89005720153E+03 -0.55572274407E+03  0.10715296761E+04  0.12699999809E+01 0.  1.
</event>
<event>
 5   0  0.8602017E-05  0.1906292E+04  0.7818609E-02  0.8651731E-01
        1   -1    0    0  501    0  0.00000000000E+00  0.00000000000E+00  0.98671146847E+03  0.98671146848E+03  0.50400001928E-02 0. -1.
       -1   -1    0    0    0  501  0.00000000000E+00  0.00000000000E+00 -0.92072244832E+03  0.92072244834E+03  0.50400001928E-02 0.  1.
    10030    2    1    2    0    0  0.00000000000E+00  0.00000000000E+00  0.65989020147E+02  0.19074339168E+04  0.19062921068E+04 0.  0.
        2    1    3    3  502    0 -0.95154893427E+02  0.76251918958E+03 -0.53125586537E+03  0.93419631916E+03  0.25500000920E-02 0.  1.
       -2    1    3    3    0  502  0.95154893427E+02 -0.76251918958E+03  0.59724488552E+03  0.97323759767E+03  0.25500000920E-02 0. -1.
</event>
<event>
 5   0  0.8602017E-05  0.1910605E+04  0.7818609E-02  0.8649596E-01
        1   -1    0    0  501    0  0.00000000000E+00  0.00000000000E+00  0.11031072849E+04  0.11031072850E+04  0.50400001928E-02 0.  1.
       -1   -1    0    0    0  501  0.00000000000E+00  0.00000000000E+00 -0.82730201648E+03  0.82730201649E+03  0.50400001928E-02 0. -1.
    10030    2    1    2    0    0  0.00000000000E+00  0.00000000000E+00  0.27580526846E+03  0.19304093014E+04  0.19106050154E+04 0.  0.
        2    1    3    3  502    0 -0.24506464637E+03 -0.15638577279E+03 -0.78152420443E+03  0.83384247490E+03  0.25500000920E-02 0. -1.
       -2    1    3    3    0  502  0.24506464637E+03  0.15638577279E+03  0.10573294729E+04  0.10965668265E+04  0.25500000920E-02 0.  1.
</event>
<event>
 5   0  0.1658711E-04  0.1904204E+04  0.7818609E-02  0.8652767E-01
       -2   -1    0    0    0  501  0.00000000000E+00  0.00000000000E+00  0.77635739585E+03  0.77635739586E+03  0.25500000920E-02 0.  1.
        2   -1    0    0  501    0  0.00000000000E+00  0.00000000000E+00 -0.11676294964E+04  0.11676294964E+04  0.25500000920E-02 0. -1.
    10030    2    1    2    0    0  0.00000000000E+00  0.00000000000E+00 -0.39127210057E+03  0.19439868923E+04  0.19042035555E+04 0.  0.
        2    1    3    3  502    0 -0.41283902506E+03 -0.58277616192E+03  0.44714820792E+03  0.84261832128E+03  0.25500000920E-02 0.  1.
       -2    1    3    3    0  502  0.41283902506E+03  0.58277616192E+03 -0.83842030849E+03  0.11013685710E+04  0.25500000920E-02 0. -1.
</event>
<event>
 5   0  0.8905646E-05  0.1902805E+04  0.7818609E-02  0.8653461E-01
        1   -1    0    0  501    0  0.00000000000E+00  0.00000000000E+00  0.10867577262E+04  0.10867577262E+04  0.50400001928E-02 0. -1.
       -1   -1    0    0    0  501  0.00000000000E+00  0.00000000000E+00 -0.83290570765E+03  0.83290570767E+03  0.50400001928E-02 0.  1.
    10030    2    1    2    0    0  0.00000000000E+00  0.00000000000E+00  0.25385201857E+03  0.19196634339E+04  0.19028049958E+04 0.  0.
        1    1    3    3  502    0  0.65832731280E+03  0.58474507252E+03 -0.23660673016E+03  0.91175895685E+03  0.50400001928E-02 0.  1.
       -1    1    3    3    0  502 -0.65832731280E+03 -0.58474507252E+03  0.49045874873E+03  0.10079044770E+04  0.50400001928E-02 0. -1.
</event>
<event>
 5   0  0.8602017E-05  0.1895901E+04  0.7818609E-02  0.8656900E-01
        1   -1    0    0  501    0  0.00000000000E+00  0.00000000000E+00  0.12448202818E+04  0.12448202818E+04  0.50400001928E-02 0.  1.
       -1   -1    0    0    0  501  0.00000000000E+00  0.00000000000E+00 -0.72187904833E+03  0.72187904834E+03  0.50400001928E-02 0. -1.
    10030    2    1    2    0    0  0.00000000000E+00  0.00000000000E+00  0.52294123347E+03  0.19666993302E+04  0.18959005041E+04 0.  0.
        2    1    3    3  502    0 -0.92779825913E+03  0.19225937457E+03  0.29147124708E+03  0.99132676986E+03  0.25500000920E-02 0. -1.
       -2    1    3    3    0  502  0.92779825913E+03 -0.19225937457E+03  0.23146998639E+03  0.97537256029E+03  0.25500000920E-02 0.  1.
</event>
<event>
 5   0  0.8681396E-05  0.1912318E+04  0.7818609E-02  0.8648749E-01
        1   -1    0    0  501    0  0.00000000000E+00  0.00000000000E+00  0.18263217846E+04  0.18263217846E+04  0.50400001928E-02 0. -1.
       -1   -1    0    0    0  501  0.00000000000E+00  0.00000000000E+00 -0.50059080852E+03  0.50059080854E+03  0.50400001928E-02 0.  1.
    10030    2    1    2    0    0  0.00000000000E+00  0.00000000000E+00  0.13257309760E+04  0.23269125931E+04  0.19123178593E+04 0.  0.
        3    1    3    3  502    0 -0.30978282873E+03 -0.21534563472E+03 -0.40619116138E+03  0.55437389292E+03  0.10100000352E+00 0.  1.
       -3    1    3    3    0  502  0.30978282873E+03  0.21534563472E+03  0.17319221374E+04  0.17725387002E+04  0.10100000352E+00 0. -1.
</event>
<event>
 5   0  0.8567844E-05  0.1930710E+04  0.7818609E-02  0.8639719E-01
        1   -1    0    0  501    0  0.00000000000E+00  0.00000000000E+00  0.17009195846E+04  0.17009195846E+04  0.50400001928E-02 0. -1.
       -1   -1    0    0    0  501  0.00000000000E+00  0.00000000000E+00 -0.54788629343E+03  0.54788629345E+03  0.50400001928E-02 0.  1.
    10030    2    1    2    0    0  0.00000000000E+00  0.00000000000E+00  0.11530332912E+04  0.22488058781E+04  0.19307102597E+04 0.  0.
        4    1    3    3  502    0 -0.76197165247E+03 -0.50479061862E+03  0.21470191291E+03  0.93888917990E+03  0.12699999809E+01 0. -1.
       -4    1    3    3    0  502  0.76197165247E+03  0.50479061862E+03  0.93833137829E+03  0.13099166982E+04  0.12699999809E+01 0.  1.
</event>
<event>
 5   0  0.1810569E-04  0.1902344E+04  0.7818609E-02  0.8653691E-01
       -2   -1    0    0    0  501  0.00000000000E+00  0.00000000000E+00  0.12545645282E+04  0.12545645282E+04  0.25500000920E-02 0.  1.
        2   -1    0    0  501    0  0.00000000000E+00  0.00000000000E+00 -0.72114906040E+03  0.72114906041E+03  0.25500000920E-02 0. -1.
    10030    2    1    2    0    0  0.00000000000E+00  0.00000000000E+00  0.53341546783E+03  0.19757135886E+04  0.19023438498E+04 0.  0.
        4    1    3    3  502    0 -0.69761015427E+03  0.94681633193E+02 -0.39757154444E+03  0.80851053479E+03  0.12699999809E+01 0. -1.
       -4    1    3    3    0  502  0.69761015427E+03 -0.94681633193E+02  0.93098701227E+03  0.11672030539E+04  0.12699999809E+01 0.  1.
</event>
<event>
 5   0  0.1658711E-04  0.1894697E+04  0.7818609E-02  0.8657500E-01
       -2   -1    0    0    0  501  0.00000000000E+00  0.00000000000E+00  0.12186734585E+04  0.12186734585E+04  0.25500000920E-02 0. -1.
        2   -1    0    0  501    0  0.00000000000E+00  0.00000000000E+00 -0.73643156981E+03  0.73643156981E+03  0.25500000920E-02 0.  1.
    10030    2    1    2    0    0  0.00000000000E+00  0.00000000000E+00  0.48224188867E+03  0.19551050283E+04  0.18946974514E+04 0.  0.
        2    1    3    3  502    0  0.52250778298E+03 -0.49101588073E+03 -0.39777899034E+03  0.81996286719E+03  0.25500000920E-02 0.  1.
       -2    1    3    3    0  502 -0.52250778298E+03  0.49101588073E+03  0.88002087901E+03  0.11351421611E+04  0.25500000920E-02 0. -1.
</event>
<event>
 5   0  0.1790832E-04  0.1911539E+04  0.7818609E-02  0.8649134E-01
       -2   -1    0    0    0  501  0.00000000000E+00  0.00000000000E+00  0.62787608224E+03  0.62787608224E+03  0.25500000920E-02 0. -1.
        2   -1    0    0  501    0  0.00000000000E+00  0.00000000000E+00 -0.14548981184E+04  0.14548981184E+04  0.25500000920E-02 0.  1.
    10030    2    1    2    0    0  0.00000000000E+00  0.00000000000E+00 -0.82702203611E+03  0.20827742006E+04  0.19115394117E+04 0.  0.
        5    1    3    3  502    0 -0.47384625393E+03  0.67738002443E+02 -0.13148738240E+04  0.13992976711E+04  0.46999998093E+01 0.  1.
       -5    1    3    3    0  502  0.47384625393E+03 -0.67738002443E+02  0.48785178792E+03  0.68347652945E+03  0.46999998093E+01 0. -1.
</event>
<event>
 5   0  0.1765328E-04  0.1909837E+04  0.7818609E-02  0.8649975E-01
       -2   -1    0    0    0  501  0.00000000000E+00  0.00000000000E+00  0.73693095769E+03  0.73693095769E+03  0.25500000920E-02 0. -1.
        2   -1    0    0  501    0  0.00000000000E+00  0.00000000000E+00 -0.12373876972E+04  0.12373876972E+04  0.25500000920E-02 0.  1.
    10030    2    1    2    0    0  0.00000000000E+00  0.00000000000E+00 -0.50045673948E+03  0.19743186549E+04  0.19098369571E+04 0.  0.
        3    1    3    3  502    0  0.63956418647E+03  0.45456973714E+03 -0.81283982203E+03  0.11297719155E+04  0.10100000352E+00 0.  1.
       -3    1    3    3    0  502 -0.63956418647E+03 -0.45456973714E+03  0.31238308255E+03  0.84454673938E+03  0.10100000352E+00 0. -1.
</event>
<event>
 5   0  0.1799738E-04  0.1748388E+04  0.7818609E-02  0.8734238E-01
        2   -1    0    0  501    0  0.00000000000E+00  0.00000000000E+00  0.22584631354E+04  0.22584631354E+04  0.25500000920E-02 0.  1.
       -2   -1    0    0    0  501  0.00000000000E+00  0.00000000000E+00 -0.33837826965E+03  0.33837826966E+03  0.25500000920E-02 0. -1.
    10030    2    1    2    0    0  0.00000000000E+00  0.00000000000E+00  0.19200848658E+04  0.25968414051E+04  0.17483876548E+04 0.  0.
        1    1    3    3  502    0 -0.34037204040E+03  0.66947469794E+03  0.16245533905E+04  0.17897550715E+04  0.50400001928E-02 0.  1.
       -1    1    3    3    0  502  0.34037204040E+03 -0.66947469794E+03  0.29553147524E+03  0.80708633364E+03  0.50400001928E-02 0. -1.
</event>
<event>
 5   0  0.8681396E-05  0.1908370E+04  0.7818609E-02  0.8650701E-01
       -1   -1    0    0    0  501  0.00000000000E+00  0.00000000000E+00  0.46592198152E+03  0.46592198155E+03  0.50400001928E-02 0. -1.
        1   -1    0    0  501    0  0.00000000000E+00  0.00000000000E+00 -0.19541226339E+04  0.19541226340E+04  0.50400001928E-02 0.  1.
    10030    2    1    2    0    0  0.00000000000E+00  0.00000000000E+00 -0.14882006524E+04  0.24200446155E+04  0.19083696600E+04 0.  0.
        3    1    3    3  502    0 -0.52743397871E+02  0.94275933579E+03 -0.91839968747E+03  0.13172072834E+04  0.10100000352E+00 0.  1.
       -3    1    3    3    0  502  0.52743397871E+02 -0.94275933579E+03 -0.56980096495E+03  0.11028373321E+04  0.10100000352E+00 0. -1.
</event>
<event>
 5   0  0.8681396E-05  0.1898285E+04  0.7818609E-02  0.8655710E-01
        1   -1    0    0  501    0  0.00000000000E+00  0.00000000000E+00  0.12007247084E+04  0.12007247084E+04  0.50400001928E-02 0. -1.
       -1   -1    0    0    0  501  0.00000000000E+00  0.00000000000E+00 -0.75027347479E+03  0.75027347480E+03  0.50400001928E-02 0.  1.
    10030    2    1    2    0    0  0.00000000000E+00  0.00000000000E+00  0.45045123361E+03  0.19509981832E+04  0.18982854361E+04 0.  0.
        3    1    3    3  502    0 -0.42421024840E+03 -0.38025190283E+03  0.10054678823E+04  0.11556433347E+04  0.10100000352E+00 0. -1.
       -3    1    3    3    0  502  0.42421024840E+03  0.38025190283E+03 -0.55501664873E+03  0.79535484849E+03  0.10100000352E+00 0.  1.
</event>
<event>
 5   0  0.1790832E-04  0.1875580E+04  0.7818609E-02  0.8667108E-01
        2   -1    0    0  501    0  0.00000000000E+00  0.00000000000E+00  0.89244396726E+03  0.89244396726E+03  0.25500000920E-02 0.  1.
       -2   -1    0    0    0  501  0.00000000000E+00  0.00000000000E+00 -0.98543969722E+03  0.98543969722E+03  0.25500000920E-02 0. -1.
    10030    2    1    2    0    0  0.00000000000E+00  0.00000000000E+00 -0.92995729959E+02  0.18778836645E+04  0.18755796042E+04 0.  0.
        5    1    3    3  502    0  0.46455448612E+03  0.22786423595E+03  0.73657201755E+03  0.90016298949E+03  0.46999998093E+01 0.  1.
       -5    1    3    3    0  502 -0.46455448612E+03 -0.22786423595E+03 -0.82956774751E+03  0.97772067499E+03  0.46999998093E+01 0. -1.
</event>
<event>
 5   0  0.8567844E-05  0.1960410E+04  0.7818609E-02  0.8625357E-01
        1   -1    0    0  501    0  0.00000000000E+00  0.00000000000E+00  0.67213109351E+03  0.67213109353E+03  0.50400001928E-02 0.  1.
       -1   -1    0    0    0  501  0.00000000000E+00  0.00000000000E+00 -0.14294854866E+04  0.14294854866E+04  0.50400001928E-02 0. -1.
    10030    2    1    2    0    0  0.00000000000E+00  0.00000000000E+00 -0.75735439312E+03  0.21016165802E+04  0.19604097973E+04 0.  0.
        4    1    3    3  502    0  0.40670075811E+03  0.88687596205E+03 -0.27785199832E+03  0.10144741616E+04  0.12699999809E+01 0. -1.
       -4    1    3    3    0  502 -0.40670075811E+03 -0.88687596205E+03 -0.47950239480E+03  0.10871424186E+04  0.12699999809E+01 0.  1.
</event>
<event>
 5   0  0.1799738E-04  0.1903001E+04  0.7818609E-02  0.8653364E-01
        2   -1    0    0  501    0  0.00000000000E+00  0.00000000000E+00  0.13808341986E+04  0.13808341986E+04  0.25500000920E-02 0. -1.
       -2   -1    0    0    0  501  0.00000000000E+00  0.00000000000E+00 -0.65565680904E+03  0.65565680905E+03  0.25500000920E-02 0.  1.
    10030    2    1    2    0    0  0.00000000000E+00  0.00000000000E+00  0.72517738951E+03  0.20364910076E+04  0.19030011502E+04 0.  0.
        1    1    3    3  502    0 -0.66982754960E+02  0.62523559504E+03 -0.40160950723E+03  0.74612092525E+03  0.50400001928E-02 0.  1.
       -1    1    3    3    0  502  0.66982754960E+02 -0.62523559504E+03  0.11267868967E+04  0.12903700824E+04  0.50400001928E-02 0. -1.
</event>
<event>
 5   0  0.1765328E-04  0.1820653E+04  0.7818609E-02  0.8695393E-01
        2   -1    0    0  501    0  0.00000000000E+00  0.00000000000E+00  0.21258408703E+04  0.21258408703E+04  0.25500000920E-02 0.  1.
       -2   -1    0    0    0  501  0.00000000000E+00  0.00000000000E+00 -0.38981951949E+03  0.38981951950E+03  0.25500000920E-02 0. -1.
    10030    2    1    2    0    0  0.00000000000E+00  0.00000000000E+00  0.17360213508E+04  0.25156603898E+04  0.18206529231E+04 0.  0.
        3    1    3    3  502    0 -0.76227974602E+03 -0.19701707945E+03  0.14994018919E+04  0.16935442671E+04  0.10100000352E+00 0.  1.
       -3    1    3    3    0  502  0.76227974602E+03  0.19701707945E+03  0.23661945892E+03  0.82211612278E+03  0.10100000352E+00 0. -1.
</event>
<event>
 5   0  0.8905646E-05  0.1895477E+04  0.7818609E-02  0.8657111E-01
       -1   -1    0    0    0  501  0.00000000000E+00  0.00000000000E+00  0.84823330853E+03  0.84823330855E+03  0.50400001928E-02 0.  1.
        1   -1    0    0  501    0  0.00000000000E+00  0.00000000000E+00 -0.10589162698E+04  0.10589162698E+04  0.50400001928E-02 0. -1.
    10030    2    1    2    0    0  0.00000000000E+00  0.00000000000E+00 -0.21068296129E+03  0.19071495784E+04  0.18954767749E+04 0.  0.
        1    1    3    3  502    0 -0.53317303892E+03  0.27966762988E+01  0.68301848840E+03  0.86648460249E+03  0.50400001928E-02 0.  1.
       -1    1    3    3    0  502  0.53317303892E+03 -0.27966762988E+01 -0.89370144970E+03  0.10406649759E+04  0.50400001928E-02 0. -1.
</event>
<event>
 5   0  0.1765328E-04  0.1906232E+04  0.7818609E-02  0.8651761E-01
       -2   -1    0    0    0  501  0.00000000000E+00  0.00000000000E+00  0.70204556205E+03  0.70204556205E+03  0.25500000920E-02 0. -1.
        2   -1    0    0  501    0  0.00000000000E+00  0.00000000000E+00 -0.12939757881E+04  0.12939757881E+04  0.25500000920E-02 0.  1.
    10030    2    1    2    0    0  0.00000000000E+00  0.00000000000E+00 -0.59193022604E+03  0.19960213501E+04  0.19062318426E+04 0.  0.
        3    1    3    3  502    0 -0.32022440236E+03  0.89569854086E+03 -0.35888203080E+03  0.10166690052E+04  0.10100000352E+00 0.  1.
       -3    1    3    3    0  502  0.32022440236E+03 -0.89569854086E+03 -0.23304819523E+03  0.97935234491E+03  0.10100000352E+00 0. -1.
</event>
<event>
 5   0  0.1799738E-04  0.1906828E+04  0.7818609E-02  0.8651465E-01
        2   -1    0    0  501    0  0.00000000000E+00  0.00000000000E+00  0.77173447141E+03  0.77173447141E+03  0.25500000920E-02 0.  1.
       -2   -1    0    0    0  501  0.00000000000E+00  0.00000000000E+00 -0.11778635929E+04  0.11778635929E+04  0.25500000920E-02 0. -1.
    10030    2    1    2    0    0  0.00000000000E+00  0.00000000000E+00 -0.40612912146E+03  0.19495980643E+04  0.19068276663E+04 0.  0.
        1    1    3    3  502    0  0.16597986872E+03 -0.61045073067E+03 -0.93236514690E+03  0.11267227603E+04  0.50400001928E-02 0. -1.
       -1    1    3    3    0  502 -0.16597986872E+03  0.61045073067E+03  0.52623602544E+03  0.82287530398E+03  0.50400001928E-02 0.  1.
</event>
<event>
 5   0  0.8602017E-05  0.1890460E+04  0.7818609E-02  0.8659619E-01
       -1   -1    0    0    0  501  0.00000000000E+00  0.00000000000E+00  0.72141384705E+03  0.72141384706E+03  0.50400001928E-02 0.  1.
        1   -1    0    0  501    0  0.00000000000E+00  0.00000000000E+00 -0.12384849385E+04  0.12384849386E+04  0.50400001928E-02 0. -1.
    10030    2    1    2    0    0  0.00000000000E+00  0.00000000000E+00 -0.51707109150E+03  0.19598987856E+04  0.18904604561E+04 0.  0.
        2    1    3    3  502    0 -0.18397644556E+02  0.25051801293E+03 -0.12032485499E+04  0.12291886840E+04  0.25500000920E-02 0. -1.
       -2    1    3    3    0  502  0.18397644556E+02 -0.25051801293E+03  0.68617745840E+03  0.73071010158E+03  0.25500000920E-02 0.  1.
</event>
<event>
 5   0  0.1810569E-04  0.1876694E+04  0.7818609E-02  0.8666545E-01
        2   -1    0    0  501    0  0.00000000000E+00  0.00000000000E+00  0.95566127629E+03  0.95566127630E+03  0.25500000920E-02 0.  1.
       -2   -1    0    0    0  501  0.00000000000E+00  0.00000000000E+00 -0.92134600180E+03  0.92134600180E+03  0.25500000920E-02 0. -1.
    10030    2    1    2    0    0  0.00000000000E+00  0.00000000000E+00  0.34315274491E+02  0.18770072781E+04  0.18766935775E+04 0.  0.
        4    1    3    3  502    0  0.88705970774E+03  0.88801373299E+02 -0.27569238904E+03  0.93314978179E+03  0.12699999809E+01 0. -1.
       -4    1    3    3    0  502 -0.88705970774E+03 -0.88801373299E+02  0.31000766353E+03  0.94385749631E+03  0.12699999809E+01 0.  1.
</event>
<event>
 5   0  0.1658711E-04  0.1887079E+04  0.7818609E-02  0.8661315E-01
        2   -1    0    0  501    0  0.00000000000E+00  0.00000000000E+00  0.17674224529E+04  0.17674224529E+04  0.25500000920E-02 0. -1.
       -2   -1    0    0    0  501  0.00000000000E+00  0.00000000000E+00 -0.50370924963E+03  0.50370924963E+03  0.25500000920E-02 0.  1.
    10030    2    1    2    0    0  0.00000000000E+00  0.00000000000E+00  0.12637132033E+04  0.22711317026E+04  0.18870792644E+04 0.  0.
        2    1    3    3  502    0  0.67012902579E+03  0.27862773199E+03  0.13575290767E+04  0.15393477574E+04  0.25500000920E-02 0. -1.
       -2    1    3    3    0  502 -0.67012902579E+03 -0.27862773199E+03 -0.93815873394E+02  0.73178394513E+03  0.25500000920E-02 0.  1.
</event>
<event>
 5   0  0.8681396E-05  0.1914017E+04  0.7818609E-02  0.8647910E-01
        1   -1    0    0  501    0  0.00000000000E+00  0.00000000000E+00  0.16708802302E+04  0.16708802302E+04  0.50400001928E-02 0. -1.
       -1   -1    0    0    0  501  0.00000000000E+00  0.00000000000E+00 -0.54813365423E+03  0.54813365425E+03  0.50400001928E-02 0.  1.
    10030    2    1    2    0    0  0.00000000000E+00  0.00000000000E+00  0.11227465759E+04  0.22190138844E+04  0.19140174361E+04 0.  0.
        3    1    3    3  502    0 -0.11944400008E+03 -0.43730165315E+03 -0.41576320934E+03  0.61510865824E+03  0.10100000352E+00 0.  1.
       -3    1    3    3    0  502  0.11944400008E+03  0.43730165315E+03  0.15385097853E+04  0.16039052262E+04  0.10100000352E+00 0. -1.
</event>
<event>
 5   0  0.8567844E-05  0.1909853E+04  0.7818609E-02  0.8649967E-01
        1   -1    0    0  501    0  0.00000000000E+00  0.00000000000E+00  0.15926804226E+04  0.15926804226E+04  0.50400001928E-02 0.  1.
       -1   -1    0    0    0  501  0.00000000000E+00  0.00000000000E+00 -0.57254736288E+03  0.57254736290E+03  0.50400001928E-02 0. -1.
    10030    2    1    2    0    0  0.00000000000E+00  0.00000000000E+00  0.10201330598E+04  0.21652277855E+04  0.19098533723E+04 0.  0.
        4    1    3    3  502    0 -0.83713001361E+03  0.44865315309E+03  0.39779418463E+03  0.10297175038E+04  0.12699999809E+01 0.  1.
       -4    1    3    3    0  502  0.83713001361E+03 -0.44865315309E+03  0.62233887512E+03  0.11355102817E+04  0.12699999809E+01 0. -1.
</event>
<event>
 5   0  0.8587082E-05  0.1888902E+04  0.7818609E-02  0.8660400E-01
       -1   -1    0    0    0  501  0.00000000000E+00  0.00000000000E+00  0.96854677539E+03  0.96854677540E+03  0.50400001928E-02 0. -1.
        1   -1    0    0  501    0  0.00000000000E+00  0.00000000000E+00 -0.92095485955E+03  0.92095485957E+03  0.50400001928E-02 0.  1.
    10030    2    1    2    0    0  0.00000000000E+00  0.00000000000E+00  0.47591915837E+02  0.18895016350E+04  0.18889021780E+04 0.  0.
        5    1    3    3  502    0 -0.67307490553E+03 -0.65276789903E+03  0.13710154365E+03  0.94760470753E+03  0.46999998093E+01 0. -1.
       -5    1    3    3    0  502  0.67307490553E+03  0.65276789903E+03 -0.89509627816E+02  0.94189692744E+03  0.46999998093E+01 0.  1.
</event>
<event>
 5   0  0.8567844E-05  0.1900410E+04  0.7818609E-02  0.8654652E-01
        1   -1    0    0  501    0  0.00000000000E+00  0.00000000000E+00  0.77032044146E+03  0.77032044147E+03  0.50400001928E-02 0. -1.
       -1   -1    0    0    0  501  0.00000000000E+00  0.00000000000E+00 -0.11720956620E+04  0.11720956620E+04  0.50400001928E-02 0.  1.
    10030    2    1    2    0    0  0.00000000000E+00  0.00000000000E+00 -0.40177522052E+03  0.19424161035E+04  0.19004096903E+04 0.  0.
        4    1    3    3  502    0 -0.94842176339E+03  0.78716330181E+01 -0.25979690199E+03  0.98339302777E+03  0.12699999809E+01 0. -1.
       -4    1    3    3    0  502  0.94842176339E+03 -0.78716330181E+01 -0.14197831853E+03  0.95902307569E+03  0.12699999809E+01 0.  1.
</event>
<event>
 5   0  0.8905646E-05  0.1861053E+04  0.7818609E-02  0.8674489E-01
        1   -1    0    0  501    0  0.00000000000E+00  0.00000000000E+00  0.17482358880E+04  0.17482358880E+04  0.50400001928E-02 0.  1.
       -1   -1    0    0    0  501  0.00000000000E+00  0.00000000000E+00 -0.49528768320E+03  0.49528768323E+03  0.50400001928E-02 0. -1.
    10030    2    1    2    0    0  0.00000000000E+00  0.00000000000E+00  0.12529482048E+04  0.22435235712E+04  0.18610531456E+04 0.  0.
        1    1    3    3  502    0 -0.11292876372E+03  0.79837884854E+03  0.66568174887E+02  0.80906922659E+03  0.50400001928E-02 0. -1.
       -1    1    3    3    0  502  0.11292876372E+03 -0.79837884854E+03  0.11863800299E+04  0.14344543446E+04  0.50400001928E-02 0.  1.
</event>
<event>
 5   0  0.1790832E-04  0.1899925E+04  0.7818609E-02  0.8654894E-01
        2   -1    0    0  501    0  0.00000000000E+00  0.00000000000E+00  0.64699987954E+03  0.64699987955E+03  0.25500000920E-02 0. -1.
       -2   -1    0    0    0  501  0.00000000000E+00  0.00000000000E+00 -0.13947894595E+04  0.13947894595E+04  0.25500000920E-02 0.  1.
    10030    2    1    2    0    0  0.00000000000E+00  0.00000000000E+00 -0.74778957999E+03  0.20417893391E+04  0.18999248536E+04 0.  0.
        5    1    3    3  502    0  0.21462080963E+03 -0.65878534633E+03 -0.10723022245E+04  0.12766809998E+04  0.46999998093E+01 0.  1.
       -5    1    3    3    0  502 -0.21462080963E+03  0.65878534633E+03  0.32451264452E+03  0.76510833933E+03  0.46999998093E+01 0. -1.
</event>
<event>
 5   0  0.8567844E-05  0.1902094E+04  0.7818609E-02  0.8653815E-01
       -1   -1    0    0    0  501  0.00000000000E+00  0.00000000000E+00  0.66313424025E+03  0.66313424026E+03  0.50400001928E-02 0.  1.
        1   -1    0    0  501    0  0.00000000000E+00  0.00000000000E+00 -0.13639626895E+04  0.13639626895E+04  0.50400001928E-02 0. -1.
    10030    2    1    2    0    0  0.00000000000E+00  0.00000000000E+00 -0.70082844927E+03  0.20270969298E+04  0.19020939639E+04 0.  0.
        4    1    3    3  502    0 -0.76448335050E+03 -0.52911668092E+03 -0.56379625070E+03  0.10873210567E+04  0.12699999809E+01 0. -1.
       -4    1    3    3    0  502  0.76448335050E+03  0.52911668092E+03 -0.13703219857E+03  0.93977587305E+03  0.12699999809E+01 0.  1.
</event>
<event>
 5   0  0.6375750E-05  0.1718664E+04  0.7818609E-02  0.8750790E-01
        4   -1    0    0  501    0  0.00000000000E+00  0.00000000000E+00  0.82327050063E+03  0.82327148020E+03  0.12699999809E+01 0. -1.
       -4   -1    0    0    0  501  0.00000000000E+00  0.00000000000E+00 -0.89697149425E+03  0.89697239333E+03  0.12699999809E+01 0.  1.
    10030    2    1    2    0    0  0.00000000000E+00  0.00000000000E+00 -0.73700993617E+02  0.17202438735E+04  0.17186643500E+04 0.  0.
        4    1    3    3  502    0  0.18237047728E+03  0.42266931771E+02  0.80261254564E+03  0.82415653599E+03  0.12699999809E+01 0. -1.
       -4    1    3    3    0  502 -0.18237047728E+03 -0.42266931771E+02 -0.87631353925E+03  0.89608733753E+03  0.12699999809E+01 0.  1.
</event>
<event>
 5   0  0.1765328E-04  0.1907164E+04  0.7818609E-02  0.8651299E-01
        2   -1    0    0  501    0  0.00000000000E+00  0.00000000000E+00  0.20447294346E+04  0.20447294346E+04  0.25500000920E-02 0. -1.
       -2   -1    0    0    0  501  0.00000000000E+00  0.00000000000E+00 -0.44471340265E+03  0.44471340266E+03  0.25500000920E-02 0.  1.
    10030    2    1    2    0    0  0.00000000000E+00  0.00000000000E+00  0.16000160320E+04  0.24894428373E+04  0.19071639514E+04 0.  0.
        3    1    3    3  502    0  0.66487470994E+03 -0.30999254013E+03  0.47692701001E+01  0.73360514652E+03  0.10100000352E+00 0.  1.
       -3    1    3    3    0  502 -0.66487470994E+03  0.30999254013E+03  0.15952467619E+04  0.17558376908E+04  0.10100000352E+00 0. -1.
</event>
<event>
 5   0  0.1765328E-04  0.1914824E+04  0.7818609E-02  0.8647512E-01
       -2   -1    0    0    0  501  0.00000000000E+00  0.00000000000E+00  0.62842186038E+03  0.62842186038E+03  0.25500000920E-02 0.  1.
        2   -1    0    0  501    0  0.00000000000E+00  0.00000000000E+00 -0.14586346637E+04  0.14586346637E+04  0.25500000920E-02 0. -1.
    10030    2    1    2    0    0  0.00000000000E+00  0.00000000000E+00 -0.83021280337E+03  0.20870565241E+04  0.19148241789E+04 0.  0.
        3    1    3    3  502    0  0.94357665306E+03 -0.12181438942E+03 -0.29841461046E+03  0.99710928969E+03  0.10100000352E+00 0.  1.
       -3    1    3    3    0  502 -0.94357665306E+03  0.12181438942E+03 -0.53179819291E+03  0.10899472344E+04  0.10100000352E+00 0. -1.
</event>
<event>
 5   0  0.8587082E-05  0.1893240E+04  0.7818609E-02  0.8658229E-01
       -1   -1    0    0    0  501  0.00000000000E+00  0.00000000000E+00  0.63635010237E+03  0.63635010239E+03  0.50400001928E-02 0. -1.
        1   -1    0    0  501    0  0.00000000000E+00  0.00000000000E+00 -0.14081697302E+04  0.14081697302E+04  0.50400001928E-02 0.  1.
    10030    2    1    2    0    0  0.00000000000E+00  0.00000000000E+00 -0.77181962785E+03  0.20445198326E+04  0.18932395010E+04 0.  0.
        5    1    3    3  502    0  0.17294148669E+03 -0.32959056239E+03  0.55399778988E+03  0.66743863974E+03  0.46999998093E+01 0. -1.
       -5    1    3    3    0  502 -0.17294148669E+03  0.32959056239E+03 -0.13258174177E+04  0.13770811929E+04  0.46999998093E+01 0.  1.
</event>
<event>
 5   0  0.1790832E-04  0.1888696E+04  0.7818609E-02  0.8660504E-01
       -2   -1    0    0    0  501  0.00000000000E+00  0.00000000000E+00  0.91056654145E+03  0.91056654145E+03  0.25500000920E-02 0.  1.
        2   -1    0    0  501    0  0.00000000000E+00  0.00000000000E+00 -0.97938235590E+03  0.97938235590E+03  0.25500000920E-02 0. -1.
    10030    2    1    2    0    0  0.00000000000E+00  0.00000000000E+00 -0.68815814450E+02  0.18899488974E+04  0.18886956394E+04 0.  0.
        5    1    3    3  502    0 -0.55885669580E+02 -0.70494161515E+03  0.59187065338E+03  0.92217072669E+03  0.46999998093E+01 0.  1.
       -5    1    3    3    0  502  0.55885669580E+02  0.70494161515E+03 -0.66068646783E+03  0.96777817066E+03  0.46999998093E+01 0. -1.
</event>
<event>
 5   0  0.1765328E-04  0.1891562E+04  0.7818609E-02  0.8659068E-01
        2   -1    0    0  501    0  0.00000000000E+00  0.00000000000E+00  0.14640684256E+04  0.14640684256E+04  0.25500000920E-02 0.  1.
       -2   -1    0    0    0  501  0.00000000000E+00  0.00000000000E+00 -0.61096971124E+03  0.61096971125E+03  0.25500000920E-02 0. -1.
    10030    2    1    2    0    0  0.00000000000E+00  0.00000000000E+00  0.85309871437E+03  0.20750381369E+04  0.18915617497E+04 0.  0.
        3    1    3    3  502    0 -0.11667671370E+03  0.21872274811E+03 -0.57469634688E+03  0.62588257475E+03  0.10100000352E+00 0. -1.
       -3    1    3    3    0  502  0.11667671370E+03 -0.21872274811E+03  0.14277950613E+04  0.14491555621E+04  0.10100000352E+00 0.  1.
</event>
<event>
 5   0  0.8681396E-05  0.1729121E+04  0.7818609E-02  0.8744927E-01
        1   -1    0    0  501    0  0.00000000000E+00  0.00000000000E+00  0.11813802131E+04  0.11813802131E+04  0.50400001928E-02 0. -1.
       -1   -1    0    0    0  501  0.00000000000E+00  0.00000000000E+00 -0.63270507138E+03  0.63270507140E+03  0.50400001928E-02 0.  1.
    10030    2    1    2    0    0  0.00000000000E+00  0.00000000000E+00  0.54867514172E+03  0.18140852845E+04  0.17291214556E+04 0.  0.
        3    1    3    3  502    0 -0.45654217333E+03 -0.47102995590E+03 -0.31650939687E+03  0.72833933293E+03  0.10100000352E+00 0.  1.
       -3    1    3    3    0  502  0.45654217333E+03  0.47102995590E+03  0.86518453859E+03  0.10857459516E+04  0.10100000352E+00 0. -1.
</event>
<event>
 5   0  0.8681396E-05  0.1793395E+04  0.7818609E-02  0.8709820E-01
        1   -1    0    0  501    0  0.00000000000E+00  0.00000000000E+00  0.56031306472E+03  0.56031306474E+03  0.50400001928E-02 0.  1.
       -1   -1    0    0    0  501  0.00000000000E+00  0.00000000000E+00 -0.14350305754E+04  0.14350305754E+04  0.50400001928E-02 0. -1.
    10030    2    1    2    0    0  0.00000000000E+00  0.00000000000E+00 -0.87471751065E+03  0.19953436401E+04  0.17933949701E+04 0.  0.
        3    1    3    3  502    0 -0.17190909455E+03  0.49107988597E+02 -0.14149990723E+04  0.14262491775E+04  0.10100000352E+00 0. -1.
       -3    1    3    3    0  502  0.17190909455E+03 -0.49107988597E+02  0.54028156168E+03  0.56909446266E+03  0.10100000352E+00 0.  1.
</event>
<event>
 5   0  0.8567844E-05  0.1786965E+04  0.7818609E-02  0.8713262E-01
       -1   -1    0    0    0  501  0.00000000000E+00  0.00000000000E+00  0.17515519065E+04  0.17515519065E+04  0.50400001928E-02 0. -1.
        1   -1    0    0  501    0  0.00000000000E+00  0.00000000000E+00 -0.45577344797E+03  0.45577344800E+03  0.50400001928E-02 0.  1.
    10030    2    1    2    0    0  0.00000000000E+00  0.00000000000E+00  0.12957784585E+04  0.22073253545E+04  0.17869648589E+04 0.  0.
        4    1    3    3  502    0  0.15742489715E+03 -0.65517511292E+03 -0.76882633543E+02  0.67819582650E+03  0.12699999809E+01 0.  1.
       -4    1    3    3    0  502 -0.15742489715E+03  0.65517511292E+03  0.13726610921E+04  0.15291295280E+04  0.12699999809E+01 0. -1.
</event>
<event>
 5   0  0.1799738E-04  0.1890604E+04  0.7818609E-02  0.8659547E-01
        2   -1    0    0  501    0  0.00000000000E+00  0.00000000000E+00  0.87233792261E+03  0.87233792262E+03  0.25500000920E-02 0. -1.
       -2   -1    0    0    0  501  0.00000000000E+00  0.00000000000E+00 -0.10243690644E+04  0.10243690645E+04  0.25500000920E-02 0.  1.
    10030    2    1    2    0    0  0.00000000000E+00  0.00000000000E+00 -0.15203114184E+03  0.18967069871E+04  0.18906041169E+04 0.  0.
        1    1    3    3  502    0 -0.79530759851E+03 -0.48300554149E+03  0.91218210423E+02  0.93494881748E+03  0.50400001928E-02 0.  1.
       -1    1    3    3    0  502  0.79530759851E+03  0.48300554149E+03 -0.24324935226E+03  0.96175816959E+03  0.50400001928E-02 0. -1.
</event>
<event>
 5   0  0.1790832E-04  0.1930342E+04  0.7818609E-02  0.8639899E-01
        2   -1    0    0  501    0  0.00000000000E+00  0.00000000000E+00  0.12946404934E+04  0.12946404934E+04  0.25500000920E-02 0. -1.
       -2   -1    0    0    0  501  0.00000000000E+00  0.00000000000E+00 -0.71954736660E+03  0.71954736660E+03  0.25500000920E-02 0.  1.
    10030    2    1    2    0    0  0.00000000000E+00  0.00000000000E+00  0.57509312684E+03  0.20141878600E+04  0.19303421021E+04 0.  0.
        5    1    3    3  502    0 -0.95998492848E+03  0.34173017904E+02  0.18969582681E+03  0.97915548039E+03  0.46999998093E+01 0.  1.
       -5    1    3    3    0  502  0.95998492848E+03 -0.34173017904E+02  0.38539730002E+03  0.10350323796E+04  0.46999998093E+01 0. -1.
</event>
<event>
 5   0  0.1658711E-04  0.1996318E+04  0.7818609E-02  0.8608344E-01
       -2   -1    0    0    0  501  0.00000000000E+00  0.00000000000E+00  0.37550963326E+03  0.37550963327E+03  0.25500000920E-02 0. -1.
        2   -1    0    0  501    0  0.00000000000E+00  0.00000000000E+00 -0.26532500965E+04  0.26532500965E+04  0.25500000920E-02 0.  1.
    10030    2    1    2    0    0  0.00000000000E+00  0.00000000000E+00 -0.22777404632E+04  0.30287597297E+04  0.19963175806E+04 0.  0.
        2    1    3    3  502    0 -0.66948751654E+03 -0.34573439488E+02 -0.16867376460E+02  0.67059180275E+03  0.25500000920E-02 0. -1.
       -2    1    3    3    0  502  0.66948751654E+03  0.34573439488E+02 -0.22608730867E+04  0.23581679270E+04  0.25500000920E-02 0.  1.
</event>
<event>
 5   0  0.1765328E-04  0.1926333E+04  0.7818609E-02  0.8641859E-01
       -2   -1    0    0    0  501  0.00000000000E+00  0.00000000000E+00  0.17320338959E+04  0.17320338959E+04  0.25500000920E-02 0. -1.
        2   -1    0    0  501    0  0.00000000000E+00  0.00000000000E+00 -0.53560721566E+03  0.53560721567E+03  0.25500000920E-02 0.  1.
    10030    2    1    2    0    0  0.00000000000E+00  0.00000000000E+00  0.11964266802E+04  0.22676411115E+04  0.19263331512E+04 0.  0.
        3    1    3    3  502    0 -0.58400720239E+03 -0.39829278582E+03  0.13683341606E+04  0.15401428313E+04  0.10100000352E+00 0. -1.
       -3    1    3    3    0  502  0.58400720239E+03  0.39829278582E+03 -0.17190748038E+03  0.72749828020E+03  0.10100000352E+00 0.  1.
</event>
<event>
 5   0  0.8602017E-05  0.1910765E+04  0.7818609E-02  0.8649516E-01
        1   -1    0    0  501    0  0.00000000000E+00  0.00000000000E+00  0.12389834172E+04  0.12389834172E+04  0.50400001928E-02 0. -1.
       -1   -1    0    0    0  501  0.00000000000E+00  0.00000000000E+00 -0.73669729786E+03  0.73669729787E+03  0.50400001928E-02 0.  1.
    10030    2    1    2    0    0  0.00000000000E+00  0.00000000000E+00  0.50228611936E+03  0.19756807151E+04  0.19107650149E+04 0.  0.
        2    1    3    3  502    0  0.28620525587E+03  0.54007150474E+03  0.10103677946E+04  0.11808614479E+04  0.25500000920E-02 0. -1.
       -2    1    3    3    0  502 -0.28620525587E+03 -0.54007150474E+03 -0.50808167528E+03  0.79481926718E+03  0.25500000920E-02 0.  1.
</event>
<event>
 5   0  0.8905646E-05  0.1899766E+04  0.7818609E-02  0.8654973E-01
        1   -1    0    0  501    0  0.00000000000E+00  0.00000000000E+00  0.11885260969E+04  0.11885260969E+04  0.50400001928E-02 0.  1.
       -1   -1    0    0    0  501  0.00000000000E+00  0.00000000000E+00 -0.75915672421E+03  0.75915672422E+03  0.50400001928E-02 0. -1.
    10030    2    1    2    0    0  0.00000000000E+00  0.00000000000E+00  0.42936937268E+03  0.19476828211E+04  0.18997658575E+04 0.  0.
        1    1    3    3  502    0  0.64161851287E+03  0.12659132931E+03  0.92095655688E+03  0.11295400216E+04  0.50400001928E-02 0.  1.
       -1    1    3    3    0  502 -0.64161851287E+03 -0.12659132931E+03 -0.49158718420E+03  0.81814279952E+03  0.50400001928E-02 0. -1.
</event>
<event>
 5   0  0.1765328E-04  0.1856040E+04  0.7818609E-02  0.8677053E-01
       -2   -1    0    0    0  501  0.00000000000E+00  0.00000000000E+00  0.71505781538E+03  0.71505781538E+03  0.25500000920E-02 0.  1.
        2   -1    0    0  501    0  0.00000000000E+00  0.00000000000E+00 -0.12044079086E+04  0.12044079086E+04  0.25500000920E-02 0. -1.
    10030    2    1    2    0    0  0.00000000000E+00  0.00000000000E+00 -0.48935009317E+03  0.19194657239E+04  0.18560401805E+04 0.  0.
        3    1    3    3  502    0  0.28814843982E+03  0.40380897257E+03 -0.10557789017E+04  0.11665163133E+04  0.10100000352E+00 0. -1.
       -3    1    3    3    0  502 -0.28814843982E+03 -0.40380897257E+03  0.56642880851E+03  0.75294941066E+03  0.10100000352E+00 0.  1.
</event>
<event>
 5   0  0.1790832E-04  0.1889290E+04  0.7818609E-02  0.8660206E-01
       -2   -1    0    0    0  501  0.00000000000E+00  0.00000000000E+00  0.40610821551E+03  0.40610821551E+03  0.25500000920E-02 0.  1.
        2   -1    0    0  501    0  0.00000000000E+00  0.00000000000E+00 -0.21973305284E+04  0.21973305284E+04  0.25500000920E-02 0. -1.
    10030    2    1    2    0    0  0.00000000000E+00  0.00000000000E+00 -0.17912223129E+04  0.26034387439E+04  0.18892897922E+04 0.  0.
        5    1    3    3  502    0 -0.51747054699E+03 -0.26825069229E+03 -0.19199728221E+04  0.20065024118E+04  0.46999998093E+01 0. -1.
       -5    1    3    3    0  502  0.51747054699E+03  0.26825069229E+03  0.12875050926E+03  0.59693633207E+03  0.46999998093E+01 0.  1.
</event>
<event>
 5   0  0.8681396E-05  0.1854295E+04  0.7818609E-02  0.8677947E-01
        1   -1    0    0  501    0  0.00000000000E+00  0.00000000000E+00  0.87736189839E+03  0.87736189840E+03  0.50400001928E-02 0. -1.
       -1   -1    0    0    0  501  0.00000000000E+00  0.00000000000E+00 -0.97975826071E+03  0.97975826073E+03  0.50400001928E-02 0.  1.
    10030    2    1    2    0    0  0.00000000000E+00  0.00000000000E+00 -0.10239636233E+03  0.18571201591E+04  0.18542950872E+04 0.  0.
        3    1    3    3  502    0  0.17326478822E+03 -0.63296714470E+03  0.60473051001E+03  0.89239402343E+03  0.10100000352E+00 0. -1.
       -3    1    3    3    0  502 -0.17326478822E+03  0.63296714470E+03 -0.70712687234E+03  0.96472613570E+03  0.10100000352E+00 0.  1.
</event>
<event>
 5   0  0.8602017E-05  0.1918039E+04  0.7818609E-02  0.8645929E-01
       -1   -1    0    0    0  501  0.00000000000E+00  0.00000000000E+00  0.78948647661E+03  0.78948647663E+03  0.50400001928E-02 0.  1.
        1   -1    0    0  501    0  0.00000000000E+00  0.00000000000E+00 -0.11649581370E+04  0.11649581370E+04  0.50400001928E-02 0. -1.
    10030    2    1    2    0    0  0.00000000000E+00  0.00000000000E+00 -0.37547166036E+03  0.19544446136E+04  0.19180393062E+04 0.  0.
        2    1    3    3  502    0  0.36867188085E+03  0.33855205233E+03  0.64582648114E+03  0.81708524134E+03  0.25500000920E-02 0.  1.
       -2    1    3    3    0  502 -0.36867188085E+03 -0.33855205233E+03 -0.10212981415E+04  0.11373593723E+04  0.25500000920E-02 0. -1.
</event>
<event>
 5   0  0.8602017E-05  0.1912650E+04  0.7818609E-02  0.8648585E-01
       -1   -1    0    0    0  501  0.00000000000E+00  0.00000000000E+00  0.60138219692E+03  0.60138219694E+03  0.50400001928E-02 0. -1.
        1   -1    0    0  501    0  0.00000000000E+00  0.00000000000E+00 -0.15207587455E+04  0.15207587455E+04  0.50400001928E-02 0.  1.
    10030    2    1    2    0    0  0.00000000000E+00  0.00000000000E+00 -0.91937654857E+03  0.21221409424E+04  0.19126497174E+04 0.  0.
        2    1    3    3  502    0  0.54217010687E+03  0.77736900681E+03 -0.60137059758E+03  0.11224515995E+04  0.25500000920E-02 0.  1.
       -2    1    3    3    0  502 -0.54217010687E+03 -0.77736900681E+03 -0.31800595099E+03  0.99968934295E+03  0.25500000920E-02 0. -1.
</event>
<event>
 5   0  0.1810569E-04  0.1905528E+04  0.7818609E-02  0.8652109E-01
       -2   -1    0    0    0  501  0.00000000000E+00  0.00000000000E+00  0.68813747578E+03  0.68813747578E+03  0.25500000920E-02 0. -1.
        2   -1    0    0  501    0  0.00000000000E+00  0.00000000000E+00 -0.13191542993E+04  0.13191542993E+04  0.25500000920E-02 0.  1.
    10030    2    1    2    0    0  0.00000000000E+00  0.00000000000E+00 -0.63101682348E+03  0.20072917750E+04  0.19055282833E+04 0.  0.
        4    1    3    3  502    0 -0.57489659054E+03 -0.43480013935E+03  0.34082306439E+03  0.79732002679E+03  0.12699999809E+01 0. -1.
       -4    1    3    3    0  502  0.57489659054E+03  0.43480013935E+03 -0.97183988787E+03  0.12099717482E+04  0.12699999809E+01 0.  1.
</event>
<event>
 5   0  0.8587082E-05  0.1912045E+04  0.7818609E-02  0.8648884E-01
        1   -1    0    0  501    0  0.00000000000E+00  0.00000000000E+00  0.13634950598E+04  0.13634950598E+04  0.50400001928E-02 0. -1.
       -1   -1    0    0    0  501  0.00000000000E+00  0.00000000000E+00 -0.67032096507E+03  0.67032096509E+03  0.50400001928E-02 0.  1.
    10030    2    1    2    0    0  0.00000000000E+00  0.00000000000E+00  0.69317409474E+03  0.20338160249E+04  0.19120453179E+04 0.  0.
        5    1    3    3  502    0 -0.23107012738E+03  0.88369703352E+03  0.46402498303E+02  0.91459779830E+03  0.46999998093E+01 0.  1.
       -5    1    3    3    0  502  0.23107012738E+03 -0.88369703352E+03  0.64677159644E+03  0.11192182266E+04  0.46999998093E+01 0. -1.
</event>
<event>
 5   0  0.1790832E-04  0.1897370E+04  0.7818609E-02  0.8656166E-01
        2   -1    0    0  501    0  0.00000000000E+00  0.00000000000E+00  0.15267282095E+04  0.15267282095E+04  0.25500000920E-02 0. -1.
       -2   -1    0    0    0  501  0.00000000000E+00  0.00000000000E+00 -0.58949818847E+03  0.58949818847E+03  0.25500000920E-02 0.  1.
    10030    2    1    2    0    0  0.00000000000E+00  0.00000000000E+00  0.93723002106E+03  0.21162263980E+04  0.18973703000E+04 0.  0.
        5    1    3    3  502    0  0.75799101338E+03  0.56869665911E+03  0.41854651845E+03  0.10359389676E+04  0.46999998093E+01 0.  1.
       -5    1    3    3    0  502 -0.75799101338E+03 -0.56869665911E+03  0.51868350261E+03  0.10802874304E+04  0.46999998093E+01 0. -1.
</event>
<event>
 5   0  0.8602017E-05  0.1894628E+04  0.7818609E-02  0.8657535E-01
       -1   -1    0    0    0  501  0.00000000000E+00  0.00000000000E+00  0.21682716138E+04  0.21682716138E+04  0.50400001928E-02 0.  1.
        1   -1    0    0  501    0  0.00000000000E+00  0.00000000000E+00 -0.41387983109E+03  0.41387983112E+03  0.50400001928E-02 0. -1.
    10030    2    1    2    0    0  0.00000000000E+00  0.00000000000E+00  0.17543917828E+04  0.25821514450E+04  0.18946280789E+04 0.  0.
        2    1    3    3  502    0 -0.23547996858E+03  0.86710095980E+03  0.12862621157E+04  0.15690076865E+04  0.25500000920E-02 0.  1.
       -2    1    3    3    0  502  0.23547996858E+03 -0.86710095980E+03  0.46812966708E+03  0.10131437585E+04  0.25500000920E-02 0. -1.
</event>
<event>
 5   0  0.1799738E-04  0.1718302E+04  0.7818609E-02  0.8750994E-01
        2   -1    0    0  501    0  0.00000000000E+00  0.00000000000E+00  0.10711628876E+04  0.10711628876E+04  0.25500000920E-02 0.  1.
       -2   -1    0    0    0  501  0.00000000000E+00  0.00000000000E+00 -0.68910195845E+03  0.68910195846E+03  0.25500000920E-02 0. -1.
    10030    2    1    2    0    0  0.00000000000E+00  0.00000000000E+00  0.38206092913E+03  0.17602648460E+04  0.17183020033E+04 0.  0.
        1    1    3    3  502    0 -0.41943145334E+03 -0.74779866112E+03  0.13478179695E+03  0.86792379529E+03  0.50400001928E-02 0.  1.
       -1    1    3    3    0  502  0.41943145334E+03  0.74779866112E+03  0.24727913218E+03  0.89234105075E+03  0.50400001928E-02 0. -1.
</event>
<event>
 5   0  0.8587082E-05  0.1924600E+04  0.7818609E-02  0.8642707E-01
        1   -1    0    0  501    0  0.00000000000E+00  0.00000000000E+00  0.16153459184E+04  0.16153459184E+04  0.50400001928E-02 0.  1.
       -1   -1    0    0    0  501  0.00000000000E+00  0.00000000000E+00 -0.57326486908E+03  0.57326486910E+03  0.50400001928E-02 0. -1.
    10030    2    1    2    0    0  0.00000000000E+00  0.00000000000E+00  0.10420810493E+04  0.21886107875E+04  0.19245997677E+04 0.  0.
        5    1    3    3  502    0  0.28888351968E+03  0.89377119410E+03  0.28326894474E+03  0.98109327813E+03  0.46999998093E+01 0.  1.
       -5    1    3    3    0  502 -0.28888351968E+03 -0.89377119410E+03  0.75881210455E+03  0.12075175093E+04  0.46999998093E+01 0. -1.
</event>
<event>
 5   0  0.8602017E-05  0.1935989E+04  0.7818609E-02  0.8637147E-01
       -1   -1    0    0    0  501  0.00000000000E+00  0.00000000000E+00  0.63259651511E+03  0.63259651513E+03  0.50400001928E-02 0.  1.
        1   -1    0    0  501    0  0.00000000000E+00  0.00000000000E+00 -0.14812186268E+04  0.14812186268E+04  0.50400001928E-02 0. -1.
    10030    2    1    2    0    0  0.00000000000E+00  0.00000000000E+00 -0.84862211172E+03  0.21138151420E+04  0.19359894023E+04 0.  0.
        2    1    3    3  502    0 -0.82034034696E+03  0.21238346182E+03 -0.93521027156E+03  0.12620155592E+04  0.25500000920E-02 0. -1.
       -2    1    3    3    0  502  0.82034034696E+03 -0.21238346182E+03  0.86588159835E+02  0.85179958273E+03  0.25500000920E-02 0.  1.
</event>
<event>
 5   0  0.1658711E-04  0.1909468E+04  0.7818609E-02  0.8650158E-01
       -2   -1    0    0    0  501  0.00000000000E+00  0.00000000000E+00  0.57787785562E+03  0.57787785562E+03  0.25500000920E-02 0.  1.
        2   -1    0    0  501    0  0.00000000000E+00  0.00000000000E+00 -0.15773515852E+04  0.15773515852E+04  0.25500000920E-02 0. -1.
    10030    2    1    2    0    0  0.00000000000E+00  0.00000000000E+00 -0.99947372963E+03  0.21552294409E+04  0.19094675191E+04 0.  0.
        2    1    3    3  502    0 -0.25868554162E+03  0.51707067351E+02  0.53592471798E+03  0.59733335217E+03  0.25500000920E-02 0.  1.
       -2    1    3    3    0  502  0.25868554162E+03 -0.51707067351E+02 -0.15353984476E+04  0.15578960887E+04  0.25500000920E-02 0. -1.
</event>
<event>
 5   0  0.1658711E-04  0.1900138E+04  0.7818609E-02  0.8654787E-01
        2   -1    0    0  501    0  0.00000000000E+00  0.00000000000E+00  0.60829538513E+03  0.60829538514E+03  0.25500000920E-02 0. -1.
       -2   -1    0    0    0  501  0.00000000000E+00  0.00000000000E+00 -0.14838703322E+04  0.14838703322E+04  0.25500000920E-02 0.  1.
    10030    2    1    2    0    0  0.00000000000E+00  0.00000000000E+00 -0.87557494704E+03  0.20921657173E+04  0.19001383899E+04 0.  0.
        2    1    3    3  502    0  0.83427225093E+02  0.77609053567E+03  0.15857112864E+03  0.79650575910E+03  0.25500000920E-02 0. -1.
       -2    1    3    3    0  502 -0.83427225093E+02 -0.77609053567E+03 -0.10341460757E+04  0.12956599582E+04  0.25500000920E-02 0.  1.
</event>
<event>
 5   0  0.1810569E-04  0.1892442E+04  0.7818609E-02  0.8658628E-01
        2   -1    0    0  501    0  0.00000000000E+00  0.00000000000E+00  0.10708309760E+04  0.10708309760E+04  0.25500000920E-02 0.  1.
       -2   -1    0    0    0  501  0.00000000000E+00  0.00000000000E+00 -0.83611137219E+03  0.83611137219E+03  0.25500000920E-02 0. -1.
    10030    2    1    2    0    0  0.00000000000E+00  0.00000000000E+00  0.23471960378E+03  0.19069423482E+04  0.18924417631E+04 0.  0.
        4    1    3    3  502    0 -0.10943652903E+03  0.24918398950E+03  0.10305395163E+04  0.10658716255E+04  0.12699999809E+01 0.  1.
       -4    1    3    3    0  502  0.10943652903E+03 -0.24918398950E+03 -0.79581991250E+03  0.84107072267E+03  0.12699999809E+01 0. -1.
</event>
<event>
 5   0  0.1658711E-04  0.1870021E+04  0.7818609E-02  0.8669924E-01
       -2   -1    0    0    0  501  0.00000000000E+00  0.00000000000E+00  0.71416508099E+03  0.71416508100E+03  0.25500000920E-02 0. -1.
        2   -1    0    0  501    0  0.00000000000E+00  0.00000000000E+00 -0.12241494210E+04  0.12241494211E+04  0.25500000920E-02 0.  1.
    10030    2    1    2    0    0  0.00000000000E+00  0.00000000000E+00 -0.50998434006E+03  0.19383145020E+04  0.18700211447E+04 0.  0.
        2    1    3    3  502    0 -0.72105072203E+03  0.59305106818E+03 -0.20192621567E+03  0.95519522077E+03  0.25500000920E-02 0.  1.
       -2    1    3    3    0  502  0.72105072203E+03 -0.59305106818E+03 -0.30805812438E+03  0.98311928127E+03  0.25500000920E-02 0. -1.
</event>
<event>
 5   0  0.1658711E-04  0.1620573E+04  0.7818609E-02  0.8808008E-01
       -2   -1    0    0    0  501  0.00000000000E+00  0.00000000000E+00  0.38425615032E+03  0.38425615032E+03  0.25500000920E-02 0. -1.
        2   -1    0    0  501    0  0.00000000000E+00  0.00000000000E+00 -0.17086635031E+04  0.17086635031E+04  0.25500000920E-02 0.  1.
    10030    2    1    2    0    0  0.00000000000E+00  0.00000000000E+00 -0.13244073528E+04  0.20929196535E+04  0.16205733058E+04 0.  0.
        2    1    3    3  502    0 -0.44020334520E+03 -0.66134600534E+03 -0.86805801378E+03  0.11767252182E+04  0.25500000920E-02 0. -1.
       -2    1    3    3    0  502  0.44020334520E+03  0.66134600534E+03 -0.45634933904E+03  0.91619443524E+03  0.25500000920E-02 0.  1.
</event>
<event>
 5   0  0.1765328E-04  0.1897486E+04  0.7818609E-02  0.8656109E-01
        2   -1    0    0  501    0  0.00000000000E+00  0.00000000000E+00  0.19031502111E+04  0.19031502111E+04  0.25500000920E-02 0.  1.
       -2   -1    0    0    0  501  0.00000000000E+00  0.00000000000E+00 -0.47295976596E+03  0.47295976597E+03  0.25500000920E-02 0. -1.
    10030    2    1    2    0    0  0.00000000000E+00  0.00000000000E+00  0.14301904451E+04  0.23761099771E+04  0.18974862091E+04 0.  0.
        3    1    3    3  502    0  0.25122596438E+03 -0.54045032581E+02 -0.42854987711E+03  0.49969026216E+03  0.10100000352E+00 0. -1.
       -3    1    3    3    0  502 -0.25122596438E+03  0.54045032581E+02  0.18587403222E+04  0.18764197149E+04  0.10100000352E+00 0.  1.
</event>
<event>
 5   0  0.8567844E-05  0.1590912E+04  0.7818609E-02  0.8826151E-01
       -1   -1    0    0    0  501  0.00000000000E+00  0.00000000000E+00  0.35346758992E+03  0.35346758995E+03  0.50400001928E-02 0. -1.
        1   -1    0    0  501    0  0.00000000000E+00  0.00000000000E+00 -0.17901214199E+04  0.17901214199E+04  0.50400001928E-02 0.  1.
    10030    2    1    2    0    0  0.00000000000E+00  0.00000000000E+00 -0.14366538300E+04  0.21435890099E+04  0.15909115676E+04 0.  0.
        4    1    3    3  502    0 -0.49190309866E+02  0.75992485823E+03 -0.40859322109E+03  0.86420802470E+03  0.12699999809E+01 0. -1.
       -4    1    3    3    0  502  0.49190309866E+02 -0.75992485823E+03 -0.10280606089E+04  0.12793809852E+04  0.12699999809E+01 0.  1.
</event>
<event>
 5   0  0.8905646E-05  0.1916159E+04  0.7818609E-02  0.8646854E-01
       -1   -1    0    0    0  501  0.00000000000E+00  0.00000000000E+00  0.59399246618E+03  0.59399246620E+03  0.50400001928E-02 0.  1.
        1   -1    0    0  501    0  0.00000000000E+00  0.00000000000E+00 -0.15453338553E+04  0.15453338553E+04  0.50400001928E-02 0. -1.
    10030    2    1    2    0    0  0.00000000000E+00  0.00000000000E+00 -0.95134138910E+03  0.21393263215E+04  0.19161593543E+04 0.  0.
        1    1    3    3  502    0 -0.65581606933E+03 -0.63748549201E+03 -0.79427293389E+03  0.12113430409E+04  0.50400001928E-02 0. -1.
       -1    1    3    3    0  502  0.65581606933E+03  0.63748549201E+03 -0.15706845521E+03  0.92798328054E+03  0.50400001928E-02 0.  1.
</event>
<event>
 5   0  0.8681396E-05  0.1905175E+04  0.7818609E-02  0.8652285E-01
       -1   -1    0    0    0  501  0.00000000000E+00  0.00000000000E+00  0.49946384243E+03  0.49946384246E+03  0.50400001928E-02 0.  1.
        1   -1    0    0  501    0  0.00000000000E+00  0.00000000000E+00 -0.18167946035E+04  0.18167946035E+04  0.50400001928E-02 0. -1.
    10030    2    1    2    0    0  0.00000000000E+00  0.00000000000E+00 -0.13173307611E+04  0.23162584460E+04  0.19051752818E+04 0.  0.
        3    1    3    3  502    0 -0.63769410887E+03 -0.34491494862E+03 -0.14098934481E+04  0.15853768143E+04  0.10100000352E+00 0. -1.
       -3    1    3    3    0  502  0.63769410887E+03  0.34491494862E+03  0.92562686984E+02  0.73088163166E+03  0.10100000352E+00 0.  1.
</event>
<event>
 5   0  0.8602017E-05  0.1938423E+04  0.7818609E-02  0.8635963E-01
       -1   -1    0    0    0  501  0.00000000000E+00  0.00000000000E+00  0.68599492784E+03  0.68599492786E+03  0.50400001928E-02 0. -1.
        1   -1    0    0  501    0  0.00000000000E+00  0.00000000000E+00 -0.13693561644E+04  0.13693561644E+04  0.50400001928E-02 0.  1.
    10030    2    1    2    0    0  0.00000000000E+00  0.00000000000E+00 -0.68336123659E+03  0.20553510923E+04  0.19384234658E+04 0.  0.
        2    1    3    3  502    0  0.44799970484E+03 -0.20096697288E+03  0.54435695183E+03  0.73308659157E+03  0.25500000920E-02 0. -1.
       -2    1    3    3    0  502 -0.44799970484E+03  0.20096697288E+03 -0.12277181884E+04  0.13222645007E+04  0.25500000920E-02 0.  1.
</event>
<event>
 5   0  0.8905646E-05  0.1901603E+04  0.7818609E-02  0.8654059E-01
       -1   -1    0    0    0  501  0.00000000000E+00  0.00000000000E+00  0.69486727046E+03  0.69486727048E+03  0.50400001928E-02 0.  1.
        1   -1    0    0  501    0  0.00000000000E+00  0.00000000000E+00 -0.13010019564E+04  0.13010019564E+04  0.50400001928E-02 0. -1.
    10030    2    1    2    0    0  0.00000000000E+00  0.00000000000E+00 -0.60613468590E+03  0.19958692269E+04  0.19016031955E+04 0.  0.
        1    1    3    3  502    0  0.28193168222E+03  0.74996145119E+03  0.23426428213E+03  0.83474990603E+03  0.50400001928E-02 0.  1.
       -1    1    3    3    0  502 -0.28193168222E+03 -0.74996145119E+03 -0.84039896803E+03  0.11611193208E+04  0.50400001928E-02 0. -1.
</event>
<event>
 5   0  0.1810569E-04  0.1913836E+04  0.7818609E-02  0.8648000E-01
       -2   -1    0    0    0  501  0.00000000000E+00  0.00000000000E+00  0.81816432070E+03  0.81816432070E+03  0.25500000920E-02 0. -1.
        2   -1    0    0  501    0  0.00000000000E+00  0.00000000000E+00 -0.11192036697E+04  0.11192036697E+04  0.25500000920E-02 0.  1.
    10030    2    1    2    0    0  0.00000000000E+00  0.00000000000E+00 -0.30103934901E+03  0.19373679904E+04  0.19138364718E+04 0.  0.
        4    1    3    3  502    0  0.94706416071E+03 -0.13677048928E+03 -0.14306667572E+03  0.96752590551E+03  0.12699999809E+01 0.  1.
       -4    1    3    3    0  502 -0.94706416071E+03  0.13677048928E+03 -0.15797267329E+03  0.96984208490E+03  0.12699999809E+01 0. -1.
</event>
<event>
 5   0  0.1810569E-04  0.1769171E+04  0.7818609E-02  0.8722868E-01
        2   -1    0    0  501    0  0.00000000000E+00  0.00000000000E+00  0.97807472719E+03  0.97807472720E+03  0.25500000920E-02 0. -1.
       -2   -1    0    0    0  501  0.00000000000E+00  0.00000000000E+00 -0.80003261806E+03  0.80003261806E+03  0.25500000920E-02 0.  1.
    10030    2    1    2    0    0  0.00000000000E+00  0.00000000000E+00  0.17804210914E+03  0.17781073453E+04  0.17691712011E+04 0.  0.
        4    1    3    3  502    0 -0.19885665808E+02 -0.84840475652E+03  0.33988952609E+03  0.91417316381E+03  0.12699999809E+01 0. -1.
       -4    1    3    3    0  502  0.19885665808E+02  0.84840475652E+03 -0.16184741696E+03  0.86393418144E+03  0.12699999809E+01 0.  1.
</event>
<event>
 5   0  0.1658711E-04  0.1892213E+04  0.7818609E-02  0.8658742E-01
       -2   -1    0    0    0  501  0.00000000000E+00  0.00000000000E+00  0.86158502769E+03  0.86158502769E+03  0.25500000920E-02 0. -1.
        2   -1    0    0  501    0  0.00000000000E+00  0.00000000000E+00 -0.10389191731E+04  0.10389191731E+04  0.25500000920E-02 0.  1.
    10030    2    1    2    0    0  0.00000000000E+00  0.00000000000E+00 -0.17733414544E+03  0.19005042008E+04  0.18922126779E+04 0.  0.
        2    1    3    3  502    0 -0.47880741986E+03  0.73325609552E+03 -0.44828090664E+03  0.98380730745E+03  0.25500000920E-02 0. -1.
       -2    1    3    3    0  502  0.47880741986E+03 -0.73325609552E+03  0.27094676120E+03  0.91669689338E+03  0.25500000920E-02 0.  1.
</event>
<event>
 5   0  0.6375750E-05  0.1899334E+04  0.7818609E-02  0.8655188E-01
       -3   -1    0    0    0  501  0.00000000000E+00  0.00000000000E+00  0.84123660013E+03  0.84123660620E+03  0.10100000352E+00 0. -1.
        3   -1    0    0  501    0  0.00000000000E+00  0.00000000000E+00 -0.10720737499E+04  0.10720737547E+04  0.10100000352E+00 0.  1.
    10030    2    1    2    0    0  0.00000000000E+00  0.00000000000E+00 -0.23083714982E+03  0.19133103609E+04  0.18993342906E+04 0.  0.
        2    1    3    3  502    0 -0.38829289438E+02 -0.80204364173E+03  0.39534886267E+03  0.89503208891E+03  0.25500000920E-02 0. -1.
       -2    1    3    3    0  502  0.38829289438E+02  0.80204364173E+03 -0.62618601249E+03  0.10182782720E+04  0.25500000920E-02 0.  1.
</event>
<event>
 5   0  0.8567844E-05  0.1908501E+04  0.7818609E-02  0.8650637E-01
        1   -1    0    0  501    0  0.00000000000E+00  0.00000000000E+00  0.10381061991E+04  0.10381061992E+04  0.50400001928E-02 0.  1.
       -1   -1    0    0    0  501  0.00000000000E+00  0.00000000000E+00 -0.87716822849E+03  0.87716822850E+03  0.50400001928E-02 0. -1.
    10030    2    1    2    0    0  0.00000000000E+00  0.00000000000E+00  0.16093797066E+03  0.19152744277E+04  0.19085007474E+04 0.  0.
        4    1    3    3  502    0  0.61769808737E+02 -0.78569274291E+02 -0.87190055393E+03  0.87761086421E+03  0.12699999809E+01 0. -1.
       -4    1    3    3    0  502 -0.61769808737E+02  0.78569274291E+02  0.10328385246E+04  0.10376635635E+04  0.12699999809E+01 0.  1.
</event>
<event>
 5   0  0.8681396E-05  0.1901187E+04  0.7818609E-02  0.8654266E-01
        1   -1    0    0  501    0  0.00000000000E+00  0.00000000000E+00  0.89527245744E+03  0.89527245746E+03  0.50400001928E-02 0. -1.
       -1   -1    0    0    0  501  0.00000000000E+00  0.00000000000E+00 -0.10093326444E+04  0.10093326444E+04  0.50400001928E-02 0.  1.
    10030    2    1    2    0    0  0.00000000000E+00  0.00000000000E+00 -0.11406018692E+03  0.19046051018E+04  0.19011866998E+04 0.  0.
        3    1    3    3  502    0  0.45612808585E+03 -0.81486246418E+03 -0.23504044448E+03  0.96296297280E+03  0.10100000352E+00 0. -1.
       -3    1    3    3    0  502 -0.45612808585E+03  0.81486246418E+03  0.12098025757E+03  0.94164212903E+03  0.10100000352E+00 0.  1.
</event>
<event>
 5   0  0.8567844E-05  0.1898341E+04  0.7818609E-02  0.8655683E-01
        1   -1    0    0  501    0  0.00000000000E+00  0.00000000000E+00  0.86816272632E+03  0.86816272634E+03  0.50400001928E-02 0. -1.
       -1   -1    0    0    0  501  0.00000000000E+00  0.00000000000E+00 -0.10377365579E+04  0.10377365579E+04  0.50400001928E-02 0.  1.
    10030    2    1    2    0    0  0.00000000000E+00  0.00000000000E+00 -0.16957383155E+03  0.19058992842E+04  0.18983405378E+04 0.  0.
        4    1    3    3  502    0  0.86661394121E+03 -0.36562682540E+03 -0.21265134630E+03  0.96432614117E+03  0.12699999809E+01 0.  1.
       -4    1    3    3    0  502 -0.86661394121E+03  0.36562682540E+03  0.43077514749E+02  0.94157314306E+03  0.12699999809E+01 0. -1.
</event>
<event>
 5   0  0.8567844E-05  0.1863660E+04  0.7818609E-02  0.8673160E-01
       -1   -1    0    0    0  501  0.00000000000E+00  0.00000000000E+00  0.60963578952E+03  0.60963578955E+03  0.50400001928E-02 0.  1.
        1   -1    0    0  501    0  0.00000000000E+00  0.00000000000E+00 -0.14243046052E+04  0.14243046052E+04  0.50400001928E-02 0. -1.
    10030    2    1    2    0    0  0.00000000000E+00  0.00000000000E+00 -0.81466881565E+03  0.20339403947E+04  0.18636599073E+04 0.  0.
        4    1    3    3  502    0 -0.65081376085E+03 -0.92337525311E+02 -0.11281508496E+04  0.13056840055E+04  0.12699999809E+01 0. -1.
       -4    1    3    3    0  502  0.65081376085E+03  0.92337525311E+02  0.31348203397E+03  0.72825638920E+03  0.12699999809E+01 0.  1.
</event>
<event>
 5   0  0.1799738E-04  0.1873612E+04  0.7818609E-02  0.8668104E-01
       -2   -1    0    0    0  501  0.00000000000E+00  0.00000000000E+00  0.73017880196E+03  0.73017880196E+03  0.25500000920E-02 0. -1.
        2   -1    0    0  501    0  0.00000000000E+00  0.00000000000E+00 -0.12019050474E+04  0.12019050474E+04  0.25500000920E-02 0.  1.
    10030    2    1    2    0    0  0.00000000000E+00  0.00000000000E+00 -0.47172624545E+03  0.19320838494E+04  0.18736121131E+04 0.  0.
        1    1    3    3  502    0  0.66378775249E+03 -0.65904823870E+03 -0.18281023802E+03  0.95308884394E+03  0.50400001928E-02 0. -1.
       -1    1    3    3    0  502 -0.66378775249E+03  0.65904823870E+03 -0.28891600744E+03  0.97899500544E+03  0.50400001928E-02 0.  1.
</event>
<event>
 5   0  0.1658711E-04  0.1868672E+04  0.7818609E-02  0.8670609E-01
        2   -1    0    0  501    0  0.00000000000E+00  0.00000000000E+00  0.17627333539E+04  0.17627333539E+04  0.25500000920E-02 0. -1.
       -2   -1    0    0    0  501  0.00000000000E+00  0.00000000000E+00 -0.49524460854E+03  0.49524460854E+03  0.25500000920E-02 0.  1.
    10030    2    1    2    0    0  0.00000000000E+00  0.00000000000E+00  0.12674887454E+04  0.22579779625E+04  0.18686724591E+04 0.  0.
        2    1    3    3  502    0 -0.67029270468E+02  0.14211418385E+03  0.17466540606E+04  0.17537074362E+04  0.25500000920E-02 0. -1.
       -2    1    3    3    0  502  0.67029270468E+02 -0.14211418385E+03 -0.47916531522E+03  0.50427052627E+03  0.25500000920E-02 0.  1.
</event>
<event>
 5   0  0.1765328E-04  0.1927271E+04  0.7818609E-02  0.8641400E-01
        2   -1    0    0  501    0  0.00000000000E+00  0.00000000000E+00  0.13582708416E+04  0.13582708416E+04  0.25500000920E-02 0.  1.
       -2   -1    0    0    0  501  0.00000000000E+00  0.00000000000E+00 -0.68365856560E+03  0.68365856561E+03  0.25500000920E-02 0. -1.
    10030    2    1    2    0    0  0.00000000000E+00  0.00000000000E+00  0.67461227597E+03  0.20419294072E+04  0.19272711229E+04 0.  0.
        3    1    3    3  502    0  0.25357219849E+03  0.92961087754E+03  0.34882694751E+03  0.10247709466E+04  0.10100000352E+00 0. -1.
       -3    1    3    3    0  502 -0.25357219849E+03 -0.92961087754E+03  0.32578532846E+03  0.10171584606E+04  0.10100000352E+00 0.  1.
</event>
<event>
 5   0  0.1790832E-04  0.1890559E+04  0.7818609E-02  0.8659570E-01
        2   -1    0    0  501    0  0.00000000000E+00  0.00000000000E+00  0.17091093770E+04  0.17091093770E+04  0.25500000920E-02 0.  1.
       -2   -1    0    0    0  501  0.00000000000E+00  0.00000000000E+00 -0.52281802428E+03  0.52281802429E+03  0.25500000920E-02 0. -1.
    10030    2    1    2    0    0  0.00000000000E+00  0.00000000000E+00  0.11862913528E+04  0.22319274013E+04  0.18905588463E+04 0.  0.
        5    1    3    3  502    0  0.73878357943E+03  0.56288755727E+03  0.80062812889E+03  0.12262426636E+04  0.46999998093E+01 0.  1.
       -5    1    3    3    0  502 -0.73878357943E+03 -0.56288755727E+03  0.38566322388E+03  0.10056847377E+04  0.46999998093E+01 0. -1.
</event>
<event>
 5   0  0.8587082E-05  0.1932154E+04  0.7818609E-02  0.8639015E-01
        1   -1    0    0  501    0  0.00000000000E+00  0.00000000000E+00  0.16460100981E+04  0.16460100981E+04  0.50400001928E-02 0.  1.
       -1   -1    0    0    0  501  0.00000000000E+00  0.00000000000E+00 -0.56701023853E+03  0.56701023855E+03  0.50400001928E-02 0. -1.
    10030    2    1    2    0    0  0.00000000000E+00  0.00000000000E+00  0.10789998596E+04  0.22130203367E+04  0.19321538017E+04 0.  0.
        5    1    3    3  502    0  0.53497070804E+03  0.14727358433E+03  0.14452792767E+04  0.15481399952E+04  0.46999998093E+01 0.  1.
       -5    1    3    3    0  502 -0.53497070804E+03 -0.14727358433E+03 -0.36627941709E+03  0.66488034148E+03  0.46999998093E+01 0. -1.
</event>
<event>
 5   0  0.8602017E-05  0.1897172E+04  0.7818609E-02  0.8656265E-01
        1   -1    0    0  501    0  0.00000000000E+00  0.00000000000E+00  0.77707421371E+03  0.77707421373E+03  0.50400001928E-02 0. -1.
       -1   -1    0    0    0  501  0.00000000000E+00  0.00000000000E+00 -0.11579535838E+04  0.11579535838E+04  0.50400001928E-02 0.  1.
    10030    2    1    2    0    0  0.00000000000E+00  0.00000000000E+00 -0.38087937011E+03  0.19350277976E+04  0.18971724968E+04 0.  0.
        2    1    3    3  502    0 -0.82481863383E+02 -0.63280210521E+03 -0.90628004066E+03  0.11084156595E+04  0.25500000920E-02 0.  1.
       -2    1    3    3    0  502  0.82481863383E+02  0.63280210521E+03  0.52540067056E+03  0.82661213805E+03  0.25500000920E-02 0. -1.
</event>
<event>
 5   0  0.8587082E-05  0.1967797E+04  0.7818609E-02  0.8621826E-01
       -1   -1    0    0    0  501  0.00000000000E+00  0.00000000000E+00  0.12717475950E+04  0.12717475950E+04  0.50400001928E-02 0. -1.
        1   -1    0    0  501    0  0.00000000000E+00  0.00000000000E+00 -0.76120153059E+03  0.76120153061E+03  0.50400001928E-02 0.  1.
    10030    2    1    2    0    0  0.00000000000E+00  0.00000000000E+00  0.51054606439E+03  0.20329491256E+04  0.19677969569E+04 0.  0.
        5    1    3    3  502    0 -0.37128460787E+03  0.65963334357E+03  0.90462610278E+03  0.11795502888E+04  0.46999998093E+01 0. -1.
       -5    1    3    3    0  502  0.37128460787E+03 -0.65963334357E+03 -0.39408003839E+03  0.85339883679E+03  0.46999998093E+01 0.  1.
</event>
<event>
 5   0  0.1658711E-04  0.1948618E+04  0.7818609E-02  0.8631028E-01
        2   -1    0    0  501    0  0.00000000000E+00  0.00000000000E+00  0.12943660340E+04  0.12943660340E+04  0.25500000920E-02 0.  1.
       -2   -1    0    0    0  501  0.00000000000E+00  0.00000000000E+00 -0.73339191438E+03  0.73339191438E+03  0.25500000920E-02 0. -1.
    10030    2    1    2    0    0  0.00000000000E+00  0.00000000000E+00  0.56097411962E+03  0.20277579484E+04  0.19486175444E+04 0.  0.
        2    1    3    3  502    0  0.30066467372E+03  0.37226730377E+03 -0.60268398540E+03  0.76955193311E+03  0.25500000920E-02 0. -1.
       -2    1    3    3    0  502 -0.30066467372E+03 -0.37226730377E+03  0.11636581050E+04  0.12582060153E+04  0.25500000920E-02 0.  1.
</event>
<event>
 5   0  0.1799738E-04  0.1766440E+04  0.7818609E-02  0.8724353E-01
       -2   -1    0    0    0  501  0.00000000000E+00  0.00000000000E+00  0.57887948765E+03  0.57887948766E+03  0.25500000920E-02 0.  1.
        2   -1    0    0  501    0  0.00000000000E+00  0.00000000000E+00 -0.13475643739E+04  0.13475643739E+04  0.25500000920E-02 0. -1.
    10030    2    1    2    0    0  0.00000000000E+00  0.00000000000E+00 -0.76868488628E+03  0.19264438616E+04  0.17664397803E+04 0.  0.
        1    1    3    3  502    0  0.42825761106E+03  0.10733392650E+03 -0.12185842502E+04  0.12960990425E+04  0.50400001928E-02 0. -1.
       -1    1    3    3    0  502 -0.42825761106E+03 -0.10733392650E+03  0.44989936393E+03  0.63034481905E+03  0.50400001928E-02 0.  1.
</event>
<event>
 5   0  0.1799738E-04  0.1889900E+04  0.7818609E-02  0.8659900E-01
        2   -1    0    0  501    0  0.00000000000E+00  0.00000000000E+00  0.19366814084E+04  0.19366814084E+04  0.25500000920E-02 0.  1.
       -2   -1    0    0    0  501  0.00000000000E+00  0.00000000000E+00 -0.46106191884E+03  0.46106191885E+03  0.25500000920E-02 0. -1.
    10030    2    1    2    0    0  0.00000000000E+00  0.00000000000E+00  0.14756194895E+04  0.23977433272E+04  0.18898995173E+04 0.  0.
        1    1    3    3  502    0 -0.21701273288E+03 -0.11854932299E+03 -0.41928421302E+03  0.48677275964E+03  0.50400001928E-02 0. -1.
       -1    1    3    3    0  502  0.21701273288E+03  0.11854932299E+03  0.18949037025E+04  0.19109705676E+04  0.50400001928E-02 0.  1.
</event>
<event>
 5   0  0.1765328E-04  0.1677685E+04  0.7818609E-02  0.8774195E-01
       -2   -1    0    0    0  501  0.00000000000E+00  0.00000000000E+00  0.12041932000E+04  0.12041932000E+04  0.25500000920E-02 0.  1.
        2   -1    0    0  501    0  0.00000000000E+00  0.00000000000E+00 -0.58433857091E+03  0.58433857092E+03  0.25500000920E-02 0. -1.
    10030    2    1    2    0    0  0.00000000000E+00  0.00000000000E+00  0.61985462911E+03  0.17885317709E+04  0.16776847542E+04 0.  0.
        3    1    3    3  502    0  0.51327432099E+03  0.28019247477E+03  0.95107703638E+03  0.11164702821E+04  0.10100000352E+00 0.  1.
       -3    1    3    3    0  502 -0.51327432099E+03 -0.28019247477E+03 -0.33122240727E+03  0.67206148884E+03  0.10100000352E+00 0. -1.
</event>
<event>
 5   0  0.8567844E-05  0.1916482E+04  0.7818609E-02  0.8646696E-01
        1   -1    0    0  501    0  0.00000000000E+00  0.00000000000E+00  0.71378467439E+03  0.71378467441E+03  0.50400001928E-02 0.  1.
       -1   -1    0    0    0  501  0.00000000000E+00  0.00000000000E+00 -0.12864181880E+04  0.12864181880E+04  0.50400001928E-02 0. -1.
    10030    2    1    2    0    0  0.00000000000E+00  0.00000000000E+00 -0.57263351357E+03  0.20002028624E+04  0.19164817635E+04 0.  0.
        4    1    3    3  502    0  0.24270425214E+03  0.60273335458E+03 -0.10213784948E+04  0.12105405790E+04  0.12699999809E+01 0. -1.
       -4    1    3    3    0  502 -0.24270425214E+03 -0.60273335458E+03  0.44874498127E+03  0.78966228341E+03  0.12699999809E+01 0.  1.
</event>
<event>
 5   0  0.1765328E-04  0.1889403E+04  0.7818609E-02  0.8660149E-01
       -2   -1    0    0    0  501  0.00000000000E+00  0.00000000000E+00  0.73555390317E+03  0.73555390317E+03  0.25500000920E-02 0.  1.
        2   -1    0    0  501    0  0.00000000000E+00  0.00000000000E+00 -0.12133181995E+04  0.12133181995E+04  0.25500000920E-02 0. -1.
    10030    2    1    2    0    0  0.00000000000E+00  0.00000000000E+00 -0.47776429637E+03  0.19488721027E+04  0.18894030141E+04 0.  0.
        3    1    3    3  502    0  0.43859926101E+03  0.81153389401E+03 -0.44902061842E+03  0.10259513141E+04  0.10100000352E+00 0.  1.
       -3    1    3    3    0  502 -0.43859926101E+03 -0.81153389401E+03 -0.28743677948E+02  0.92292078864E+03  0.10100000352E+00 0. -1.
</event>
<event>
 5   0  0.8602017E-05  0.1890496E+04  0.7818609E-02  0.8659601E-01
       -1   -1    0    0    0  501  0.00000000000E+00  0.00000000000E+00  0.41398131562E+03  0.41398131565E+03  0.50400001928E-02 0.  1.
        1   -1    0    0  501    0  0.00000000000E+00  0.00000000000E+00 -0.21582957701E+04  0.21582957701E+04  0.50400001928E-02 0. -1.
    10030    2    1    2    0    0  0.00000000000E+00  0.00000000000E+00 -0.17443144545E+04  0.25722770858E+04  0.18904963607E+04 0.  0.
        2    1    3    3  502    0 -0.35918196896E+03 -0.71406600829E+03 -0.15586949829E+04  0.17516940374E+04  0.25500000920E-02 0.  1.
       -2    1    3    3    0  502  0.35918196896E+03  0.71406600829E+03 -0.18561947162E+03  0.82058304837E+03  0.25500000920E-02 0. -1.
</event>
<event>
 5   0  0.1790832E-04  0.1902967E+04  0.7818609E-02  0.8653381E-01
       -2   -1    0    0    0  501  0.00000000000E+00  0.00000000000E+00  0.60983481996E+03  0.60983481996E+03  0.25500000920E-02 0.  1.
        2   -1    0    0  501    0  0.00000000000E+00  0.00000000000E+00 -0.14845345130E+04  0.14845345130E+04  0.25500000920E-02 0. -1.
    10030    2    1    2    0    0  0.00000000000E+00  0.00000000000E+00 -0.87469969300E+03  0.20943693329E+04  0.19029669860E+04 0.  0.
        5    1    3    3  502    0 -0.36113525025E+03 -0.99212267987E+02  0.52528867626E+03  0.64514496549E+03  0.46999998093E+01 0.  1.
       -5    1    3    3    0  502  0.36113525025E+03  0.99212267987E+02 -0.13999883693E+04  0.14492243674E+04  0.46999998093E+01 0. -1.
</event>
<event>
 5   0  0.1765328E-04  0.1891848E+04  0.7818609E-02  0.8658925E-01
       -2   -1    0    0    0  501  0.00000000000E+00  0.00000000000E+00  0.35002947432E+03  0.35002947433E+03  0.25500000920E-02 0.  1.
        2   -1    0    0  501    0  0.00000000000E+00  0.00000000000E+00 -0.25562780923E+04  0.25562780923E+04  0.25500000920E-02 0. -1.
    10030    2    1    2    0    0  0.00000000000E+00  0.00000000000E+00 -0.22062486180E+04  0.29063075666E+04  0.18918484896E+04 0.  0.
        3    1    3    3  502    0  0.51496743234E+03 -0.25182866710E+03 -0.22590400190E+04  0.23306374561E+04  0.10100000352E+00 0. -1.
       -3    1    3    3    0  502 -0.51496743234E+03  0.25182866710E+03  0.52791401043E+02  0.57567011054E+03  0.10100000352E+00 0.  1.
</event>
<event>
 5   0  0.8602017E-05  0.1895692E+04  0.7818609E-02  0.8657004E-01
       -1   -1    0    0    0  501  0.00000000000E+00  0.00000000000E+00  0.14147531576E+04  0.14147531576E+04  0.50400001928E-02 0. -1.
        1   -1    0    0  501    0  0.00000000000E+00  0.00000000000E+00 -0.63503093645E+03  0.63503093647E+03  0.50400001928E-02 0.  1.
    10030    2    1    2    0    0  0.00000000000E+00  0.00000000000E+00  0.77972222117E+03  0.20497840941E+04  0.18956919819E+04 0.  0.
        2    1    3    3  502    0 -0.17147055471E+03 -0.13818635871E+03 -0.60698458929E+03  0.64569955282E+03  0.25500000920E-02 0.  1.
       -2    1    3    3    0  502  0.17147055471E+03  0.13818635871E+03  0.13867068105E+04  0.14040845413E+04  0.25500000920E-02 0. -1.
</event>
<event>
 5   0  0.8602017E-05  0.1857014E+04  0.7818609E-02  0.8676554E-01
       -1   -1    0    0    0  501  0.00000000000E+00  0.00000000000E+00  0.73968558694E+03  0.73968558696E+03  0.50400001928E-02 0.  1.
        1   -1    0    0  501    0  0.00000000000E+00  0.00000000000E+00 -0.11655298996E+04  0.11655298996E+04  0.50400001928E-02 0. -1.
    10030    2    1    2    0    0  0.00000000000E+00  0.00000000000E+00 -0.42584431261E+03  0.19052154865E+04  0.18570144511E+04 0.  0.
        2    1    3    3  502    0 -0.27497266011E+03  0.88444968842E+03 -0.27991994538E+03  0.96758275666E+03  0.25500000920E-02 0.  1.
       -2    1    3    3    0  502  0.27497266011E+03 -0.88444968842E+03 -0.14592436723E+03  0.93763272986E+03  0.25500000920E-02 0. -1.
</event>
<event>
 5   0  0.8587082E-05  0.1904965E+04  0.7818609E-02  0.8652389E-01
        1   -1    0    0  501    0  0.00000000000E+00  0.00000000000E+00  0.11407252517E+04  0.11407252517E+04  0.50400001928E-02 0.  1.
       -1   -1    0    0    0  501  0.00000000000E+00  0.00000000000E+00 -0.79530400911E+03  0.79530400912E+03  0.50400001928E-02 0. -1.
    10030    2    1    2    0    0  0.00000000000E+00  0.00000000000E+00  0.34542124257E+03  0.19360292608E+04  0.19049654758E+04 0.  0.
        5    1    3    3  502    0 -0.33889957577E+03 -0.87685463797E+03  0.32842227198E+03  0.99579629308E+03  0.46999998093E+01 0.  1.
       -5    1    3    3    0  502  0.33889957577E+03  0.87685463797E+03  0.16998970590E+02  0.94023296772E+03  0.46999998093E+01 0. -1.
</event>
<event>
 5   0  0.1658711E-04  0.1929350E+04  0.7818609E-02  0.8640383E-01
        2   -1    0    0  501    0  0.00000000000E+00  0.00000000000E+00  0.30956900831E+04  0.30956900831E+04  0.25500000920E-02 0.  1.
       -2   -1    0    0    0  501  0.00000000000E+00  0.00000000000E+00 -0.30061073186E+03  0.30061073187E+03  0.25500000920E-02 0. -1.
    10030    2    1    2    0    0  0.00000000000E+00  0.00000000000E+00  0.27950793512E+04  0.33963008150E+04  0.19293497988E+04 0.  0.
        2    1    3    3  502    0 -0.83247535765E+03  0.40950114990E+03  0.18629184537E+04  0.20811466978E+04  0.25500000920E-02 0.  1.
       -2    1    3    3    0  502  0.83247535765E+03 -0.40950114990E+03  0.93216089755E+03  0.13151541171E+04  0.25500000920E-02 0. -1.
</event>
<event>
 5   0  0.1658711E-04  0.1905554E+04  0.7818609E-02  0.8652097E-01
       -2   -1    0    0    0  501  0.00000000000E+00  0.00000000000E+00  0.78969075750E+03  0.78969075750E+03  0.25500000920E-02 0.  1.
        2   -1    0    0  501    0  0.00000000000E+00  0.00000000000E+00 -0.11495441006E+04  0.11495441006E+04  0.25500000920E-02 0. -1.
    10030    2    1    2    0    0  0.00000000000E+00  0.00000000000E+00 -0.35985334312E+03  0.19392348581E+04  0.19055543567E+04 0.  0.
        2    1    3    3  502    0 -0.33709105244E+03  0.83724074857E+03  0.13072582982E+03  0.91197132153E+03  0.25500000920E-02 0.  1.
       -2    1    3    3    0  502  0.33709105244E+03 -0.83724074857E+03 -0.49057917295E+03  0.10272635366E+04  0.25500000920E-02 0. -1.
</event>
<event>
 5   0  0.8681396E-05  0.1922028E+04  0.7818609E-02  0.8643968E-01
       -1   -1    0    0    0  501  0.00000000000E+00  0.00000000000E+00  0.52349411486E+03  0.52349411489E+03  0.50400001928E-02 0.  1.
        1   -1    0    0  501    0  0.00000000000E+00  0.00000000000E+00 -0.17641998913E+04  0.17641998913E+04  0.50400001928E-02 0. -1.
    10030    2    1    2    0    0  0.00000000000E+00  0.00000000000E+00 -0.12407057765E+04  0.22876940062E+04  0.19220283667E+04 0.  0.
        3    1    3    3  502    0  0.41506766617E+02  0.23865209623E+03 -0.17272664600E+04  0.17441694496E+04  0.10100000352E+00 0. -1.
       -3    1    3    3    0  502 -0.41506766617E+02 -0.23865209623E+03  0.48656068355E+03  0.54352455665E+03  0.10100000352E+00 0.  1.
</event>
<event>
 5   0  0.1810569E-04  0.1878537E+04  0.7818609E-02  0.8665614E-01
       -2   -1    0    0    0  501  0.00000000000E+00  0.00000000000E+00  0.71821804349E+03  0.71821804350E+03  0.25500000920E-02 0.  1.
        2   -1    0    0  501    0  0.00000000000E+00  0.00000000000E+00 -0.12283533594E+04  0.12283533594E+04  0.25500000920E-02 0. -1.
    10030    2    1    2    0    0  0.00000000000E+00  0.00000000000E+00 -0.51013531590E+03  0.19465714029E+04  0.18785372464E+04 0.  0.
        4    1    3    3  502    0  0.16086262475E+03 -0.92537531376E+03 -0.24961610926E+03  0.97185702151E+03  0.12699999809E+01 0.  1.
       -4    1    3    3    0  502 -0.16086262475E+03  0.92537531376E+03 -0.26051920663E+03  0.97471438138E+03  0.12699999809E+01 0. -1.
</event>
<event>
 5   0  0.8905646E-05  0.1932826E+04  0.7818609E-02  0.8638687E-01
       -1   -1    0    0    0  501  0.00000000000E+00  0.00000000000E+00  0.82245266430E+03  0.82245266432E+03  0.50400001928E-02 0. -1.
        1   -1    0    0  501    0  0.00000000000E+00  0.00000000000E+00 -0.11355723101E+04  0.11355723101E+04  0.50400001928E-02 0.  1.
    10030    2    1    2    0    0  0.00000000000E+00  0.00000000000E+00 -0.31311964575E+03  0.19580249744E+04  0.19328263988E+04 0.  0.
        1    1    3    3  502    0 -0.93022385198E+03 -0.25367588043E+03 -0.90234083218E+02  0.96840593601E+03  0.50400001928E-02 0. -1.
       -1    1    3    3    0  502  0.93022385198E+03  0.25367588043E+03 -0.22288556253E+03  0.98961903837E+03  0.50400001928E-02 0.  1.
</event>
<event>
 5   0  0.1658711E-04  0.2086376E+04  0.7818609E-02  0.8567268E-01
        2   -1    0    0  501    0  0.00000000000E+00  0.00000000000E+00  0.37263085615E+03  0.37263085616E+03  0.25500000920E-02 0.  1.
       -2   -1    0    0    0  501  0.00000000000E+00  0.00000000000E+00 -0.29204282852E+04  0.29204282852E+04  0.25500000920E-02 0. -1.
    10030    2    1    2    0    0  0.00000000000E+00  0.00000000000E+00 -0.25477974290E+04  0.32930591414E+04  0.20863764687E+04 0.  0.
        2    1    3    3  502    0  0.28023216787E+03 -0.33096893302E+03 -0.27714076040E+04  0.28051329042E+04  0.25500000920E-02 0. -1.
       -2    1    3    3    0  502 -0.28023216787E+03  0.33096893302E+03  0.22361017500E+03  0.48792623716E+03  0.25500000920E-02 0.  1.
</event>
<event>
 5   0  0.8681396E-05  0.1919931E+04  0.7818609E-02  0.8644998E-01
        1   -1    0    0  501    0  0.00000000000E+00  0.00000000000E+00  0.59930060138E+03  0.59930060141E+03  0.50400001928E-02 0. -1.
       -1   -1    0    0    0  501  0.00000000000E+00  0.00000000000E+00 -0.15376827645E+04  0.15376827645E+04  0.50400001928E-02 0.  1.
    10030    2    1    2    0    0  0.00000000000E+00  0.00000000000E+00 -0.93838216314E+03  0.21369833659E+04  0.19199314629E+04 0.  0.
        3    1    3    3  502    0  0.84839023242E+03 -0.33804442665E+03 -0.13995684920E+03  0.92391988327E+03  0.10100000352E+00 0. -1.
       -3    1    3    3    0  502 -0.84839023242E+03  0.33804442665E+03 -0.79842531394E+03  0.12130634827E+04  0.10100000352E+00 0.  1.
</event>
<event>
 5   0  0.1799738E-04  0.1861696E+04  0.7818609E-02  0.8674161E-01
       -2   -1    0    0    0  501  0.00000000000E+00  0.00000000000E+00  0.73685821107E+03  0.73685821107E+03  0.25500000920E-02 0. -1.
        2   -1    0    0  501    0  0.00000000000E+00  0.00000000000E+00 -0.11759087259E+04  0.11759087259E+04  0.25500000920E-02 0.  1.
    10030    2    1    2    0    0  0.00000000000E+00  0.00000000000E+00 -0.43905051488E+03  0.19127669370E+04  0.18616960012E+04 0.  0.
        1    1    3    3  502    0  0.84696791398E+03  0.36390044292E+03 -0.35229808120E+03  0.98685972545E+03  0.50400001928E-02 0.  1.
       -1    1    3    3    0  502 -0.84696791398E+03 -0.36390044292E+03 -0.86752433671E+02  0.92590721157E+03  0.50400001928E-02 0. -1.
</event>
<event>
 5   0  0.1790832E-04  0.1911245E+04  0.7818609E-02  0.8649279E-01
        2   -1    0    0  501    0  0.00000000000E+00  0.00000000000E+00  0.10240327320E+04  0.10240327320E+04  0.25500000920E-02 0.  1.
       -2   -1    0    0    0  501  0.00000000000E+00  0.00000000000E+00 -0.89178195357E+03  0.89178195358E+03  0.25500000920E-02 0. -1.
    10030    2    1    2    0    0  0.00000000000E+00  0.00000000000E+00  0.13225077843E+03  0.19158146856E+04  0.19112445268E+04 0.  0.
        5    1    3    3  502    0 -0.59770084420E+03  0.67580463710E+03 -0.24964154205E+03  0.93610960694E+03  0.46999998093E+01 0. -1.
       -5    1    3    3    0  502  0.59770084420E+03 -0.67580463710E+03  0.38189232048E+03  0.97970507864E+03  0.46999998093E+01 0.  1.
</event>
<event>
 5   0  0.8905646E-05  0.1875991E+04  0.7818609E-02  0.8666900E-01
        1   -1    0    0  501    0  0.00000000000E+00  0.00000000000E+00  0.21964677452E+04  0.21964677452E+04  0.50400001928E-02 0.  1.
       -1   -1    0    0    0  501  0.00000000000E+00  0.00000000000E+00 -0.40056847031E+03  0.40056847034E+03  0.50400001928E-02 0. -1.
    10030    2    1    2    0    0  0.00000000000E+00  0.00000000000E+00  0.17958992749E+04  0.25970362156E+04  0.18759911778E+04 0.  0.
        1    1    3    3  502    0  0.18633126406E+03 -0.20796881542E+03 -0.34169709391E+03  0.44127913181E+03  0.50400001928E-02 0. -1.
       -1    1    3    3    0  502 -0.18633126406E+03  0.20796881542E+03  0.21375963688E+04  0.21557570838E+04  0.50400001928E-02 0.  1.
</event>
<event>
 5   0  0.8567844E-05  0.1871856E+04  0.7818609E-02  0.8668993E-01
       -1   -1    0    0    0  501  0.00000000000E+00  0.00000000000E+00  0.82515279796E+03  0.82515279798E+03  0.50400001928E-02 0. -1.
        1   -1    0    0  501    0  0.00000000000E+00  0.00000000000E+00 -0.10615750654E+04  0.10615750654E+04  0.50400001928E-02 0.  1.
    10030    2    1    2    0    0  0.00000000000E+00  0.00000000000E+00 -0.23642226740E+03  0.18867278634E+04  0.18718564426E+04 0.  0.
        4    1    3    3  502    0  0.21997437338E+03  0.20343294161E+03 -0.10119270046E+04  0.10553537616E+04  0.12699999809E+01 0.  1.
       -4    1    3    3    0  502 -0.21997437338E+03 -0.20343294161E+03  0.77550473720E+03  0.83137410171E+03  0.12699999809E+01 0. -1.
</event>
<event>
 5   0  0.8567844E-05  0.1888900E+04  0.7818609E-02  0.8660401E-01
        1   -1    0    0  501    0  0.00000000000E+00  0.00000000000E+00  0.73555871496E+03  0.73555871498E+03  0.50400001928E-02 0. -1.
       -1   -1    0    0    0  501  0.00000000000E+00  0.00000000000E+00 -0.12126640543E+04  0.12126640543E+04  0.50400001928E-02 0.  1.
    10030    2    1    2    0    0  0.00000000000E+00  0.00000000000E+00 -0.47710533931E+03  0.19482227693E+04  0.18888997999E+04 0.  0.
        4    1    3    3  502    0  0.46516730012E+03  0.45086769944E+03 -0.94739336691E+03  0.11477012260E+04  0.12699999809E+01 0.  1.
       -4    1    3    3    0  502 -0.46516730012E+03 -0.45086769944E+03  0.47028802759E+03  0.80052154331E+03  0.12699999809E+01 0. -1.
</event>
<event>
 5   0  0.1658711E-04  0.1912849E+04  0.7818609E-02  0.8648487E-01
       -2   -1    0    0    0  501  0.00000000000E+00  0.00000000000E+00  0.75638207865E+03  0.75638207866E+03  0.25500000920E-02 0. -1.
        2   -1    0    0  501    0  0.00000000000E+00  0.00000000000E+00 -0.12093723147E+04  0.12093723147E+04  0.25500000920E-02 0.  1.
    10030    2    1    2    0    0  0.00000000000E+00  0.00000000000E+00 -0.45299023600E+03  0.19657543933E+04  0.19128487083E+04 0.  0.
        2    1    3    3  502    0 -0.88551552331E+03 -0.17401392678E+03 -0.55200320336E+03  0.10578875769E+04  0.25500000920E-02 0.  1.
       -2    1    3    3    0  502  0.88551552331E+03  0.17401392678E+03  0.99012967354E+02  0.90786681647E+03  0.25500000920E-02 0. -1.
</event>
<event>
 5   0  0.1658711E-04  0.1876120E+04  0.7818609E-02  0.8666835E-01
        2   -1    0    0  501    0  0.00000000000E+00  0.00000000000E+00  0.21794920660E+04  0.21794920660E+04  0.25500000920E-02 0. -1.
       -2   -1    0    0    0  501  0.00000000000E+00  0.00000000000E+00 -0.40374397817E+03  0.40374397818E+03  0.25500000920E-02 0.  1.
    10030    2    1    2    0    0  0.00000000000E+00  0.00000000000E+00  0.17757480878E+04  0.25832360442E+04  0.18761202490E+04 0.  0.
        2    1    3    3  502    0  0.87211798261E+03  0.28351514846E+03  0.11597424711E+04  0.14785037079E+04  0.25500000920E-02 0.  1.
       -2    1    3    3    0  502 -0.87211798261E+03 -0.28351514846E+03  0.61600561677E+03  0.11047323363E+04  0.25500000920E-02 0. -1.
</event>
<event>
 5   0  0.1810569E-04  0.1881969E+04  0.7818609E-02  0.8663884E-01
        2   -1    0    0  501    0  0.00000000000E+00  0.00000000000E+00  0.19642511180E+04  0.19642511180E+04  0.25500000920E-02 0. -1.
       -2   -1    0    0    0  501  0.00000000000E+00  0.00000000000E+00 -0.45078325219E+03  0.45078325220E+03  0.25500000920E-02 0.  1.
    10030    2    1    2    0    0  0.00000000000E+00  0.00000000000E+00  0.15134678658E+04  0.24150343702E+04  0.18819686576E+04 0.  0.
        4    1    3    3  502    0 -0.45498485136E+03  0.67506424019E+03  0.13623498978E+04  0.15870481405E+04  0.12699999809E+01 0. -1.
       -4    1    3    3    0  502  0.45498485136E+03 -0.67506424019E+03  0.15111796796E+03  0.82798622965E+03  0.12699999809E+01 0.  1.
</event>
<event>
 5   0  0.1790832E-04  0.1819296E+04  0.7818609E-02  0.8696105E-01
       -2   -1    0    0    0  501  0.00000000000E+00  0.00000000000E+00  0.76198182473E+03  0.76198182474E+03  0.25500000920E-02 0.  1.
        2   -1    0    0  501    0  0.00000000000E+00  0.00000000000E+00 -0.10859309059E+04  0.10859309059E+04  0.25500000920E-02 0. -1.
    10030    2    1    2    0    0  0.00000000000E+00  0.00000000000E+00 -0.32394908113E+03  0.18479127306E+04  0.18192961421E+04 0.  0.
        5    1    3    3  502    0 -0.71256114999E+03  0.49176175301E+03  0.12145677558E+03  0.87426932494E+03  0.46999998093E+01 0.  1.
       -5    1    3    3    0  502  0.71256114999E+03 -0.49176175301E+03 -0.44540585671E+03  0.97364340566E+03  0.46999998093E+01 0. -1.
</event>
<event>
 5   0  0.1658711E-04  0.1831585E+04  0.7818609E-02  0.8689681E-01
        2   -1    0    0  501    0  0.00000000000E+00  0.00000000000E+00  0.14688798759E+04  0.14688798759E+04  0.25500000920E-02 0. -1.
       -2   -1    0    0    0  501  0.00000000000E+00  0.00000000000E+00 -0.57096278613E+03  0.57096278614E+03  0.25500000920E-02 0.  1.
    10030    2    1    2    0    0  0.00000000000E+00  0.00000000000E+00  0.89791708977E+03  0.20398426620E+04  0.18315848290E+04 0.  0.
        2    1    3    3  502    0 -0.82461987339E+03  0.24767638745E+03  0.79641661637E+03  0.11728686863E+04  0.25500000920E-02 0. -1.
       -2    1    3    3    0  502  0.82461987339E+03 -0.24767638745E+03  0.10150047340E+03  0.86697397573E+03  0.25500000920E-02 0.  1.
</event>
<event>
 5   0  0.1799738E-04  0.1905324E+04  0.7818609E-02  0.8652211E-01
       -2   -1    0    0    0  501  0.00000000000E+00  0.00000000000E+00  0.58004761190E+03  0.58004761190E+03  0.25500000920E-02 0.  1.
        2   -1    0    0  501    0  0.00000000000E+00  0.00000000000E+00 -0.15646388911E+04  0.15646388911E+04  0.25500000920E-02 0. -1.
    10030    2    1    2    0    0  0.00000000000E+00  0.00000000000E+00 -0.98459127921E+03  0.21446865030E+04  0.19053241743E+04 0.  0.
        1    1    3    3  502    0 -0.35952152324E+03  0.62709606834E+03 -0.11907838148E+04  0.13930080037E+04  0.50400001928E-02 0. -1.
       -1    1    3    3    0  502  0.35952152324E+03 -0.62709606834E+03  0.20619253562E+03  0.75167849934E+03  0.50400001928E-02 0.  1.
</event>
<event>
 5   0  0.1810569E-04  0.1985574E+04  0.7818609E-02  0.8613395E-01
       -2   -1    0    0    0  501  0.00000000000E+00  0.00000000000E+00  0.20985635370E+04  0.20985635370E+04  0.25500000920E-02 0.  1.
        2   -1    0    0  501    0  0.00000000000E+00  0.00000000000E+00 -0.46966691940E+03  0.46966691941E+03  0.25500000920E-02 0. -1.
    10030    2    1    2    0    0  0.00000000000E+00  0.00000000000E+00  0.16288966176E+04  0.25682304564E+04  0.19855738431E+04 0.  0.
        4    1    3    3  502    0  0.86073651895E+03  0.42963036500E+03  0.11317371120E+04  0.14853552131E+04  0.12699999809E+01 0.  1.
       -4    1    3    3    0  502 -0.86073651895E+03 -0.42963036500E+03  0.49715950557E+03  0.10828752433E+04  0.12699999809E+01 0. -1.
</event>
<event>
 5   0  0.1810569E-04  0.1866583E+04  0.7818609E-02  0.8671671E-01
       -2   -1    0    0    0  501  0.00000000000E+00  0.00000000000E+00  0.45967610225E+03  0.45967610226E+03  0.25500000920E-02 0. -1.
        2   -1    0    0  501    0  0.00000000000E+00  0.00000000000E+00 -0.18948848655E+04  0.18948848655E+04  0.25500000920E-02 0.  1.
    10030    2    1    2    0    0  0.00000000000E+00  0.00000000000E+00 -0.14352087632E+04  0.23545609678E+04  0.18665832842E+04 0.  0.
        4    1    3    3  502    0 -0.51745299275E+03 -0.12707227766E+03 -0.16841636466E+04  0.17664409882E+04  0.12699999809E+01 0.  1.
       -4    1    3    3    0  502  0.51745299275E+03  0.12707227766E+03  0.24895488337E+03  0.58811997952E+03  0.12699999809E+01 0. -1.
</event>
<event>
 5   0  0.1790832E-04  0.1706503E+04  0.7818609E-02  0.8757664E-01
        2   -1    0    0  501    0  0.00000000000E+00  0.00000000000E+00  0.16427521348E+04  0.16427521348E+04  0.25500000920E-02 0.  1.
       -2   -1    0    0    0  501  0.00000000000E+00  0.00000000000E+00 -0.44318214685E+03  0.44318214686E+03  0.25500000920E-02 0. -1.
    10030    2    1    2    0    0  0.00000000000E+00  0.00000000000E+00  0.11995699880E+04  0.20859342817E+04  0.17065033465E+04 0.  0.
        5    1    3    3  502    0 -0.22144855535E+03 -0.12639504970E+03 -0.39550725150E+03  0.47059881773E+03  0.46999998093E+01 0. -1.
       -5    1    3    3    0  502  0.22144855535E+03  0.12639504970E+03  0.15950772395E+04  0.16153354640E+04  0.46999998093E+01 0.  1.
</event>
<event>
 5   0  0.8567844E-05  0.1889176E+04  0.7818609E-02  0.8660263E-01
        1   -1    0    0  501    0  0.00000000000E+00  0.00000000000E+00  0.97865014837E+03  0.97865014838E+03  0.50400001928E-02 0. -1.
       -1   -1    0    0    0  501  0.00000000000E+00  0.00000000000E+00 -0.91171110456E+03  0.91171110457E+03  0.50400001928E-02 0.  1.
    10030    2    1    2    0    0  0.00000000000E+00  0.00000000000E+00  0.66939043813E+02  0.18903612530E+04  0.18891757015E+04 0.  0.
        4    1    3    3  502    0  0.52264715737E+02 -0.78916907183E+02  0.97389180707E+03  0.97848165212E+03  0.12699999809E+01 0. -1.
       -4    1    3    3    0  502 -0.52264715737E+02  0.78916907183E+02 -0.90695276326E+03  0.91187960084E+03  0.12699999809E+01 0.  1.
</event>
<event>
 5   0  0.1790832E-04  0.1891765E+04  0.7818609E-02  0.8658966E-01
       -2   -1    0    0    0  501  0.00000000000E+00  0.00000000000E+00  0.80481159120E+03  0.80481159121E+03  0.25500000920E-02 0.  1.
        2   -1    0    0  501    0  0.00000000000E+00  0.00000000000E+00 -0.11116810899E+04  0.11116810899E+04  0.25500000920E-02 0. -1.
    10030    2    1    2    0    0  0.00000000000E+00  0.00000000000E+00 -0.30686949871E+03  0.19164926811E+04  0.18917651301E+04 0.  0.
        5    1    3    3  502    0  0.67397551579E+03  0.53515206607E+03  0.24417600620E+03  0.89458076310E+03  0.46999998093E+01 0.  1.
       -5    1    3    3    0  502 -0.67397551579E+03 -0.53515206607E+03 -0.55104550490E+03  0.10219119180E+04  0.46999998093E+01 0. -1.
</event>
<event>
 5   0  0.1765328E-04  0.1937831E+04  0.7818609E-02  0.8636251E-01
       -2   -1    0    0    0  501  0.00000000000E+00  0.00000000000E+00  0.45012556211E+03  0.45012556211E+03  0.25500000920E-02 0. -1.
        2   -1    0    0  501    0  0.00000000000E+00  0.00000000000E+00 -0.20856346942E+04  0.20856346942E+04  0.25500000920E-02 0.  1.
    10030    2    1    2    0    0  0.00000000000E+00  0.00000000000E+00 -0.16355091321E+04  0.25357602563E+04  0.19378312507E+04 0.  0.
        3    1    3    3  502    0 -0.60058580331E+03 -0.75342154404E+03 -0.95152294710E+03  0.13541577675E+04  0.10100000352E+00 0.  1.
       -3    1    3    3    0  502  0.60058580331E+03  0.75342154404E+03 -0.68398618500E+03  0.11816024888E+04  0.10100000352E+00 0. -1.
</event>
<event>
 5   0  0.6375750E-05  0.1897129E+04  0.7818609E-02  0.8656287E-01
        4   -1    0    0  501    0  0.00000000000E+00  0.00000000000E+00  0.10088686197E+04  0.10088694190E+04  0.12699999809E+01 0. -1.
       -4   -1    0    0    0  501  0.00000000000E+00  0.00000000000E+00 -0.89186323458E+03  0.89186413881E+03  0.12699999809E+01 0.  1.
    10030    2    1    2    0    0  0.00000000000E+00  0.00000000000E+00  0.11700538510E+03  0.19007335578E+04  0.18971288300E+04 0.  0.
        4    1    3    3  502    0 -0.39727238080E+03 -0.35679955365E+03  0.84398314817E+03  0.99871939669E+03  0.12699999809E+01 0. -1.
       -4    1    3    3    0  502  0.39727238080E+03  0.35679955365E+03 -0.72697776307E+03  0.90201416116E+03  0.12699999809E+01 0.  1.
</event>
<event>
 5   0  0.8905646E-05  0.1910453E+04  0.7818609E-02  0.8649671E-01
        1   -1    0    0  501    0  0.00000000000E+00  0.00000000000E+00  0.16269768399E+04  0.16269768399E+04  0.50400001928E-02 0.  1.
       -1   -1    0    0    0  501  0.00000000000E+00  0.00000000000E+00 -0.56083020122E+03  0.56083020125E+03  0.50400001928E-02 0. -1.
    10030    2    1    2    0    0  0.00000000000E+00  0.00000000000E+00  0.10661466387E+04  0.21878070411E+04  0.19104530861E+04 0.  0.
        1    1    3    3  502    0 -0.85160976841E+03  0.29114067796E+03  0.16651708653E+03  0.91527593225E+03  0.50400001928E-02 0. -1.
       -1    1    3    3    0  502  0.85160976841E+03 -0.29114067796E+03  0.89962955214E+03  0.12725311089E+04  0.50400001928E-02 0.  1.
</event>
<event>
 5   0  0.8587082E-05  0.1809787E+04  0.7818609E-02  0.8701112E-01
        1   -1    0    0  501    0  0.00000000000E+00  0.00000000000E+00  0.94108248154E+03  0.94108248155E+03  0.50400001928E-02 0.  1.
       -1   -1    0    0    0  501  0.00000000000E+00  0.00000000000E+00 -0.87009603004E+03  0.87009603005E+03  0.50400001928E-02 0. -1.
    10030    2    1    2    0    0  0.00000000000E+00  0.00000000000E+00  0.70986451504E+02  0.18111785116E+04  0.18097868727E+04 0.  0.
        5    1    3    3  502    0  0.26863155620E+03  0.11399745273E+03 -0.82170011788E+03  0.87199283594E+03  0.46999998093E+01 0. -1.
       -5    1    3    3    0  502 -0.26863155620E+03 -0.11399745273E+03  0.89268656938E+03  0.93918567566E+03  0.46999998093E+01 0.  1.
</event>
<event>
 5   0  0.8587082E-05  0.1896212E+04  0.7818609E-02  0.8656744E-01
        1   -1    0    0  501    0  0.00000000000E+00  0.00000000000E+00  0.12315285369E+04  0.12315285369E+04  0.50400001928E-02 0.  1.
       -1   -1    0    0    0  501  0.00000000000E+00  0.00000000000E+00 -0.72990978194E+03  0.72990978196E+03  0.50400001928E-02 0. -1.
    10030    2    1    2    0    0  0.00000000000E+00  0.00000000000E+00  0.50161875499E+03  0.19614383189E+04  0.18962117243E+04 0.  0.
        5    1    3    3  502    0 -0.59887327681E+03  0.37164336097E+03 -0.40512859627E+03  0.81296940837E+03  0.46999998093E+01 0. -1.
       -5    1    3    3    0  502  0.59887327681E+03 -0.37164336097E+03  0.90674735126E+03  0.11484689105E+04  0.46999998093E+01 0.  1.
</event>
<event>
 5   0  0.1799738E-04  0.1901535E+04  0.7818609E-02  0.8654092E-01
        2   -1    0    0  501    0  0.00000000000E+00  0.00000000000E+00  0.65946793805E+03  0.65946793806E+03  0.25500000920E-02 0.  1.
       -2   -1    0    0    0  501  0.00000000000E+00  0.00000000000E+00 -0.13707402007E+04  0.13707402007E+04  0.25500000920E-02 0. -1.
    10030    2    1    2    0    0  0.00000000000E+00  0.00000000000E+00 -0.71127226268E+03  0.20302081388E+04  0.19015353941E+04 0.  0.
        1    1    3    3  502    0 -0.25917707520E+03 -0.10227778876E+03 -0.13261724324E+04  0.13551261281E+04  0.50400001928E-02 0. -1.
       -1    1    3    3    0  502  0.25917707520E+03  0.10227778876E+03  0.61490016977E+03  0.67508201072E+03  0.50400001928E-02 0.  1.
</event>
<event>
 5   0  0.1799738E-04  0.1861966E+04  0.7818609E-02  0.8674023E-01
        2   -1    0    0  501    0  0.00000000000E+00  0.00000000000E+00  0.11580303848E+04  0.11580303848E+04  0.25500000920E-02 0. -1.
       -2   -1    0    0    0  501  0.00000000000E+00  0.00000000000E+00 -0.74845146329E+03  0.74845146330E+03  0.25500000920E-02 0.  1.
    10030    2    1    2    0    0  0.00000000000E+00  0.00000000000E+00  0.40957892147E+03  0.19064818481E+04  0.18619662038E+04 0.  0.
        1    1    3    3  502    0 -0.12956027156E+03 -0.64494338407E+03  0.87931996465E+03  0.10981536472E+04  0.50400001928E-02 0. -1.
       -1    1    3    3    0  502  0.12956027156E+03  0.64494338407E+03 -0.46974104318E+03  0.80832820086E+03  0.50400001928E-02 0.  1.
</event>
<event>
 5   0  0.8567844E-05  0.1864428E+04  0.7818609E-02  0.8672768E-01
        1   -1    0    0  501    0  0.00000000000E+00  0.00000000000E+00  0.10429765264E+04  0.10429765264E+04  0.50400001928E-02 0.  1.
       -1   -1    0    0    0  501  0.00000000000E+00  0.00000000000E+00 -0.83321417745E+03  0.83321417746E+03  0.50400001928E-02 0. -1.
    10030    2    1    2    0    0  0.00000000000E+00  0.00000000000E+00  0.20976234897E+03  0.18761907039E+04  0.18644278786E+04 0.  0.
        4    1    3    3  502    0  0.72073810888E+03  0.47490510617E+03  0.45927193654E+03  0.97771703782E+03  0.12699999809E+01 0.  1.
       -4    1    3    3    0  502 -0.72073810888E+03 -0.47490510617E+03 -0.24950958756E+03  0.89847366608E+03  0.12699999809E+01 0. -1.
</event>
<event>
 5   0  0.1658711E-04  0.1904353E+04  0.7818609E-02  0.8652693E-01
        2   -1    0    0  501    0  0.00000000000E+00  0.00000000000E+00  0.97674211319E+03  0.97674211320E+03  0.25500000920E-02 0.  1.
       -2   -1    0    0    0  501  0.00000000000E+00  0.00000000000E+00 -0.92822841188E+03  0.92822841188E+03  0.25500000920E-02 0. -1.
    10030    2    1    2    0    0  0.00000000000E+00  0.00000000000E+00  0.48513701317E+02  0.19049705251E+04  0.19043526780E+04 0.  0.
        2    1    3    3  502    0 -0.26475147721E+03  0.89253598058E+03 -0.17562278947E+03  0.94739494695E+03  0.25500000920E-02 0.  1.
       -2    1    3    3    0  502  0.26475147721E+03 -0.89253598058E+03  0.22413649079E+03  0.95757557813E+03  0.25500000920E-02 0. -1.
</event>
<event>
 5   0  0.6375750E-05  0.1880018E+04  0.7818609E-02  0.8664867E-01
        3   -1    0    0  501    0  0.00000000000E+00  0.00000000000E+00  0.97981225469E+03  0.97981225990E+03  0.10100000352E+00 0. -1.
       -3   -1    0    0    0  501  0.00000000000E+00  0.00000000000E+00 -0.90182314418E+03  0.90182314984E+03  0.10100000352E+00 0.  1.
    10030    2    1    2    0    0  0.00000000000E+00  0.00000000000E+00  0.77989110509E+02  0.18816354097E+04  0.18800184876E+04 0.  0.
        1    1    3    3  502    0 -0.63864813006E+03 -0.19564057859E+03  0.70097909514E+03  0.96825531854E+03  0.50400001928E-02 0. -1.
       -1    1    3    3    0  502  0.63864813006E+03  0.19564057859E+03 -0.62298998463E+03  0.91338009120E+03  0.50400001928E-02 0.  1.
</event>
<event>
 5   0  0.1790832E-04  0.1895908E+04  0.7818609E-02  0.8656896E-01
        2   -1    0    0  501    0  0.00000000000E+00  0.00000000000E+00  0.14606032396E+04  0.14606032396E+04  0.25500000920E-02 0.  1.
       -2   -1    0    0    0  501  0.00000000000E+00  0.00000000000E+00 -0.61523646500E+03  0.61523646501E+03  0.25500000920E-02 0. -1.
    10030    2    1    2    0    0  0.00000000000E+00  0.00000000000E+00  0.84536677464E+03  0.20758397046E+04  0.18959075652E+04 0.  0.
        5    1    3    3  502    0  0.78828148648E+03  0.31632217073E+03 -0.38149422629E+02  0.85024989625E+03  0.46999998093E+01 0.  1.
       -5    1    3    3    0  502 -0.78828148648E+03 -0.31632217073E+03  0.88351619727E+03  0.12255898084E+04  0.46999998093E+01 0. -1.
</event>
<event>
 5   0  0.1790832E-04  0.1833364E+04  0.7818609E-02  0.8688756E-01
       -2   -1    0    0    0  501  0.00000000000E+00  0.00000000000E+00  0.96146716498E+03  0.96146716499E+03  0.25500000920E-02 0.  1.
        2   -1    0    0  501    0  0.00000000000E+00  0.00000000000E+00 -0.87398246070E+03  0.87398246071E+03  0.25500000920E-02 0. -1.
    10030    2    1    2    0    0  0.00000000000E+00  0.00000000000E+00  0.87484704280E+02  0.18354496257E+04  0.18333635087E+04 0.  0.
        5    1    3    3  502    0 -0.51099425723E+02  0.70774252704E+03 -0.53723918930E+03  0.89003296142E+03  0.46999998093E+01 0. -1.
       -5    1    3    3    0  502  0.51099425723E+02 -0.70774252704E+03  0.62472389358E+03  0.94541666428E+03  0.46999998093E+01 0.  1.
</event>
<event>
 5   0  0.8905646E-05  0.2005583E+04  0.7818609E-02  0.8604015E-01
       -1   -1    0    0    0  501  0.00000000000E+00  0.00000000000E+00  0.62566730813E+03  0.62566730815E+03  0.50400001928E-02 0.  1.
        1   -1    0    0  501    0  0.00000000000E+00  0.00000000000E+00 -0.16072291584E+04  0.16072291584E+04  0.50400001928E-02 0. -1.
    10030    2    1    2    0    0  0.00000000000E+00  0.00000000000E+00 -0.98156185029E+03  0.22328964666E+04  0.20055829488E+04 0.  0.
        1    1    3    3  502    0  0.59912784239E+02 -0.77880087026E+03  0.20935917367E+03  0.80867274027E+03  0.50400001928E-02 0.  1.
       -1    1    3    3    0  502 -0.59912784239E+02  0.77880087026E+03 -0.11909210240E+04  0.14242237263E+04  0.50400001928E-02 0. -1.
</event>
<event>
 5   0  0.8567844E-05  0.1567271E+04  0.7818609E-02  0.8840911E-01
       -1   -1    0    0    0  501  0.00000000000E+00  0.00000000000E+00  0.81464798260E+03  0.81464798262E+03  0.50400001928E-02 0. -1.
        1   -1    0    0  501    0  0.00000000000E+00  0.00000000000E+00 -0.75380348215E+03  0.75380348217E+03  0.50400001928E-02 0.  1.
    10030    2    1    2    0    0  0.00000000000E+00  0.00000000000E+00  0.60844500449E+02  0.15684514648E+04  0.15672708586E+04 0.  0.
        4    1    3    3  502    0  0.35604257565E+02 -0.25407571155E+03  0.77142633272E+03  0.81297129720E+03  0.12699999809E+01 0. -1.
       -4    1    3    3    0  502 -0.35604257565E+02  0.25407571155E+03 -0.71058183227E+03  0.75548016759E+03  0.12699999809E+01 0.  1.
</event>
<event>
 5   0  0.1765328E-04  0.1910033E+04  0.7818609E-02  0.8649878E-01
       -2   -1    0    0    0  501  0.00000000000E+00  0.00000000000E+00  0.37078877870E+03  0.37078877871E+03  0.25500000920E-02 0.  1.
        2   -1    0    0  501    0  0.00000000000E+00  0.00000000000E+00 -0.24597733521E+04  0.24597733521E+04  0.25500000920E-02 0. -1.
    10030    2    1    2    0    0  0.00000000000E+00  0.00000000000E+00 -0.20889845734E+04  0.28305621308E+04  0.19100328344E+04 0.  0.
        3    1    3    3  502    0  0.91371836506E+03  0.12415467313E+03 -0.67620391131E+03  0.11434803774E+04  0.10100000352E+00 0.  1.
       -3    1    3    3    0  502 -0.91371836506E+03 -0.12415467313E+03 -0.14127806621E+04  0.16870817535E+04  0.10100000352E+00 0. -1.
</event>
<event>
 5   0  0.1799738E-04  0.1899792E+04  0.7818609E-02  0.8654960E-01
        2   -1    0    0  501    0  0.00000000000E+00  0.00000000000E+00  0.13100820882E+04  0.13100820882E+04  0.25500000920E-02 0.  1.
       -2   -1    0    0    0  501  0.00000000000E+00  0.00000000000E+00 -0.68873701354E+03  0.68873701355E+03  0.25500000920E-02 0. -1.
    10030    2    1    2    0    0  0.00000000000E+00  0.00000000000E+00  0.62134507467E+03  0.19988191018E+04  0.18997915938E+04 0.  0.
        1    1    3    3  502    0 -0.22210189641E+03  0.22463215531E+03  0.12531991312E+04  0.12923996751E+04  0.50400001928E-02 0.  1.
       -1    1    3    3    0  502  0.22210189641E+03 -0.22463215531E+03 -0.63185405656E+03  0.70641942669E+03  0.50400001928E-02 0. -1.
</event>
<event>
 5   0  0.1790832E-04  0.1905766E+04  0.7818609E-02  0.8651992E-01
        2   -1    0    0  501    0  0.00000000000E+00  0.00000000000E+00  0.22997123068E+04  0.22997123068E+04  0.25500000920E-02 0. -1.
       -2   -1    0    0    0  501  0.00000000000E+00  0.00000000000E+00 -0.39482583095E+03  0.39482583096E+03  0.25500000920E-02 0.  1.
    10030    2    1    2    0    0  0.00000000000E+00  0.00000000000E+00  0.19048864758E+04  0.26945381377E+04  0.19057658014E+04 0.  0.
        5    1    3    3  502    0  0.84226336845E+03 -0.40357542098E+03  0.12195258834E+04  0.15360814342E+04  0.46999998093E+01 0. -1.
       -5    1    3    3    0  502 -0.84226336845E+03  0.40357542098E+03  0.68536059240E+03  0.11584567035E+04  0.46999998093E+01 0.  1.
</event>
<event>
 5   0  0.6375750E-05  0.1895217E+04  0.7818609E-02  0.8657241E-01
        4   -1    0    0  501    0  0.00000000000E+00  0.00000000000E+00  0.11888765146E+04  0.11888771929E+04  0.12699999809E+01 0. -1.
       -4   -1    0    0    0  501  0.00000000000E+00  0.00000000000E+00 -0.75530142650E+03  0.75530249422E+03  0.12699999809E+01 0.  1.
    10030    2    1    2    0    0  0.00000000000E+00  0.00000000000E+00  0.43357508808E+03  0.19441796871E+04  0.18952169530E+04 0.  0.
        1    1    3    3  502    0  0.54032626499E+03 -0.33831349702E+02 -0.58103558342E+03  0.79416584042E+03  0.50400001928E-02 0.  1.
       -1    1    3    3    0  502 -0.54032626499E+03  0.33831349702E+02  0.10146106715E+04  0.11500138467E+04  0.50400001928E-02 0. -1.
</event>
<event>
 5   0  0.1765328E-04  0.1803668E+04  0.7818609E-02  0.8704351E-01
        2   -1    0    0  501    0  0.00000000000E+00  0.00000000000E+00  0.11813812763E+04  0.11813812764E+04  0.25500000920E-02 0. -1.
       -2   -1    0    0    0  501  0.00000000000E+00  0.00000000000E+00 -0.68843554864E+03  0.68843554865E+03  0.25500000920E-02 0.  1.
    10030    2    1    2    0    0  0.00000000000E+00  0.00000000000E+00  0.49294572771E+03  0.18698168250E+04  0.18036683366E+04 0.  0.
        3    1    3    3  502    0  0.77181620072E+03 -0.40188919114E+03  0.95455079488E+00  0.87018164254E+03  0.10100000352E+00 0.  1.
       -3    1    3    3    0  502 -0.77181620072E+03  0.40188919114E+03  0.49199117691E+03  0.99963518246E+03  0.10100000352E+00 0. -1.
</event>
<event>
 5   0  0.1810569E-04  0.1908704E+04  0.7818609E-02  0.8650536E-01
        2   -1    0    0  501    0  0.00000000000E+00  0.00000000000E+00  0.19665310248E+04  0.19665310248E+04  0.25500000920E-02 0.  1.
       -2   -1    0    0    0  501  0.00000000000E+00  0.00000000000E+00 -0.46314433345E+03  0.46314433346E+03  0.25500000920E-02 0. -1.
    10030    2    1    2    0    0  0.00000000000E+00  0.00000000000E+00  0.15033866913E+04  0.24296753583E+04  0.19087039589E+04 0.  0.
        4    1    3    3  502    0  0.12864802490E+03  0.94558848442E+03  0.73907951789E+03  0.12070327431E+04  0.12699999809E+01 0. -1.
       -4    1    3    3    0  502 -0.12864802490E+03 -0.94558848442E+03  0.76430717344E+03  0.12226426152E+04  0.12699999809E+01 0.  1.
</event>
<event>
 5   0  0.6375750E-05  0.1913894E+04  0.7818609E-02  0.8647971E-01
       -3   -1    0    0    0  501  0.00000000000E+00  0.00000000000E+00  0.93520701240E+03  0.93520701785E+03  0.10100000352E+00 0. -1.
        3   -1    0    0  501    0  0.00000000000E+00  0.00000000000E+00 -0.97919213219E+03  0.97919213740E+03  0.10100000352E+00 0.  1.
    10030    2    1    2    0    0  0.00000000000E+00  0.00000000000E+00 -0.43985119797E+02  0.19143991553E+04  0.19138937888E+04 0.  0.
        2    1    3    3  502    0  0.32735281713E+03 -0.18415614284E+03  0.85839551844E+03  0.93697183411E+03  0.25500000920E-02 0. -1.
       -2    1    3    3    0  502 -0.32735281713E+03  0.18415614284E+03 -0.90238063824E+03  0.97742732114E+03  0.25500000920E-02 0.  1.
</event>
<event>
 5   0  0.1765328E-04  0.1898939E+04  0.7818609E-02  0.8655385E-01
       -2   -1    0    0    0  501  0.00000000000E+00  0.00000000000E+00  0.12940958264E+04  0.12940958264E+04  0.25500000920E-02 0. -1.
        2   -1    0    0  501    0  0.00000000000E+00  0.00000000000E+00 -0.69661929033E+03  0.69661929033E+03  0.25500000920E-02 0.  1.
    10030    2    1    2    0    0  0.00000000000E+00  0.00000000000E+00  0.59747653608E+03  0.19907151167E+04  0.18989387733E+04 0.  0.
        3    1    3    3  502    0  0.32712765901E+03  0.54652405403E+03 -0.43941661568E+03  0.77381394357E+03  0.10100000352E+00 0.  1.
       -3    1    3    3    0  502 -0.32712765901E+03 -0.54652405403E+03  0.10368931518E+04  0.12169011732E+04  0.10100000352E+00 0. -1.
</event>
<event>
 5   0  0.1810569E-04  0.1905533E+04  0.7818609E-02  0.8652107E-01
        2   -1    0    0  501    0  0.00000000000E+00  0.00000000000E+00  0.15110454447E+04  0.15110454447E+04  0.25500000920E-02 0.  1.
       -2   -1    0    0    0  501  0.00000000000E+00  0.00000000000E+00 -0.60075242438E+03  0.60075242439E+03  0.25500000920E-02 0. -1.
    10030    2    1    2    0    0  0.00000000000E+00  0.00000000000E+00  0.91029302028E+03  0.21117978691E+04  0.19055332212E+04 0.  0.
        4    1    3    3  502    0 -0.66157214374E+02  0.65070411217E+03 -0.31264421466E+03  0.72494181592E+03  0.12699999809E+01 0. -1.
       -4    1    3    3    0  502  0.66157214374E+02 -0.65070411217E+03  0.12229372349E+04  0.13868560531E+04  0.12699999809E+01 0.  1.
</event>
<event>
 5   0  0.1799738E-04  0.1901107E+04  0.7818609E-02  0.8654305E-01
       -2   -1    0    0    0  501  0.00000000000E+00  0.00000000000E+00  0.35588389315E+03  0.35588389316E+03  0.25500000920E-02 0. -1.
        2   -1    0    0  501    0  0.00000000000E+00  0.00000000000E+00 -0.25388963495E+04  0.25388963495E+04  0.25500000920E-02 0.  1.
    10030    2    1    2    0    0  0.00000000000E+00  0.00000000000E+00 -0.21830124564E+04  0.28947802427E+04  0.19011073796E+04 0.  0.
        1    1    3    3  502    0  0.12037842962E+03  0.21252372398E+03  0.30728584831E+03  0.39253266383E+03  0.50400001928E-02 0. -1.
       -1    1    3    3    0  502 -0.12037842962E+03 -0.21252372398E+03 -0.24902983047E+04  0.25022475789E+04  0.50400001928E-02 0.  1.
</event>
<event>
 5   0  0.8567844E-05  0.1915139E+04  0.7818609E-02  0.8647357E-01
       -1   -1    0    0    0  501  0.00000000000E+00  0.00000000000E+00  0.18757026807E+04  0.18757026807E+04  0.50400001928E-02 0. -1.
        1   -1    0    0  501    0  0.00000000000E+00  0.00000000000E+00 -0.48885123774E+03  0.48885123777E+03  0.50400001928E-02 0.  1.
    10030    2    1    2    0    0  0.00000000000E+00  0.00000000000E+00  0.13868514430E+04  0.23645539185E+04  0.19151392400E+04 0.  0.
        4    1    3    3  502    0 -0.54858733199E+03 -0.43207573020E+03  0.15023903768E+04  0.16567486094E+04  0.12699999809E+01 0. -1.
       -4    1    3    3    0  502  0.54858733199E+03  0.43207573020E+03 -0.11553893385E+03  0.70780530910E+03  0.12699999809E+01 0.  1.
</event>
<event>
 5   0  0.1765328E-04  0.1907015E+04  0.7818609E-02  0.8651372E-01
        2   -1    0    0  501    0  0.00000000000E+00  0.00000000000E+00  0.10943430426E+04  0.10943430426E+04  0.25500000920E-02 0.  1.
       -2   -1    0    0    0  501  0.00000000000E+00  0.00000000000E+00 -0.83079659274E+03  0.83079659274E+03  0.25500000920E-02 0. -1.
    10030    2    1    2    0    0  0.00000000000E+00  0.00000000000E+00  0.26354644989E+03  0.19251396354E+04  0.19070149146E+04 0.  0.
        3    1    3    3  502    0  0.22188833878E+02 -0.93617231351E+03 -0.49560028259E+02  0.93774578194E+03  0.10100000352E+00 0. -1.
       -3    1    3    3    0  502 -0.22188833878E+02  0.93617231351E+03  0.31310647814E+03  0.98739385343E+03  0.10100000352E+00 0.  1.
</event>
<event>
 5   0  0.1790832E-04  0.1870476E+04  0.7818609E-02  0.8669693E-01
        2   -1    0    0  501    0  0.00000000000E+00  0.00000000000E+00  0.10103885347E+04  0.10103885347E+04  0.25500000920E-02 0. -1.
       -2   -1    0    0    0  501  0.00000000000E+00  0.00000000000E+00 -0.86567731389E+03  0.86567731389E+03  0.25500000920E-02 0.  1.
    10030    2    1    2    0    0  0.00000000000E+00  0.00000000000E+00  0.14471122079E+03  0.18760658486E+04  0.18704763379E+04 0.  0.
        5    1    3    3  502    0  0.95451809154E+02  0.15108090994E+03  0.99309221766E+03  0.10090543751E+04  0.46999998093E+01 0. -1.
       -5    1    3    3    0  502 -0.95451809154E+02 -0.15108090994E+03 -0.84838099687E+03  0.86701147343E+03  0.46999998093E+01 0.  1.
</event>
<event>
 5   0  0.8681396E-05  0.1876885E+04  0.7818609E-02  0.8666449E-01
        1   -1    0    0  501    0  0.00000000000E+00  0.00000000000E+00  0.91533966643E+03  0.91533966645E+03  0.50400001928E-02 0. -1.
       -1   -1    0    0    0  501  0.00000000000E+00  0.00000000000E+00 -0.96212828919E+03  0.96212828920E+03  0.50400001928E-02 0.  1.
    10030    2    1    2    0    0  0.00000000000E+00  0.00000000000E+00 -0.46788622758E+02  0.18774679557E+04  0.18768848524E+04 0.  0.
        3    1    3    3  502    0 -0.86468382191E+03 -0.35566848853E+03  0.57228442447E+02  0.93672476771E+03  0.10100000352E+00 0. -1.
       -3    1    3    3    0  502  0.86468382191E+03  0.35566848853E+03 -0.10401706521E+03  0.94074318794E+03  0.10100000352E+00 0.  1.
</event>
<event>
 5   0  0.8567844E-05  0.1837239E+04  0.7818609E-02  0.8686743E-01
       -1   -1    0    0    0  501  0.00000000000E+00  0.00000000000E+00  0.64481158213E+03  0.64481158215E+03  0.50400001928E-02 0.  1.
        1   -1    0    0  501    0  0.00000000000E+00  0.00000000000E+00 -0.13086949342E+04  0.13086949343E+04  0.50400001928E-02 0. -1.
    10030    2    1    2    0    0  0.00000000000E+00  0.00000000000E+00 -0.66388335212E+03  0.19535065164E+04  0.18372388534E+04 0.  0.
        4    1    3    3  502    0 -0.45497835042E+02 -0.63755696571E+03  0.36959295401E+03  0.73834240165E+03  0.12699999809E+01 0.  1.
       -4    1    3    3    0  502  0.45497835042E+02  0.63755696571E+03 -0.10334763061E+04  0.12151641147E+04  0.12699999809E+01 0. -1.
</event>
<event>
 5   0  0.1810569E-04  0.1895368E+04  0.7818609E-02  0.8657165E-01
       -2   -1    0    0    0  501  0.00000000000E+00  0.00000000000E+00  0.81155954175E+03  0.81155954176E+03  0.25500000920E-02 0. -1.
        2   -1    0    0  501    0  0.00000000000E+00  0.00000000000E+00 -0.11066409995E+04  0.11066409995E+04  0.25500000920E-02 0.  1.
    10030    2    1    2    0    0  0.00000000000E+00  0.00000000000E+00 -0.29508145773E+03  0.19182005412E+04  0.18953681040E+04 0.  0.
        4    1    3    3  502    0  0.92256899933E+03 -0.10584365590E+03  0.43859198485E+02  0.92965675397E+03  0.12699999809E+01 0. -1.
       -4    1    3    3    0  502 -0.92256899933E+03  0.10584365590E+03 -0.33894065622E+03  0.98854378727E+03  0.12699999809E+01 0.  1.
</event>
<event>
 5   0  0.8681396E-05  0.1912439E+04  0.7818609E-02  0.8648690E-01
       -1   -1    0    0    0  501  0.00000000000E+00  0.00000000000E+00  0.66592916963E+03  0.66592916965E+03  0.50400001928E-02 0. -1.
        1   -1    0    0  501    0  0.00000000000E+00  0.00000000000E+00 -0.13730518327E+04  0.13730518327E+04  0.50400001928E-02 0.  1.
    10030    2    1    2    0    0  0.00000000000E+00  0.00000000000E+00 -0.70712266302E+03  0.20389810023E+04  0.19124385133E+04 0.  0.
        3    1    3    3  502    0  0.29106918184E+03 -0.76373728059E+03  0.17560547935E+03  0.83597439970E+03  0.10100000352E+00 0. -1.
       -3    1    3    3    0  502 -0.29106918184E+03  0.76373728059E+03 -0.88272814238E+03  0.12030066026E+04  0.10100000352E+00 0.  1.
</event>
<event>
 5   0  0.1790832E-04  0.1907100E+04  0.7818609E-02  0.8651330E-01
       -2   -1    0    0    0  501  0.00000000000E+00  0.00000000000E+00  0.55100564294E+03  0.55100564295E+03  0.25500000920E-02 0.  1.
        2   -1    0    0  501    0  0.00000000000E+00  0.00000000000E+00 -0.16501783799E+04  0.16501783799E+04  0.25500000920E-02 0. -1.
    10030    2    1    2    0    0  0.00000000000E+00  0.00000000000E+00 -0.10991727370E+04  0.22011840229E+04  0.19070999965E+04 0.  0.
        5    1    3    3  502    0 -0.67444658002E+03  0.38615477010E+03 -0.11872694562E+04  0.14190223914E+04  0.46999998093E+01 0.  1.
       -5    1    3    3    0  502  0.67444658002E+03 -0.38615477010E+03  0.88096719209E+02  0.78216163145E+03  0.46999998093E+01 0. -1.
</event>
<event>
 5   0  0.1658711E-04  0.1894461E+04  0.7818609E-02  0.8657618E-01
       -2   -1    0    0    0  501  0.00000000000E+00  0.00000000000E+00  0.36311005509E+03  0.36311005510E+03  0.25500000920E-02 0.  1.
        2   -1    0    0  501    0  0.00000000000E+00  0.00000000000E+00 -0.24710018266E+04  0.24710018266E+04  0.25500000920E-02 0. -1.
    10030    2    1    2    0    0  0.00000000000E+00  0.00000000000E+00 -0.21078917715E+04  0.28341118817E+04  0.18944609887E+04 0.  0.
        2    1    3    3  502    0 -0.31013968563E+03 -0.50647508546E+03  0.49998014980E+02  0.59598946157E+03  0.25500000920E-02 0.  1.
       -2    1    3    3    0  502  0.31013968563E+03  0.50647508546E+03 -0.21578897865E+04  0.22381224201E+04  0.25500000920E-02 0. -1.
</event>
<event>
 5   0  0.1790832E-04  0.1865504E+04  0.7818609E-02  0.8672220E-01
       -2   -1    0    0    0  501  0.00000000000E+00  0.00000000000E+00  0.55391388717E+03  0.55391388718E+03  0.25500000920E-02 0. -1.
        2   -1    0    0  501    0  0.00000000000E+00  0.00000000000E+00 -0.15706885096E+04  0.15706885096E+04  0.25500000920E-02 0.  1.
    10030    2    1    2    0    0  0.00000000000E+00  0.00000000000E+00 -0.10167746225E+04  0.21246023968E+04  0.18655038761E+04 0.  0.
        5    1    3    3  502    0  0.26987852084E+03 -0.35485509370E+03  0.42470124494E+03  0.61575140356E+03  0.46999998093E+01 0. -1.
       -5    1    3    3    0  502 -0.26987852084E+03  0.35485509370E+03 -0.14414758674E+04  0.15088509933E+04  0.46999998093E+01 0.  1.
</event>
<event>
 5   0  0.8587082E-05  0.1904925E+04  0.7818609E-02  0.8652409E-01
        1   -1    0    0  501    0  0.00000000000E+00  0.00000000000E+00  0.13012161330E+04  0.13012161330E+04  0.50400001928E-02 0.  1.
       -1   -1    0    0    0  501  0.00000000000E+00  0.00000000000E+00 -0.69718215612E+03  0.69718215614E+03  0.50400001928E-02 0. -1.
    10030    2    1    2    0    0  0.00000000000E+00  0.00000000000E+00  0.60403397684E+03  0.19983982891E+04  0.19049248481E+04 0.  0.
        5    1    3    3  502    0 -0.43545802893E+03  0.35299690217E+03  0.11098222419E+04  0.12433655965E+04  0.46999998093E+01 0.  1.
       -5    1    3    3    0  502  0.43545802893E+03 -0.35299690217E+03 -0.50578826505E+03  0.75503269264E+03  0.46999998093E+01 0. -1.
</event>
<event>
 5   0  0.8567844E-05  0.1828696E+04  0.7818609E-02  0.8691187E-01
       -1   -1    0    0    0  501  0.00000000000E+00  0.00000000000E+00  0.15965876266E+04  0.15965876266E+04  0.50400001928E-02 0.  1.
        1   -1    0    0  501    0  0.00000000000E+00  0.00000000000E+00 -0.52363682660E+03  0.52363682662E+03  0.50400001928E-02 0. -1.
    10030    2    1    2    0    0  0.00000000000E+00  0.00000000000E+00  0.10729508000E+04  0.21202244533E+04  0.18286957956E+04 0.  0.
        4    1    3    3  502    0 -0.59377847983E+03 -0.30944880572E+03 -0.18544235593E+03  0.69478192747E+03  0.12699999809E+01 0. -1.
       -4    1    3    3    0  502  0.59377847983E+03  0.30944880572E+03  0.12583931559E+04  0.14254425258E+04  0.12699999809E+01 0.  1.
</event>
<event>
 5   0  0.1765328E-04  0.1893720E+04  0.7818609E-02  0.8657989E-01
       -2   -1    0    0    0  501  0.00000000000E+00  0.00000000000E+00  0.71709912602E+03  0.71709912602E+03  0.25500000920E-02 0.  1.
        2   -1    0    0  501    0  0.00000000000E+00  0.00000000000E+00 -0.12502368425E+04  0.12502368425E+04  0.25500000920E-02 0. -1.
    10030    2    1    2    0    0  0.00000000000E+00  0.00000000000E+00 -0.53313771650E+03  0.19673359685E+04  0.18937198812E+04 0.  0.
        3    1    3    3  502    0  0.40926914142E+03 -0.66634623261E+03  0.28806250826E+03  0.83336579646E+03  0.10100000352E+00 0.  1.
       -3    1    3    3    0  502 -0.40926914142E+03  0.66634623261E+03 -0.82120022476E+03  0.11339701721E+04  0.10100000352E+00 0. -1.
</event>
<event>
 5   0  0.8602017E-05  0.1939130E+04  0.7818609E-02  0.8635620E-01
        1   -1    0    0  501    0  0.00000000000E+00  0.00000000000E+00  0.52750902720E+03  0.52750902722E+03  0.50400001928E-02 0.  1.
       -1   -1    0    0    0  501  0.00000000000E+00  0.00000000000E+00 -0.17820669359E+04  0.17820669359E+04  0.50400001928E-02 0. -1.
    10030    2    1    2    0    0  0.00000000000E+00  0.00000000000E+00 -0.12545579087E+04  0.23095759632E+04  0.19391301099E+04 0.  0.
        2    1    3    3  502    0 -0.89760446193E+03 -0.36441013174E+03 -0.67443983825E+03  0.11804056970E+04  0.25500000920E-02 0.  1.
       -2    1    3    3    0  502  0.89760446193E+03  0.36441013174E+03 -0.58011807049E+03  0.11291702661E+04  0.25500000920E-02 0. -1.
</event>
<event>
 5   0  0.1810569E-04  0.1910963E+04  0.7818609E-02  0.8649419E-01
        2   -1    0    0  501    0  0.00000000000E+00  0.00000000000E+00  0.77287069128E+03  0.77287069129E+03  0.25500000920E-02 0. -1.
       -2   -1    0    0    0  501  0.00000000000E+00  0.00000000000E+00 -0.11812386655E+04  0.11812386655E+04  0.25500000920E-02 0.  1.
    10030    2    1    2    0    0  0.00000000000E+00  0.00000000000E+00 -0.40836797417E+03  0.19541093567E+04  0.19109628400E+04 0.  0.
        4    1    3    3  502    0 -0.25144735767E+02 -0.23998779909E+03  0.74119887376E+03  0.77948943855E+03  0.12699999809E+01 0. -1.
       -4    1    3    3    0  502  0.25144735767E+02  0.23998779909E+03 -0.11495668479E+04  0.11746199182E+04  0.12699999809E+01 0.  1.
</event>
<event>
 5   0  0.8567844E-05  0.1896727E+04  0.7818609E-02  0.8656487E-01
       -1   -1    0    0    0  501  0.00000000000E+00  0.00000000000E+00  0.15424050276E+04  0.15424050276E+04  0.50400001928E-02 0. -1.
        1   -1    0    0  501    0  0.00000000000E+00  0.00000000000E+00 -0.58311097210E+03  0.58311097212E+03  0.50400001928E-02 0.  1.
    10030    2    1    2    0    0  0.00000000000E+00  0.00000000000E+00  0.95929405552E+03  0.21255159998E+04  0.18967269651E+04 0.  0.
        4    1    3    3  502    0  0.68967551951E+03 -0.45180013941E+03  0.10048069104E+04  0.12997746837E+04  0.12699999809E+01 0. -1.
       -4    1    3    3    0  502 -0.68967551951E+03  0.45180013941E+03 -0.45512854925E+02  0.82574131606E+03  0.12699999809E+01 0.  1.
</event>
<event>
 5   0  0.8905646E-05  0.1950192E+04  0.7818609E-02  0.8630268E-01
       -1   -1    0    0    0  501  0.00000000000E+00  0.00000000000E+00  0.78066697537E+03  0.78066697539E+03  0.50400001928E-02 0.  1.
        1   -1    0    0  501    0  0.00000000000E+00  0.00000000000E+00 -0.12179483257E+04  0.12179483258E+04  0.50400001928E-02 0. -1.
    10030    2    1    2    0    0  0.00000000000E+00  0.00000000000E+00 -0.43728135038E+03  0.19986153011E+04  0.19501918220E+04 0.  0.
        1    1    3    3  502    0  0.74052331051E+03 -0.32279924125E+03 -0.77831231717E+03  0.11217594157E+04  0.50400001928E-02 0. -1.
       -1    1    3    3    0  502 -0.74052331051E+03  0.32279924125E+03  0.34103096679E+03  0.87685588548E+03  0.50400001928E-02 0.  1.
</event>
<event>
 5   0  0.8587082E-05  0.1939961E+04  0.7818609E-02  0.8635217E-01
       -1   -1    0    0    0  501  0.00000000000E+00  0.00000000000E+00  0.62109590480E+03  0.62109590482E+03  0.50400001928E-02 0. -1.
        1   -1    0    0  501    0  0.00000000000E+00  0.00000000000E+00 -0.15148420874E+04  0.15148420875E+04  0.50400001928E-02 0.  1.
    10030    2    1    2    0    0  0.00000000000E+00  0.00000000000E+00 -0.89374618265E+03  0.21359379923E+04  0.19399610480E+04 0.  0.
        5    1    3    3  502    0  0.36690271888E+03  0.89646698744E+03 -0.39106248340E+03  0.10446160159E+04  0.46999998093E+01 0. -1.
       -5    1    3    3    0  502 -0.36690271888E+03 -0.89646698744E+03 -0.50268369925E+03  0.10913219764E+04  0.46999998093E+01 0.  1.
</event>
<event>
 5   0  0.8681396E-05  0.1900609E+04  0.7818609E-02  0.8654553E-01
        1   -1    0    0  501    0  0.00000000000E+00  0.00000000000E+00  0.11781686480E+04  0.11781686480E+04  0.50400001928E-02 0. -1.
       -1   -1    0    0    0  501  0.00000000000E+00  0.00000000000E+00 -0.76651038888E+03  0.76651038890E+03  0.50400001928E-02 0.  1.
    10030    2    1    2    0    0  0.00000000000E+00  0.00000000000E+00  0.41165825913E+03  0.19446790369E+04  0.19006088588E+04 0.  0.
        3    1    3    3  502    0  0.61010847028E+03  0.24940335973E+03  0.90627853062E+03  0.11206137455E+04  0.10100000352E+00 0. -1.
       -3    1    3    3    0  502 -0.61010847028E+03 -0.24940335973E+03 -0.49462027149E+03  0.82406529142E+03  0.10100000352E+00 0.  1.
</event>
<event>
 5   0  0.1658711E-04  0.1902258E+04  0.7818609E-02  0.8653733E-01
        2   -1    0    0  501    0  0.00000000000E+00  0.00000000000E+00  0.69315364453E+03  0.69315364453E+03  0.25500000920E-02 0. -1.
       -2   -1    0    0    0  501  0.00000000000E+00  0.00000000000E+00 -0.13051165080E+04  0.13051165080E+04  0.25500000920E-02 0.  1.
    10030    2    1    2    0    0  0.00000000000E+00  0.00000000000E+00 -0.61196286343E+03  0.19982701525E+04  0.19022578837E+04 0.  0.
        2    1    3    3  502    0  0.43512734106E+03 -0.28658329809E+03  0.52990748297E+03  0.74314717936E+03  0.25500000920E-02 0. -1.
       -2    1    3    3    0  502 -0.43512734106E+03  0.28658329809E+03 -0.11418703464E+04  0.12551229731E+04  0.25500000920E-02 0.  1.
</event>
<event>
 5   0  0.8567844E-05  0.1888342E+04  0.7818609E-02  0.8660681E-01
       -1   -1    0    0    0  501  0.00000000000E+00  0.00000000000E+00  0.40962898253E+03  0.40962898256E+03  0.50400001928E-02 0. -1.
        1   -1    0    0  501    0  0.00000000000E+00  0.00000000000E+00 -0.21762588866E+04  0.21762588866E+04  0.50400001928E-02 0.  1.
    10030    2    1    2    0    0  0.00000000000E+00  0.00000000000E+00 -0.17666299041E+04  0.25858878692E+04  0.18883418266E+04 0.  0.
        4    1    3    3  502    0  0.51153947015E+03  0.30109566221E+03  0.12216673074E+03  0.60601778053E+03  0.12699999809E+01 0. -1.
       -4    1    3    3    0  502 -0.51153947015E+03 -0.30109566221E+03 -0.18887966348E+04  0.19798700886E+04  0.12699999809E+01 0.  1.
</event>
<event>
 5   0  0.1765328E-04  0.1844989E+04  0.7818609E-02  0.8682734E-01
        2   -1    0    0  501    0  0.00000000000E+00  0.00000000000E+00  0.60036290403E+03  0.60036290403E+03  0.25500000920E-02 0.  1.
       -2   -1    0    0    0  501  0.00000000000E+00  0.00000000000E+00 -0.14174689658E+04  0.14174689658E+04  0.25500000920E-02 0. -1.
    10030    2    1    2    0    0  0.00000000000E+00  0.00000000000E+00 -0.81710606178E+03  0.20178318698E+04  0.18449886555E+04 0.  0.
        3    1    3    3  502    0 -0.40711163809E+03 -0.52853708338E+03  0.28823900463E+03  0.72675516398E+03  0.10100000352E+00 0.  1.
       -3    1    3    3    0  502  0.40711163809E+03  0.52853708338E+03 -0.11053450664E+04  0.12910767059E+04  0.10100000352E+00 0. -1.
</event>
<event>
 5   0  0.1658711E-04  0.1749463E+04  0.7818609E-02  0.8733646E-01
        2   -1    0    0  501    0  0.00000000000E+00  0.00000000000E+00  0.82204168682E+03  0.82204168683E+03  0.25500000920E-02 0. -1.
       -2   -1    0    0    0  501  0.00000000000E+00  0.00000000000E+00 -0.93079890014E+03  0.93079890015E+03  0.25500000920E-02 0.  1.
    10030    2    1    2    0    0  0.00000000000E+00  0.00000000000E+00 -0.10875721332E+03  0.17528405870E+04  0.17494633440E+04 0.  0.
        2    1    3    3  502    0  0.54340664525E+03 -0.11325574460E+03  0.62297220967E+03  0.83439320456E+03  0.25500000920E-02 0.  1.
       -2    1    3    3    0  502 -0.54340664525E+03  0.11325574460E+03 -0.73172942299E+03  0.91844738241E+03  0.25500000920E-02 0. -1.
</event>
<event>
 5   0  0.8905646E-05  0.1893560E+04  0.7818609E-02  0.8658069E-01
       -1   -1    0    0    0  501  0.00000000000E+00  0.00000000000E+00  0.96002627088E+03  0.96002627090E+03  0.50400001928E-02 0. -1.
        1   -1    0    0  501    0  0.00000000000E+00  0.00000000000E+00 -0.93371644472E+03  0.93371644473E+03  0.50400001928E-02 0.  1.
    10030    2    1    2    0    0  0.00000000000E+00  0.00000000000E+00  0.26309826162E+02  0.18937427156E+04  0.18935599452E+04 0.  0.
        1    1    3    3  502    0 -0.46979299204E+03  0.70323123730E+02 -0.80591224438E+03  0.93549203245E+03  0.50400001928E-02 0.  1.
       -1    1    3    3    0  502  0.46979299204E+03 -0.70323123730E+02  0.83222207054E+03  0.95825068319E+03  0.50400001928E-02 0. -1.
</event>
<event>
 5   0  0.1790832E-04  0.1912525E+04  0.7818609E-02  0.8648647E-01
        2   -1    0    0  501    0  0.00000000000E+00  0.00000000000E+00  0.30654629505E+04  0.30654629505E+04  0.25500000920E-02 0. -1.
       -2   -1    0    0    0  501  0.00000000000E+00  0.00000000000E+00 -0.29830329437E+03  0.29830329438E+03  0.25500000920E-02 0.  1.
    10030    2    1    2    0    0  0.00000000000E+00  0.00000000000E+00  0.27671596562E+04  0.33637662449E+04  0.19125247156E+04 0.  0.
        5    1    3    3  502    0 -0.90960547273E+03 -0.33576590708E+01  0.19024202737E+04  0.21087006373E+04  0.46999998093E+01 0. -1.
       -5    1    3    3    0  502  0.90960547273E+03  0.33576590708E+01  0.86473938244E+03  0.12550656076E+04  0.46999998093E+01 0.  1.
</event>
<event>
 5   0  0.1799738E-04  0.1893187E+04  0.7818609E-02  0.8658255E-01
       -2   -1    0    0    0  501  0.00000000000E+00  0.00000000000E+00  0.42673632254E+03  0.42673632255E+03  0.25500000920E-02 0. -1.
        2   -1    0    0  501    0  0.00000000000E+00  0.00000000000E+00 -0.20997492235E+04  0.20997492235E+04  0.25500000920E-02 0.  1.
    10030    2    1    2    0    0  0.00000000000E+00  0.00000000000E+00 -0.16730129009E+04  0.25264855460E+04  0.18931870081E+04 0.  0.
        1    1    3    3  502    0 -0.78079172551E+03 -0.43651534450E+03 -0.42332839107E+03  0.98964048589E+03  0.50400001928E-02 0. -1.
       -1    1    3    3    0  502  0.78079172551E+03  0.43651534450E+03 -0.12496845098E+04  0.15368450601E+04  0.50400001928E-02 0.  1.
</event>
<event>
 5   0  0.1765328E-04  0.1890281E+04  0.7818609E-02  0.8659709E-01
        2   -1    0    0  501    0  0.00000000000E+00  0.00000000000E+00  0.13374617078E+04  0.13374617078E+04  0.25500000920E-02 0. -1.
       -2   -1    0    0    0  501  0.00000000000E+00  0.00000000000E+00 -0.66789982384E+03  0.66789982385E+03  0.25500000920E-02 0.  1.
    10030    2    1    2    0    0  0.00000000000E+00  0.00000000000E+00  0.66956188391E+03  0.20053615316E+04  0.18902808670E+04 0.  0.
        3    1    3    3  502    0 -0.83514826726E+03 -0.42337942301E+03  0.19822928034E+03  0.95708809517E+03  0.10100000352E+00 0. -1.
       -3    1    3    3    0  502  0.83514826726E+03  0.42337942301E+03  0.47133260357E+03  0.10482734364E+04  0.10100000352E+00 0.  1.
</event>
<event>
 5   0  0.8905646E-05  0.1876959E+04  0.7818609E-02  0.8666411E-01
        1   -1    0    0  501    0  0.00000000000E+00  0.00000000000E+00  0.52002371673E+03  0.52002371675E+03  0.50400001928E-02 0.  1.
       -1   -1    0    0    0  501  0.00000000000E+00  0.00000000000E+00 -0.16936615442E+04  0.16936615442E+04  0.50400001928E-02 0. -1.
    10030    2    1    2    0    0  0.00000000000E+00  0.00000000000E+00 -0.11736378274E+04  0.22136852609E+04  0.18769594254E+04 0.  0.
        1    1    3    3  502    0  0.92200481876E+03  0.16199614828E+03 -0.66512725907E+03  0.11483596600E+04  0.50400001928E-02 0.  1.
       -1    1    3    3    0  502 -0.92200481876E+03 -0.16199614828E+03 -0.50851056838E+03  0.10653256010E+04  0.50400001928E-02 0. -1.
</event>
<event>
 5   0  0.8602017E-05  0.1862718E+04  0.7818609E-02  0.8673640E-01
        1   -1    0    0  501    0  0.00000000000E+00  0.00000000000E+00  0.66562051312E+03  0.66562051314E+03  0.50400001928E-02 0. -1.
       -1   -1    0    0    0  501  0.00000000000E+00  0.00000000000E+00 -0.13031888582E+04  0.13031888582E+04  0.50400001928E-02 0.  1.
    10030    2    1    2    0    0  0.00000000000E+00  0.00000000000E+00 -0.63756834504E+03  0.19688093713E+04  0.18627176238E+04 0.  0.
        2    1    3    3  502    0 -0.16290015452E+03 -0.73241564232E+03  0.26442163407E+03  0.79554254068E+03  0.25500000920E-02 0. -1.
       -2    1    3    3    0  502  0.16290015452E+03  0.73241564232E+03 -0.90198997911E+03  0.11732668306E+04  0.25500000920E-02 0.  1.
</event>
<event>
 5   0  0.1799738E-04  0.1874291E+04  0.7818609E-02  0.8667760E-01
       -2   -1    0    0    0  501  0.00000000000E+00  0.00000000000E+00  0.96739490174E+03  0.96739490174E+03  0.25500000920E-02 0. -1.
        2   -1    0    0  501    0  0.00000000000E+00  0.00000000000E+00 -0.90784196904E+03  0.90784196904E+03  0.25500000920E-02 0.  1.
    10030    2    1    2    0    0  0.00000000000E+00  0.00000000000E+00  0.59552932696E+02  0.18752368708E+04  0.18742910046E+04 0.  0.
        1    1    3    3  502    0 -0.30777294193E+02 -0.26417101780E+03 -0.86929158006E+03  0.90906623503E+03  0.50400001928E-02 0.  1.
       -1    1    3    3    0  502  0.30777294193E+02  0.26417101780E+03  0.92884451276E+03  0.96617063575E+03  0.50400001928E-02 0. -1.
</event>
<event>
 5   0  0.1765328E-04  0.1718957E+04  0.7818609E-02  0.8750626E-01
        2   -1    0    0  501    0  0.00000000000E+00  0.00000000000E+00  0.16559345363E+04  0.16559345363E+04  0.25500000920E-02 0.  1.
       -2   -1    0    0    0  501  0.00000000000E+00  0.00000000000E+00 -0.44609444995E+03  0.44609444996E+03  0.25500000920E-02 0. -1.
    10030    2    1    2    0    0  0.00000000000E+00  0.00000000000E+00  0.12098400863E+04  0.21020289863E+04  0.17189569001E+04 0.  0.
        3    1    3    3  502    0  0.20710274999E+03 -0.70662270620E+03  0.11469840458E+04  0.13630038920E+04  0.10100000352E+00 0.  1.
       -3    1    3    3    0  502 -0.20710274999E+03  0.70662270620E+03  0.62856040545E+02  0.73902509430E+03  0.10100000352E+00 0. -1.
</event>
<event>
 5   0  0.8587082E-05  0.1901277E+04  0.7818609E-02  0.8654221E-01
       -1   -1    0    0    0  501  0.00000000000E+00  0.00000000000E+00  0.12934623758E+04  0.12934623758E+04  0.50400001928E-02 0.  1.
        1   -1    0    0  501    0  0.00000000000E+00  0.00000000000E+00 -0.69867820736E+03  0.69867820738E+03  0.50400001928E-02 0. -1.
    10030    2    1    2    0    0  0.00000000000E+00  0.00000000000E+00  0.59478416847E+03  0.19921405832E+04  0.19012774380E+04 0.  0.
        5    1    3    3  502    0  0.37957401155E+03 -0.22684512454E+03 -0.58434516040E+03  0.73281409460E+03  0.46999998093E+01 0. -1.
       -5    1    3    3    0  502 -0.37957401155E+03  0.22684512454E+03  0.11791293289E+04  0.12593264886E+04  0.46999998093E+01 0.  1.
</event>
<event>
 5   0  0.1765328E-04  0.1912561E+04  0.7818609E-02  0.8648629E-01
        2   -1    0    0  501    0  0.00000000000E+00  0.00000000000E+00  0.15222490271E+04  0.15222490271E+04  0.25500000920E-02 0. -1.
       -2   -1    0    0    0  501  0.00000000000E+00  0.00000000000E+00 -0.60073784887E+03  0.60073784888E+03  0.25500000920E-02 0.  1.
    10030    2    1    2    0    0  0.00000000000E+00  0.00000000000E+00  0.92151117825E+03  0.21229868760E+04  0.19125612210E+04 0.  0.
        3    1    3    3  502    0  0.45066156729E+03  0.83339435663E+03  0.60476195285E+03  0.11240013486E+04  0.10100000352E+00 0. -1.
       -3    1    3    3    0  502 -0.45066156729E+03 -0.83339435663E+03  0.31674922540E+03  0.99898552737E+03  0.10100000352E+00 0.  1.
</event>
<event>
 5   0  0.8567844E-05  0.1901526E+04  0.7818609E-02  0.8654097E-01
       -1   -1    0    0    0  501  0.00000000000E+00  0.00000000000E+00  0.57459105911E+03  0.57459105913E+03  0.50400001928E-02 0. -1.
        1   -1    0    0  501    0  0.00000000000E+00  0.00000000000E+00 -0.15732070538E+04  0.15732070538E+04  0.50400001928E-02 0.  1.
    10030    2    1    2    0    0  0.00000000000E+00  0.00000000000E+00 -0.99861599472E+03  0.21477981130E+04  0.19015264471E+04 0.  0.
        4    1    3    3  502    0 -0.74477674298E+03  0.49686234633E+03 -0.86072468940E+03  0.12419392867E+04  0.12699999809E+01 0.  1.
       -4    1    3    3    0  502  0.74477674298E+03 -0.49686234633E+03 -0.13789130532E+03  0.90585882624E+03  0.12699999809E+01 0. -1.
</event>
<event>
 5   0  0.8567844E-05  0.1932716E+04  0.7818609E-02  0.8638741E-01
       -1   -1    0    0    0  501  0.00000000000E+00  0.00000000000E+00  0.12316269901E+04  0.12316269901E+04  0.50400001928E-02 0. -1.
        1   -1    0    0  501    0  0.00000000000E+00  0.00000000000E+00 -0.75822319630E+03  0.75822319632E+03  0.50400001928E-02 0.  1.
    10030    2    1    2    0    0  0.00000000000E+00  0.00000000000E+00  0.47340379381E+03  0.19898501864E+04  0.19327163818E+04 0.  0.
        4    1    3    3  502    0  0.61943110422E+03  0.72144328823E+03  0.59356458790E+02  0.95273297052E+03  0.12699999809E+01 0.  1.
       -4    1    3    3    0  502 -0.61943110422E+03 -0.72144328823E+03  0.41404733502E+03  0.10371172159E+04  0.12699999809E+01 0. -1.
</event>
<event>
 5   0  0.1765328E-04  0.1883651E+04  0.7818609E-02  0.8663037E-01
       -2   -1    0    0    0  501  0.00000000000E+00  0.00000000000E+00  0.53279096230E+03  0.53279096230E+03  0.25500000920E-02 0.  1.
        2   -1    0    0  501    0  0.00000000000E+00  0.00000000000E+00 -0.16648848718E+04  0.16648848718E+04  0.25500000920E-02 0. -1.
    10030    2    1    2    0    0  0.00000000000E+00  0.00000000000E+00 -0.11320939095E+04  0.21976758341E+04  0.18836513616E+04 0.  0.
        3    1    3    3  502    0 -0.73504440866E+03  0.52156350122E+03 -0.88496004082E+03  0.12631203634E+04  0.10100000352E+00 0. -1.
       -3    1    3    3    0  502  0.73504440866E+03 -0.52156350122E+03 -0.24713386871E+03  0.93455547068E+03  0.10100000352E+00 0.  1.
</event>
<event>
 5   0  0.8681396E-05  0.1924457E+04  0.7818609E-02  0.8642777E-01
        1   -1    0    0  501    0  0.00000000000E+00  0.00000000000E+00  0.24273492746E+04  0.24273492746E+04  0.50400001928E-02 0. -1.
       -1   -1    0    0    0  501  0.00000000000E+00  0.00000000000E+00 -0.38143834472E+03  0.38143834475E+03  0.50400001928E-02 0.  1.
    10030    2    1    2    0    0  0.00000000000E+00  0.00000000000E+00  0.20459109299E+04  0.28087876193E+04  0.19244574190E+04 0.  0.
        3    1    3    3  502    0 -0.13274070319E+03  0.81524732021E+03  0.30254312918E+03  0.87964802200E+03  0.10100000352E+00 0.  1.
       -3    1    3    3    0  502  0.13274070319E+03 -0.81524732021E+03  0.17433678007E+04  0.19291395973E+04  0.10100000352E+00 0. -1.
</event>
<event>
 5   0  0.8905646E-05  0.1896130E+04  0.7818609E-02  0.8656785E-01
       -1   -1    0    0    0  501  0.00000000000E+00  0.00000000000E+00  0.91996399707E+03  0.91996399708E+03  0.50400001928E-02 0.  1.
        1   -1    0    0  501    0  0.00000000000E+00  0.00000000000E+00 -0.97702410005E+03  0.97702410007E+03  0.50400001928E-02 0. -1.
    10030    2    1    2    0    0  0.00000000000E+00  0.00000000000E+00 -0.57060102987E+02  0.18969880971E+04  0.18961297385E+04 0.  0.
        1    1    3    3  502    0 -0.32411261171E+03  0.12854735312E+03  0.85348891548E+03  0.92196352202E+03  0.50400001928E-02 0.  1.
       -1    1    3    3    0  502  0.32411261171E+03 -0.12854735312E+03 -0.91054901846E+03  0.97502457513E+03  0.50400001928E-02 0. -1.
</event>
<event>
 5   0  0.8567844E-05  0.1915556E+04  0.7818609E-02  0.8647152E-01
       -1   -1    0    0    0  501  0.00000000000E+00  0.00000000000E+00  0.59472843632E+03  0.59472843634E+03  0.50400001928E-02 0.  1.
        1   -1    0    0  501    0  0.00000000000E+00  0.00000000000E+00 -0.15424502988E+04  0.15424502988E+04  0.50400001928E-02 0. -1.
    10030    2    1    2    0    0  0.00000000000E+00  0.00000000000E+00 -0.94772186243E+03  0.21371787351E+04  0.19155563728E+04 0.  0.
        4    1    3    3  502    0 -0.62072875455E+03  0.18322713924E+03  0.31384030988E+03  0.71928695546E+03  0.12699999809E+01 0.  1.
       -4    1    3    3    0  502  0.62072875455E+03 -0.18322713924E+03 -0.12615621723E+04  0.14178917797E+04  0.12699999809E+01 0. -1.
</event>
<event>
 5   0  0.1658711E-04  0.1963051E+04  0.7818609E-02  0.8624093E-01
        2   -1    0    0  501    0  0.00000000000E+00  0.00000000000E+00  0.82234733128E+03  0.82234733129E+03  0.25500000920E-02 0. -1.
       -2   -1    0    0    0  501  0.00000000000E+00  0.00000000000E+00 -0.11715156562E+04  0.11715156562E+04  0.25500000920E-02 0.  1.
    10030    2    1    2    0    0  0.00000000000E+00  0.00000000000E+00 -0.34916832496E+03  0.19938629875E+04  0.19630514751E+04 0.  0.
        2    1    3    3  502    0  0.23335747000E+03  0.88923511940E+02 -0.11387087769E+04  0.11657704655E+04  0.25500000920E-02 0.  1.
       -2    1    3    3    0  502 -0.23335747000E+03 -0.88923511940E+02  0.78954045191E+03  0.82809252200E+03  0.25500000920E-02 0. -1.
</event>
<event>
 5   0  0.1658711E-04  0.1880372E+04  0.7818609E-02  0.8664688E-01
        2   -1    0    0  501    0  0.00000000000E+00  0.00000000000E+00  0.12939964658E+04  0.12939964659E+04  0.25500000920E-02 0.  1.
       -2   -1    0    0    0  501  0.00000000000E+00  0.00000000000E+00 -0.68311633811E+03  0.68311633812E+03  0.25500000920E-02 0. -1.
    10030    2    1    2    0    0  0.00000000000E+00  0.00000000000E+00  0.61088012774E+03  0.19771128040E+04  0.18803724390E+04 0.  0.
        2    1    3    3  502    0 -0.89059185744E+03 -0.56699948043E+02  0.61660702610E+03  0.10846994816E+04  0.25500000920E-02 0.  1.
       -2    1    3    3    0  502  0.89059185744E+03  0.56699948043E+02 -0.57268983699E+01  0.89241332241E+03  0.25500000920E-02 0. -1.
</event>
<event>
 5   0  0.1658711E-04  0.1890959E+04  0.7818609E-02  0.8659370E-01
        2   -1    0    0  501    0  0.00000000000E+00  0.00000000000E+00  0.10793897259E+04  0.10793897259E+04  0.25500000920E-02 0. -1.
       -2   -1    0    0    0  501  0.00000000000E+00  0.00000000000E+00 -0.82818231535E+03  0.82818231536E+03  0.25500000920E-02 0.  1.
    10030    2    1    2    0    0  0.00000000000E+00  0.00000000000E+00  0.25120741051E+03  0.19075720412E+04  0.18909589973E+04 0.  0.
        2    1    3    3  502    0 -0.32827910753E+03 -0.81160422426E+03 -0.23455235121E+03  0.90635721144E+03  0.25500000920E-02 0.  1.
       -2    1    3    3    0  502  0.32827910753E+03  0.81160422426E+03  0.48575976172E+03  0.10012148298E+04  0.25500000920E-02 0. -1.
</event>
<event>
 5   0  0.8602017E-05  0.1898189E+04  0.7818609E-02  0.8655758E-01
        1   -1    0    0  501    0  0.00000000000E+00  0.00000000000E+00  0.76884143320E+03  0.76884143321E+03  0.50400001928E-02 0. -1.
       -1   -1    0    0    0  501  0.00000000000E+00  0.00000000000E+00 -0.11716074681E+04  0.11716074681E+04  0.50400001928E-02 0.  1.
    10030    2    1    2    0    0  0.00000000000E+00  0.00000000000E+00 -0.40276603486E+03  0.19404489013E+04  0.18981889947E+04 0.  0.
        2    1    3    3  502    0 -0.84851595475E+03 -0.24285188702E+03  0.15542055001E+03  0.89616511417E+03  0.25500000920E-02 0.  1.
       -2    1    3    3    0  502  0.84851595475E+03  0.24285188702E+03 -0.55818658486E+03  0.10442837871E+04  0.25500000920E-02 0. -1.
</event>
<event>
 5   0  0.8567844E-05  0.2073396E+04  0.7818609E-02  0.8573054E-01
       -1   -1    0    0    0  501  0.00000000000E+00  0.00000000000E+00  0.77102867629E+03  0.77102867631E+03  0.50400001928E-02 0.  1.
        1   -1    0    0  501    0  0.00000000000E+00  0.00000000000E+00 -0.13939074322E+04  0.13939074322E+04  0.50400001928E-02 0. -1.
    10030    2    1    2    0    0  0.00000000000E+00  0.00000000000E+00 -0.62287875588E+03  0.21649361085E+04  0.20733958641E+04 0.  0.
        4    1    3    3  502    0 -0.96108802438E+03  0.28471399197E+03 -0.58767326111E+03  0.11619439412E+04  0.12699999809E+01 0. -1.
       -4    1    3    3    0  502  0.96108802438E+03 -0.28471399197E+03 -0.35205494767E+02  0.10029921673E+04  0.12699999809E+01 0.  1.
</event>
<event>
 5   0  0.8681396E-05  0.1894427E+04  0.7818609E-02  0.8657635E-01
       -1   -1    0    0    0  501  0.00000000000E+00  0.00000000000E+00  0.14703079210E+04  0.14703079210E+04  0.50400001928E-02 0. -1.
        1   -1    0    0  501    0  0.00000000000E+00  0.00000000000E+00 -0.61022154334E+03  0.61022154337E+03  0.50400001928E-02 0.  1.
    10030    2    1    2    0    0  0.00000000000E+00  0.00000000000E+00  0.86008637769E+03  0.20805294644E+04  0.18944271628E+04 0.  0.
        3    1    3    3  502    0 -0.49350409180E+03  0.28079103427E+03 -0.40260832929E+03  0.69604839672E+03  0.10100000352E+00 0.  1.
       -3    1    3    3    0  502  0.49350409180E+03 -0.28079103427E+03  0.12626947070E+04  0.13844810677E+04  0.10100000352E+00 0. -1.
</event>
<event>
 5   0  0.1790832E-04  0.1897173E+04  0.7818609E-02  0.8656265E-01
       -2   -1    0    0    0  501  0.00000000000E+00  0.00000000000E+00  0.10292209874E+04  0.10292209874E+04  0.25500000920E-02 0.  1.
        2   -1    0    0  501    0  0.00000000000E+00  0.00000000000E+00 -0.87426945519E+03  0.87426945520E+03  0.25500000920E-02 0. -1.
    10030    2    1    2    0    0  0.00000000000E+00  0.00000000000E+00  0.15495153223E+03  0.19034904426E+04  0.18971731307E+04 0.  0.
        5    1    3    3  502    0  0.33475016470E+03 -0.43102558542E+03 -0.70096444701E+03  0.88837715753E+03  0.46999998093E+01 0. -1.
       -5    1    3    3    0  502 -0.33475016470E+03  0.43102558542E+03  0.85591597924E+03  0.10151132851E+04  0.46999998093E+01 0.  1.
</event>
<event>
 5   0  0.8567844E-05  0.1877511E+04  0.7818609E-02  0.8666132E-01
       -1   -1    0    0    0  501  0.00000000000E+00  0.00000000000E+00  0.57748608092E+03  0.57748608094E+03  0.50400001928E-02 0.  1.
        1   -1    0    0  501    0  0.00000000000E+00  0.00000000000E+00 -0.15260306624E+04  0.15260306624E+04  0.50400001928E-02 0. -1.
    10030    2    1    2    0    0  0.00000000000E+00  0.00000000000E+00 -0.94854458144E+03  0.21035167433E+04  0.18775105503E+04 0.  0.
        4    1    3    3  502    0 -0.34037453915E+03  0.51934725572E+03  0.31452570532E+03  0.69606352521E+03  0.12699999809E+01 0.  1.
       -4    1    3    3    0  502  0.34037453915E+03 -0.51934725572E+03 -0.12630702868E+04  0.14074532181E+04  0.12699999809E+01 0. -1.
</event>
<event>
 5   0  0.1790832E-04  0.1900190E+04  0.7818609E-02  0.8654762E-01
       -2   -1    0    0    0  501  0.00000000000E+00  0.00000000000E+00  0.77578854226E+03  0.77578854226E+03  0.25500000920E-02 0. -1.
        2   -1    0    0  501    0  0.00000000000E+00  0.00000000000E+00 -0.11635651854E+04  0.11635651854E+04  0.25500000920E-02 0.  1.
    10030    2    1    2    0    0  0.00000000000E+00  0.00000000000E+00 -0.38777664312E+03  0.19393537276E+04  0.19001900315E+04 0.  0.
        5    1    3    3  502    0 -0.19626528902E+03  0.31711615609E+03 -0.10857264826E+04  0.11480012218E+04  0.46999998093E+01 0.  1.
       -5    1    3    3    0  502  0.19626528902E+03 -0.31711615609E+03  0.69794983949E+03  0.79135250588E+03  0.46999998093E+01 0. -1.
</event>
<event>
 5   0  0.8567844E-05  0.1882824E+04  0.7818609E-02  0.8663454E-01
        1   -1    0    0  501    0  0.00000000000E+00  0.00000000000E+00  0.17130092498E+04  0.17130092498E+04  0.50400001928E-02 0. -1.
       -1   -1    0    0    0  501  0.00000000000E+00  0.00000000000E+00 -0.51736805584E+03  0.51736805586E+03  0.50400001928E-02 0.  1.
    10030    2    1    2    0    0  0.00000000000E+00  0.00000000000E+00  0.11956411939E+04  0.22303773056E+04  0.18828236935E+04 0.  0.
        4    1    3    3  502    0 -0.28102226166E+03 -0.88209611422E+03  0.39544051302E+03  0.10066985043E+04  0.12699999809E+01 0.  1.
       -4    1    3    3    0  502  0.28102226166E+03  0.88209611422E+03  0.80020068089E+03  0.12236788013E+04  0.12699999809E+01 0. -1.
</event>
<event>
 5   0  0.8587082E-05  0.1905543E+04  0.7818609E-02  0.8652102E-01
        1   -1    0    0  501    0  0.00000000000E+00  0.00000000000E+00  0.66199758666E+03  0.66199758668E+03  0.50400001928E-02 0. -1.
       -1   -1    0    0    0  501  0.00000000000E+00  0.00000000000E+00 -0.13712640081E+04  0.13712640081E+04  0.50400001928E-02 0.  1.
    10030    2    1    2    0    0  0.00000000000E+00  0.00000000000E+00 -0.70926642142E+03  0.20332615948E+04  0.19055429295E+04 0.  0.
        5    1    3    3  502    0 -0.10733776694E+03  0.55802562004E+03 -0.11706368273E+04  0.13012788557E+04  0.46999998093E+01 0.  1.
       -5    1    3    3    0  502  0.10733776694E+03 -0.55802562004E+03  0.46137040591E+03  0.73198273906E+03  0.46999998093E+01 0. -1.
</event>
<event>
 5   0  0.8681396E-05  0.1905868E+04  0.7818609E-02  0.8651941E-01
       -1   -1    0    0    0  501  0.00000000000E+00  0.00000000000E+00  0.63904739375E+03  0.63904739377E+03  0.50400001928E-02 0.  1.
        1   -1    0    0  501    0  0.00000000000E+00  0.00000000000E+00 -0.14209956343E+04  0.14209956343E+04  0.50400001928E-02 0. -1.
    10030    2    1    2    0    0  0.00000000000E+00  0.00000000000E+00 -0.78194824057E+03  0.20600430281E+04  0.19058683655E+04 0.  0.
        3    1    3    3  502    0  0.44063157358E+03 -0.63574542519E+03  0.21060483467E+03  0.80167501887E+03  0.10100000352E+00 0.  1.
       -3    1    3    3    0  502 -0.44063157358E+03  0.63574542519E+03 -0.99255307524E+03  0.12583680092E+04  0.10100000352E+00 0. -1.
</event>
<event>
 5   0  0.8681396E-05  0.1891963E+04  0.7818609E-02  0.8658867E-01
        1   -1    0    0  501    0  0.00000000000E+00  0.00000000000E+00  0.94083689827E+03  0.94083689829E+03  0.50400001928E-02 0.  1.
       -1   -1    0    0    0  501  0.00000000000E+00  0.00000000000E+00 -0.95115394167E+03  0.95115394168E+03  0.50400001928E-02 0. -1.
    10030    2    1    2    0    0  0.00000000000E+00  0.00000000000E+00 -0.10317043397E+02  0.18919908400E+04  0.18919627103E+04 0.  0.
        3    1    3    3  502    0 -0.46695998022E+03 -0.22565136905E+03  0.78599832925E+03  0.94168123442E+03  0.10100000352E+00 0.  1.
       -3    1    3    3    0  502  0.46695998022E+03  0.22565136905E+03 -0.79631537265E+03  0.95030960555E+03  0.10100000352E+00 0. -1.
</event>
<event>
 5   0  0.1810569E-04  0.1895864E+04  0.7818609E-02  0.8656918E-01
       -2   -1    0    0    0  501  0.00000000000E+00  0.00000000000E+00  0.90270423679E+03  0.90270423680E+03  0.25500000920E-02 0.  1.
        2   -1    0    0  501    0  0.00000000000E+00  0.00000000000E+00 -0.99542593403E+03  0.99542593403E+03  0.25500000920E-02 0. -1.
    10030    2    1    2    0    0  0.00000000000E+00  0.00000000000E+00 -0.92721697239E+02  0.18981301708E+04  0.18958641387E+04 0.  0.
        4    1    3    3  502    0 -0.39962987408E+03 -0.25527140863E+03 -0.86813790115E+03  0.98920804517E+03  0.12699999809E+01 0. -1.
       -4    1    3    3    0  502  0.39962987408E+03  0.25527140863E+03  0.77541620391E+03  0.90892212566E+03  0.12699999809E+01 0.  1.
</event>
<event>
 5   0  0.1658711E-04  0.1869104E+04  0.7818609E-02  0.8670390E-01
       -2   -1    0    0    0  501  0.00000000000E+00  0.00000000000E+00  0.92165357034E+03  0.92165357034E+03  0.25500000920E-02 0. -1.
        2   -1    0    0  501    0  0.00000000000E+00  0.00000000000E+00 -0.94763092782E+03  0.94763092783E+03  0.25500000920E-02 0.  1.
    10030    2    1    2    0    0  0.00000000000E+00  0.00000000000E+00 -0.25977357486E+02  0.18692844982E+04  0.18691039864E+04 0.  0.
        2    1    3    3  502    0 -0.75464829078E+03 -0.37661659010E+03  0.38960867832E+03  0.92904737282E+03  0.25500000920E-02 0. -1.
       -2    1    3    3    0  502  0.75464829078E+03  0.37661659010E+03 -0.41558603580E+03  0.94023712535E+03  0.25500000920E-02 0.  1.
</event>
<event>
 5   0  0.8681396E-05  0.1898866E+04  0.7818609E-02  0.8655421E-01
       -1   -1    0    0    0  501  0.00000000000E+00  0.00000000000E+00  0.38169669988E+03  0.38169669992E+03  0.50400001928E-02 0.  1.
        1   -1    0    0  501    0  0.00000000000E+00  0.00000000000E+00 -0.23616220491E+04  0.23616220491E+04  0.50400001928E-02 0. -1.
    10030    2    1    2    0    0  0.00000000000E+00  0.00000000000E+00 -0.19799253492E+04  0.27433187490E+04  0.18988663382E+04 0.  0.
        3    1    3    3  502    0  0.19838742474E+03  0.25026791913E+02  0.35093070689E+03  0.40390132687E+03  0.10100000352E+00 0.  1.
       -3    1    3    3    0  502 -0.19838742474E+03 -0.25026791913E+02 -0.23308560561E+04  0.23394174221E+04  0.10100000352E+00 0. -1.
</event>
<event>
 5   0  0.1765328E-04  0.1907979E+04  0.7818609E-02  0.8650895E-01
        2   -1    0    0  501    0  0.00000000000E+00  0.00000000000E+00  0.14408264391E+04  0.14408264391E+04  0.25500000920E-02 0. -1.
       -2   -1    0    0    0  501  0.00000000000E+00  0.00000000000E+00 -0.63164882113E+03  0.63164882114E+03  0.25500000920E-02 0.  1.
    10030    2    1    2    0    0  0.00000000000E+00  0.00000000000E+00  0.80917761800E+03  0.20724752603E+04  0.19079793728E+04 0.  0.
        3    1    3    3  502    0  0.35133081052E+03  0.35494773339E+03  0.12874849988E+04  0.13809557793E+04  0.10100000352E+00 0. -1.
       -3    1    3    3    0  502 -0.35133081052E+03 -0.35494773339E+03 -0.47830738083E+03  0.69151948101E+03  0.10100000352E+00 0.  1.
</event>
<event>
 5   0  0.8905646E-05  0.1928261E+04  0.7818609E-02  0.8640915E-01
        1   -1    0    0  501    0  0.00000000000E+00  0.00000000000E+00  0.90455892873E+03  0.90455892874E+03  0.50400001928E-02 0. -1.
       -1   -1    0    0    0  501  0.00000000000E+00  0.00000000000E+00 -0.10276256000E+04  0.10276256000E+04  0.50400001928E-02 0.  1.
    10030    2    1    2    0    0  0.00000000000E+00  0.00000000000E+00 -0.12306667123E+03  0.19321845287E+04  0.19282613016E+04 0.  0.
        1    1    3    3  502    0  0.34066664916E+03 -0.71172818222E+03  0.49361294741E+03  0.93073332007E+03  0.50400001928E-02 0. -1.
       -1    1    3    3    0  502 -0.34066664916E+03  0.71172818222E+03 -0.61667961864E+03  0.10014512086E+04  0.50400001928E-02 0.  1.
</event>
<event>
 5   0  0.8567844E-05  0.1876575E+04  0.7818609E-02  0.8666605E-01
       -1   -1    0    0    0  501  0.00000000000E+00  0.00000000000E+00  0.24345746132E+04  0.24345746132E+04  0.50400001928E-02 0. -1.
        1   -1    0    0  501    0  0.00000000000E+00  0.00000000000E+00 -0.36161690468E+03  0.36161690471E+03  0.50400001928E-02 0.  1.
    10030    2    1    2    0    0  0.00000000000E+00  0.00000000000E+00  0.20729577085E+04  0.27961915179E+04  0.18765748969E+04 0.  0.
        4    1    3    3  502    0 -0.44838459645E+03 -0.78498739591E+03  0.14108576285E+04  0.16756416141E+04  0.12699999809E+01 0. -1.
       -4    1    3    3    0  502  0.44838459645E+03  0.78498739591E+03  0.66210007997E+03  0.11205499038E+04  0.12699999809E+01 0.  1.
</event>
<event>
 5   0  0.8587082E-05  0.1756472E+04  0.7818609E-02  0.8729796E-01
        1   -1    0    0  501    0  0.00000000000E+00  0.00000000000E+00  0.44324122751E+03  0.44324122754E+03  0.50400001928E-02 0.  1.
       -1   -1    0    0    0  501  0.00000000000E+00  0.00000000000E+00 -0.17401322155E+04  0.17401322155E+04  0.50400001928E-02 0. -1.
    10030    2    1    2    0    0  0.00000000000E+00  0.00000000000E+00 -0.12968909879E+04  0.21833734430E+04  0.17564718492E+04 0.  0.
        5    1    3    3  502    0  0.80564331637E+02  0.57235704999E+03 -0.14703539564E+04  0.15798879870E+04  0.46999998093E+01 0. -1.
       -5    1    3    3    0  502 -0.80564331637E+02 -0.57235704999E+03  0.17346296849E+03  0.60348545603E+03  0.46999998093E+01 0.  1.
</event>
<event>
 5   0  0.1765328E-04  0.1903445E+04  0.7818609E-02  0.8653144E-01
        2   -1    0    0  501    0  0.00000000000E+00  0.00000000000E+00  0.89378475679E+03  0.89378475679E+03  0.25500000920E-02 0. -1.
       -2   -1    0    0    0  501  0.00000000000E+00  0.00000000000E+00 -0.10134154585E+04  0.10134154585E+04  0.25500000920E-02 0.  1.
    10030    2    1    2    0    0  0.00000000000E+00  0.00000000000E+00 -0.11963070168E+03  0.19072002153E+04  0.19034445504E+04 0.  0.
        3    1    3    3  502    0  0.82731692201E+03  0.38218282752E+03  0.21505834976E+03  0.93635842875E+03  0.10100000352E+00 0.  1.
       -3    1    3    3    0  502 -0.82731692201E+03 -0.38218282752E+03 -0.33468905144E+03  0.97084178651E+03  0.10100000352E+00 0. -1.
</event>
<event>
 5   0  0.8905646E-05  0.2206582E+04  0.7818609E-02  0.8515694E-01
       -1   -1    0    0    0  501  0.00000000000E+00  0.00000000000E+00  0.10929772103E+04  0.10929772103E+04  0.50400001928E-02 0. -1.
        1   -1    0    0  501    0  0.00000000000E+00  0.00000000000E+00 -0.11137021353E+04  0.11137021353E+04  0.50400001928E-02 0.  1.
    10030    2    1    2    0    0  0.00000000000E+00  0.00000000000E+00 -0.20724924973E+02  0.22066793456E+04  0.22065820202E+04 0.  0.
        1    1    3    3  502    0 -0.29385425328E+03 -0.39383991323E+03  0.97750237317E+03  0.10940617391E+04  0.50400001928E-02 0. -1.
       -1    1    3    3    0  502  0.29385425328E+03  0.39383991323E+03 -0.99822729815E+03  0.11126176065E+04  0.50400001928E-02 0.  1.
</event>
<event>
 5   0  0.1799738E-04  0.1891880E+04  0.7818609E-02  0.8658909E-01
        2   -1    0    0  501    0  0.00000000000E+00  0.00000000000E+00  0.66687119657E+03  0.66687119658E+03  0.25500000920E-02 0.  1.
       -2   -1    0    0    0  501  0.00000000000E+00  0.00000000000E+00 -0.13417913958E+04  0.13417913958E+04  0.25500000920E-02 0. -1.
    10030    2    1    2    0    0  0.00000000000E+00  0.00000000000E+00 -0.67492019927E+03  0.20086625924E+04  0.18918795244E+04 0.  0.
        1    1    3    3  502    0  0.12175494517E+03 -0.91028417369E+03 -0.96842109625E+02  0.92348250539E+03  0.50400001928E-02 0. -1.
       -1    1    3    3    0  502 -0.12175494517E+03  0.91028417369E+03 -0.57807808965E+03  0.10851800870E+04  0.50400001928E-02 0.  1.
</event>
<event>
 5   0  0.8567844E-05  0.1892621E+04  0.7818609E-02  0.8658538E-01
       -1   -1    0    0    0  501  0.00000000000E+00  0.00000000000E+00  0.56208797292E+03  0.56208797294E+03  0.50400001928E-02 0. -1.
        1   -1    0    0  501    0  0.00000000000E+00  0.00000000000E+00 -0.15931726168E+04  0.15931726168E+04  0.50400001928E-02 0.  1.
    10030    2    1    2    0    0  0.00000000000E+00  0.00000000000E+00 -0.10310846439E+04  0.21552605897E+04  0.18926205819E+04 0.  0.
        4    1    3    3  502    0 -0.77424502617E+03  0.50498118654E+03 -0.28484585991E+03  0.96726425351E+03  0.12699999809E+01 0.  1.
       -4    1    3    3    0  502  0.77424502617E+03 -0.50498118654E+03 -0.74623878396E+03  0.11879963362E+04  0.12699999809E+01 0. -1.
</event>
<event>
 5   0  0.8587082E-05  0.1910868E+04  0.7818609E-02  0.8649465E-01
       -1   -1    0    0    0  501  0.00000000000E+00  0.00000000000E+00  0.87981810524E+03  0.87981810526E+03  0.50400001928E-02 0.  1.
        1   -1    0    0  501    0  0.00000000000E+00  0.00000000000E+00 -0.10375491997E+04  0.10375491997E+04  0.50400001928E-02 0. -1.
    10030    2    1    2    0    0  0.00000000000E+00  0.00000000000E+00 -0.15773109447E+03  0.19173673050E+04  0.19108684633E+04 0.  0.
        5    1    3    3  502    0 -0.36829841033E+03  0.87977893144E+03 -0.13542919097E+03  0.96333682740E+03  0.46999998093E+01 0. -1.
       -5    1    3    3    0  502  0.36829841033E+03 -0.87977893144E+03 -0.22301903496E+02  0.95403047758E+03  0.46999998093E+01 0.  1.
</event>
<event>
 5   0  0.8602017E-05  0.1916422E+04  0.7818609E-02  0.8646725E-01
        1   -1    0    0  501    0  0.00000000000E+00  0.00000000000E+00  0.72550495092E+03  0.72550495093E+03  0.50400001928E-02 0. -1.
       -1   -1    0    0    0  501  0.00000000000E+00  0.00000000000E+00 -0.12655572483E+04  0.12655572483E+04  0.50400001928E-02 0.  1.
    10030    2    1    2    0    0  0.00000000000E+00  0.00000000000E+00 -0.54005229740E+03  0.19910621993E+04  0.19164217170E+04 0.  0.
        2    1    3    3  502    0  0.24560672528E+03 -0.25113095414E+03 -0.11962518636E+04  0.12467589746E+04  0.25500000920E-02 0.  1.
       -2    1    3    3    0  502 -0.24560672528E+03  0.25113095414E+03  0.65619956616E+03  0.74430322468E+03  0.25500000920E-02 0. -1.
</event>
<event>
 5   0  0.8602017E-05  0.1893669E+04  0.7818609E-02  0.8658014E-01
        1   -1    0    0  501    0  0.00000000000E+00  0.00000000000E+00  0.96058029716E+03  0.96058029717E+03  0.50400001928E-02 0.  1.
       -1   -1    0    0    0  501  0.00000000000E+00  0.00000000000E+00 -0.93328568190E+03  0.93328568192E+03  0.50400001928E-02 0. -1.
    10030    2    1    2    0    0  0.00000000000E+00  0.00000000000E+00  0.27294615253E+02  0.18938659791E+04  0.18936692823E+04 0.  0.
        2    1    3    3  502    0 -0.27865491997E+03 -0.65026223644E+03 -0.61570836947E+03  0.93786264283E+03  0.25500000920E-02 0. -1.
       -2    1    3    3    0  502  0.27865491997E+03  0.65026223644E+03  0.64300298472E+03  0.95600333626E+03  0.25500000920E-02 0.  1.
</event>
<event>
 5   0  0.8587082E-05  0.1900457E+04  0.7818609E-02  0.8654629E-01
       -1   -1    0    0    0  501  0.00000000000E+00  0.00000000000E+00  0.52542005485E+03  0.52542005487E+03  0.50400001928E-02 0.  1.
        1   -1    0    0  501    0  0.00000000000E+00  0.00000000000E+00 -0.17184989238E+04  0.17184989238E+04  0.50400001928E-02 0. -1.
    10030    2    1    2    0    0  0.00000000000E+00  0.00000000000E+00 -0.11930788689E+04  0.22439189787E+04  0.19004565755E+04 0.  0.
        5    1    3    3  502    0  0.30522196950E+03  0.89903814693E+03 -0.64198847810E+03  0.11461244855E+04  0.46999998093E+01 0. -1.
       -5    1    3    3    0  502 -0.30522196950E+03 -0.89903814693E+03 -0.55109039082E+03  0.10977944931E+04  0.46999998093E+01 0.  1.
</event>
<event>
 5   0  0.1658711E-04  0.1902516E+04  0.7818609E-02  0.8653605E-01
        2   -1    0    0  501    0  0.00000000000E+00  0.00000000000E+00  0.61505020531E+03  0.61505020531E+03  0.25500000920E-02 0.  1.
       -2   -1    0    0    0  501  0.00000000000E+00  0.00000000000E+00 -0.14712489583E+04  0.14712489583E+04  0.25500000920E-02 0. -1.
    10030    2    1    2    0    0  0.00000000000E+00  0.00000000000E+00 -0.85619875300E+03  0.20862991636E+04  0.19025162011E+04 0.  0.
        2    1    3    3  502    0  0.94580876936E+03  0.11324254754E+01 -0.31660981603E+03  0.99739525074E+03  0.25500000920E-02 0. -1.
       -2    1    3    3    0  502 -0.94580876936E+03 -0.11324254754E+01 -0.53958893697E+03  0.10889039129E+04  0.25500000920E-02 0.  1.
</event>
<event>
 5   0  0.8905646E-05  0.1915061E+04  0.7818609E-02  0.8647396E-01
        1   -1    0    0  501    0  0.00000000000E+00  0.00000000000E+00  0.80256112767E+03  0.80256112769E+03  0.50400001928E-02 0. -1.
       -1   -1    0    0    0  501  0.00000000000E+00  0.00000000000E+00 -0.11424232371E+04  0.11424232371E+04  0.50400001928E-02 0.  1.
    10030    2    1    2    0    0  0.00000000000E+00  0.00000000000E+00 -0.33986210942E+03  0.19449843648E+04  0.19150608152E+04 0.  0.
        1    1    3    3  502    0 -0.98300051370E+02  0.31463073598E+03  0.74312072517E+03  0.81294760737E+03  0.50400001928E-02 0. -1.
       -1    1    3    3    0  502  0.98300051370E+02 -0.31463073598E+03 -0.10829828346E+04  0.11320367574E+04  0.50400001928E-02 0.  1.
</event>
<event>
 5   0  0.8905646E-05  0.1885316E+04  0.7818609E-02  0.8662200E-01
        1   -1    0    0  501    0  0.00000000000E+00  0.00000000000E+00  0.19864482794E+04  0.19864482794E+04  0.50400001928E-02 0. -1.
       -1   -1    0    0    0  501  0.00000000000E+00  0.00000000000E+00 -0.44733315341E+03  0.44733315344E+03  0.50400001928E-02 0.  1.
    10030    2    1    2    0    0  0.00000000000E+00  0.00000000000E+00  0.15391151260E+04  0.24337814329E+04  0.18853160721E+04 0.  0.
        1    1    3    3  502    0  0.65470635622E+02  0.84066229236E+02  0.19786492913E+04  0.19815162258E+04  0.50400001928E-02 0. -1.
       -1    1    3    3    0  502 -0.65470635622E+02 -0.84066229236E+02 -0.43953416531E+03  0.45226520707E+03  0.50400001928E-02 0.  1.
</event>
<event>
 5   0  0.8905646E-05  0.1887582E+04  0.7818609E-02  0.8661062E-01
       -1   -1    0    0    0  501  0.00000000000E+00  0.00000000000E+00  0.68646516850E+03  0.68646516852E+03  0.50400001928E-02 0. -1.
        1   -1    0    0  501    0  0.00000000000E+00  0.00000000000E+00 -0.12975771750E+04  0.12975771751E+04  0.50400001928E-02 0.  1.
    10030    2    1    2    0    0  0.00000000000E+00  0.00000000000E+00 -0.61111200655E+03  0.19840423436E+04  0.18875820874E+04 0.  0.
        1    1    3    3  502    0  0.67372390405E+03  0.65999801112E+03 -0.26853897478E+03  0.98061942392E+03  0.50400001928E-02 0. -1.
       -1    1    3    3    0  502 -0.67372390405E+03 -0.65999801112E+03 -0.34257303177E+03  0.10034229197E+04  0.50400001928E-02 0.  1.
</event>
<event>
 5   0  0.1810569E-04  0.1904137E+04  0.7818609E-02  0.8652800E-01
        2   -1    0    0  501    0  0.00000000000E+00  0.00000000000E+00  0.78361082960E+03  0.78361082960E+03  0.25500000920E-02 0.  1.
       -2   -1    0    0    0  501  0.00000000000E+00  0.00000000000E+00 -0.11567401138E+04  0.11567401138E+04  0.25500000920E-02 0. -1.
    10030    2    1    2    0    0  0.00000000000E+00  0.00000000000E+00 -0.37312928419E+03  0.19403509434E+04  0.19041366340E+04 0.  0.
        4    1    3    3  502    0  0.91160323972E+03 -0.21135393308E+03 -0.78974487863E+01  0.93581778904E+03  0.12699999809E+01 0.  1.
       -4    1    3    3    0  502 -0.91160323972E+03  0.21135393308E+03 -0.36523183540E+03  0.10045331543E+04  0.12699999809E+01 0. -1.
</event>
<event>
 5   0  0.8681396E-05  0.1885320E+04  0.7818609E-02  0.8662198E-01
        1   -1    0    0  501    0  0.00000000000E+00  0.00000000000E+00  0.14855802389E+04  0.14855802389E+04  0.50400001928E-02 0. -1.
       -1   -1    0    0    0  501  0.00000000000E+00  0.00000000000E+00 -0.59815516850E+03  0.59815516852E+03  0.50400001928E-02 0.  1.
    10030    2    1    2    0    0  0.00000000000E+00  0.00000000000E+00  0.88742507040E+03  0.20837354074E+04  0.18853195996E+04 0.  0.
        3    1    3    3  502    0  0.41628124826E+03  0.32696462580E+03 -0.41838481817E+03  0.67471609619E+03  0.10100000352E+00 0.  1.
       -3    1    3    3    0  502 -0.41628124826E+03 -0.32696462580E+03  0.13058098886E+04  0.14090193112E+04  0.10100000352E+00 0. -1.
</event>
<event>
 5   0  0.1810569E-04  0.1914885E+04  0.7818609E-02  0.8647482E-01
       -2   -1    0    0    0  501  0.00000000000E+00  0.00000000000E+00  0.14058975983E+04  0.14058975983E+04  0.25500000920E-02 0. -1.
        2   -1    0    0  501    0  0.00000000000E+00  0.00000000000E+00 -0.65203651795E+03  0.65203651795E+03  0.25500000920E-02 0.  1.
    10030    2    1    2    0    0  0.00000000000E+00  0.00000000000E+00  0.75386108032E+03  0.20579341162E+04  0.19148854530E+04 0.  0.
        4    1    3    3  502    0 -0.72937216649E+02 -0.95162145856E+03  0.45871910455E+03  0.10589277916E+04  0.12699999809E+01 0. -1.
       -4    1    3    3    0  502  0.72937216649E+02  0.95162145856E+03  0.29514197577E+03  0.99900632466E+03  0.12699999809E+01 0.  1.
</event>
<event>
 5   0  0.1765328E-04  0.1902428E+04  0.7818609E-02  0.8653649E-01
       -2   -1    0    0    0  501  0.00000000000E+00  0.00000000000E+00  0.84687030583E+03  0.84687030583E+03  0.25500000920E-02 0. -1.
        2   -1    0    0  501    0  0.00000000000E+00  0.00000000000E+00 -0.10684139177E+04  0.10684139177E+04  0.25500000920E-02 0.  1.
    10030    2    1    2    0    0  0.00000000000E+00  0.00000000000E+00 -0.22154361192E+03  0.19152842236E+04  0.19024279448E+04 0.  0.
        3    1    3    3  502    0 -0.82248505087E+03  0.25590954565E+03 -0.51702903601E+03  0.10046344553E+04  0.10100000352E+00 0. -1.
       -3    1    3    3    0  502  0.82248505087E+03 -0.25590954565E+03  0.29548542409E+03  0.91064976830E+03  0.10100000352E+00 0.  1.
</event>
<event>
 5   0  0.1799738E-04  0.1884125E+04  0.7818609E-02  0.8662799E-01
       -2   -1    0    0    0  501  0.00000000000E+00  0.00000000000E+00  0.12486629409E+04  0.12486629409E+04  0.25500000920E-02 0. -1.
        2   -1    0    0  501    0  0.00000000000E+00  0.00000000000E+00 -0.71074588845E+03  0.71074588846E+03  0.25500000920E-02 0.  1.
    10030    2    1    2    0    0  0.00000000000E+00  0.00000000000E+00  0.53791705243E+03  0.19594088293E+04  0.18841253157E+04 0.  0.
        1    1    3    3  502    0  0.23909743531E+03  0.29263480386E+03  0.11663871722E+04  0.12260757512E+04  0.50400001928E-02 0. -1.
       -1    1    3    3    0  502 -0.23909743531E+03 -0.29263480386E+03 -0.62847011982E+03  0.73333307817E+03  0.50400001928E-02 0.  1.
</event>
<event>
 5   0  0.1810569E-04  0.1909609E+04  0.7818609E-02  0.8650088E-01
       -2   -1    0    0    0  501  0.00000000000E+00  0.00000000000E+00  0.88275181640E+03  0.88275181641E+03  0.25500000920E-02 0. -1.
        2   -1    0    0  501    0  0.00000000000E+00  0.00000000000E+00 -0.10327388501E+04  0.10327388502E+04  0.25500000920E-02 0.  1.
    10030    2    1    2    0    0  0.00000000000E+00  0.00000000000E+00 -0.14998703374E+03  0.19154906666E+04  0.19096094845E+04 0.  0.
        4    1    3    3  502    0  0.65565057454E+03  0.91038870502E+02 -0.76521499017E+03  0.10117911573E+04  0.12699999809E+01 0.  1.
       -4    1    3    3    0  502 -0.65565057454E+03 -0.91038870502E+02  0.61522795642E+03  0.90369950929E+03  0.12699999809E+01 0. -1.
</event>
<event>
 5   0  0.8681396E-05  0.1893468E+04  0.7818609E-02  0.8658115E-01
       -1   -1    0    0    0  501  0.00000000000E+00  0.00000000000E+00  0.77173047954E+03  0.77173047955E+03  0.50400001928E-02 0. -1.
        1   -1    0    0  501    0  0.00000000000E+00  0.00000000000E+00 -0.11614228696E+04  0.11614228696E+04  0.50400001928E-02 0.  1.
    10030    2    1    2    0    0  0.00000000000E+00  0.00000000000E+00 -0.38969239010E+03  0.19331533492E+04  0.18934681705E+04 0.  0.
        3    1    3    3  502    0  0.52114251691E+03  0.10525819515E+03  0.60492162820E+03  0.80535644099E+03  0.10100000352E+00 0. -1.
       -3    1    3    3    0  502 -0.52114251691E+03 -0.10525819515E+03 -0.99461401830E+03  0.11277969082E+04  0.10100000352E+00 0.  1.
</event>
<event>
 5   0  0.1765328E-04  0.1848985E+04  0.7818609E-02  0.8680675E-01
       -2   -1    0    0    0  501  0.00000000000E+00  0.00000000000E+00  0.10550634664E+04  0.10550634664E+04  0.25500000920E-02 0. -1.
        2   -1    0    0  501    0  0.00000000000E+00  0.00000000000E+00 -0.81008064588E+03  0.81008064589E+03  0.25500000920E-02 0.  1.
    10030    2    1    2    0    0  0.00000000000E+00  0.00000000000E+00  0.24498282049E+03  0.18651441123E+04  0.18489851209E+04 0.  0.
        3    1    3    3  502    0  0.34181673732E+02  0.11148254775E+03  0.10476158297E+04  0.10540852347E+04  0.10100000352E+00 0. -1.
       -3    1    3    3    0  502 -0.34181673732E+02 -0.11148254775E+03 -0.80263300916E+03  0.81105887756E+03  0.10100000352E+00 0.  1.
</event>
<event>
 5   0  0.8681396E-05  0.1895509E+04  0.7818609E-02  0.8657095E-01
        1   -1    0    0  501    0  0.00000000000E+00  0.00000000000E+00  0.94102620762E+03  0.94102620764E+03  0.50400001928E-02 0.  1.
       -1   -1    0    0    0  501  0.00000000000E+00  0.00000000000E+00 -0.95453098528E+03  0.95453098529E+03  0.50400001928E-02 0. -1.
    10030    2    1    2    0    0  0.00000000000E+00  0.00000000000E+00 -0.13504777650E+02  0.18955571929E+04  0.18955090853E+04 0.  0.
        3    1    3    3  502    0  0.71405935406E+03 -0.21542008442E+02 -0.62957943807E+03  0.95221588849E+03  0.10100000352E+00 0. -1.
       -3    1    3    3    0  502 -0.71405935406E+03  0.21542008442E+02  0.61607466042E+03  0.94334130444E+03  0.10100000352E+00 0.  1.
</event>
<event>
 5   0  0.1810569E-04  0.1902938E+04  0.7818609E-02  0.8653395E-01
        2   -1    0    0  501    0  0.00000000000E+00  0.00000000000E+00  0.17662828889E+04  0.17662828889E+04  0.25500000920E-02 0.  1.
       -2   -1    0    0    0  501  0.00000000000E+00  0.00000000000E+00 -0.51254159953E+03  0.51254159953E+03  0.25500000920E-02 0. -1.
    10030    2    1    2    0    0  0.00000000000E+00  0.00000000000E+00  0.12537412894E+04  0.22788244885E+04  0.19029382093E+04 0.  0.
        4    1    3    3  502    0 -0.77818636558E+03  0.37798489512E+03  0.11011365100E+04  0.14003391829E+04  0.12699999809E+01 0.  1.
       -4    1    3    3    0  502  0.77818636558E+03 -0.37798489512E+03  0.15260477936E+03  0.87848530556E+03  0.12699999809E+01 0. -1.
</event>
<event>
 5   0  0.1658711E-04  0.1885344E+04  0.7818609E-02  0.8662186E-01
        2   -1    0    0  501    0  0.00000000000E+00  0.00000000000E+00  0.18740854934E+04  0.18740854934E+04  0.25500000920E-02 0. -1.
       -2   -1    0    0    0  501  0.00000000000E+00  0.00000000000E+00 -0.47416741875E+03  0.47416741876E+03  0.25500000920E-02 0.  1.
    10030    2    1    2    0    0  0.00000000000E+00  0.00000000000E+00  0.13999180746E+04  0.23482529122E+04  0.18853437680E+04 0.  0.
        2    1    3    3  502    0  0.31312611213E+03 -0.32464802675E+03 -0.33104069633E+03  0.55949284714E+03  0.25500000920E-02 0.  1.
       -2    1    3    3    0  502 -0.31312611213E+03  0.32464802675E+03  0.17309587710E+04  0.17887600650E+04  0.25500000920E-02 0. -1.
</event>
<event>
 5   0  0.1799738E-04  0.1912383E+04  0.7818609E-02  0.8648717E-01
       -2   -1    0    0    0  501  0.00000000000E+00  0.00000000000E+00  0.60671413658E+03  0.60671413659E+03  0.25500000920E-02 0. -1.
        2   -1    0    0  501    0  0.00000000000E+00  0.00000000000E+00 -0.15069739282E+04  0.15069739282E+04  0.25500000920E-02 0.  1.
    10030    2    1    2    0    0  0.00000000000E+00  0.00000000000E+00 -0.90025979165E+03  0.21136880648E+04  0.19123832103E+04 0.  0.
        1    1    3    3  502    0  0.34769208074E+03  0.11464606488E+03  0.52618095616E+03  0.64101474387E+03  0.50400001928E-02 0. -1.
       -1    1    3    3    0  502 -0.34769208074E+03 -0.11464606488E+03 -0.14264407478E+04  0.14726733210E+04  0.50400001928E-02 0.  1.
</event>
<event>
 5   0  0.1765328E-04  0.1892862E+04  0.7818609E-02  0.8658418E-01
       -2   -1    0    0    0  501  0.00000000000E+00  0.00000000000E+00  0.68029042928E+03  0.68029042928E+03  0.25500000920E-02 0.  1.
        2   -1    0    0  501    0  0.00000000000E+00  0.00000000000E+00 -0.13166901438E+04  0.13166901438E+04  0.25500000920E-02 0. -1.
    10030    2    1    2    0    0  0.00000000000E+00  0.00000000000E+00 -0.63639971457E+03  0.19969805731E+04  0.18928620691E+04 0.  0.
        3    1    3    3  502    0 -0.67393270654E+03 -0.66118214483E+03 -0.38805822678E+03  0.10207528198E+04  0.10100000352E+00 0.  1.
       -3    1    3    3    0  502  0.67393270654E+03  0.66118214483E+03 -0.24834148779E+03  0.97622775331E+03  0.10100000352E+00 0. -1.
</event>
<event>
 5   0  0.1658711E-04  0.1886531E+04  0.7818609E-02  0.8661590E-01
       -2   -1    0    0    0  501  0.00000000000E+00  0.00000000000E+00  0.65594537523E+03  0.65594537524E+03  0.25500000920E-02 0.  1.
        2   -1    0    0  501    0  0.00000000000E+00  0.00000000000E+00 -0.13564393283E+04  0.13564393283E+04  0.25500000920E-02 0. -1.
    10030    2    1    2    0    0  0.00000000000E+00  0.00000000000E+00 -0.70049395307E+03  0.20123847035E+04  0.18865313188E+04 0.  0.
        2    1    3    3  502    0  0.93615128335E+03 -0.10986396225E+03 -0.31177448067E+03  0.99280040407E+03  0.25500000920E-02 0. -1.
       -2    1    3    3    0  502 -0.93615128335E+03  0.10986396225E+03 -0.38871947240E+03  0.10195842995E+04  0.25500000920E-02 0.  1.
</event>
<event>
 5   0  0.8602017E-05  0.1910672E+04  0.7818609E-02  0.8649562E-01
        1   -1    0    0  501    0  0.00000000000E+00  0.00000000000E+00  0.69894023774E+03  0.69894023776E+03  0.50400001928E-02 0. -1.
       -1   -1    0    0    0  501  0.00000000000E+00  0.00000000000E+00 -0.13057871419E+04  0.13057871419E+04  0.50400001928E-02 0.  1.
    10030    2    1    2    0    0  0.00000000000E+00  0.00000000000E+00 -0.60684690412E+03  0.20047273796E+04  0.19106723166E+04 0.  0.
        2    1    3    3  502    0 -0.47172899191E+03 -0.82877582652E+03 -0.24342860335E+03  0.98420277249E+03  0.25500000920E-02 0.  1.
       -2    1    3    3    0  502  0.47172899191E+03  0.82877582652E+03 -0.36341830076E+03  0.10205246071E+04  0.25500000920E-02 0. -1.
</event>
<event>
 5   0  0.8602017E-05  0.1895134E+04  0.7818609E-02  0.8657282E-01
       -1   -1    0    0    0  501  0.00000000000E+00  0.00000000000E+00  0.49277130036E+03  0.49277130038E+03  0.50400001928E-02 0. -1.
        1   -1    0    0  501    0  0.00000000000E+00  0.00000000000E+00 -0.18221099746E+04  0.18221099746E+04  0.50400001928E-02 0.  1.
    10030    2    1    2    0    0  0.00000000000E+00  0.00000000000E+00 -0.13293386743E+04  0.23148812750E+04  0.18951342978E+04 0.  0.
        2    1    3    3  502    0  0.93931538894E+02 -0.86762515182E+03 -0.21373231939E+03  0.89848652880E+03  0.25500000920E-02 0. -1.
       -2    1    3    3    0  502 -0.93931538894E+02  0.86762515182E+03 -0.11156063549E+04  0.14163947462E+04  0.25500000920E-02 0.  1.
</event>
<event>
 5   0  0.8567844E-05  0.1874915E+04  0.7818609E-02  0.8667444E-01
       -1   -1    0    0    0  501  0.00000000000E+00  0.00000000000E+00  0.78532975364E+03  0.78532975366E+03  0.50400001928E-02 0. -1.
        1   -1    0    0  501    0  0.00000000000E+00  0.00000000000E+00 -0.11190543826E+04  0.11190543827E+04  0.50400001928E-02 0.  1.
    10030    2    1    2    0    0  0.00000000000E+00  0.00000000000E+00 -0.33372462900E+03  0.19043841363E+04  0.18749151476E+04 0.  0.
        4    1    3    3  502    0  0.43699902010E+03  0.72632298519E+02 -0.10060327840E+04  0.10992484568E+04  0.12699999809E+01 0.  1.
       -4    1    3    3    0  502 -0.43699902010E+03 -0.72632298519E+02  0.67230815497E+03  0.80513567956E+03  0.12699999809E+01 0. -1.
</event>
<event>
 5   0  0.8587082E-05  0.1863144E+04  0.7818609E-02  0.8673422E-01
       -1   -1    0    0    0  501  0.00000000000E+00  0.00000000000E+00  0.90922606571E+03  0.90922606573E+03  0.50400001928E-02 0.  1.
        1   -1    0    0  501    0  0.00000000000E+00  0.00000000000E+00 -0.95446756611E+03  0.95446756612E+03  0.50400001928E-02 0. -1.
    10030    2    1    2    0    0  0.00000000000E+00  0.00000000000E+00 -0.45241500395E+02  0.18636936319E+04  0.18631444281E+04 0.  0.
        5    1    3    3  502    0 -0.72043606020E+03 -0.58955547339E+03 -0.57285358523E+02  0.93268830557E+03  0.46999998093E+01 0.  1.
       -5    1    3    3    0  502  0.72043606020E+03  0.58955547339E+03  0.12043858128E+02  0.93100532628E+03  0.46999998093E+01 0. -1.
</event>
<event>
 5   0  0.8587082E-05  0.1896506E+04  0.7818609E-02  0.8656597E-01
       -1   -1    0    0    0  501  0.00000000000E+00  0.00000000000E+00  0.95443717043E+03  0.95443717045E+03  0.50400001928E-02 0. -1.
        1   -1    0    0  501    0  0.00000000000E+00  0.00000000000E+00 -0.94210917708E+03  0.94210917709E+03  0.50400001928E-02 0.  1.
    10030    2    1    2    0    0  0.00000000000E+00  0.00000000000E+00  0.12327993353E+02  0.18965463475E+04  0.18965062797E+04 0.  0.
        5    1    3    3  502    0  0.50434981496E+03  0.79646642680E+03 -0.95987181881E+02  0.94760916730E+03  0.46999998093E+01 0. -1.
       -5    1    3    3    0  502 -0.50434981496E+03 -0.79646642680E+03  0.10831517523E+03  0.94893718024E+03  0.46999998093E+01 0.  1.
</event>
<event>
 5   0  0.1765328E-04  0.1904860E+04  0.7818609E-02  0.8652441E-01
       -2   -1    0    0    0  501  0.00000000000E+00  0.00000000000E+00  0.58137064665E+03  0.58137064665E+03  0.25500000920E-02 0. -1.
        2   -1    0    0  501    0  0.00000000000E+00  0.00000000000E+00 -0.15603184971E+04  0.15603184971E+04  0.25500000920E-02 0.  1.
    10030    2    1    2    0    0  0.00000000000E+00  0.00000000000E+00 -0.97894785049E+03  0.21416891438E+04  0.19048604922E+04 0.  0.
        3    1    3    3  502    0  0.64698430010E+03 -0.20321381249E+03  0.26243113900E+03  0.72715517675E+03  0.10100000352E+00 0. -1.
       -3    1    3    3    0  502 -0.64698430010E+03  0.20321381249E+03 -0.12413789895E+04  0.14145339670E+04  0.10100000352E+00 0.  1.
</event>
<event>
 5   0  0.1765328E-04  0.1981006E+04  0.7818609E-02  0.8615553E-01
        2   -1    0    0  501    0  0.00000000000E+00  0.00000000000E+00  0.62828537049E+03  0.62828537050E+03  0.25500000920E-02 0. -1.
       -2   -1    0    0    0  501  0.00000000000E+00  0.00000000000E+00 -0.15615461778E+04  0.15615461778E+04  0.25500000920E-02 0.  1.
    10030    2    1    2    0    0  0.00000000000E+00  0.00000000000E+00 -0.93326080729E+03  0.21898315483E+04  0.19810064299E+04 0.  0.
        3    1    3    3  502    0  0.24737882637E+03  0.46601534279E+03  0.46002673977E+03  0.69999371065E+03  0.10100000352E+00 0. -1.
       -3    1    3    3    0  502 -0.24737882637E+03 -0.46601534279E+03 -0.13932875471E+04  0.14898378376E+04  0.10100000352E+00 0.  1.
</event>
<event>
 5   0  0.8587082E-05  0.1901353E+04  0.7818609E-02  0.8654183E-01
       -1   -1    0    0    0  501  0.00000000000E+00  0.00000000000E+00  0.60077728879E+03  0.60077728881E+03  0.50400001928E-02 0.  1.
        1   -1    0    0  501    0  0.00000000000E+00  0.00000000000E+00 -0.15043607362E+04  0.15043607362E+04  0.50400001928E-02 0. -1.
    10030    2    1    2    0    0  0.00000000000E+00  0.00000000000E+00 -0.90358344739E+03  0.21051380250E+04  0.19013529546E+04 0.  0.
        5    1    3    3  502    0 -0.82682016339E+03  0.30723956864E+03 -0.59194207752E+02  0.88405530333E+03  0.46999998093E+01 0.  1.
       -5    1    3    3    0  502  0.82682016339E+03 -0.30723956864E+03 -0.84438923964E+03  0.12210827217E+04  0.46999998093E+01 0. -1.
</event>
<event>
 5   0  0.1799738E-04  0.1913860E+04  0.7818609E-02  0.8647988E-01
       -2   -1    0    0    0  501  0.00000000000E+00  0.00000000000E+00  0.75179154678E+03  0.75179154678E+03  0.25500000920E-02 0. -1.
        2   -1    0    0  501    0  0.00000000000E+00  0.00000000000E+00 -0.12180431832E+04  0.12180431832E+04  0.25500000920E-02 0.  1.
    10030    2    1    2    0    0  0.00000000000E+00  0.00000000000E+00 -0.46625163642E+03  0.19698347300E+04  0.19138595233E+04 0.  0.
        1    1    3    3  502    0  0.37409293326E+03  0.73256884126E+03 -0.73641820749E+03  0.11040445671E+04  0.50400001928E-02 0.  1.
       -1    1    3    3    0  502 -0.37409293326E+03 -0.73256884126E+03  0.27016657107E+03  0.86579016283E+03  0.50400001928E-02 0. -1.
</event>
<event>
 5   0  0.8602017E-05  0.1917238E+04  0.7818609E-02  0.8646323E-01
       -1   -1    0    0    0  501  0.00000000000E+00  0.00000000000E+00  0.98974953935E+03  0.98974953936E+03  0.50400001928E-02 0.  1.
        1   -1    0    0  501    0  0.00000000000E+00  0.00000000000E+00 -0.92846752631E+03  0.92846752633E+03  0.50400001928E-02 0. -1.
    10030    2    1    2    0    0  0.00000000000E+00  0.00000000000E+00  0.61282013039E+02  0.19182170657E+04  0.19172379159E+04 0.  0.
        2    1    3    3  502    0 -0.41934149920E+03 -0.40010981671E+03  0.79458524653E+03  0.98351455118E+03  0.25500000920E-02 0.  1.
       -2    1    3    3    0  502  0.41934149920E+03  0.40010981671E+03 -0.73330323349E+03  0.93470251451E+03  0.25500000920E-02 0. -1.
</event>
<event>
 5   0  0.1765328E-04  0.1765278E+04  0.7818609E-02  0.8724985E-01
       -2   -1    0    0    0  501  0.00000000000E+00  0.00000000000E+00  0.38390724903E+03  0.38390724904E+03  0.25500000920E-02 0.  1.
        2   -1    0    0  501    0  0.00000000000E+00  0.00000000000E+00 -0.20292704135E+04  0.20292704135E+04  0.25500000920E-02 0. -1.
    10030    2    1    2    0    0  0.00000000000E+00  0.00000000000E+00 -0.16453631645E+04  0.24131776626E+04  0.17652780200E+04 0.  0.
        3    1    3    3  502    0  0.34918270690E+03 -0.80950534299E+03 -0.76429590780E+03  0.11667800598E+04  0.10100000352E+00 0.  1.
       -3    1    3    3    0  502 -0.34918270690E+03  0.80950534299E+03 -0.88106725671E+03  0.12463976028E+04  0.10100000352E+00 0. -1.
</event>
<event>
 5   0  0.1810569E-04  0.1904636E+04  0.7818609E-02  0.8652552E-01
        2   -1    0    0  501    0  0.00000000000E+00  0.00000000000E+00  0.15481691628E+04  0.15481691628E+04  0.25500000920E-02 0. -1.
       -2   -1    0    0    0  501  0.00000000000E+00  0.00000000000E+00 -0.58579488198E+03  0.58579488198E+03  0.25500000920E-02 0.  1.
    10030    2    1    2    0    0  0.00000000000E+00  0.00000000000E+00  0.96237428078E+03  0.21339640447E+04  0.19046359988E+04 0.  0.
        4    1    3    3  502    0 -0.73133626047E+03 -0.16521723149E+03  0.11390458066E+04  0.13636628696E+04  0.12699999809E+01 0. -1.
       -4    1    3    3    0  502  0.73133626047E+03  0.16521723149E+03 -0.17667152584E+03  0.77030117513E+03  0.12699999809E+01 0.  1.
</event>
<event>
 5   0  0.1790832E-04  0.1894160E+04  0.7818609E-02  0.8657769E-01
        2   -1    0    0  501    0  0.00000000000E+00  0.00000000000E+00  0.10766621058E+04  0.10766621058E+04  0.25500000920E-02 0.  1.
       -2   -1    0    0    0  501  0.00000000000E+00  0.00000000000E+00 -0.83309359117E+03  0.83309359117E+03  0.25500000920E-02 0. -1.
    10030    2    1    2    0    0  0.00000000000E+00  0.00000000000E+00  0.24356851465E+03  0.19097556970E+04  0.18941597612E+04 0.  0.
        5    1    3    3  502    0 -0.54900611745E+03 -0.42061577918E+03  0.77411446588E+03  0.10380754534E+04  0.46999998093E+01 0.  1.
       -5    1    3    3    0  502  0.54900611745E+03  0.42061577918E+03 -0.53054595123E+03  0.87168024359E+03  0.46999998093E+01 0. -1.
</event>
<event>
 5   0  0.8905646E-05  0.1903794E+04  0.7818609E-02  0.8652970E-01
        1   -1    0    0  501    0  0.00000000000E+00  0.00000000000E+00  0.13782499759E+04  0.13782499759E+04  0.50400001928E-02 0.  1.
       -1   -1    0    0    0  501  0.00000000000E+00  0.00000000000E+00 -0.65743334412E+03  0.65743334414E+03  0.50400001928E-02 0. -1.
    10030    2    1    2    0    0  0.00000000000E+00  0.00000000000E+00  0.72081663175E+03  0.20356833200E+04  0.19037935715E+04 0.  0.
        1    1    3    3  502    0  0.56780671337E+03 -0.76190378435E+03  0.29986747681E+03  0.99640470896E+03  0.50400001928E-02 0.  1.
       -1    1    3    3    0  502 -0.56780671337E+03  0.76190378435E+03  0.42094915494E+03  0.10392786111E+04  0.50400001928E-02 0. -1.
</event>
<event>
 5   0  0.8681396E-05  0.1894612E+04  0.7818609E-02  0.8657543E-01
       -1   -1    0    0    0  501  0.00000000000E+00  0.00000000000E+00  0.98528777356E+03  0.98528777357E+03  0.50400001928E-02 0.  1.
        1   -1    0    0  501    0  0.00000000000E+00  0.00000000000E+00 -0.91078817990E+03  0.91078817991E+03  0.50400001928E-02 0. -1.
    10030    2    1    2    0    0  0.00000000000E+00  0.00000000000E+00  0.74499593660E+02  0.18960759535E+04  0.18946117892E+04 0.  0.
        3    1    3    3  502    0 -0.44078398237E+03  0.59087685092E+03  0.63265703107E+03  0.97143239664E+03  0.10100000352E+00 0.  1.
       -3    1    3    3    0  502  0.44078398237E+03 -0.59087685092E+03 -0.55815743741E+03  0.92464355684E+03  0.10100000352E+00 0. -1.
</event>
<event>
 5   0  0.8567844E-05  0.1890613E+04  0.7818609E-02  0.8659543E-01
       -1   -1    0    0    0  501  0.00000000000E+00  0.00000000000E+00  0.80343991594E+03  0.80343991596E+03  0.50400001928E-02 0. -1.
        1   -1    0    0  501    0  0.00000000000E+00  0.00000000000E+00 -0.11122232282E+04  0.11122232282E+04  0.50400001928E-02 0.  1.
    10030    2    1    2    0    0  0.00000000000E+00  0.00000000000E+00 -0.30878331221E+03  0.19156631441E+04  0.18906131672E+04 0.  0.
        4    1    3    3  502    0 -0.36222521442E+03  0.55122097257E+03  0.53174466561E+03  0.84723412872E+03  0.12699999809E+01 0. -1.
       -4    1    3    3    0  502  0.36222521442E+03 -0.55122097257E+03 -0.84052797782E+03  0.10684290154E+04  0.12699999809E+01 0.  1.
</event>
<event>
 5   0  0.8587082E-05  0.1539379E+04  0.7818609E-02  0.8858681E-01
        1   -1    0    0  501    0  0.00000000000E+00  0.00000000000E+00  0.78601967883E+03  0.78601967885E+03  0.50400001928E-02 0.  1.
       -1   -1    0    0    0  501  0.00000000000E+00  0.00000000000E+00 -0.75369818999E+03  0.75369819001E+03  0.50400001928E-02 0. -1.
    10030    2    1    2    0    0  0.00000000000E+00  0.00000000000E+00  0.32321488840E+02  0.15397178689E+04  0.15393785879E+04 0.  0.
        5    1    3    3  502    0  0.30584237008E+03  0.65058033916E+03  0.29118531942E+03  0.77563220232E+03  0.46999998093E+01 0.  1.
       -5    1    3    3    0  502 -0.30584237008E+03 -0.65058033916E+03 -0.25886383058E+03  0.76408566654E+03  0.46999998093E+01 0. -1.
</event>
<event>
 5   0  0.1765328E-04  0.1915107E+04  0.7818609E-02  0.8647373E-01
       -2   -1    0    0    0  501  0.00000000000E+00  0.00000000000E+00  0.73204035192E+03  0.73204035192E+03  0.25500000920E-02 0.  1.
        2   -1    0    0  501    0  0.00000000000E+00  0.00000000000E+00 -0.12525389537E+04  0.12525389537E+04  0.25500000920E-02 0. -1.
    10030    2    1    2    0    0  0.00000000000E+00  0.00000000000E+00 -0.52049860182E+03  0.19845793057E+04  0.19151073667E+04 0.  0.
        3    1    3    3  502    0 -0.27725491548E+03  0.45531029766E+03  0.56405010686E+03  0.77609940636E+03  0.10100000352E+00 0.  1.
       -3    1    3    3    0  502  0.27725491548E+03 -0.45531029766E+03 -0.10845487087E+04  0.12084798993E+04  0.10100000352E+00 0. -1.
</event>
<event>
 5   0  0.8602017E-05  0.1879004E+04  0.7818609E-02  0.8665378E-01
       -1   -1    0    0    0  501  0.00000000000E+00  0.00000000000E+00  0.73029928401E+03  0.73029928403E+03  0.50400001928E-02 0. -1.
        1   -1    0    0  501    0  0.00000000000E+00  0.00000000000E+00 -0.12086335362E+04  0.12086335362E+04  0.50400001928E-02 0.  1.
    10030    2    1    2    0    0  0.00000000000E+00  0.00000000000E+00 -0.47833425220E+03  0.19389328202E+04  0.18790042109E+04 0.  0.
        2    1    3    3  502    0 -0.69574908740E+03 -0.40609396864E+03  0.25966052772E+03  0.84640575001E+03  0.25500000920E-02 0. -1.
       -2    1    3    3    0  502  0.69574908740E+03  0.40609396864E+03 -0.73799477992E+03  0.10925270702E+04  0.25500000920E-02 0.  1.
</event>
<event>
 5   0  0.8567844E-05  0.1917615E+04  0.7818609E-02  0.8646138E-01
       -1   -1    0    0    0  501  0.00000000000E+00  0.00000000000E+00  0.62828314008E+03  0.62828314010E+03  0.50400001928E-02 0.  1.
        1   -1    0    0  501    0  0.00000000000E+00  0.00000000000E+00 -0.14632127780E+04  0.14632127780E+04  0.50400001928E-02 0. -1.
    10030    2    1    2    0    0  0.00000000000E+00  0.00000000000E+00 -0.83492963791E+03  0.20914959181E+04  0.19176151009E+04 0.  0.
        4    1    3    3  502    0  0.67797764243E+03  0.49965236650E+02 -0.11549099942E+04  0.13401376482E+04  0.12699999809E+01 0. -1.
       -4    1    3    3    0  502 -0.67797764243E+03 -0.49965236650E+02  0.31998035625E+03  0.75135826993E+03  0.12699999809E+01 0.  1.
</event>
<event>
 5   0  0.8681396E-05  0.1898616E+04  0.7818609E-02  0.8655546E-01
       -1   -1    0    0    0  501  0.00000000000E+00  0.00000000000E+00  0.66487597758E+03  0.66487597760E+03  0.50400001928E-02 0.  1.
        1   -1    0    0  501    0  0.00000000000E+00  0.00000000000E+00 -0.13554188172E+04  0.13554188172E+04  0.50400001928E-02 0. -1.
    10030    2    1    2    0    0  0.00000000000E+00  0.00000000000E+00 -0.69054283961E+03  0.20202947948E+04  0.18986157180E+04 0.  0.
        3    1    3    3  502    0 -0.86638930518E+03  0.31478512261E+03 -0.58667011858E+03  0.10926581990E+04  0.10100000352E+00 0. -1.
       -3    1    3    3    0  502  0.86638930518E+03 -0.31478512261E+03 -0.10387272103E+03  0.92763659583E+03  0.10100000352E+00 0.  1.
</event>
<event>
 5   0  0.8567844E-05  0.1893337E+04  0.7818609E-02  0.8658180E-01
       -1   -1    0    0    0  501  0.00000000000E+00  0.00000000000E+00  0.11552352424E+04  0.11552352424E+04  0.50400001928E-02 0.  1.
        1   -1    0    0  501    0  0.00000000000E+00  0.00000000000E+00 -0.77575640274E+03  0.77575640276E+03  0.50400001928E-02 0. -1.
    10030    2    1    2    0    0  0.00000000000E+00  0.00000000000E+00  0.37947883970E+03  0.19309916452E+04  0.18933368808E+04 0.  0.
        4    1    3    3  502    0 -0.50617684645E+03 -0.79824379552E+03  0.24343016782E+03  0.97604713845E+03  0.12699999809E+01 0. -1.
       -4    1    3    3    0  502  0.50617684645E+03  0.79824379552E+03  0.13604867188E+03  0.95494450676E+03  0.12699999809E+01 0.  1.
</event>
<event>
 5   0  0.1658711E-04  0.1903080E+04  0.7818609E-02  0.8653325E-01
        2   -1    0    0  501    0  0.00000000000E+00  0.00000000000E+00  0.23477443255E+04  0.23477443255E+04  0.25500000920E-02 0.  1.
       -2   -1    0    0    0  501  0.00000000000E+00  0.00000000000E+00 -0.38565871054E+03  0.38565871055E+03  0.25500000920E-02 0. -1.
    10030    2    1    2    0    0  0.00000000000E+00  0.00000000000E+00  0.19620856149E+04  0.27334030360E+04  0.19030796612E+04 0.  0.
        2    1    3    3  502    0 -0.61175597103E+03  0.62235943369E+03  0.43628460783E+03  0.97566433358E+03  0.25500000920E-02 0. -1.
       -2    1    3    3    0  502  0.61175597103E+03 -0.62235943369E+03  0.15258010071E+04  0.17577387025E+04  0.25500000920E-02 0.  1.
</event>
<event>
 5   0  0.1790832E-04  0.1886632E+04  0.7818609E-02  0.8661539E-01
        2   -1    0    0  501    0  0.00000000000E+00  0.00000000000E+00  0.11807129247E+04  0.11807129247E+04  0.25500000920E-02 0. -1.
       -2   -1    0    0    0  501  0.00000000000E+00  0.00000000000E+00 -0.75365041300E+03  0.75365041300E+03  0.25500000920E-02 0.  1.
    10030    2    1    2    0    0  0.00000000000E+00  0.00000000000E+00  0.42706251168E+03  0.19343633377E+04  0.18866316899E+04 0.  0.
        5    1    3    3  502    0 -0.23915389441E+02 -0.31069488671E+03 -0.69934241264E+03  0.76564035852E+03  0.46999998093E+01 0.  1.
       -5    1    3    3    0  502  0.23915389441E+02  0.31069488671E+03  0.11264049243E+04  0.11687229792E+04  0.46999998093E+01 0. -1.
</event>
<event>
 5   0  0.1765328E-04  0.1929061E+04  0.7818609E-02  0.8640524E-01
        2   -1    0    0  501    0  0.00000000000E+00  0.00000000000E+00  0.12631115841E+04  0.12631115841E+04  0.25500000920E-02 0.  1.
       -2   -1    0    0    0  501  0.00000000000E+00  0.00000000000E+00 -0.73652975204E+03  0.73652975205E+03  0.25500000920E-02 0. -1.
    10030    2    1    2    0    0  0.00000000000E+00  0.00000000000E+00  0.52658183205E+03  0.19996413361E+04  0.19290611829E+04 0.  0.
        3    1    3    3  502    0  0.31571675895E+03 -0.81043684951E+03 -0.16889820542E+03  0.88600878829E+03  0.10100000352E+00 0. -1.
       -3    1    3    3    0  502 -0.31571675895E+03  0.81043684951E+03  0.69548003747E+03  0.11136325479E+04  0.10100000352E+00 0.  1.
</event>
<event>
 5   0  0.1790832E-04  0.1901703E+04  0.7818609E-02  0.8654009E-01
       -2   -1    0    0    0  501  0.00000000000E+00  0.00000000000E+00  0.87190081482E+03  0.87190081482E+03  0.25500000920E-02 0. -1.
        2   -1    0    0  501    0  0.00000000000E+00  0.00000000000E+00 -0.10369507589E+04  0.10369507589E+04  0.25500000920E-02 0.  1.
    10030    2    1    2    0    0  0.00000000000E+00  0.00000000000E+00 -0.16504994405E+03  0.19088515737E+04  0.19017026177E+04 0.  0.
        5    1    3    3  502    0  0.73792440730E+03  0.18327986503E+03 -0.65561100700E+03  0.10039779989E+04  0.46999998093E+01 0.  1.
       -5    1    3    3    0  502 -0.73792440730E+03 -0.18327986503E+03  0.49056106295E+03  0.90487357476E+03  0.46999998093E+01 0. -1.
</event>
<event>
 5   0  0.8567844E-05  0.1960280E+04  0.7818609E-02  0.8625419E-01
       -1   -1    0    0    0  501  0.00000000000E+00  0.00000000000E+00  0.95719852168E+03  0.95719852169E+03  0.50400001928E-02 0. -1.
        1   -1    0    0  501    0  0.00000000000E+00  0.00000000000E+00 -0.10036318282E+04  0.10036318282E+04  0.50400001928E-02 0.  1.
    10030    2    1    2    0    0  0.00000000000E+00  0.00000000000E+00 -0.46433306488E+02  0.19608303499E+04  0.19602804924E+04 0.  0.
        4    1    3    3  502    0  0.57148355306E+03 -0.67704925485E+03  0.39604784185E+03  0.97048681127E+03  0.12699999809E+01 0. -1.
       -4    1    3    3    0  502 -0.57148355306E+03  0.67704925485E+03 -0.44248114834E+03  0.99034353860E+03  0.12699999809E+01 0.  1.
</event>
<event>
 5   0  0.8681396E-05  0.1898457E+04  0.7818609E-02  0.8655625E-01
        1   -1    0    0  501    0  0.00000000000E+00  0.00000000000E+00  0.92461943996E+03  0.92461943997E+03  0.50400001928E-02 0.  1.
       -1   -1    0    0    0  501  0.00000000000E+00  0.00000000000E+00 -0.97449267204E+03  0.97449267206E+03  0.50400001928E-02 0. -1.
    10030    2    1    2    0    0  0.00000000000E+00  0.00000000000E+00 -0.49873232087E+02  0.18991121120E+04  0.18984571301E+04 0.  0.
        3    1    3    3  502    0  0.15720883913E+03  0.45503064713E+03 -0.84330647969E+03  0.97104754663E+03  0.10100000352E+00 0. -1.
       -3    1    3    3    0  502 -0.15720883913E+03 -0.45503064713E+03  0.79343324761E+03  0.92806456539E+03  0.10100000352E+00 0.  1.
</event>
<event>
 5   0  0.8681396E-05  0.1912795E+04  0.7818609E-02  0.8648513E-01
        1   -1    0    0  501    0  0.00000000000E+00  0.00000000000E+00  0.13784696469E+04  0.13784696469E+04  0.50400001928E-02 0.  1.
       -1   -1    0    0    0  501  0.00000000000E+00  0.00000000000E+00 -0.66355948723E+03  0.66355948725E+03  0.50400001928E-02 0. -1.
    10030    2    1    2    0    0  0.00000000000E+00  0.00000000000E+00  0.71491015967E+03  0.20420291342E+04  0.19127954539E+04 0.  0.
        3    1    3    3  502    0 -0.61761448002E+03 -0.84238473589E+02  0.11318265796E+04  0.12921204212E+04  0.10100000352E+00 0.  1.
       -3    1    3    3    0  502  0.61761448002E+03  0.84238473589E+02 -0.41691641994E+03  0.74990871296E+03  0.10100000352E+00 0. -1.
</event>
<event>
 5   0  0.8587082E-05  0.1875325E+04  0.7818609E-02  0.8667237E-01
        1   -1    0    0  501    0  0.00000000000E+00  0.00000000000E+00  0.42898129868E+03  0.42898129871E+03  0.50400001928E-02 0.  1.
       -1   -1    0    0    0  501  0.00000000000E+00  0.00000000000E+00 -0.20495312163E+04  0.20495312163E+04  0.50400001928E-02 0. -1.
    10030    2    1    2    0    0  0.00000000000E+00  0.00000000000E+00 -0.16205499176E+04  0.24785125150E+04  0.18753245723E+04 0.  0.
        5    1    3    3  502    0  0.74399411701E+03 -0.48429513221E+03 -0.41132334994E+03  0.97840585108E+03  0.46999998093E+01 0. -1.
       -5    1    3    3    0  502 -0.74399411701E+03  0.48429513221E+03 -0.12092265677E+04  0.15001066640E+04  0.46999998093E+01 0.  1.
</event>
<event>
 5   0  0.1658711E-04  0.1824820E+04  0.7818609E-02  0.8693211E-01
       -2   -1    0    0    0  501  0.00000000000E+00  0.00000000000E+00  0.84833566666E+03  0.84833566666E+03  0.25500000920E-02 0. -1.
        2   -1    0    0  501    0  0.00000000000E+00  0.00000000000E+00 -0.98132379962E+03  0.98132379962E+03  0.25500000920E-02 0.  1.
    10030    2    1    2    0    0  0.00000000000E+00  0.00000000000E+00 -0.13298813296E+03  0.18296594663E+04  0.18248199689E+04 0.  0.
        2    1    3    3  502    0  0.37857019773E+03 -0.51415934550E+03 -0.72000229392E+03  0.96232974101E+03  0.25500000920E-02 0.  1.
       -2    1    3    3    0  502 -0.37857019773E+03  0.51415934550E+03  0.58701416096E+03  0.86732972528E+03  0.25500000920E-02 0. -1.
</event>
<event>
 5   0  0.1765328E-04  0.1891289E+04  0.7818609E-02  0.8659205E-01
       -2   -1    0    0    0  501  0.00000000000E+00  0.00000000000E+00  0.92746217122E+03  0.92746217123E+03  0.25500000920E-02 0. -1.
        2   -1    0    0  501    0  0.00000000000E+00  0.00000000000E+00 -0.96418325026E+03  0.96418325026E+03  0.25500000920E-02 0.  1.
    10030    2    1    2    0    0  0.00000000000E+00  0.00000000000E+00 -0.36721079032E+02  0.18916454215E+04  0.18912889687E+04 0.  0.
        3    1    3    3  502    0  0.55721251551E+03 -0.71479681934E+03 -0.28826914043E+03  0.95106224187E+03  0.10100000352E+00 0.  1.
       -3    1    3    3    0  502 -0.55721251551E+03  0.71479681934E+03  0.25154806140E+03  0.94058317962E+03  0.10100000352E+00 0. -1.
</event>
<event>
 5   0  0.1765328E-04  0.1915943E+04  0.7818609E-02  0.8646961E-01
       -2   -1    0    0    0  501  0.00000000000E+00  0.00000000000E+00  0.48913716413E+03  0.48913716414E+03  0.25500000920E-02 0.  1.
        2   -1    0    0  501    0  0.00000000000E+00  0.00000000000E+00 -0.18761797130E+04  0.18761797130E+04  0.25500000920E-02 0. -1.
    10030    2    1    2    0    0  0.00000000000E+00  0.00000000000E+00 -0.13870425488E+04  0.23653168771E+04  0.19159428219E+04 0.  0.
        3    1    3    3  502    0 -0.92778732998E+03  0.93796297853E+02 -0.96434034752E+03  0.13414691168E+04  0.10100000352E+00 0.  1.
       -3    1    3    3    0  502  0.92778732998E+03 -0.93796297853E+02 -0.42270220131E+03  0.10238477603E+04  0.10100000352E+00 0. -1.
</event>
<event>
 5   0  0.8602017E-05  0.1903045E+04  0.7818609E-02  0.8653342E-01
       -1   -1    0    0    0  501  0.00000000000E+00  0.00000000000E+00  0.11325486330E+04  0.11325486330E+04  0.50400001928E-02 0. -1.
        1   -1    0    0  501    0  0.00000000000E+00  0.00000000000E+00 -0.79943136394E+03  0.79943136396E+03  0.50400001928E-02 0.  1.
    10030    2    1    2    0    0  0.00000000000E+00  0.00000000000E+00  0.33311726908E+03  0.19319799970E+04  0.19030448218E+04 0.  0.
        2    1    3    3  502    0 -0.39497501357E+03  0.69402983469E+03  0.69183481895E+03  0.10565595532E+04  0.25500000920E-02 0. -1.
       -2    1    3    3    0  502  0.39497501357E+03 -0.69402983469E+03 -0.35871754987E+03  0.87542044377E+03  0.25500000920E-02 0.  1.
</event>
<event>
 5   0  0.1810569E-04  0.1893819E+04  0.7818609E-02  0.8657939E-01
       -2   -1    0    0    0  501  0.00000000000E+00  0.00000000000E+00  0.42413263433E+03  0.42413263434E+03  0.25500000920E-02 0. -1.
        2   -1    0    0  501    0  0.00000000000E+00  0.00000000000E+00 -0.21140504735E+04  0.21140504735E+04  0.25500000920E-02 0.  1.
    10030    2    1    2    0    0  0.00000000000E+00  0.00000000000E+00 -0.16899178392E+04  0.25381831079E+04  0.18938192062E+04 0.  0.
        4    1    3    3  502    0  0.82558050103E+03  0.32817121572E+03 -0.12840948320E+04  0.15614674704E+04  0.12699999809E+01 0.  1.
       -4    1    3    3    0  502 -0.82558050103E+03 -0.32817121572E+03 -0.40582300720E+03  0.97671563752E+03  0.12699999809E+01 0. -1.
</event>
<event>
 5   0  0.1765328E-04  0.1821189E+04  0.7818609E-02  0.8695112E-01
        2   -1    0    0  501    0  0.00000000000E+00  0.00000000000E+00  0.76659158277E+03  0.76659158277E+03  0.25500000920E-02 0.  1.
       -2   -1    0    0    0  501  0.00000000000E+00  0.00000000000E+00 -0.10816484296E+04  0.10816484296E+04  0.25500000920E-02 0. -1.
    10030    2    1    2    0    0  0.00000000000E+00  0.00000000000E+00 -0.31505684687E+03  0.18482400124E+04  0.18211892616E+04 0.  0.
        3    1    3    3  502    0 -0.88415291242E+03 -0.21217025479E+03 -0.20765829491E+03  0.93266530289E+03  0.10100000352E+00 0.  1.
       -3    1    3    3    0  502  0.88415291242E+03  0.21217025479E+03 -0.10739855196E+03  0.91557470953E+03  0.10100000352E+00 0. -1.
</event>
<event>
 5   0  0.1765328E-04  0.1864979E+04  0.7818609E-02  0.8672488E-01
       -2   -1    0    0    0  501  0.00000000000E+00  0.00000000000E+00  0.37207277325E+03  0.37207277326E+03  0.25500000920E-02 0. -1.
        2   -1    0    0  501    0  0.00000000000E+00  0.00000000000E+00 -0.23370060845E+04  0.23370060845E+04  0.25500000920E-02 0.  1.
    10030    2    1    2    0    0  0.00000000000E+00  0.00000000000E+00 -0.19649333113E+04  0.27090788578E+04  0.18649786433E+04 0.  0.
        3    1    3    3  502    0  0.70945096428E+03 -0.57836720274E+03 -0.12411244593E+04  0.15421476017E+04  0.10100000352E+00 0.  1.
       -3    1    3    3    0  502 -0.70945096428E+03  0.57836720274E+03 -0.72380885200E+03  0.11669312561E+04  0.10100000352E+00 0. -1.
</event>
<event>
 5   0  0.1765328E-04  0.1961698E+04  0.7818609E-02  0.8624740E-01
       -2   -1    0    0    0  501  0.00000000000E+00  0.00000000000E+00  0.57660651720E+03  0.57660651720E+03  0.25500000920E-02 0.  1.
        2   -1    0    0  501    0  0.00000000000E+00  0.00000000000E+00 -0.16684944013E+04  0.16684944013E+04  0.25500000920E-02 0. -1.
    10030    2    1    2    0    0  0.00000000000E+00  0.00000000000E+00 -0.10918878841E+04  0.22451009185E+04  0.19616979846E+04 0.  0.
        3    1    3    3  502    0 -0.75546885277E+01  0.85918439599E+03 -0.10873751765E+04  0.13858714530E+04  0.10100000352E+00 0.  1.
       -3    1    3    3    0  502  0.75546885277E+01 -0.85918439599E+03 -0.45127076054E+01  0.85922946549E+03  0.10100000352E+00 0. -1.
</event>
<event>
 5   0  0.1790832E-04  0.1919173E+04  0.7818609E-02  0.8645371E-01
       -2   -1    0    0    0  501  0.00000000000E+00  0.00000000000E+00  0.52092052087E+03  0.52092052087E+03  0.25500000920E-02 0.  1.
        2   -1    0    0  501    0  0.00000000000E+00  0.00000000000E+00 -0.17676520932E+04  0.17676520932E+04  0.25500000920E-02 0. -1.
    10030    2    1    2    0    0  0.00000000000E+00  0.00000000000E+00 -0.12467315724E+04  0.22885726141E+04  0.19191729981E+04 0.  0.
        5    1    3    3  502    0  0.75850454700E+03  0.17013515852E+03 -0.12942439104E+04  0.15097564405E+04  0.46999998093E+01 0. -1.
       -5    1    3    3    0  502 -0.75850454700E+03 -0.17013515852E+03  0.47512338064E+02  0.77881617360E+03  0.46999998093E+01 0.  1.
</event>
<event>
 5   0  0.8681396E-05  0.1899565E+04  0.7818609E-02  0.8655073E-01
       -1   -1    0    0    0  501  0.00000000000E+00  0.00000000000E+00  0.87567967917E+03  0.87567967918E+03  0.50400001928E-02 0.  1.
        1   -1    0    0  501    0  0.00000000000E+00  0.00000000000E+00 -0.10301560773E+04  0.10301560773E+04  0.50400001928E-02 0. -1.
    10030    2    1    2    0    0  0.00000000000E+00  0.00000000000E+00 -0.15447639815E+03  0.19058357565E+04  0.18995649431E+04 0.  0.
        3    1    3    3  502    0  0.36211186520E+03  0.73347493452E+03  0.40703133794E+03  0.91366569529E+03  0.10100000352E+00 0.  1.
       -3    1    3    3    0  502 -0.36211186520E+03 -0.73347493452E+03 -0.56150773609E+03  0.99217006122E+03  0.10100000352E+00 0. -1.
</event>
<event>
 5   0  0.8602017E-05  0.1866409E+04  0.7818609E-02  0.8671760E-01
       -1   -1    0    0    0  501  0.00000000000E+00  0.00000000000E+00  0.53844749768E+03  0.53844749770E+03  0.50400001928E-02 0.  1.
        1   -1    0    0  501    0  0.00000000000E+00  0.00000000000E+00 -0.16173730402E+04  0.16173730402E+04  0.50400001928E-02 0. -1.
    10030    2    1    2    0    0  0.00000000000E+00  0.00000000000E+00 -0.10789255425E+04  0.21558205379E+04  0.18664088152E+04 0.  0.
        2    1    3    3  502    0  0.47290499083E+03 -0.11306303000E+03 -0.14594967652E+04  0.15383605516E+04  0.25500000920E-02 0. -1.
       -2    1    3    3    0  502 -0.47290499083E+03  0.11306303000E+03  0.38057122270E+03  0.61745998628E+03  0.25500000920E-02 0.  1.
</event>
<event>
 5   0  0.8567844E-05  0.1884400E+04  0.7818609E-02  0.8662661E-01
       -1   -1    0    0    0  501  0.00000000000E+00  0.00000000000E+00  0.11805244783E+04  0.11805244784E+04  0.50400001928E-02 0. -1.
        1   -1    0    0  501    0  0.00000000000E+00  0.00000000000E+00 -0.75198866065E+03  0.75198866067E+03  0.50400001928E-02 0.  1.
    10030    2    1    2    0    0  0.00000000000E+00  0.00000000000E+00  0.42853581769E+03  0.19325131390E+04  0.18844001925E+04 0.  0.
        4    1    3    3  502    0  0.15984447561E+03  0.71496070625E+03  0.82186467965E+03  0.11009914770E+04  0.12699999809E+01 0.  1.
       -4    1    3    3    0  502 -0.15984447561E+03 -0.71496070625E+03 -0.39332886195E+03  0.83152166202E+03  0.12699999809E+01 0. -1.
</event>
<event>
 5   0  0.1765328E-04  0.1945944E+04  0.7818609E-02  0.8632319E-01
        2   -1    0    0  501    0  0.00000000000E+00  0.00000000000E+00  0.18935569945E+04  0.18935569945E+04  0.25500000920E-02 0.  1.
       -2   -1    0    0    0  501  0.00000000000E+00  0.00000000000E+00 -0.49994494765E+03  0.49994494766E+03  0.25500000920E-02 0. -1.
    10030    2    1    2    0    0  0.00000000000E+00  0.00000000000E+00  0.13936120468E+04  0.23935019421E+04  0.19459437325E+04 0.  0.
        3    1    3    3  502    0  0.56210109471E+03 -0.52971570253E+02  0.16714643966E+04  0.17642439931E+04  0.10100000352E+00 0.  1.
       -3    1    3    3    0  502 -0.56210109471E+03  0.52971570253E+02 -0.27785234978E+03  0.62925794902E+03  0.10100000352E+00 0. -1.
</event>
<event>
 5   0  0.1765328E-04  0.1905938E+04  0.7818609E-02  0.8651906E-01
        2   -1    0    0  501    0  0.00000000000E+00  0.00000000000E+00  0.24049949921E+04  0.24049949921E+04  0.25500000920E-02 0. -1.
       -2   -1    0    0    0  501  0.00000000000E+00  0.00000000000E+00 -0.37760996471E+03  0.37760996472E+03  0.25500000920E-02 0.  1.
    10030    2    1    2    0    0  0.00000000000E+00  0.00000000000E+00  0.20273850274E+04  0.27826049568E+04  0.19059381670E+04 0.  0.
        3    1    3    3  502    0 -0.29124362491E+03  0.71364539753E+02 -0.30693880548E+03  0.42910043941E+03  0.10100000352E+00 0.  1.
       -3    1    3    3    0  502  0.29124362491E+03 -0.71364539753E+02  0.23343238329E+04  0.23535045174E+04  0.10100000352E+00 0. -1.
</event>
<event>
 5   0  0.1799738E-04  0.1688532E+04  0.7818609E-02  0.8767932E-01
       -2   -1    0    0    0  501  0.00000000000E+00  0.00000000000E+00  0.81486427215E+03  0.81486427216E+03  0.25500000920E-02 0.  1.
        2   -1    0    0  501    0  0.00000000000E+00  0.00000000000E+00 -0.87472866158E+03  0.87472866158E+03  0.25500000920E-02 0. -1.
    10030    2    1    2    0    0  0.00000000000E+00  0.00000000000E+00 -0.59864389428E+02  0.16895929337E+04  0.16885320656E+04 0.  0.
        1    1    3    3  502    0  0.19184823695E+03 -0.55965277683E+03 -0.63261298871E+03  0.86615020068E+03  0.50400001928E-02 0. -1.
       -1    1    3    3    0  502 -0.19184823695E+03  0.55965277683E+03  0.57274859928E+03  0.82344273306E+03  0.50400001928E-02 0.  1.
</event>
<event>
 5   0  0.8905646E-05  0.1885314E+04  0.7818609E-02  0.8662201E-01
        1   -1    0    0  501    0  0.00000000000E+00  0.00000000000E+00  0.10537123692E+04  0.10537123692E+04  0.50400001928E-02 0.  1.
       -1   -1    0    0    0  501  0.00000000000E+00  0.00000000000E+00 -0.84330606996E+03  0.84330606997E+03  0.50400001928E-02 0. -1.
    10030    2    1    2    0    0  0.00000000000E+00  0.00000000000E+00  0.21040629925E+03  0.18970184392E+04  0.18853138062E+04 0.  0.
        1    1    3    3  502    0 -0.90107176189E+03 -0.18945260110E+03 -0.97989724582E+02  0.92597224272E+03  0.50400001928E-02 0. -1.
       -1    1    3    3    0  502  0.90107176189E+03  0.18945260110E+03  0.30839602383E+03  0.97104619647E+03  0.50400001928E-02 0.  1.
</event>
<event>
 5   0  0.1658711E-04  0.1920482E+04  0.7818609E-02  0.8644728E-01
       -2   -1    0    0    0  501  0.00000000000E+00  0.00000000000E+00  0.90076882484E+03  0.90076882484E+03  0.25500000920E-02 0. -1.
        2   -1    0    0  501    0  0.00000000000E+00  0.00000000000E+00 -0.10236394125E+04  0.10236394125E+04  0.25500000920E-02 0.  1.
    10030    2    1    2    0    0  0.00000000000E+00  0.00000000000E+00 -0.12287058764E+03  0.19244082373E+04  0.19204816798E+04 0.  0.
        2    1    3    3  502    0 -0.87897279220E+03  0.31780362896E+03  0.15917422185E+03  0.94811853105E+03  0.25500000920E-02 0.  1.
       -2    1    3    3    0  502  0.87897279220E+03 -0.31780362896E+03 -0.28204480950E+03  0.97628970628E+03  0.25500000920E-02 0. -1.
</event>
<event>
 5   0  0.1765328E-04  0.1930108E+04  0.7818609E-02  0.8640013E-01
       -2   -1    0    0    0  501  0.00000000000E+00  0.00000000000E+00  0.86652960445E+03  0.86652960445E+03  0.25500000920E-02 0.  1.
        2   -1    0    0  501    0  0.00000000000E+00  0.00000000000E+00 -0.10747800741E+04  0.10747800741E+04  0.25500000920E-02 0. -1.
    10030    2    1    2    0    0  0.00000000000E+00  0.00000000000E+00 -0.20825046966E+03  0.19413096786E+04  0.19301075125E+04 0.  0.
        3    1    3    3  502    0  0.38759858744E+02 -0.20512595533E+03  0.84354796713E+03  0.86899491785E+03  0.10100000352E+00 0.  1.
       -3    1    3    3    0  502 -0.38759858744E+02  0.20512595533E+03 -0.10517984368E+04  0.10723147607E+04  0.10100000352E+00 0. -1.
</event>
<event>
 5   0  0.8905646E-05  0.1910653E+04  0.7818609E-02  0.8649572E-01
       -1   -1    0    0    0  501  0.00000000000E+00  0.00000000000E+00  0.52532652662E+03  0.52532652664E+03  0.50400001928E-02 0. -1.
        1   -1    0    0  501    0  0.00000000000E+00  0.00000000000E+00 -0.17372977095E+04  0.17372977096E+04  0.50400001928E-02 0.  1.
    10030    2    1    2    0    0  0.00000000000E+00  0.00000000000E+00 -0.12119711829E+04  0.22626242362E+04  0.19106528429E+04 0.  0.
        1    1    3    3  502    0  0.32622673154E+03  0.77062740516E+03 -0.60271637599E+02  0.83900128026E+03  0.50400001928E-02 0. -1.
       -1    1    3    3    0  502 -0.32622673154E+03 -0.77062740516E+03 -0.11516995453E+04  0.14236229559E+04  0.50400001928E-02 0.  1.
</event>
<event>
 5   0  0.1810569E-04  0.1897598E+04  0.7818609E-02  0.8656053E-01
       -2   -1    0    0    0  501  0.00000000000E+00  0.00000000000E+00  0.11067855075E+04  0.11067855075E+04  0.25500000920E-02 0. -1.
        2   -1    0    0  501    0  0.00000000000E+00  0.00000000000E+00 -0.81336415882E+03  0.81336415883E+03  0.25500000920E-02 0.  1.
    10030    2    1    2    0    0  0.00000000000E+00  0.00000000000E+00  0.29342134867E+03  0.19201496663E+04  0.18975981274E+04 0.  0.
        4    1    3    3  502    0  0.34510663199E+03 -0.25844053988E+03  0.10019342410E+04  0.10907630064E+04  0.12699999809E+01 0. -1.
       -4    1    3    3    0  502 -0.34510663199E+03  0.25844053988E+03 -0.70851289231E+03  0.82938665987E+03  0.12699999809E+01 0.  1.
</event>
<event>
 5   0  0.8587082E-05  0.1900051E+04  0.7818609E-02  0.8654831E-01
       -1   -1    0    0    0  501  0.00000000000E+00  0.00000000000E+00  0.13557481705E+04  0.13557481705E+04  0.50400001928E-02 0. -1.
        1   -1    0    0  501    0  0.00000000000E+00  0.00000000000E+00 -0.66572017228E+03  0.66572017230E+03  0.50400001928E-02 0.  1.
    10030    2    1    2    0    0  0.00000000000E+00  0.00000000000E+00  0.69002799817E+03  0.20214683428E+04  0.19000514789E+04 0.  0.
        5    1    3    3  502    0  0.10092183488E+03  0.29066541098E+03 -0.61122916598E+03  0.68432067135E+03  0.46999998093E+01 0.  1.
       -5    1    3    3    0  502 -0.10092183488E+03 -0.29066541098E+03  0.13012571642E+04  0.13371476714E+04  0.46999998093E+01 0. -1.
</event>
<event>
 5   0  0.1790832E-04  0.1899791E+04  0.7818609E-02  0.8654960E-01
       -2   -1    0    0    0  501  0.00000000000E+00  0.00000000000E+00  0.41773747677E+03  0.41773747677E+03  0.25500000920E-02 0.  1.
        2   -1    0    0  501    0  0.00000000000E+00  0.00000000000E+00 -0.21599730386E+04  0.21599730386E+04  0.25500000920E-02 0. -1.
    10030    2    1    2    0    0  0.00000000000E+00  0.00000000000E+00 -0.17422355618E+04  0.25777105154E+04  0.18997912381E+04 0.  0.
        5    1    3    3  502    0  0.65028064720E+03  0.32290712878E+03 -0.17021698362E+04  0.18505507762E+04  0.46999998093E+01 0. -1.
       -5    1    3    3    0  502 -0.65028064720E+03 -0.32290712878E+03 -0.40065725627E+02  0.72715973920E+03  0.46999998093E+01 0.  1.
</event>
<event>
 5   0  0.1658711E-04  0.1962865E+04  0.7818609E-02  0.8624182E-01
       -2   -1    0    0    0  501  0.00000000000E+00  0.00000000000E+00  0.44898982995E+03  0.44898982996E+03  0.25500000920E-02 0.  1.
        2   -1    0    0  501    0  0.00000000000E+00  0.00000000000E+00 -0.21452819622E+04  0.21452819622E+04  0.25500000920E-02 0. -1.
    10030    2    1    2    0    0  0.00000000000E+00  0.00000000000E+00 -0.16962921322E+04  0.25942717922E+04  0.19628650320E+04 0.  0.
        2    1    3    3  502    0  0.67647815242E+03  0.32646206549E+03 -0.16830119503E+04  0.18430218110E+04  0.25500000920E-02 0. -1.
       -2    1    3    3    0  502 -0.67647815242E+03 -0.32646206549E+03 -0.13280181892E+02  0.75124998113E+03  0.25500000920E-02 0.  1.
</event>
<event>
 5   0  0.1765328E-04  0.1904881E+04  0.7818609E-02  0.8652431E-01
       -2   -1    0    0    0  501  0.00000000000E+00  0.00000000000E+00  0.72253727720E+03  0.72253727721E+03  0.25500000920E-02 0.  1.
        2   -1    0    0  501    0  0.00000000000E+00  0.00000000000E+00 -0.12554963626E+04  0.12554963626E+04  0.25500000920E-02 0. -1.
    10030    2    1    2    0    0  0.00000000000E+00  0.00000000000E+00 -0.53295908535E+03  0.19780336398E+04  0.19048810182E+04 0.  0.
        3    1    3    3  502    0 -0.37137515263E+03  0.64559305132E+03 -0.88293842638E+03  0.11551147852E+04  0.10100000352E+00 0. -1.
       -3    1    3    3    0  502  0.37137515263E+03 -0.64559305132E+03  0.34997934103E+03  0.82291885460E+03  0.10100000352E+00 0.  1.
</event>
<event>
 5   0  0.1765328E-04  0.1906170E+04  0.7818609E-02  0.8651791E-01
       -2   -1    0    0    0  501  0.00000000000E+00  0.00000000000E+00  0.61301033861E+03  0.61301033861E+03  0.25500000920E-02 0. -1.
        2   -1    0    0  501    0  0.00000000000E+00  0.00000000000E+00 -0.14818198968E+04  0.14818198968E+04  0.25500000920E-02 0.  1.
    10030    2    1    2    0    0  0.00000000000E+00  0.00000000000E+00 -0.86880955815E+03  0.20948302354E+04  0.19061698945E+04 0.  0.
        3    1    3    3  502    0 -0.88007542004E+03  0.12005091261E+03 -0.54620869057E+02  0.88990359934E+03  0.10100000352E+00 0. -1.
       -3    1    3    3    0  502  0.88007542004E+03 -0.12005091261E+03 -0.81418868909E+03  0.12049266360E+04  0.10100000352E+00 0.  1.
</event>
<event>
 5   0  0.1658711E-04  0.1896849E+04  0.7818609E-02  0.8656426E-01
       -2   -1    0    0    0  501  0.00000000000E+00  0.00000000000E+00  0.10836390679E+04  0.10836390679E+04  0.25500000920E-02 0.  1.
        2   -1    0    0  501    0  0.00000000000E+00  0.00000000000E+00 -0.83008210847E+03  0.83008210847E+03  0.25500000920E-02 0. -1.
    10030    2    1    2    0    0  0.00000000000E+00  0.00000000000E+00  0.25355695945E+03  0.19137211764E+04  0.18968493903E+04 0.  0.
        2    1    3    3  502    0  0.55767883777E+03 -0.25229380480E+02  0.90032319960E+03  0.10593507783E+04  0.25500000920E-02 0.  1.
       -2    1    3    3    0  502 -0.55767883777E+03  0.25229380480E+02 -0.64676624015E+03  0.85437039810E+03  0.25500000920E-02 0. -1.
</event>
<event>
 5   0  0.1765328E-04  0.1911812E+04  0.7818609E-02  0.8648999E-01
       -2   -1    0    0    0  501  0.00000000000E+00  0.00000000000E+00  0.51812912535E+03  0.51812912536E+03  0.25500000920E-02 0.  1.
        2   -1    0    0  501    0  0.00000000000E+00  0.00000000000E+00 -0.17635679045E+04  0.17635679045E+04  0.25500000920E-02 0. -1.
    10030    2    1    2    0    0  0.00000000000E+00  0.00000000000E+00 -0.12454387792E+04  0.22816970299E+04  0.19118115973E+04 0.  0.
        3    1    3    3  502    0  0.53153714205E+03  0.17940674628E+03 -0.15464383198E+04  0.16450501516E+04  0.10100000352E+00 0. -1.
       -3    1    3    3    0  502 -0.53153714205E+03 -0.17940674628E+03  0.30099954065E+03  0.63664687831E+03  0.10100000352E+00 0.  1.
</event>
<event>
 5   0  0.8587082E-05  0.1874464E+04  0.7818609E-02  0.8667673E-01
        1   -1    0    0  501    0  0.00000000000E+00  0.00000000000E+00  0.10430054567E+04  0.10430054567E+04  0.50400001928E-02 0. -1.
       -1   -1    0    0    0  501  0.00000000000E+00  0.00000000000E+00 -0.84218506010E+03  0.84218506011E+03  0.50400001928E-02 0.  1.
    10030    2    1    2    0    0  0.00000000000E+00  0.00000000000E+00  0.20082039662E+03  0.18851905168E+04  0.18744637775E+04 0.  0.
        5    1    3    3  502    0  0.55628575658E+03  0.34880723641E+03 -0.57219280549E+03  0.87094605332E+03  0.46999998093E+01 0.  1.
       -5    1    3    3    0  502 -0.55628575658E+03 -0.34880723641E+03  0.77301320211E+03  0.10142444635E+04  0.46999998093E+01 0. -1.
</event>
<event>
 5   0  0.1799738E-04  0.1934544E+04  0.7818609E-02  0.8637850E-01
       -2   -1    0    0    0  501  0.00000000000E+00  0.00000000000E+00  0.10470758192E+04  0.10470758192E+04  0.25500000920E-02 0. -1.
        2   -1    0    0  501    0  0.00000000000E+00  0.00000000000E+00 -0.89355040503E+03  0.89355040503E+03  0.25500000920E-02 0.  1.
    10030    2    1    2    0    0  0.00000000000E+00  0.00000000000E+00  0.15352541416E+03  0.19406262242E+04  0.19345438970E+04 0.  0.
        1    1    3    3  502    0 -0.34013456786E+03 -0.89577481702E+03  0.20950779951E+03  0.98081474558E+03  0.50400001928E-02 0.  1.
       -1    1    3    3    0  502  0.34013456786E+03  0.89577481702E+03 -0.55982385349E+02  0.95981147865E+03  0.50400001928E-02 0. -1.
</event>
<event>
 5   0  0.8681396E-05  0.1844891E+04  0.7818609E-02  0.8682784E-01
       -1   -1    0    0    0  501  0.00000000000E+00  0.00000000000E+00  0.71740264536E+03  0.71740264538E+03  0.50400001928E-02 0.  1.
        1   -1    0    0  501    0  0.00000000000E+00  0.00000000000E+00 -0.11860928541E+04  0.11860928541E+04  0.50400001928E-02 0. -1.
    10030    2    1    2    0    0  0.00000000000E+00  0.00000000000E+00 -0.46869020875E+03  0.19034954995E+04  0.18448914886E+04 0.  0.
        3    1    3    3  502    0 -0.74288777424E+02 -0.88214753891E+03  0.33125143865E+02  0.88588960272E+03  0.10100000352E+00 0.  1.
       -3    1    3    3    0  502  0.74288777424E+02  0.88214753891E+03 -0.50181535262E+03  0.10176058968E+04  0.10100000352E+00 0. -1.
</event>
<event>
 5   0  0.1810569E-04  0.1897903E+04  0.7818609E-02  0.8655901E-01
        2   -1    0    0  501    0  0.00000000000E+00  0.00000000000E+00  0.12126105956E+04  0.12126105956E+04  0.25500000920E-02 0.  1.
       -2   -1    0    0    0  501  0.00000000000E+00  0.00000000000E+00 -0.74261986552E+03  0.74261986553E+03  0.25500000920E-02 0. -1.
    10030    2    1    2    0    0  0.00000000000E+00  0.00000000000E+00  0.46999073009E+03  0.19552304611E+04  0.18979027556E+04 0.  0.
        4    1    3    3  502    0  0.65287108063E+03  0.43920730261E+03  0.78145463986E+03  0.11089709959E+04  0.12699999809E+01 0.  1.
       -4    1    3    3    0  502 -0.65287108063E+03 -0.43920730261E+03 -0.31146390977E+03  0.84625946528E+03  0.12699999809E+01 0. -1.
</event>
<event>
 5   0  0.1810569E-04  0.1880727E+04  0.7818609E-02  0.8664510E-01
        2   -1    0    0  501    0  0.00000000000E+00  0.00000000000E+00  0.87074407284E+03  0.87074407284E+03  0.25500000920E-02 0.  1.
       -2   -1    0    0    0  501  0.00000000000E+00  0.00000000000E+00 -0.10155490952E+04  0.10155490952E+04  0.25500000920E-02 0. -1.
    10030    2    1    2    0    0  0.00000000000E+00  0.00000000000E+00 -0.14480502238E+03  0.18862931681E+04  0.18807268333E+04 0.  0.
        4    1    3    3  502    0 -0.61029835962E+03 -0.25856520785E+03 -0.74143126028E+03  0.99450589797E+03  0.12699999809E+01 0. -1.
       -4    1    3    3    0  502  0.61029835962E+03  0.25856520785E+03  0.59662623790E+03  0.89178727010E+03  0.12699999809E+01 0.  1.
</event>
<event>
 5   0  0.6375750E-05  0.1897218E+04  0.7818609E-02  0.8656242E-01
        3   -1    0    0  501    0  0.00000000000E+00  0.00000000000E+00  0.72095921225E+03  0.72095921932E+03  0.10100000352E+00 0.  1.
       -3   -1    0    0    0  501  0.00000000000E+00  0.00000000000E+00 -0.12481413612E+04  0.12481413653E+04  0.10100000352E+00 0. -1.
    10030    2    1    2    0    0  0.00000000000E+00  0.00000000000E+00 -0.52718214898E+03  0.19691005846E+04  0.18972179881E+04 0.  0.
        3    1    3    3  502    0  0.92480313045E+03 -0.14833002105E+03 -0.41960744851E+03  0.10263201480E+04  0.10100000352E+00 0. -1.
       -3    1    3    3    0  502 -0.92480313045E+03  0.14833002105E+03 -0.10757470047E+03  0.94278043659E+03  0.10100000352E+00 0.  1.
</event>
<event>
 5   0  0.1810569E-04  0.1886712E+04  0.7818609E-02  0.8661499E-01
        2   -1    0    0  501    0  0.00000000000E+00  0.00000000000E+00  0.10575989602E+04  0.10575989602E+04  0.25500000920E-02 0.  1.
       -2   -1    0    0    0  501  0.00000000000E+00  0.00000000000E+00 -0.84145358628E+03  0.84145358628E+03  0.25500000920E-02 0. -1.
    10030    2    1    2    0    0  0.00000000000E+00  0.00000000000E+00  0.21614537397E+03  0.18990525465E+04  0.18867118889E+04 0.  0.
        4    1    3    3  502    0  0.14406620960E+02 -0.88245323394E+03 -0.22725433792E+03  0.91136019654E+03  0.12699999809E+01 0. -1.
       -4    1    3    3    0  502 -0.14406620960E+02  0.88245323394E+03  0.44339971189E+03  0.98769234999E+03  0.12699999809E+01 0.  1.
</event>
<event>
 5   0  0.1799738E-04  0.1880282E+04  0.7818609E-02  0.8664734E-01
        2   -1    0    0  501    0  0.00000000000E+00  0.00000000000E+00  0.11604967918E+04  0.11604967918E+04  0.25500000920E-02 0.  1.
       -2   -1    0    0    0  501  0.00000000000E+00  0.00000000000E+00 -0.76162644407E+03  0.76162644407E+03  0.25500000920E-02 0. -1.
    10030    2    1    2    0    0  0.00000000000E+00  0.00000000000E+00  0.39887034770E+03  0.19221232358E+04  0.18802819415E+04 0.  0.
        1    1    3    3  502    0  0.88535935978E+03  0.29380055043E+03  0.31902163399E+03  0.98587766096E+03  0.50400001928E-02 0.  1.
       -1    1    3    3    0  502 -0.88535935978E+03 -0.29380055043E+03  0.79848713710E+02  0.93624557489E+03  0.50400001928E-02 0. -1.
</event>
<event>
 5   0  0.8567844E-05  0.1927910E+04  0.7818609E-02  0.8641087E-01
        1   -1    0    0  501    0  0.00000000000E+00  0.00000000000E+00  0.14540263852E+04  0.14540263852E+04  0.50400001928E-02 0.  1.
       -1   -1    0    0    0  501  0.00000000000E+00  0.00000000000E+00 -0.63905942738E+03  0.63905942740E+03  0.50400001928E-02 0. -1.
    10030    2    1    2    0    0  0.00000000000E+00  0.00000000000E+00  0.81496695785E+03  0.20930858126E+04  0.19279100281E+04 0.  0.
        4    1    3    3  502    0 -0.19741613937E+03 -0.91442435566E+03  0.65991804555E+03  0.11448311989E+04  0.12699999809E+01 0.  1.
       -4    1    3    3    0  502  0.19741613937E+03  0.91442435566E+03  0.15504891230E+03  0.94825461370E+03  0.12699999809E+01 0. -1.
</event>
<event>
 5   0  0.6375750E-05  0.1938556E+04  0.7818609E-02  0.8635899E-01
        3   -1    0    0  501    0  0.00000000000E+00  0.00000000000E+00  0.87235335825E+03  0.87235336410E+03  0.10100000352E+00 0.  1.
       -3   -1    0    0    0  501  0.00000000000E+00  0.00000000000E+00 -0.10769713645E+04  0.10769713692E+04  0.10100000352E+00 0. -1.
    10030    2    1    2    0    0  0.00000000000E+00  0.00000000000E+00 -0.20461800622E+03  0.19493247333E+04  0.19385557478E+04 0.  0.
        5    1    3    3  502    0 -0.91223377964E+03 -0.32311817489E+03 -0.15647551824E+03  0.98034815319E+03  0.46999998093E+01 0. -1.
       -5    1    3    3    0  502  0.91223377964E+03  0.32311817489E+03 -0.48142487983E+02  0.96897658011E+03  0.46999998093E+01 0.  1.
</event>
<event>
 5   0  0.8587082E-05  0.1867180E+04  0.7818609E-02  0.8671368E-01
       -1   -1    0    0    0  501  0.00000000000E+00  0.00000000000E+00  0.14713777588E+04  0.14713777589E+04  0.50400001928E-02 0. -1.
        1   -1    0    0  501    0  0.00000000000E+00  0.00000000000E+00 -0.59236329781E+03  0.59236329783E+03  0.50400001928E-02 0.  1.
    10030    2    1    2    0    0  0.00000000000E+00  0.00000000000E+00  0.87901446104E+03  0.20637410567E+04  0.18671798859E+04 0.  0.
        5    1    3    3  502    0  0.23458949469E+03 -0.73903855151E+03  0.10142037409E+04  0.12766524702E+04  0.46999998093E+01 0. -1.
       -5    1    3    3    0  502 -0.23458949469E+03  0.73903855151E+03 -0.13518927982E+03  0.78708858651E+03  0.46999998093E+01 0.  1.
</event>
<event>
 5   0  0.1810569E-04  0.1908677E+04  0.7818609E-02  0.8650549E-01
       -2   -1    0    0    0  501  0.00000000000E+00  0.00000000000E+00  0.20809171443E+04  0.20809171444E+04  0.25500000920E-02 0. -1.
        2   -1    0    0  501    0  0.00000000000E+00  0.00000000000E+00 -0.43767336353E+03  0.43767336354E+03  0.25500000920E-02 0.  1.
    10030    2    1    2    0    0  0.00000000000E+00  0.00000000000E+00  0.16432437808E+04  0.25185905079E+04  0.19086770348E+04 0.  0.
        4    1    3    3  502    0 -0.54988340406E+03 -0.76678288665E+03  0.10102417214E+04  0.13823594691E+04  0.12699999809E+01 0. -1.
       -4    1    3    3    0  502  0.54988340406E+03  0.76678288665E+03  0.63300205939E+03  0.11362310387E+04  0.12699999809E+01 0.  1.
</event>
<event>
 5   0  0.1799738E-04  0.1882081E+04  0.7818609E-02  0.8663828E-01
       -2   -1    0    0    0  501  0.00000000000E+00  0.00000000000E+00  0.51042015423E+03  0.51042015424E+03  0.25500000920E-02 0.  1.
        2   -1    0    0  501    0  0.00000000000E+00  0.00000000000E+00 -0.17349572944E+04  0.17349572945E+04  0.25500000920E-02 0. -1.
    10030    2    1    2    0    0  0.00000000000E+00  0.00000000000E+00 -0.12245371402E+04  0.22453774487E+04  0.18820809439E+04 0.  0.
        1    1    3    3  502    0 -0.71249860806E+03 -0.34393485292E+03 -0.12201420640E+04  0.14541980972E+04  0.50400001928E-02 0. -1.
       -1    1    3    3    0  502  0.71249860806E+03  0.34393485292E+03 -0.43950762507E+01  0.79117935152E+03  0.50400001928E-02 0.  1.
</event>
<event>
 5   0  0.1658711E-04  0.1908466E+04  0.7818609E-02  0.8650654E-01
       -2   -1    0    0    0  501  0.00000000000E+00  0.00000000000E+00  0.52054152276E+03  0.52054152276E+03  0.25500000920E-02 0.  1.
        2   -1    0    0  501    0  0.00000000000E+00  0.00000000000E+00 -0.17492567807E+04  0.17492567807E+04  0.25500000920E-02 0. -1.
    10030    2    1    2    0    0  0.00000000000E+00  0.00000000000E+00 -0.12287152580E+04  0.22697983035E+04  0.19084661782E+04 0.  0.
        2    1    3    3  502    0  0.92318308736E+03  0.77589197408E+02 -0.34243560346E+03  0.98769896166E+03  0.25500000920E-02 0.  1.
       -2    1    3    3    0  502 -0.92318308736E+03 -0.77589197408E+02 -0.88627965453E+03  0.12820993419E+04  0.25500000920E-02 0. -1.
</event>
<event>
 5   0  0.1790832E-04  0.1899368E+04  0.7818609E-02  0.8655171E-01
       -2   -1    0    0    0  501  0.00000000000E+00  0.00000000000E+00  0.15927363785E+04  0.15927363786E+04  0.25500000920E-02 0.  1.
        2   -1    0    0  501    0  0.00000000000E+00  0.00000000000E+00 -0.56625828140E+03  0.56625828141E+03  0.25500000920E-02 0. -1.
    10030    2    1    2    0    0  0.00000000000E+00  0.00000000000E+00  0.10264780971E+04  0.21589946600E+04  0.18993684892E+04 0.  0.
        5    1    3    3  502    0  0.52394207408E+03 -0.65373957108E+02  0.14104971528E+04  0.15060920820E+04  0.46999998093E+01 0.  1.
       -5    1    3    3    0  502 -0.52394207408E+03  0.65373957108E+02 -0.38401905566E+03  0.65290257801E+03  0.46999998093E+01 0. -1.
</event>
<event>
 5   0  0.1658711E-04  0.2019948E+04  0.7818609E-02  0.8597351E-01
       -2   -1    0    0    0  501  0.00000000000E+00  0.00000000000E+00  0.60810856346E+03  0.60810856346E+03  0.25500000920E-02 0. -1.
        2   -1    0    0  501    0  0.00000000000E+00  0.00000000000E+00 -0.16774098691E+04  0.16774098691E+04  0.25500000920E-02 0.  1.
    10030    2    1    2    0    0  0.00000000000E+00  0.00000000000E+00 -0.10693013056E+04  0.22855184325E+04  0.20199478269E+04 0.  0.
        2    1    3    3  502    0 -0.13755287615E+03  0.99524668343E+03 -0.65120099374E+03  0.11972883900E+04  0.25500000920E-02 0.  1.
       -2    1    3    3    0  502  0.13755287615E+03 -0.99524668343E+03 -0.41810031186E+03  0.10882300425E+04  0.25500000920E-02 0. -1.
</event>
<event>
 5   0  0.8681396E-05  0.1918987E+04  0.7818609E-02  0.8645463E-01
        1   -1    0    0  501    0  0.00000000000E+00  0.00000000000E+00  0.13707573199E+04  0.13707573199E+04  0.50400001928E-02 0. -1.
       -1   -1    0    0    0  501  0.00000000000E+00  0.00000000000E+00 -0.67161965902E+03  0.67161965904E+03  0.50400001928E-02 0.  1.
    10030    2    1    2    0    0  0.00000000000E+00  0.00000000000E+00  0.69913766087E+03  0.20423769789E+04  0.19189867783E+04 0.  0.
        3    1    3    3  502    0 -0.13876629972E+03 -0.88853928791E+03  0.70554389826E+03  0.11430443363E+04  0.10100000352E+00 0. -1.
       -3    1    3    3    0  502  0.13876629972E+03  0.88853928791E+03 -0.64062373834E+01  0.89933264268E+03  0.10100000352E+00 0.  1.
</event>
<event>
 5   0  0.1799738E-04  0.1913456E+04  0.7818609E-02  0.8648187E-01
       -2   -1    0    0    0  501  0.00000000000E+00  0.00000000000E+00  0.41608537080E+03  0.41608537080E+03  0.25500000920E-02 0. -1.
        2   -1    0    0  501    0  0.00000000000E+00  0.00000000000E+00 -0.21998569717E+04  0.21998569717E+04  0.25500000920E-02 0.  1.
    10030    2    1    2    0    0  0.00000000000E+00  0.00000000000E+00 -0.17837716009E+04  0.26159423425E+04  0.19134558304E+04 0.  0.
        1    1    3    3  502    0 -0.94654331094E+03  0.33114858191E+02 -0.70700724277E+03  0.11819052731E+04  0.50400001928E-02 0. -1.
       -1    1    3    3    0  502  0.94654331094E+03 -0.33114858191E+02 -0.10767643581E+04  0.14340370693E+04  0.50400001928E-02 0.  1.
</event>
<event>
 5   0  0.8602017E-05  0.1873248E+04  0.7818609E-02  0.8668288E-01
       -1   -1    0    0    0  501  0.00000000000E+00  0.00000000000E+00  0.94651233381E+03  0.94651233382E+03  0.50400001928E-02 0.  1.
        1   -1    0    0  501    0  0.00000000000E+00  0.00000000000E+00 -0.92683924556E+03  0.92683924557E+03  0.50400001928E-02 0. -1.
    10030    2    1    2    0    0  0.00000000000E+00  0.00000000000E+00  0.19673088253E+02  0.18733515794E+04  0.18732482776E+04 0.  0.
        2    1    3    3  502    0 -0.37405190552E+03 -0.22922570658E+03  0.83741195168E+03  0.94536661111E+03  0.25500000920E-02 0.  1.
       -2    1    3    3    0  502  0.37405190552E+03  0.22922570658E+03 -0.81773886343E+03  0.92798496828E+03  0.25500000920E-02 0. -1.
</event>
<event>
 5   0  0.8567844E-05  0.1907191E+04  0.7818609E-02  0.8651285E-01
       -1   -1    0    0    0  501  0.00000000000E+00  0.00000000000E+00  0.89598404220E+03  0.89598404221E+03  0.50400001928E-02 0.  1.
        1   -1    0    0  501    0  0.00000000000E+00  0.00000000000E+00 -0.10149114173E+04  0.10149114173E+04  0.50400001928E-02 0. -1.
    10030    2    1    2    0    0  0.00000000000E+00  0.00000000000E+00 -0.11892737507E+03  0.19108954595E+04  0.19071910593E+04 0.  0.
        4    1    3    3  502    0  0.89897201837E+03 -0.10727429083E+03  0.24059145755E+03  0.93677335873E+03  0.12699999809E+01 0. -1.
       -4    1    3    3    0  502 -0.89897201837E+03  0.10727429083E+03 -0.35951883262E+03  0.97412210076E+03  0.12699999809E+01 0.  1.
</event>
<event>
 5   0  0.1765328E-04  0.1898854E+04  0.7818609E-02  0.8655427E-01
       -2   -1    0    0    0  501  0.00000000000E+00  0.00000000000E+00  0.51839934495E+03  0.51839934496E+03  0.25500000920E-02 0.  1.
        2   -1    0    0  501    0  0.00000000000E+00  0.00000000000E+00 -0.17388362117E+04  0.17388362117E+04  0.25500000920E-02 0. -1.
    10030    2    1    2    0    0  0.00000000000E+00  0.00000000000E+00 -0.12204368668E+04  0.22572355567E+04  0.18988539208E+04 0.  0.
        3    1    3    3  502    0 -0.81233423200E+03 -0.49145136238E+03 -0.61074588439E+03  0.11289029593E+04  0.10100000352E+00 0. -1.
       -3    1    3    3    0  502  0.81233423200E+03  0.49145136238E+03 -0.60969098238E+03  0.11283325974E+04  0.10100000352E+00 0.  1.
</event>
<event>
 5   0  0.1790832E-04  0.1822946E+04  0.7818609E-02  0.8694191E-01
       -2   -1    0    0    0  501  0.00000000000E+00  0.00000000000E+00  0.48263790929E+03  0.48263790930E+03  0.25500000920E-02 0.  1.
        2   -1    0    0  501    0  0.00000000000E+00  0.00000000000E+00 -0.17213388907E+04  0.17213388907E+04  0.25500000920E-02 0. -1.
    10030    2    1    2    0    0  0.00000000000E+00  0.00000000000E+00 -0.12387009814E+04  0.22039768000E+04  0.18229464100E+04 0.  0.
        5    1    3    3  502    0  0.69374789211E+03 -0.59023458375E+03 -0.65941833047E+03  0.11245077262E+04  0.46999998093E+01 0.  1.
       -5    1    3    3    0  502 -0.69374789211E+03  0.59023458375E+03 -0.57928265093E+03  0.10794690738E+04  0.46999998093E+01 0. -1.
</event>
<event>
 5   0  0.6375750E-05  0.1947818E+04  0.7818609E-02  0.8631414E-01
       -3   -1    0    0    0  501  0.00000000000E+00  0.00000000000E+00  0.90399887116E+03  0.90399887680E+03  0.10100000352E+00 0. -1.
        3   -1    0    0  501    0  0.00000000000E+00  0.00000000000E+00 -0.10492252269E+04  0.10492252317E+04  0.10100000352E+00 0.  1.
    10030    2    1    2    0    0  0.00000000000E+00  0.00000000000E+00 -0.14522635572E+03  0.19532241085E+04  0.19478176824E+04 0.  0.
        3    1    3    3  502    0 -0.93198668435E+03 -0.23058749600E+02 -0.35511757904E+03  0.99761685576E+03  0.10100000352E+00 0.  1.
       -3    1    3    3    0  502  0.93198668435E+03  0.23058749600E+02  0.20989122333E+03  0.95560725279E+03  0.10100000352E+00 0. -1.
</event>
<event>
 5   0  0.1790832E-04  0.1910558E+04  0.7818609E-02  0.8649619E-01
        2   -1    0    0  501    0  0.00000000000E+00  0.00000000000E+00  0.13359096625E+04  0.13359096625E+04  0.25500000920E-02 0.  1.
       -2   -1    0    0    0  501  0.00000000000E+00  0.00000000000E+00 -0.68309886718E+03  0.68309886718E+03  0.25500000920E-02 0. -1.
    10030    2    1    2    0    0  0.00000000000E+00  0.00000000000E+00  0.65281079533E+03  0.20190085297E+04  0.19105584284E+04 0.  0.
        5    1    3    3  502    0 -0.66517672090E+03 -0.55521467815E+03  0.75149880675E+03  0.11469507206E+04  0.46999998093E+01 0.  1.
       -5    1    3    3    0  502  0.66517672090E+03  0.55521467815E+03 -0.98688011425E+02  0.87205780913E+03  0.46999998093E+01 0. -1.
</event>
<event>
 5   0  0.1799738E-04  0.1898532E+04  0.7818609E-02  0.8655587E-01
       -2   -1    0    0    0  501  0.00000000000E+00  0.00000000000E+00  0.71893373385E+03  0.71893373386E+03  0.25500000920E-02 0. -1.
        2   -1    0    0  501    0  0.00000000000E+00  0.00000000000E+00 -0.12533923028E+04  0.12533923028E+04  0.25500000920E-02 0.  1.
    10030    2    1    2    0    0  0.00000000000E+00  0.00000000000E+00 -0.53445856897E+03  0.19723260367E+04  0.18985320732E+04 0.  0.
        1    1    3    3  502    0  0.70895800941E+03 -0.21305701922E+03  0.35008204936E+03  0.81888472562E+03  0.50400001928E-02 0. -1.
       -1    1    3    3    0  502 -0.70895800941E+03  0.21305701922E+03 -0.88454061832E+03  0.11534413111E+04  0.50400001928E-02 0.  1.
</event>
<event>
 5   0  0.8567844E-05  0.1858308E+04  0.7818609E-02  0.8675892E-01
        1   -1    0    0  501    0  0.00000000000E+00  0.00000000000E+00  0.11669967959E+04  0.11669967959E+04  0.50400001928E-02 0.  1.
       -1   -1    0    0    0  501  0.00000000000E+00  0.00000000000E+00 -0.73978528506E+03  0.73978528508E+03  0.50400001928E-02 0. -1.
    10030    2    1    2    0    0  0.00000000000E+00  0.00000000000E+00  0.42721151086E+03  0.19067820810E+04  0.18583078942E+04 0.  0.
        4    1    3    3  502    0  0.11722392522E+03 -0.67090612918E+02  0.11568692633E+04  0.11647277383E+04  0.12699999809E+01 0.  1.
       -4    1    3    3    0  502 -0.11722392522E+03  0.67090612918E+02 -0.72965775245E+03  0.74205434275E+03  0.12699999809E+01 0. -1.
</event>
<event>
 5   0  0.8587082E-05  0.1894458E+04  0.7818609E-02  0.8657620E-01
        1   -1    0    0  501    0  0.00000000000E+00  0.00000000000E+00  0.58567301668E+03  0.58567301670E+03  0.50400001928E-02 0. -1.
       -1   -1    0    0    0  501  0.00000000000E+00  0.00000000000E+00 -0.15319857016E+04  0.15319857016E+04  0.50400001928E-02 0.  1.
    10030    2    1    2    0    0  0.00000000000E+00  0.00000000000E+00 -0.94631268495E+03  0.21176587183E+04  0.18944579039E+04 0.  0.
        5    1    3    3  502    0  0.56712153212E+03  0.29344534865E+03 -0.12552163550E+04  0.14083064982E+04  0.46999998093E+01 0.  1.
       -5    1    3    3    0  502 -0.56712153212E+03 -0.29344534865E+03  0.30890367010E+03  0.70935222015E+03  0.46999998093E+01 0. -1.
</event>
<event>
 5   0  0.1790832E-04  0.1824559E+04  0.7818609E-02  0.8693347E-01
        2   -1    0    0  501    0  0.00000000000E+00  0.00000000000E+00  0.16517360549E+04  0.16517360549E+04  0.25500000920E-02 0. -1.
       -2   -1    0    0    0  501  0.00000000000E+00  0.00000000000E+00 -0.50386596765E+03  0.50386596766E+03  0.25500000920E-02 0.  1.
    10030    2    1    2    0    0  0.00000000000E+00  0.00000000000E+00  0.11478700872E+04  0.21556020226E+04  0.18245586706E+04 0.  0.
        5    1    3    3  502    0 -0.39174114587E+02 -0.76084459146E+03  0.11667911515E+04  0.13935001919E+04  0.46999998093E+01 0. -1.
       -5    1    3    3    0  502  0.39174114587E+02  0.76084459146E+03 -0.18921064272E+02  0.76210183065E+03  0.46999998093E+01 0.  1.
</event>
<event>
 5   0  0.1658711E-04  0.1888512E+04  0.7818609E-02  0.8660596E-01
       -2   -1    0    0    0  501  0.00000000000E+00  0.00000000000E+00  0.35725145128E+03  0.35725145129E+03  0.25500000920E-02 0.  1.
        2   -1    0    0  501    0  0.00000000000E+00  0.00000000000E+00 -0.24957766056E+04  0.24957766056E+04  0.25500000920E-02 0. -1.
    10030    2    1    2    0    0  0.00000000000E+00  0.00000000000E+00 -0.21385251543E+04  0.28530280569E+04  0.18885124457E+04 0.  0.
        2    1    3    3  502    0 -0.38474627666E+03 -0.84062935593E+03 -0.77893387410E+03  0.12088942847E+04  0.25500000920E-02 0. -1.
       -2    1    3    3    0  502  0.38474627666E+03  0.84062935593E+03 -0.13595912802E+04  0.16441337722E+04  0.25500000920E-02 0.  1.
</event>
<event>
 5   0  0.1765328E-04  0.1968168E+04  0.7818609E-02  0.8621650E-01
       -2   -1    0    0    0  501  0.00000000000E+00  0.00000000000E+00  0.75034890563E+03  0.75034890563E+03  0.25500000920E-02 0.  1.
        2   -1    0    0  501    0  0.00000000000E+00  0.00000000000E+00 -0.12906278727E+04  0.12906278727E+04  0.25500000920E-02 0. -1.
    10030    2    1    2    0    0  0.00000000000E+00  0.00000000000E+00 -0.54027896710E+03  0.20409767784E+04  0.19681678911E+04 0.  0.
        3    1    3    3  502    0 -0.23057374436E+03 -0.93551593748E+03 -0.62567522626E+02  0.96554079456E+03  0.10100000352E+00 0.  1.
       -3    1    3    3    0  502  0.23057374436E+03  0.93551593748E+03 -0.47771144448E+03  0.10754359838E+04  0.10100000352E+00 0. -1.
</event>
<event>
 5   0  0.8905646E-05  0.1903499E+04  0.7818609E-02  0.8653116E-01
       -1   -1    0    0    0  501  0.00000000000E+00  0.00000000000E+00  0.34598502678E+03  0.34598502682E+03  0.50400001928E-02 0. -1.
        1   -1    0    0  501    0  0.00000000000E+00  0.00000000000E+00 -0.26181119105E+04  0.26181119105E+04  0.50400001928E-02 0.  1.
    10030    2    1    2    0    0  0.00000000000E+00  0.00000000000E+00 -0.22721268837E+04  0.29640969373E+04  0.19034994295E+04 0.  0.
        1    1    3    3  502    0 -0.86915346982E+03 -0.25290808962E+03 -0.67824829576E+03  0.11311105192E+04  0.50400001928E-02 0.  1.
       -1    1    3    3    0  502  0.86915346982E+03  0.25290808962E+03 -0.15938785880E+04  0.18329864182E+04  0.50400001928E-02 0. -1.
</event>
<event>
 5   0  0.1765328E-04  0.1887780E+04  0.7818609E-02  0.8660963E-01
        2   -1    0    0  501    0  0.00000000000E+00  0.00000000000E+00  0.12909611727E+04  0.12909611727E+04  0.25500000920E-02 0.  1.
       -2   -1    0    0    0  501  0.00000000000E+00  0.00000000000E+00 -0.69012820320E+03  0.69012820321E+03  0.25500000920E-02 0. -1.
    10030    2    1    2    0    0  0.00000000000E+00  0.00000000000E+00  0.60083296954E+03  0.19810893760E+04  0.18877804052E+04 0.  0.
        3    1    3    3  502    0  0.66509364259E+03  0.45693912215E+03 -0.21346659245E+03  0.83469210554E+03  0.10100000352E+00 0. -1.
       -3    1    3    3    0  502 -0.66509364259E+03 -0.45693912215E+03  0.81429956199E+03  0.11463972704E+04  0.10100000352E+00 0.  1.
</event>
<event>
 5   0  0.1790832E-04  0.1899524E+04  0.7818609E-02  0.8655093E-01
        2   -1    0    0  501    0  0.00000000000E+00  0.00000000000E+00  0.12052674719E+04  0.12052674719E+04  0.25500000920E-02 0.  1.
       -2   -1    0    0    0  501  0.00000000000E+00  0.00000000000E+00 -0.74842118235E+03  0.74842118235E+03  0.25500000920E-02 0. -1.
    10030    2    1    2    0    0  0.00000000000E+00  0.00000000000E+00  0.45684628955E+03  0.19536886543E+04  0.18995238418E+04 0.  0.
        5    1    3    3  502    0 -0.70270111927E+03 -0.44752225364E+03 -0.24060739490E+03  0.86716724973E+03  0.46999998093E+01 0. -1.
       -5    1    3    3    0  502  0.70270111927E+03  0.44752225364E+03  0.69745368445E+03  0.10865214045E+04  0.46999998093E+01 0.  1.
</event>
<event>
 5   0  0.8905646E-05  0.1893513E+04  0.7818609E-02  0.8658092E-01
        1   -1    0    0  501    0  0.00000000000E+00  0.00000000000E+00  0.15456381676E+04  0.15456381676E+04  0.50400001928E-02 0.  1.
       -1   -1    0    0    0  501  0.00000000000E+00  0.00000000000E+00 -0.57992093470E+03  0.57992093472E+03  0.50400001928E-02 0. -1.
    10030    2    1    2    0    0  0.00000000000E+00  0.00000000000E+00  0.96571723287E+03  0.21255591023E+04  0.18935130640E+04 0.  0.
        1    1    3    3  502    0  0.41828191354E+02  0.50813202884E+03  0.13783677599E+04  0.14696412616E+04  0.50400001928E-02 0.  1.
       -1    1    3    3    0  502 -0.41828191354E+02 -0.50813202884E+03 -0.41265052699E+03  0.65591784072E+03  0.50400001928E-02 0. -1.
</event>
<event>
 5   0  0.8602017E-05  0.1881380E+04  0.7818609E-02  0.8664181E-01
       -1   -1    0    0    0  501  0.00000000000E+00  0.00000000000E+00  0.68437908574E+03  0.68437908576E+03  0.50400001928E-02 0. -1.
        1   -1    0    0  501    0  0.00000000000E+00  0.00000000000E+00 -0.12929937803E+04  0.12929937803E+04  0.50400001928E-02 0.  1.
    10030    2    1    2    0    0  0.00000000000E+00  0.00000000000E+00 -0.60861469454E+03  0.19773728661E+04  0.18813802393E+04 0.  0.
        2    1    3    3  502    0  0.71370034773E+03 -0.12820412288E+03  0.32551158950E+03  0.79483474911E+03  0.25500000920E-02 0. -1.
       -2    1    3    3    0  502 -0.71370034773E+03  0.12820412288E+03 -0.93412628404E+03  0.11825381169E+04  0.25500000920E-02 0.  1.
</event>
<event>
 5   0  0.1810569E-04  0.1809579E+04  0.7818609E-02  0.8701222E-01
        2   -1    0    0  501    0  0.00000000000E+00  0.00000000000E+00  0.66864953346E+03  0.66864953346E+03  0.25500000920E-02 0.  1.
       -2   -1    0    0    0  501  0.00000000000E+00  0.00000000000E+00 -0.12243249023E+04  0.12243249024E+04  0.25500000920E-02 0. -1.
    10030    2    1    2    0    0  0.00000000000E+00  0.00000000000E+00 -0.55567536889E+03  0.18929744358E+04  0.18095792602E+04 0.  0.
        4    1    3    3  502    0  0.26565195497E+03  0.65239372158E+03  0.31618237726E+03  0.77211491225E+03  0.12699999809E+01 0.  1.
       -4    1    3    3    0  502 -0.26565195497E+03 -0.65239372158E+03 -0.87185774615E+03  0.11208595236E+04  0.12699999809E+01 0. -1.
</event>
<event>
 5   0  0.1810569E-04  0.1901376E+04  0.7818609E-02  0.8654172E-01
        2   -1    0    0  501    0  0.00000000000E+00  0.00000000000E+00  0.58800152317E+03  0.58800152318E+03  0.25500000920E-02 0. -1.
       -2   -1    0    0    0  501  0.00000000000E+00  0.00000000000E+00 -0.15370846266E+04  0.15370846266E+04  0.25500000920E-02 0.  1.
    10030    2    1    2    0    0  0.00000000000E+00  0.00000000000E+00 -0.94908310341E+03  0.21250861498E+04  0.19013764506E+04 0.  0.
        4    1    3    3  502    0  0.14411034230E+03 -0.63189943514E+03  0.30280600724E+03  0.71537247488E+03  0.12699999809E+01 0. -1.
       -4    1    3    3    0  502 -0.14411034230E+03  0.63189943514E+03 -0.12518891106E+04  0.14097136749E+04  0.12699999809E+01 0.  1.
</event>
<event>
 5   0  0.1658711E-04  0.1903872E+04  0.7818609E-02  0.8652931E-01
        2   -1    0    0  501    0  0.00000000000E+00  0.00000000000E+00  0.74309158513E+03  0.74309158514E+03  0.25500000920E-02 0.  1.
       -2   -1    0    0    0  501  0.00000000000E+00  0.00000000000E+00 -0.12194760188E+04  0.12194760188E+04  0.25500000920E-02 0. -1.
    10030    2    1    2    0    0  0.00000000000E+00  0.00000000000E+00 -0.47638443363E+03  0.19625676039E+04  0.19038722308E+04 0.  0.
        2    1    3    3  502    0 -0.57892180925E+03 -0.32249180565E+03  0.46627316048E+03  0.81028518814E+03  0.25500000920E-02 0.  1.
       -2    1    3    3    0  502  0.57892180925E+03  0.32249180565E+03 -0.94265759411E+03  0.11522824158E+04  0.25500000920E-02 0. -1.
</event>
<event>
 5   0  0.1799738E-04  0.1804490E+04  0.7818609E-02  0.8703915E-01
        2   -1    0    0  501    0  0.00000000000E+00  0.00000000000E+00  0.18174338633E+04  0.18174338633E+04  0.25500000920E-02 0. -1.
       -2   -1    0    0    0  501  0.00000000000E+00  0.00000000000E+00 -0.44790955406E+03  0.44790955406E+03  0.25500000920E-02 0.  1.
    10030    2    1    2    0    0  0.00000000000E+00  0.00000000000E+00  0.13695243093E+04  0.22653434174E+04  0.18044899459E+04 0.  0.
        1    1    3    3  502    0  0.15102398857E+03 -0.88912559949E+03  0.71782011261E+03  0.11526570569E+04  0.50400001928E-02 0.  1.
       -1    1    3    3    0  502 -0.15102398857E+03  0.88912559949E+03  0.65170419665E+03  0.11126863605E+04  0.50400001928E-02 0. -1.
</event>
<event>
 5   0  0.1810569E-04  0.1901596E+04  0.7818609E-02  0.8654062E-01
        2   -1    0    0  501    0  0.00000000000E+00  0.00000000000E+00  0.13699230121E+04  0.13699230121E+04  0.25500000920E-02 0. -1.
       -2   -1    0    0    0  501  0.00000000000E+00  0.00000000000E+00 -0.65990348266E+03  0.65990348267E+03  0.25500000920E-02 0.  1.
    10030    2    1    2    0    0  0.00000000000E+00  0.00000000000E+00  0.71001952946E+03  0.20298264948E+04  0.19015961366E+04 0.  0.
        4    1    3    3  502    0  0.79030934321E+03  0.28144206445E+03  0.83263905725E+03  0.11819847318E+04  0.12699999809E+01 0. -1.
       -4    1    3    3    0  502 -0.79030934321E+03 -0.28144206445E+03 -0.12261952779E+03  0.84784176301E+03  0.12699999809E+01 0.  1.
</event>
<event>
 5   0  0.1765328E-04  0.1927361E+04  0.7818609E-02  0.8641356E-01
       -2   -1    0    0    0  501  0.00000000000E+00  0.00000000000E+00  0.66067075938E+03  0.66067075938E+03  0.25500000920E-02 0.  1.
        2   -1    0    0  501    0  0.00000000000E+00  0.00000000000E+00 -0.14056624496E+04  0.14056624496E+04  0.25500000920E-02 0. -1.
    10030    2    1    2    0    0  0.00000000000E+00  0.00000000000E+00 -0.74499169018E+03  0.20663332089E+04  0.19273609708E+04 0.  0.
        3    1    3    3  502    0  0.84887673651E+03  0.84949505600E+02  0.10800806639E+03  0.85992667414E+03  0.10100000352E+00 0.  1.
       -3    1    3    3    0  502 -0.84887673651E+03 -0.84949505600E+02 -0.85299975657E+03  0.12064065348E+04  0.10100000352E+00 0. -1.
</event>
<event>
 5   0  0.8681396E-05  0.1745831E+04  0.7818609E-02  0.8735648E-01
       -1   -1    0    0    0  501  0.00000000000E+00  0.00000000000E+00  0.50158946046E+03  0.50158946049E+03  0.50400001928E-02 0. -1.
        1   -1    0    0  501    0  0.00000000000E+00  0.00000000000E+00 -0.15191337166E+04  0.15191337167E+04  0.50400001928E-02 0.  1.
    10030    2    1    2    0    0  0.00000000000E+00  0.00000000000E+00 -0.10175442562E+04  0.20207231771E+04  0.17458309899E+04 0.  0.
        3    1    3    3  502    0 -0.78454172086E+03  0.12015947886E+03 -0.88187718027E+02  0.79857441478E+03  0.10100000352E+00 0. -1.
       -3    1    3    3    0  502  0.78454172086E+03 -0.12015947886E+03 -0.92935653816E+03  0.12221487624E+04  0.10100000352E+00 0.  1.
</event>
<event>
 5   0  0.8681396E-05  0.1888905E+04  0.7818609E-02  0.8660399E-01
        1   -1    0    0  501    0  0.00000000000E+00  0.00000000000E+00  0.14764637585E+04  0.14764637585E+04  0.50400001928E-02 0. -1.
       -1   -1    0    0    0  501  0.00000000000E+00  0.00000000000E+00 -0.60413967148E+03  0.60413967150E+03  0.50400001928E-02 0.  1.
    10030    2    1    2    0    0  0.00000000000E+00  0.00000000000E+00  0.87232408703E+03  0.20806034300E+04  0.18889047938E+04 0.  0.
        3    1    3    3  502    0  0.25923841287E+03  0.79323083114E+03 -0.50952437535E+02  0.83607168788E+03  0.10100000352E+00 0.  1.
       -3    1    3    3    0  502 -0.25923841287E+03 -0.79323083114E+03  0.92327652456E+03  0.12445317421E+04  0.10100000352E+00 0. -1.
</event>
<event>
 5   0  0.8567844E-05  0.1933689E+04  0.7818609E-02  0.8638267E-01
       -1   -1    0    0    0  501  0.00000000000E+00  0.00000000000E+00  0.36422537050E+03  0.36422537054E+03  0.50400001928E-02 0. -1.
        1   -1    0    0  501    0  0.00000000000E+00  0.00000000000E+00 -0.25665106825E+04  0.25665106825E+04  0.50400001928E-02 0.  1.
    10030    2    1    2    0    0  0.00000000000E+00  0.00000000000E+00 -0.22022853120E+04  0.29307360530E+04  0.19336890177E+04 0.  0.
        4    1    3    3  502    0 -0.79751175815E+03  0.30305144636E+03 -0.17905769676E+04  0.19834396067E+04  0.12699999809E+01 0. -1.
       -4    1    3    3    0  502  0.79751175815E+03 -0.30305144636E+03 -0.41170834437E+03  0.94729644634E+03  0.12699999809E+01 0.  1.
</event>
<event>
 5   0  0.8905646E-05  0.1905324E+04  0.7818609E-02  0.8652211E-01
       -1   -1    0    0    0  501  0.00000000000E+00  0.00000000000E+00  0.36993527262E+03  0.36993527265E+03  0.50400001928E-02 0.  1.
        1   -1    0    0  501    0  0.00000000000E+00  0.00000000000E+00 -0.24533062195E+04  0.24533062195E+04  0.50400001928E-02 0. -1.
    10030    2    1    2    0    0  0.00000000000E+00  0.00000000000E+00 -0.20833709469E+04  0.28232414922E+04  0.19053236000E+04 0.  0.
        1    1    3    3  502    0  0.52185075055E+02  0.63365620318E+03 -0.20929253428E+04  0.21873682718E+04  0.50400001928E-02 0. -1.
       -1    1    3    3    0  502 -0.52185075055E+02 -0.63365620318E+03  0.95543959016E+01  0.63587322038E+03  0.50400001928E-02 0.  1.
</event>
<event>
 5   0  0.1799738E-04  0.1908510E+04  0.7818609E-02  0.8650632E-01
        2   -1    0    0  501    0  0.00000000000E+00  0.00000000000E+00  0.81687297706E+03  0.81687297707E+03  0.25500000920E-02 0. -1.
       -2   -1    0    0    0  501  0.00000000000E+00  0.00000000000E+00 -0.11147423695E+04  0.11147423695E+04  0.25500000920E-02 0.  1.
    10030    2    1    2    0    0  0.00000000000E+00  0.00000000000E+00 -0.29786939239E+03  0.19316153465E+04  0.19085103280E+04 0.  0.
        1    1    3    3  502    0  0.14592863308E+03 -0.37767096862E+03 -0.10234978565E+04  0.11006717898E+04  0.50400001928E-02 0.  1.
       -1    1    3    3    0  502 -0.14592863308E+03  0.37767096862E+03  0.72562846414E+03  0.83094355674E+03  0.50400001928E-02 0. -1.
</event>
<event>
 5   0  0.1810569E-04  0.1900484E+04  0.7818609E-02  0.8654615E-01
        2   -1    0    0  501    0  0.00000000000E+00  0.00000000000E+00  0.78366120769E+03  0.78366120770E+03  0.25500000920E-02 0. -1.
       -2   -1    0    0    0  501  0.00000000000E+00  0.00000000000E+00 -0.11522329669E+04  0.11522329669E+04  0.25500000920E-02 0.  1.
    10030    2    1    2    0    0  0.00000000000E+00  0.00000000000E+00 -0.36857175917E+03  0.19358941746E+04  0.19004844418E+04 0.  0.
        4    1    3    3  502    0 -0.87440174063E+03  0.46115397628E+02  0.19171714418E+03  0.89636048005E+03  0.12699999809E+01 0. -1.
       -4    1    3    3    0  502  0.87440174063E+03 -0.46115397628E+02 -0.56028890335E+03  0.10395336945E+04  0.12699999809E+01 0.  1.
</event>
<event>
 5   0  0.1658711E-04  0.1905146E+04  0.7818609E-02  0.8652299E-01
        2   -1    0    0  501    0  0.00000000000E+00  0.00000000000E+00  0.46818547303E+03  0.46818547304E+03  0.25500000920E-02 0. -1.
       -2   -1    0    0    0  501  0.00000000000E+00  0.00000000000E+00 -0.19381110194E+04  0.19381110194E+04  0.25500000920E-02 0.  1.
    10030    2    1    2    0    0  0.00000000000E+00  0.00000000000E+00 -0.14699255464E+04  0.24062964924E+04  0.19051461093E+04 0.  0.
        2    1    3    3  502    0 -0.88803231567E+02 -0.94607664370E+03 -0.65072196843E+03  0.11516883736E+04  0.25500000920E-02 0. -1.
       -2    1    3    3    0  502  0.88803231567E+02  0.94607664370E+03 -0.81920357793E+03  0.12546081188E+04  0.25500000920E-02 0.  1.
</event>
<event>
 5   0  0.8587082E-05  0.1896474E+04  0.7818609E-02  0.8656613E-01
        1   -1    0    0  501    0  0.00000000000E+00  0.00000000000E+00  0.81087624224E+03  0.81087624225E+03  0.50400001928E-02 0. -1.
       -1   -1    0    0    0  501  0.00000000000E+00  0.00000000000E+00 -0.11088667981E+04  0.11088667981E+04  0.50400001928E-02 0.  1.
    10030    2    1    2    0    0  0.00000000000E+00  0.00000000000E+00 -0.29799055583E+03  0.19197430403E+04  0.18964743525E+04 0.  0.
        5    1    3    3  502    0  0.39280024635E+03  0.12279942316E+03  0.71574588368E+03  0.82564277498E+03  0.46999998093E+01 0. -1.
       -5    1    3    3    0  502 -0.39280024635E+03 -0.12279942316E+03 -0.10137364395E+04  0.10941002654E+04  0.46999998093E+01 0.  1.
</event>
<event>
 5   0  0.8681396E-05  0.1773530E+04  0.7818609E-02  0.8720504E-01
       -1   -1    0    0    0  501  0.00000000000E+00  0.00000000000E+00  0.64160744550E+03  0.64160744552E+03  0.50400001928E-02 0. -1.
        1   -1    0    0  501    0  0.00000000000E+00  0.00000000000E+00 -0.12255973978E+04  0.12255973979E+04  0.50400001928E-02 0.  1.
    10030    2    1    2    0    0  0.00000000000E+00  0.00000000000E+00 -0.58398995235E+03  0.18672048434E+04  0.17735302824E+04 0.  0.
        3    1    3    3  502    0 -0.57381658001E+03  0.47490807258E+03 -0.79860649038E+03  0.10920510435E+04  0.10100000352E+00 0.  1.
       -3    1    3    3    0  502  0.57381658001E+03 -0.47490807258E+03  0.21461653803E+03  0.77515379989E+03  0.10100000352E+00 0. -1.
</event>
<event>
 5   0  0.1799738E-04  0.1896428E+04  0.7818609E-02  0.8656637E-01
        2   -1    0    0  501    0  0.00000000000E+00  0.00000000000E+00  0.11528686186E+04  0.11528686187E+04  0.25500000920E-02 0.  1.
       -2   -1    0    0    0  501  0.00000000000E+00  0.00000000000E+00 -0.77988887615E+03  0.77988887616E+03  0.25500000920E-02 0. -1.
    10030    2    1    2    0    0  0.00000000000E+00  0.00000000000E+00  0.37297974250E+03  0.19327574948E+04  0.18964276009E+04 0.  0.
        1    1    3    3  502    0 -0.48868118025E+03 -0.73631734194E+03 -0.16380506600E+03  0.89877951892E+03  0.50400001928E-02 0.  1.
       -1    1    3    3    0  502  0.48868118025E+03  0.73631734194E+03  0.53678480849E+03  0.10339779759E+04  0.50400001928E-02 0. -1.
</event>
<event>
 5   0  0.8567844E-05  0.1908856E+04  0.7818609E-02  0.8650461E-01
        1   -1    0    0  501    0  0.00000000000E+00  0.00000000000E+00  0.92404095884E+03  0.92404095885E+03  0.50400001928E-02 0.  1.
       -1   -1    0    0    0  501  0.00000000000E+00  0.00000000000E+00 -0.98581443276E+03  0.98581443277E+03  0.50400001928E-02 0. -1.
    10030    2    1    2    0    0  0.00000000000E+00  0.00000000000E+00 -0.61773473917E+02  0.19098553916E+04  0.19088561116E+04 0.  0.
        4    1    3    3  502    0  0.37365003277E+03 -0.85018353892E+03 -0.25124032006E+03  0.96205494030E+03  0.12699999809E+01 0. -1.
       -4    1    3    3    0  502 -0.37365003277E+03  0.85018353892E+03  0.18946684614E+03  0.94780045132E+03  0.12699999809E+01 0.  1.
</event>
<event>
 5   0  0.8681396E-05  0.1925512E+04  0.7818609E-02  0.8642261E-01
       -1   -1    0    0    0  501  0.00000000000E+00  0.00000000000E+00  0.58378347064E+03  0.58378347066E+03  0.50400001928E-02 0. -1.
        1   -1    0    0  501    0  0.00000000000E+00  0.00000000000E+00 -0.15877447847E+04  0.15877447847E+04  0.50400001928E-02 0.  1.
    10030    2    1    2    0    0  0.00000000000E+00  0.00000000000E+00 -0.10039613140E+04  0.21715282554E+04  0.19255120471E+04 0.  0.
        3    1    3    3  502    0  0.93225483901E+03 -0.17299242252E+03 -0.69026597613E+03  0.11728139627E+04  0.10100000352E+00 0. -1.
       -3    1    3    3    0  502 -0.93225483901E+03  0.17299242252E+03 -0.31369533792E+03  0.99871429265E+03  0.10100000352E+00 0.  1.
</event>
<event>
 5   0  0.8905646E-05  0.1859759E+04  0.7818609E-02  0.8675150E-01
        1   -1    0    0  501    0  0.00000000000E+00  0.00000000000E+00  0.83220358116E+03  0.83220358117E+03  0.50400001928E-02 0. -1.
       -1   -1    0    0    0  501  0.00000000000E+00  0.00000000000E+00 -0.10390199793E+04  0.10390199793E+04  0.50400001928E-02 0.  1.
    10030    2    1    2    0    0  0.00000000000E+00  0.00000000000E+00 -0.20681639813E+03  0.18712235605E+04  0.18597592830E+04 0.  0.
        1    1    3    3  502    0  0.21099451468E+03 -0.37993381975E+03  0.72373466508E+03  0.84419207416E+03  0.50400001928E-02 0. -1.
       -1    1    3    3    0  502 -0.21099451468E+03  0.37993381975E+03 -0.93055106321E+03  0.10270314863E+04  0.50400001928E-02 0.  1.
</event>
<event>
 5   0  0.8587082E-05  0.1876862E+04  0.7818609E-02  0.8666460E-01
        1   -1    0    0  501    0  0.00000000000E+00  0.00000000000E+00  0.15744178436E+04  0.15744178436E+04  0.50400001928E-02 0.  1.
       -1   -1    0    0    0  501  0.00000000000E+00  0.00000000000E+00 -0.55935137452E+03  0.55935137455E+03  0.50400001928E-02 0. -1.
    10030    2    1    2    0    0  0.00000000000E+00  0.00000000000E+00  0.10150664691E+04  0.21337692182E+04  0.18768620460E+04 0.  0.
        5    1    3    3  502    0 -0.45976645484E+03  0.75554566075E+03  0.86415215541E+03  0.12365336535E+04  0.46999998093E+01 0.  1.
       -5    1    3    3    0  502  0.45976645484E+03 -0.75554566075E+03  0.15091431366E+03  0.89723556468E+03  0.46999998093E+01 0. -1.
</event>
<event>
 5   0  0.8681396E-05  0.1902487E+04  0.7818609E-02  0.8653620E-01
        1   -1    0    0  501    0  0.00000000000E+00  0.00000000000E+00  0.21012180372E+04  0.21012180372E+04  0.50400001928E-02 0.  1.
       -1   -1    0    0    0  501  0.00000000000E+00  0.00000000000E+00 -0.43063785615E+03  0.43063785618E+03  0.50400001928E-02 0. -1.
    10030    2    1    2    0    0  0.00000000000E+00  0.00000000000E+00  0.16705801811E+04  0.25318558934E+04  0.19024868261E+04 0.  0.
        3    1    3    3  502    0  0.91142240079E+02 -0.49959793961E+03 -0.23513359004E+03  0.55963633241E+03  0.10100000352E+00 0. -1.
       -3    1    3    3    0  502 -0.91142240079E+02  0.49959793961E+03  0.19057137711E+04  0.19722195610E+04  0.10100000352E+00 0.  1.
</event>
<event>
 5   0  0.1810569E-04  0.1873551E+04  0.7818609E-02  0.8668135E-01
       -2   -1    0    0    0  501  0.00000000000E+00  0.00000000000E+00  0.78565617712E+03  0.78565617713E+03  0.25500000920E-02 0. -1.
        2   -1    0    0  501    0  0.00000000000E+00  0.00000000000E+00 -0.11169625511E+04  0.11169625511E+04  0.25500000920E-02 0.  1.
    10030    2    1    2    0    0  0.00000000000E+00  0.00000000000E+00 -0.33130637395E+03  0.19026187282E+04  0.18735512033E+04 0.  0.
        4    1    3    3  502    0  0.93249859363E+03  0.58365211021E+02 -0.96876598623E+02  0.93933317478E+03  0.12699999809E+01 0.  1.
       -4    1    3    3    0  502 -0.93249859363E+03 -0.58365211021E+02 -0.23442977532E+03  0.96328555342E+03  0.12699999809E+01 0. -1.
</event>
<event>
 5   0  0.1799738E-04  0.1893108E+04  0.7818609E-02  0.8658294E-01
        2   -1    0    0  501    0  0.00000000000E+00  0.00000000000E+00  0.17252278127E+04  0.17252278127E+04  0.25500000920E-02 0.  1.
       -2   -1    0    0    0  501  0.00000000000E+00  0.00000000000E+00 -0.51933122703E+03  0.51933122703E+03  0.25500000920E-02 0. -1.
    10030    2    1    2    0    0  0.00000000000E+00  0.00000000000E+00  0.12058965857E+04  0.22445590398E+04  0.18931082134E+04 0.  0.
        1    1    3    3  502    0 -0.59291241827E+03  0.55138107668E+03  0.11842765381E+04  0.14345999952E+04  0.50400001928E-02 0.  1.
       -1    1    3    3    0  502  0.59291241827E+03 -0.55138107668E+03  0.21620047644E+02  0.80995904462E+03  0.50400001928E-02 0. -1.
</event>
<event>
 5   0  0.8567844E-05  0.1898338E+04  0.7818609E-02  0.8655684E-01
       -1   -1    0    0    0  501  0.00000000000E+00  0.00000000000E+00  0.59361829439E+03  0.59361829441E+03  0.50400001928E-02 0.  1.
        1   -1    0    0  501    0  0.00000000000E+00  0.00000000000E+00 -0.15176787631E+04  0.15176787631E+04  0.50400001928E-02 0. -1.
    10030    2    1    2    0    0  0.00000000000E+00  0.00000000000E+00 -0.92406046874E+03  0.21112970576E+04  0.18983380930E+04 0.  0.
        4    1    3    3  502    0  0.11149839984E+03  0.41382959187E+03  0.47987247299E+03  0.64340191755E+03  0.12699999809E+01 0.  1.
       -4    1    3    3    0  502 -0.11149839984E+03 -0.41382959187E+03 -0.14039329417E+04  0.14678951400E+04  0.12699999809E+01 0. -1.
</event>
<event>
 5   0  0.1790832E-04  0.1901751E+04  0.7818609E-02  0.8653985E-01
        2   -1    0    0  501    0  0.00000000000E+00  0.00000000000E+00  0.67230873353E+03  0.67230873353E+03  0.25500000920E-02 0. -1.
       -2   -1    0    0    0  501  0.00000000000E+00  0.00000000000E+00 -0.13448643167E+04  0.13448643167E+04  0.25500000920E-02 0.  1.
    10030    2    1    2    0    0  0.00000000000E+00  0.00000000000E+00 -0.67255558316E+03  0.20171730502E+04  0.19017507992E+04 0.  0.
        5    1    3    3  502    0 -0.42320701379E+03 -0.14300426378E+03 -0.12266201367E+04  0.13054399433E+04  0.46999998093E+01 0.  1.
       -5    1    3    3    0  502  0.42320701379E+03  0.14300426378E+03  0.55406455351E+03  0.71173310688E+03  0.46999998093E+01 0. -1.
</event>
<event>
 5   0  0.8567844E-05  0.1910395E+04  0.7818609E-02  0.8649700E-01
        1   -1    0    0  501    0  0.00000000000E+00  0.00000000000E+00  0.90258839455E+03  0.90258839456E+03  0.50400001928E-02 0.  1.
       -1   -1    0    0    0  501  0.00000000000E+00  0.00000000000E+00 -0.10108725017E+04  0.10108725017E+04  0.50400001928E-02 0. -1.
    10030    2    1    2    0    0  0.00000000000E+00  0.00000000000E+00 -0.10828410714E+03  0.19134608963E+04  0.19103945021E+04 0.  0.
        4    1    3    3  502    0 -0.85067463289E+03 -0.16717223549E+03  0.34750819996E+03  0.93400077585E+03  0.12699999809E+01 0.  1.
       -4    1    3    3    0  502  0.85067463289E+03  0.16717223549E+03 -0.45579230709E+03  0.97946012040E+03  0.12699999809E+01 0. -1.
</event>
<event>
 5   0  0.8905646E-05  0.1942944E+04  0.7818609E-02  0.8633771E-01
        1   -1    0    0  501    0  0.00000000000E+00  0.00000000000E+00  0.77087010747E+03  0.77087010749E+03  0.50400001928E-02 0. -1.
       -1   -1    0    0    0  501  0.00000000000E+00  0.00000000000E+00 -0.12242761254E+04  0.12242761254E+04  0.50400001928E-02 0.  1.
    10030    2    1    2    0    0  0.00000000000E+00  0.00000000000E+00 -0.45340601790E+03  0.19951462329E+04  0.19429440222E+04 0.  0.
        1    1    3    3  502    0  0.39235016164E+03 -0.22266392843E+02  0.68560595154E+03  0.79024677310E+03  0.50400001928E-02 0. -1.
       -1    1    3    3    0  502 -0.39235016164E+03  0.22266392843E+02 -0.11390119694E+04  0.12048994598E+04  0.50400001928E-02 0.  1.
</event>
<event>
 5   0  0.8905646E-05  0.1876037E+04  0.7818609E-02  0.8666877E-01
        1   -1    0    0  501    0  0.00000000000E+00  0.00000000000E+00  0.14730180078E+04  0.14730180078E+04  0.50400001928E-02 0.  1.
       -1   -1    0    0    0  501  0.00000000000E+00  0.00000000000E+00 -0.59733064583E+03  0.59733064585E+03  0.50400001928E-02 0. -1.
    10030    2    1    2    0    0  0.00000000000E+00  0.00000000000E+00  0.87568736198E+03  0.20703486537E+04  0.18760370977E+04 0.  0.
        1    1    3    3  502    0 -0.28916389350E+03  0.88674228036E+03  0.54793146100E+03  0.10817377293E+04  0.50400001928E-02 0.  1.
       -1    1    3    3    0  502  0.28916389350E+03 -0.88674228036E+03  0.32775590099E+03  0.98861092435E+03  0.50400001928E-02 0. -1.
</event>
<event>
 5   0  0.8681396E-05  0.1911830E+04  0.7818609E-02  0.8648990E-01
        1   -1    0    0  501    0  0.00000000000E+00  0.00000000000E+00  0.14217673202E+04  0.14217673202E+04  0.50400001928E-02 0. -1.
       -1   -1    0    0    0  501  0.00000000000E+00  0.00000000000E+00 -0.64270223070E+03  0.64270223072E+03  0.50400001928E-02 0.  1.
    10030    2    1    2    0    0  0.00000000000E+00  0.00000000000E+00  0.77906508950E+03  0.20644695509E+04  0.19118295199E+04 0.  0.
        3    1    3    3  502    0  0.41046544106E+03  0.56224950110E+03  0.10969443383E+04  0.12991894670E+04  0.10100000352E+00 0. -1.
       -3    1    3    3    0  502 -0.41046544106E+03 -0.56224950110E+03 -0.31787924878E+03  0.76528008389E+03  0.10100000352E+00 0.  1.
</event>
<event>
 5   0  0.1790832E-04  0.1882463E+04  0.7818609E-02  0.8663635E-01
        2   -1    0    0  501    0  0.00000000000E+00  0.00000000000E+00  0.15058572713E+04  0.15058572713E+04  0.25500000920E-02 0.  1.
       -2   -1    0    0    0  501  0.00000000000E+00  0.00000000000E+00 -0.58831381130E+03  0.58831381131E+03  0.25500000920E-02 0. -1.
    10030    2    1    2    0    0  0.00000000000E+00  0.00000000000E+00  0.91754346001E+03  0.20941710826E+04  0.18824628874E+04 0.  0.
        5    1    3    3  502    0 -0.20599155759E+03 -0.81678806110E+03  0.92589945017E+03  0.12517536261E+04  0.46999998093E+01 0.  1.
       -5    1    3    3    0  502  0.20599155759E+03  0.81678806110E+03 -0.83559901528E+01  0.84241745656E+03  0.46999998093E+01 0. -1.
</event>
<event>
 5   0  0.1799738E-04  0.1903806E+04  0.7818609E-02  0.8652964E-01
        2   -1    0    0  501    0  0.00000000000E+00  0.00000000000E+00  0.10685828377E+04  0.10685828378E+04  0.25500000920E-02 0. -1.
       -2   -1    0    0    0  501  0.00000000000E+00  0.00000000000E+00 -0.84796386699E+03  0.84796386700E+03  0.25500000920E-02 0.  1.
    10030    2    1    2    0    0  0.00000000000E+00  0.00000000000E+00  0.22061897075E+03  0.19165467047E+04  0.19038063298E+04 0.  0.
        1    1    3    3  502    0  0.86105315069E+03  0.18444107861E+03  0.47423749818E+03  0.10001661085E+04  0.50400001928E-02 0. -1.
       -1    1    3    3    0  502 -0.86105315069E+03 -0.18444107861E+03 -0.25361852743E+03  0.91638059630E+03  0.50400001928E-02 0.  1.
</event>
<event>
 5   0  0.8567844E-05  0.1874953E+04  0.7818609E-02  0.8667425E-01
        1   -1    0    0  501    0  0.00000000000E+00  0.00000000000E+00  0.72824144846E+03  0.72824144848E+03  0.50400001928E-02 0. -1.
       -1   -1    0    0    0  501  0.00000000000E+00  0.00000000000E+00 -0.12068274735E+04  0.12068274735E+04  0.50400001928E-02 0.  1.
    10030    2    1    2    0    0  0.00000000000E+00  0.00000000000E+00 -0.47858602503E+03  0.19350689220E+04  0.18749525726E+04 0.  0.
        4    1    3    3  502    0 -0.61584638877E+03  0.67403130067E+03 -0.19690974081E+02  0.91322194247E+03  0.12699999809E+01 0. -1.
       -4    1    3    3    0  502  0.61584638877E+03 -0.67403130067E+03 -0.45889505095E+03  0.10218469795E+04  0.12699999809E+01 0.  1.
</event>
<event>
 5   0  0.8681396E-05  0.1903596E+04  0.7818609E-02  0.8653068E-01
        1   -1    0    0  501    0  0.00000000000E+00  0.00000000000E+00  0.20430452311E+04  0.20430452311E+04  0.50400001928E-02 0.  1.
       -1   -1    0    0    0  501  0.00000000000E+00  0.00000000000E+00 -0.44341634345E+03  0.44341634348E+03  0.50400001928E-02 0. -1.
    10030    2    1    2    0    0  0.00000000000E+00  0.00000000000E+00  0.15996288877E+04  0.24864615746E+04  0.19035962239E+04 0.  0.
        3    1    3    3  502    0  0.36757865138E+03 -0.59387943693E+01 -0.34693728550E+03  0.50548474210E+03  0.10100000352E+00 0. -1.
       -3    1    3    3    0  502 -0.36757865138E+03  0.59387943693E+01  0.19465661731E+04  0.19809768325E+04  0.10100000352E+00 0.  1.
</event>
<event>
 5   0  0.1790832E-04  0.1884112E+04  0.7818609E-02  0.8662805E-01
       -2   -1    0    0    0  501  0.00000000000E+00  0.00000000000E+00  0.56656700570E+03  0.56656700570E+03  0.25500000920E-02 0.  1.
        2   -1    0    0  501    0  0.00000000000E+00  0.00000000000E+00 -0.15663981698E+04  0.15663981698E+04  0.25500000920E-02 0. -1.
    10030    2    1    2    0    0  0.00000000000E+00  0.00000000000E+00 -0.99983116406E+03  0.21329651755E+04  0.18841120145E+04 0.  0.
        5    1    3    3  502    0 -0.10431416551E+03 -0.16930024452E+03 -0.15423535898E+04  0.15551272308E+04  0.46999998093E+01 0. -1.
       -5    1    3    3    0  502  0.10431416551E+03  0.16930024452E+03  0.54252242573E+03  0.57783794470E+03  0.46999998093E+01 0.  1.
</event>
<event>
 5   0  0.8681396E-05  0.1541995E+04  0.7818609E-02  0.8856997E-01
       -1   -1    0    0    0  501  0.00000000000E+00  0.00000000000E+00  0.50191940522E+03  0.50191940525E+03  0.50400001928E-02 0. -1.
        1   -1    0    0  501    0  0.00000000000E+00  0.00000000000E+00 -0.11843276161E+04  0.11843276161E+04  0.50400001928E-02 0.  1.
    10030    2    1    2    0    0  0.00000000000E+00  0.00000000000E+00 -0.68240821086E+03  0.16862470213E+04  0.15419948284E+04 0.  0.
        3    1    3    3  502    0  0.18356409823E+03 -0.74861645106E+03 -0.36060138291E+03  0.85097340529E+03  0.10100000352E+00 0.  1.
       -3    1    3    3    0  502 -0.18356409823E+03  0.74861645106E+03 -0.32180682796E+03  0.83527361605E+03  0.10100000352E+00 0. -1.
</event>
<event>
 5   0  0.8681396E-05  0.1901973E+04  0.7818609E-02  0.8653875E-01
       -1   -1    0    0    0  501  0.00000000000E+00  0.00000000000E+00  0.70332596870E+03  0.70332596872E+03  0.50400001928E-02 0.  1.
        1   -1    0    0  501    0  0.00000000000E+00  0.00000000000E+00 -0.12858550956E+04  0.12858550956E+04  0.50400001928E-02 0. -1.
    10030    2    1    2    0    0  0.00000000000E+00  0.00000000000E+00 -0.58252912693E+03  0.19891810644E+04  0.19019729554E+04 0.  0.
        3    1    3    3  502    0 -0.73274319524E+03  0.57949557761E+02  0.33981340630E+03  0.80978015703E+03  0.10100000352E+00 0.  1.
       -3    1    3    3    0  502  0.73274319524E+03 -0.57949557761E+02 -0.92234253323E+03  0.11794009073E+04  0.10100000352E+00 0. -1.
</event>
<event>
 5   0  0.1810569E-04  0.1914567E+04  0.7818609E-02  0.8647639E-01
       -2   -1    0    0    0  501  0.00000000000E+00  0.00000000000E+00  0.98074028818E+03  0.98074028818E+03  0.25500000920E-02 0. -1.
        2   -1    0    0  501    0  0.00000000000E+00  0.00000000000E+00 -0.93438735603E+03  0.93438735604E+03  0.25500000920E-02 0.  1.
    10030    2    1    2    0    0  0.00000000000E+00  0.00000000000E+00  0.46352932148E+02  0.19151276442E+04  0.19145666087E+04 0.  0.
        4    1    3    3  502    0  0.20085339441E+03 -0.29114185892E+03 -0.86662568049E+03  0.93602743071E+03  0.12699999809E+01 0.  1.
       -4    1    3    3    0  502 -0.20085339441E+03  0.29114185892E+03  0.91297861263E+03  0.97910021351E+03  0.12699999809E+01 0. -1.
</event>
<event>
 5   0  0.1658711E-04  0.2266193E+04  0.7818609E-02  0.8491371E-01
       -2   -1    0    0    0  501  0.00000000000E+00  0.00000000000E+00  0.69253869622E+03  0.69253869623E+03  0.25500000920E-02 0. -1.
        2   -1    0    0  501    0  0.00000000000E+00  0.00000000000E+00 -0.18539143097E+04  0.18539143097E+04  0.25500000920E-02 0.  1.
    10030    2    1    2    0    0  0.00000000000E+00  0.00000000000E+00 -0.11613756135E+04  0.25464530060E+04  0.22661927535E+04 0.  0.
        2    1    3    3  502    0  0.58498627208E+03  0.11768355619E+02  0.50965436953E+03  0.77594781339E+03  0.25500000920E-02 0. -1.
       -2    1    3    3    0  502 -0.58498627208E+03 -0.11768355619E+02 -0.16710299830E+04  0.17705051926E+04  0.25500000920E-02 0.  1.
</event>
<event>
 5   0  0.8602017E-05  0.1905433E+04  0.7818609E-02  0.8652157E-01
       -1   -1    0    0    0  501  0.00000000000E+00  0.00000000000E+00  0.12369818208E+04  0.12369818208E+04  0.50400001928E-02 0.  1.
        1   -1    0    0  501    0  0.00000000000E+00  0.00000000000E+00 -0.73377666168E+03  0.73377666169E+03  0.50400001928E-02 0. -1.
    10030    2    1    2    0    0  0.00000000000E+00  0.00000000000E+00  0.50320515910E+03  0.19707584825E+04  0.19054326449E+04 0.  0.
        2    1    3    3  502    0 -0.13127571920E+03  0.27744791702E+03 -0.68123771674E+03  0.74719173431E+03  0.25500000920E-02 0. -1.
       -2    1    3    3    0  502  0.13127571920E+03 -0.27744791702E+03  0.11844428758E+04  0.12235667482E+04  0.25500000920E-02 0.  1.
</event>
<event>
 5   0  0.1658711E-04  0.1882029E+04  0.7818609E-02  0.8663854E-01
       -2   -1    0    0    0  501  0.00000000000E+00  0.00000000000E+00  0.48304066590E+03  0.48304066590E+03  0.25500000920E-02 0. -1.
        2   -1    0    0  501    0  0.00000000000E+00  0.00000000000E+00 -0.18331952499E+04  0.18331952499E+04  0.25500000920E-02 0.  1.
    10030    2    1    2    0    0  0.00000000000E+00  0.00000000000E+00 -0.13501545840E+04  0.23162359158E+04  0.18820285377E+04 0.  0.
        2    1    3    3  502    0 -0.31418249119E+02 -0.12858005397E+03  0.47152664061E+03  0.48975229399E+03  0.25500000920E-02 0. -1.
       -2    1    3    3    0  502  0.31418249119E+02  0.12858005397E+03 -0.18216812246E+04  0.18264836218E+04  0.25500000920E-02 0.  1.
</event>
<event>
 5   0  0.8602017E-05  0.1815259E+04  0.7818609E-02  0.8698227E-01
        1   -1    0    0  501    0  0.00000000000E+00  0.00000000000E+00  0.12149002891E+04  0.12149002891E+04  0.50400001928E-02 0. -1.
       -1   -1    0    0    0  501  0.00000000000E+00  0.00000000000E+00 -0.67807281363E+03  0.67807281365E+03  0.50400001928E-02 0.  1.
    10030    2    1    2    0    0  0.00000000000E+00  0.00000000000E+00  0.53682747550E+03  0.18929731028E+04  0.18152585021E+04 0.  0.
        2    1    3    3  502    0 -0.28629947218E+03  0.66945716736E+03  0.83350863822E+03  0.11067415853E+04  0.25500000920E-02 0. -1.
       -2    1    3    3    0  502  0.28629947218E+03 -0.66945716736E+03 -0.29668116273E+03  0.78623151745E+03  0.25500000920E-02 0.  1.
</event>
<event>
 5   0  0.6375750E-05  0.1995106E+04  0.7818609E-02  0.8608912E-01
       -3   -1    0    0    0  501  0.00000000000E+00  0.00000000000E+00  0.13369364719E+04  0.13369364757E+04  0.10100000352E+00 0.  1.
        3   -1    0    0  501    0  0.00000000000E+00  0.00000000000E+00 -0.74432252147E+03  0.74432252832E+03  0.10100000352E+00 0. -1.
    10030    2    1    2    0    0  0.00000000000E+00  0.00000000000E+00  0.59261395041E+03  0.20812590040E+04  0.19951059490E+04 0.  0.
        1    1    3    3  502    0  0.78967387433E+03  0.12568904688E+03  0.91849268095E+03  0.12177895423E+04  0.50400001928E-02 0.  1.
       -1    1    3    3    0  502 -0.78967387433E+03 -0.12568904688E+03 -0.32587873054E+03  0.86346946174E+03  0.50400001928E-02 0. -1.
</event>
<event>
 5   0  0.8905646E-05  0.1906036E+04  0.7818609E-02  0.8651858E-01
       -1   -1    0    0    0  501  0.00000000000E+00  0.00000000000E+00  0.76102882575E+03  0.76102882577E+03  0.50400001928E-02 0. -1.
        1   -1    0    0  501    0  0.00000000000E+00  0.00000000000E+00 -0.11934416339E+04  0.11934416339E+04  0.50400001928E-02 0.  1.
    10030    2    1    2    0    0  0.00000000000E+00  0.00000000000E+00 -0.43241280816E+03  0.19544704597E+04  0.19060361857E+04 0.  0.
        1    1    3    3  502    0 -0.41262320285E+03  0.85492475874E+03 -0.30254354136E+03  0.99633671270E+03  0.50400001928E-02 0.  1.
       -1    1    3    3    0  502  0.41262320285E+03 -0.85492475874E+03 -0.12986926680E+03  0.95813374699E+03  0.50400001928E-02 0. -1.
</event>
<event>
 5   0  0.1658711E-04  0.1811030E+04  0.7818609E-02  0.8700456E-01
       -2   -1    0    0    0  501  0.00000000000E+00  0.00000000000E+00  0.63373894523E+03  0.63373894523E+03  0.25500000920E-02 0.  1.
        2   -1    0    0  501    0  0.00000000000E+00  0.00000000000E+00 -0.12938412591E+04  0.12938412591E+04  0.25500000920E-02 0. -1.
    10030    2    1    2    0    0  0.00000000000E+00  0.00000000000E+00 -0.66010231387E+03  0.19275802043E+04  0.18110301984E+04 0.  0.
        2    1    3    3  502    0 -0.20278714284E+03  0.61095891572E+03 -0.10078745559E+04  0.11959115947E+04  0.25500000920E-02 0. -1.
       -2    1    3    3    0  502  0.20278714284E+03 -0.61095891572E+03  0.34777224199E+03  0.73166860962E+03  0.25500000920E-02 0.  1.
</event>
<event>
 5   0  0.1810569E-04  0.1894292E+04  0.7818609E-02  0.8657703E-01
       -2   -1    0    0    0  501  0.00000000000E+00  0.00000000000E+00  0.96856095854E+03  0.96856095855E+03  0.25500000920E-02 0. -1.
        2   -1    0    0  501    0  0.00000000000E+00  0.00000000000E+00 -0.92620425371E+03  0.92620425371E+03  0.25500000920E-02 0.  1.
    10030    2    1    2    0    0  0.00000000000E+00  0.00000000000E+00  0.42356704832E+02  0.18947652123E+04  0.18942917197E+04 0.  0.
        4    1    3    3  502    0 -0.10970588712E+03  0.67418134494E+03  0.67748853338E+03  0.96205415300E+03  0.12699999809E+01 0. -1.
       -4    1    3    3    0  502  0.10970588712E+03 -0.67418134494E+03 -0.63513182855E+03  0.93271105926E+03  0.12699999809E+01 0.  1.
</event>
<event>
 5   0  0.1799738E-04  0.1899777E+04  0.7818609E-02  0.8654968E-01
       -2   -1    0    0    0  501  0.00000000000E+00  0.00000000000E+00  0.93647834862E+03  0.93647834863E+03  0.25500000920E-02 0.  1.
        2   -1    0    0  501    0  0.00000000000E+00  0.00000000000E+00 -0.96349026988E+03  0.96349026988E+03  0.25500000920E-02 0. -1.
    10030    2    1    2    0    0  0.00000000000E+00  0.00000000000E+00 -0.27011921255E+02  0.18999686185E+04  0.18997765941E+04 0.  0.
        1    1    3    3  502    0  0.67461871934E+03  0.46350366919E+03 -0.49557305175E+03  0.95683787419E+03  0.50400001928E-02 0. -1.
       -1    1    3    3    0  502 -0.67461871934E+03 -0.46350366919E+03  0.46856113049E+03  0.94313074432E+03  0.50400001928E-02 0.  1.
</event>
<event>
 5   0  0.1799738E-04  0.1662547E+04  0.7818609E-02  0.8783018E-01
        2   -1    0    0  501    0  0.00000000000E+00  0.00000000000E+00  0.62989386637E+03  0.62989386638E+03  0.25500000920E-02 0.  1.
       -2   -1    0    0    0  501  0.00000000000E+00  0.00000000000E+00 -0.10970351713E+04  0.10970351713E+04  0.25500000920E-02 0. -1.
    10030    2    1    2    0    0  0.00000000000E+00  0.00000000000E+00 -0.46714130494E+03  0.17269290377E+04  0.16625471129E+04 0.  0.
        1    1    3    3  502    0  0.19227871207E+02 -0.69395515093E+03  0.24138027609E+03  0.73498836742E+03  0.50400001928E-02 0.  1.
       -1    1    3    3    0  502 -0.19227871207E+02  0.69395515093E+03 -0.70852158103E+03  0.99194067027E+03  0.50400001928E-02 0. -1.
</event>
<event>
 5   0  0.8602017E-05  0.1833534E+04  0.7818609E-02  0.8688667E-01
        1   -1    0    0  501    0  0.00000000000E+00  0.00000000000E+00  0.21162999276E+04  0.21162999276E+04  0.50400001928E-02 0.  1.
       -1   -1    0    0    0  501  0.00000000000E+00  0.00000000000E+00 -0.39713738879E+03  0.39713738882E+03  0.50400001928E-02 0. -1.
    10030    2    1    2    0    0  0.00000000000E+00  0.00000000000E+00  0.17191625388E+04  0.25134373164E+04  0.18335341035E+04 0.  0.
        2    1    3    3  502    0  0.57563670775E+03  0.32732842696E+03  0.17286830747E+04  0.18511744087E+04  0.25500000920E-02 0.  1.
       -2    1    3    3    0  502 -0.57563670775E+03 -0.32732842696E+03 -0.95205359254E+01  0.66226290777E+03  0.25500000920E-02 0. -1.
</event>
<event>
 5   0  0.6375750E-05  0.1917989E+04  0.7818609E-02  0.8645954E-01
        4   -1    0    0  501    0  0.00000000000E+00  0.00000000000E+00  0.65800031859E+03  0.65800154419E+03  0.12699999809E+01 0.  1.
       -4   -1    0    0    0  501  0.00000000000E+00  0.00000000000E+00 -0.13976720980E+04  0.13976726750E+04  0.12699999809E+01 0. -1.
    10030    2    1    2    0    0  0.00000000000E+00  0.00000000000E+00 -0.73967177940E+03  0.20556742192E+04  0.19179890912E+04 0.  0.
        1    1    3    3  502    0  0.42072464590E+03 -0.58538939199E+03  0.30800475170E+03  0.78393679275E+03  0.50400001928E-02 0.  1.
       -1    1    3    3    0  502 -0.42072464590E+03  0.58538939199E+03 -0.10476765311E+04  0.12717374264E+04  0.50400001928E-02 0. -1.
</event>
<event>
 5   0  0.1799738E-04  0.1910037E+04  0.7818609E-02  0.8649876E-01
       -2   -1    0    0    0  501  0.00000000000E+00  0.00000000000E+00  0.11162024899E+04  0.11162024899E+04  0.25500000920E-02 0. -1.
        2   -1    0    0  501    0  0.00000000000E+00  0.00000000000E+00 -0.81711009833E+03  0.81711009833E+03  0.25500000920E-02 0.  1.
    10030    2    1    2    0    0  0.00000000000E+00  0.00000000000E+00  0.29909239161E+03  0.19333125883E+04  0.19100369905E+04 0.  0.
        1    1    3    3  502    0  0.17317309659E+03  0.82147524898E+03 -0.31124840519E+03  0.89536923994E+03  0.50400001928E-02 0.  1.
       -1    1    3    3    0  502 -0.17317309659E+03 -0.82147524898E+03  0.61034079680E+03  0.10379433483E+04  0.50400001928E-02 0. -1.
</event>
<event>
 5   0  0.1790832E-04  0.1907488E+04  0.7818609E-02  0.8651138E-01
       -2   -1    0    0    0  501  0.00000000000E+00  0.00000000000E+00  0.31241797435E+03  0.31241797436E+03  0.25500000920E-02 0.  1.
        2   -1    0    0  501    0  0.00000000000E+00  0.00000000000E+00 -0.29115741361E+04  0.29115741361E+04  0.25500000920E-02 0. -1.
    10030    2    1    2    0    0  0.00000000000E+00  0.00000000000E+00 -0.25991561617E+04  0.32239921104E+04  0.19074884993E+04 0.  0.
        5    1    3    3  502    0 -0.16542611330E+03 -0.75460149262E+03 -0.35426194455E+03  0.84988989109E+03  0.46999998093E+01 0.  1.
       -5    1    3    3    0  502  0.16542611330E+03  0.75460149262E+03 -0.22448942172E+04  0.23741022193E+04  0.46999998093E+01 0. -1.
</event>
<event>
 5   0  0.1810569E-04  0.1907954E+04  0.7818609E-02  0.8650907E-01
       -2   -1    0    0    0  501  0.00000000000E+00  0.00000000000E+00  0.15468395112E+04  0.15468395112E+04  0.25500000920E-02 0. -1.
        2   -1    0    0  501    0  0.00000000000E+00  0.00000000000E+00 -0.58834301442E+03  0.58834301442E+03  0.25500000920E-02 0.  1.
    10030    2    1    2    0    0  0.00000000000E+00  0.00000000000E+00  0.95849649677E+03  0.21351825256E+04  0.19079541093E+04 0.  0.
        4    1    3    3  502    0  0.16601991911E+03 -0.86945733472E+03  0.87735677660E+03  0.12463046164E+04  0.12699999809E+01 0. -1.
       -4    1    3    3    0  502 -0.16601991911E+03  0.86945733472E+03  0.81139720167E+02  0.88887790924E+03  0.12699999809E+01 0.  1.
</event>
<event>
 5   0  0.8905646E-05  0.1896399E+04  0.7818609E-02  0.8656651E-01
        1   -1    0    0  501    0  0.00000000000E+00  0.00000000000E+00  0.76696673836E+03  0.76696673838E+03  0.50400001928E-02 0. -1.
       -1   -1    0    0    0  501  0.00000000000E+00  0.00000000000E+00 -0.11722574207E+04  0.11722574207E+04  0.50400001928E-02 0.  1.
    10030    2    1    2    0    0  0.00000000000E+00  0.00000000000E+00 -0.40529068230E+03  0.19392241590E+04  0.18963991673E+04 0.  0.
        1    1    3    3  502    0  0.11672639562E+03 -0.55606773567E+03  0.57360579027E+03  0.80737846191E+03  0.50400001928E-02 0. -1.
       -1    1    3    3    0  502 -0.11672639562E+03  0.55606773567E+03 -0.97889647257E+03  0.11318456971E+04  0.50400001928E-02 0.  1.
</event>
<event>
 5   0  0.1765328E-04  0.1895928E+04  0.7818609E-02  0.8656886E-01
        2   -1    0    0  501    0  0.00000000000E+00  0.00000000000E+00  0.34825683506E+03  0.34825683507E+03  0.25500000920E-02 0. -1.
       -2   -1    0    0    0  501  0.00000000000E+00  0.00000000000E+00 -0.25803813001E+04  0.25803813001E+04  0.25500000920E-02 0.  1.
    10030    2    1    2    0    0  0.00000000000E+00  0.00000000000E+00 -0.22321244650E+04  0.29286381352E+04  0.18959276620E+04 0.  0.
        3    1    3    3  502    0 -0.51226764207E+03 -0.55512571174E+03 -0.20008024570E+04  0.21386428348E+04  0.10100000352E+00 0.  1.
       -3    1    3    3    0  502  0.51226764207E+03  0.55512571174E+03 -0.23132200805E+03  0.78999530033E+03  0.10100000352E+00 0. -1.
</event>
<event>
 5   0  0.1799738E-04  0.1904102E+04  0.7818609E-02  0.8652817E-01
        2   -1    0    0  501    0  0.00000000000E+00  0.00000000000E+00  0.14365175421E+04  0.14365175421E+04  0.25500000920E-02 0. -1.
       -2   -1    0    0    0  501  0.00000000000E+00  0.00000000000E+00 -0.63097117605E+03  0.63097117606E+03  0.25500000920E-02 0.  1.
    10030    2    1    2    0    0  0.00000000000E+00  0.00000000000E+00  0.80554636602E+03  0.20674887181E+04  0.19041020592E+04 0.  0.
        1    1    3    3  502    0  0.31264467216E+03  0.25680869795E+03 -0.53297876157E+03  0.66915152147E+03  0.50400001928E-02 0.  1.
       -1    1    3    3    0  502 -0.31264467216E+03 -0.25680869795E+03  0.13385251276E+04  0.13983371967E+04  0.50400001928E-02 0. -1.
</event>
<event>
 5   0  0.8567844E-05  0.1899685E+04  0.7818609E-02  0.8655013E-01
        1   -1    0    0  501    0  0.00000000000E+00  0.00000000000E+00  0.20161294901E+04  0.20161294901E+04  0.50400001928E-02 0. -1.
       -1   -1    0    0    0  501  0.00000000000E+00  0.00000000000E+00 -0.44749125193E+03  0.44749125196E+03  0.50400001928E-02 0.  1.
    10030    2    1    2    0    0  0.00000000000E+00  0.00000000000E+00  0.15686382382E+04  0.24636207421E+04  0.18996845103E+04 0.  0.
        4    1    3    3  502    0  0.36698413512E+03  0.19453794668E+03  0.18921092687E+04  0.19371632522E+04  0.12699999809E+01 0. -1.
       -4    1    3    3    0  502 -0.36698413512E+03 -0.19453794668E+03 -0.32347103053E+03  0.52645748985E+03  0.12699999809E+01 0.  1.
</event>
<event>
 5   0  0.1765328E-04  0.1910524E+04  0.7818609E-02  0.8649635E-01
       -2   -1    0    0    0  501  0.00000000000E+00  0.00000000000E+00  0.73595539610E+03  0.73595539610E+03  0.25500000920E-02 0. -1.
        2   -1    0    0  501    0  0.00000000000E+00  0.00000000000E+00 -0.12399200057E+04  0.12399200057E+04  0.25500000920E-02 0.  1.
    10030    2    1    2    0    0  0.00000000000E+00  0.00000000000E+00 -0.50396460963E+03  0.19758754018E+04  0.19105243458E+04 0.  0.
        3    1    3    3  502    0  0.21922162189E+03  0.62346166472E+03  0.46136729305E+03  0.80599153605E+03  0.10100000352E+00 0. -1.
       -3    1    3    3    0  502 -0.21922162189E+03 -0.62346166472E+03 -0.96533190269E+03  0.11698838658E+04  0.10100000352E+00 0.  1.
</event>
<event>
 5   0  0.1799738E-04  0.1867720E+04  0.7818609E-02  0.8671093E-01
       -2   -1    0    0    0  501  0.00000000000E+00  0.00000000000E+00  0.41781735678E+03  0.41781735678E+03  0.25500000920E-02 0.  1.
        2   -1    0    0  501    0  0.00000000000E+00  0.00000000000E+00 -0.20872616525E+04  0.20872616525E+04  0.25500000920E-02 0. -1.
    10030    2    1    2    0    0  0.00000000000E+00  0.00000000000E+00 -0.16694442957E+04  0.25050790093E+04  0.18677196219E+04 0.  0.
        1    1    3    3  502    0  0.60124026816E+03  0.52551529419E+02  0.12109390607E+03  0.61556092908E+03  0.50400001928E-02 0.  1.
       -1    1    3    3    0  502 -0.60124026816E+03 -0.52551529419E+02 -0.17905382018E+04  0.18895180802E+04  0.50400001928E-02 0. -1.
</event>
<event>
 5   0  0.8602017E-05  0.1886848E+04  0.7818609E-02  0.8661431E-01
       -1   -1    0    0    0  501  0.00000000000E+00  0.00000000000E+00  0.71792475239E+03  0.71792475240E+03  0.50400001928E-02 0.  1.
        1   -1    0    0  501    0  0.00000000000E+00  0.00000000000E+00 -0.12397528551E+04  0.12397528551E+04  0.50400001928E-02 0. -1.
    10030    2    1    2    0    0  0.00000000000E+00  0.00000000000E+00 -0.52182810271E+03  0.19576776075E+04  0.18868484428E+04 0.  0.
        2    1    3    3  502    0  0.55121865823E+03 -0.18321185884E+03  0.51038993435E+03  0.77324412671E+03  0.25500000920E-02 0.  1.
       -2    1    3    3    0  502 -0.55121865823E+03  0.18321185884E+03 -0.10322180371E+04  0.11844334808E+04  0.25500000920E-02 0. -1.
</event>
<event>
 5   0  0.1790832E-04  0.1897015E+04  0.7818609E-02  0.8656343E-01
        2   -1    0    0  501    0  0.00000000000E+00  0.00000000000E+00  0.19738243593E+04  0.19738243593E+04  0.25500000920E-02 0.  1.
       -2   -1    0    0    0  501  0.00000000000E+00  0.00000000000E+00 -0.45579881386E+03  0.45579881386E+03  0.25500000920E-02 0. -1.
    10030    2    1    2    0    0  0.00000000000E+00  0.00000000000E+00  0.15180255454E+04  0.24296231732E+04  0.18970153418E+04 0.  0.
        5    1    3    3  502    0 -0.80647575431E+03 -0.49162832696E+03  0.64777695077E+03  0.11453115830E+04  0.46999998093E+01 0. -1.
       -5    1    3    3    0  502  0.80647575431E+03  0.49162832696E+03  0.87024859468E+03  0.12843115902E+04  0.46999998093E+01 0.  1.
</event>
<event>
 5   0  0.8905646E-05  0.1908426E+04  0.7818609E-02  0.8650674E-01
       -1   -1    0    0    0  501  0.00000000000E+00  0.00000000000E+00  0.53412433328E+03  0.53412433330E+03  0.50400001928E-02 0. -1.
        1   -1    0    0  501    0  0.00000000000E+00  0.00000000000E+00 -0.17047007517E+04  0.17047007517E+04  0.50400001928E-02 0.  1.
    10030    2    1    2    0    0  0.00000000000E+00  0.00000000000E+00 -0.11705764184E+04  0.22388250850E+04  0.19084256888E+04 0.  0.
        1    1    3    3  502    0 -0.62909696078E+03 -0.27309653801E+03  0.19303289090E+03  0.71246501818E+03  0.50400001928E-02 0. -1.
       -1    1    3    3    0  502  0.62909696078E+03  0.27309653801E+03 -0.13636093093E+04  0.15263600668E+04  0.50400001928E-02 0.  1.
</event>
<event>
 5   0  0.1799738E-04  0.1786966E+04  0.7818609E-02  0.8713262E-01
       -2   -1    0    0    0  501  0.00000000000E+00  0.00000000000E+00  0.79453519795E+03  0.79453519796E+03  0.25500000920E-02 0.  1.
        2   -1    0    0  501    0  0.00000000000E+00  0.00000000000E+00 -0.10047534872E+04  0.10047534872E+04  0.25500000920E-02 0. -1.
    10030    2    1    2    0    0  0.00000000000E+00  0.00000000000E+00 -0.21021828926E+03  0.17992886852E+04  0.17869661562E+04 0.  0.
        1    1    3    3  502    0  0.16564606029E+03  0.82028682006E+03  0.21010379961E+03  0.86281671930E+03  0.50400001928E-02 0.  1.
       -1    1    3    3    0  502 -0.16564606029E+03 -0.82028682006E+03 -0.42032208887E+03  0.93647196588E+03  0.50400001928E-02 0. -1.
</event>
<event>
 5   0  0.1658711E-04  0.1905650E+04  0.7818609E-02  0.8652049E-01
       -2   -1    0    0    0  501  0.00000000000E+00  0.00000000000E+00  0.64999427796E+03  0.64999427796E+03  0.25500000920E-02 0.  1.
        2   -1    0    0  501    0  0.00000000000E+00  0.00000000000E+00 -0.13967439370E+04  0.13967439370E+04  0.25500000920E-02 0. -1.
    10030    2    1    2    0    0  0.00000000000E+00  0.00000000000E+00 -0.74674965907E+03  0.20467382150E+04  0.19056500905E+04 0.  0.
        2    1    3    3  502    0  0.38375611246E+03 -0.58562823868E+03 -0.10674771540E+04  0.12766113983E+04  0.25500000920E-02 0. -1.
       -2    1    3    3    0  502 -0.38375611246E+03  0.58562823868E+03  0.32072749497E+03  0.77012681672E+03  0.25500000920E-02 0.  1.
</event>
<event>
 5   0  0.8587082E-05  0.1888428E+04  0.7818609E-02  0.8660638E-01
       -1   -1    0    0    0  501  0.00000000000E+00  0.00000000000E+00  0.56127115495E+03  0.56127115498E+03  0.50400001928E-02 0.  1.
        1   -1    0    0  501    0  0.00000000000E+00  0.00000000000E+00 -0.15884296847E+04  0.15884296847E+04  0.50400001928E-02 0. -1.
    10030    2    1    2    0    0  0.00000000000E+00  0.00000000000E+00 -0.10271585298E+04  0.21497008397E+04  0.18884276674E+04 0.  0.
        5    1    3    3  502    0  0.11601262099E+03 -0.92847756753E+03 -0.65751771004E+03  0.11436263160E+04  0.46999998093E+01 0. -1.
       -5    1    3    3    0  502 -0.11601262099E+03  0.92847756753E+03 -0.36964081973E+03  0.10060745237E+04  0.46999998093E+01 0.  1.
</event>
<event>
 5   0  0.8681396E-05  0.1895233E+04  0.7818609E-02  0.8657233E-01
       -1   -1    0    0    0  501  0.00000000000E+00  0.00000000000E+00  0.61897543188E+03  0.61897543190E+03  0.50400001928E-02 0. -1.
        1   -1    0    0  501    0  0.00000000000E+00  0.00000000000E+00 -0.14507470900E+04  0.14507470900E+04  0.50400001928E-02 0.  1.
    10030    2    1    2    0    0  0.00000000000E+00  0.00000000000E+00 -0.83177165809E+03  0.20697225219E+04  0.18952327631E+04 0.  0.
        3    1    3    3  502    0  0.30920723517E+03  0.82111733141E+02  0.55821491437E+03  0.64339362122E+03  0.10100000352E+00 0. -1.
       -3    1    3    3    0  502 -0.30920723517E+03 -0.82111733141E+02 -0.13899865725E+04  0.14263289006E+04  0.10100000352E+00 0.  1.
</event>
<event>
 5   0  0.1765328E-04  0.1890686E+04  0.7818609E-02  0.8659507E-01
       -2   -1    0    0    0  501  0.00000000000E+00  0.00000000000E+00  0.38200306197E+03  0.38200306198E+03  0.25500000920E-02 0. -1.
        2   -1    0    0  501    0  0.00000000000E+00  0.00000000000E+00 -0.23394394705E+04  0.23394394705E+04  0.25500000920E-02 0.  1.
    10030    2    1    2    0    0  0.00000000000E+00  0.00000000000E+00 -0.19574364085E+04  0.27214425325E+04  0.18906856333E+04 0.  0.
        3    1    3    3  502    0 -0.63459722040E+03 -0.91424715012E+02 -0.19786581468E+04  0.20799423508E+04  0.10100000352E+00 0.  1.
       -3    1    3    3    0  502  0.63459722040E+03  0.91424715012E+02  0.21221738300E+02  0.64150018163E+03  0.10100000352E+00 0. -1.
</event>
<event>
 5   0  0.1790832E-04  0.1907283E+04  0.7818609E-02  0.8651240E-01
        2   -1    0    0  501    0  0.00000000000E+00  0.00000000000E+00  0.61931092695E+03  0.61931092696E+03  0.25500000920E-02 0. -1.
       -2   -1    0    0    0  501  0.00000000000E+00  0.00000000000E+00 -0.14684573851E+04  0.14684573851E+04  0.25500000920E-02 0.  1.
    10030    2    1    2    0    0  0.00000000000E+00  0.00000000000E+00 -0.84914645818E+03  0.20877683121E+04  0.19072825741E+04 0.  0.
        5    1    3    3  502    0  0.43164760809E+03  0.78496630244E+03 -0.78249852387E+03  0.11894611315E+04  0.46999998093E+01 0. -1.
       -5    1    3    3    0  502 -0.43164760809E+03 -0.78496630244E+03 -0.66647934311E+02  0.89830718058E+03  0.46999998093E+01 0.  1.
</event>
<event>
 5   0  0.8587082E-05  0.1905819E+04  0.7818609E-02  0.8651965E-01
        1   -1    0    0  501    0  0.00000000000E+00  0.00000000000E+00  0.74512995456E+03  0.74512995458E+03  0.50400001928E-02 0. -1.
       -1   -1    0    0    0  501  0.00000000000E+00  0.00000000000E+00 -0.12186280261E+04  0.12186280261E+04  0.50400001928E-02 0.  1.
    10030    2    1    2    0    0  0.00000000000E+00  0.00000000000E+00 -0.47349807152E+03  0.19637579807E+04  0.19058187172E+04 0.  0.
        5    1    3    3  502    0  0.21102347282E+03  0.34207552909E+03 -0.11269987665E+04  0.11965345308E+04  0.46999998093E+01 0.  1.
       -5    1    3    3    0  502 -0.21102347282E+03 -0.34207552909E+03  0.65350069499E+03  0.76722344987E+03  0.46999998093E+01 0. -1.
</event>
<event>
 5   0  0.1799738E-04  0.1930205E+04  0.7818609E-02  0.8639966E-01
        2   -1    0    0  501    0  0.00000000000E+00  0.00000000000E+00  0.13574648780E+04  0.13574648780E+04  0.25500000920E-02 0. -1.
       -2   -1    0    0    0  501  0.00000000000E+00  0.00000000000E+00 -0.68614850687E+03  0.68614850687E+03  0.25500000920E-02 0.  1.
    10030    2    1    2    0    0  0.00000000000E+00  0.00000000000E+00  0.67131637109E+03  0.20436133848E+04  0.19302046515E+04 0.  0.
        1    1    3    3  502    0 -0.13578374236E+02  0.50723625899E+03  0.12048368550E+04  0.13073273660E+04  0.50400001928E-02 0. -1.
       -1    1    3    3    0  502  0.13578374236E+02 -0.50723625899E+03 -0.53352048395E+03  0.73628601881E+03  0.50400001928E-02 0.  1.
</event>
<event>
 5   0  0.8905646E-05  0.1921651E+04  0.7818609E-02  0.8644154E-01
        1   -1    0    0  501    0  0.00000000000E+00  0.00000000000E+00  0.91094507699E+03  0.91094507700E+03  0.50400001928E-02 0.  1.
       -1   -1    0    0    0  501  0.00000000000E+00  0.00000000000E+00 -0.10134375587E+04  0.10134375587E+04  0.50400001928E-02 0. -1.
    10030    2    1    2    0    0  0.00000000000E+00  0.00000000000E+00 -0.10249248174E+03  0.19243826357E+04  0.19216513263E+04 0.  0.
        1    1    3    3  502    0  0.15036303916E+03  0.94636526975E+03 -0.12184245070E+03  0.96595126696E+03  0.50400001928E-02 0.  1.
       -1    1    3    3    0  502 -0.15036303916E+03 -0.94636526975E+03  0.19349968965E+02  0.95843136878E+03  0.50400001928E-02 0. -1.
</event>
<event>
 5   0  0.1765328E-04  0.1846874E+04  0.7818609E-02  0.8681762E-01
       -2   -1    0    0    0  501  0.00000000000E+00  0.00000000000E+00  0.92969381589E+03  0.92969381589E+03  0.25500000920E-02 0. -1.
        2   -1    0    0  501    0  0.00000000000E+00  0.00000000000E+00 -0.91722185481E+03  0.91722185481E+03  0.25500000920E-02 0.  1.
    10030    2    1    2    0    0  0.00000000000E+00  0.00000000000E+00  0.12471961080E+02  0.18469156707E+04  0.18468735595E+04 0.  0.
        3    1    3    3  502    0 -0.62955841893E+03  0.57059182861E+02 -0.66693308237E+03  0.91891201960E+03  0.10100000352E+00 0.  1.
       -3    1    3    3    0  502  0.62955841893E+03 -0.57059182861E+02  0.67940504345E+03  0.92800365111E+03  0.10100000352E+00 0. -1.
</event>
<event>
 5   0  0.1810569E-04  0.1938547E+04  0.7818609E-02  0.8635903E-01
       -2   -1    0    0    0  501  0.00000000000E+00  0.00000000000E+00  0.41410490175E+03  0.41410490176E+03  0.25500000920E-02 0.  1.
        2   -1    0    0  501    0  0.00000000000E+00  0.00000000000E+00 -0.22687281324E+04  0.22687281324E+04  0.25500000920E-02 0. -1.
    10030    2    1    2    0    0  0.00000000000E+00  0.00000000000E+00 -0.18546232307E+04  0.26828330342E+04  0.19385473328E+04 0.  0.
        4    1    3    3  502    0 -0.33224205774E+03  0.85687358066E+03 -0.13535846760E+04  0.16360960260E+04  0.12699999809E+01 0. -1.
       -4    1    3    3    0  502  0.33224205774E+03 -0.85687358066E+03 -0.50103855462E+03  0.10467370082E+04  0.12699999809E+01 0.  1.
</event>
<event>
 5   0  0.1658711E-04  0.1899212E+04  0.7818609E-02  0.8655249E-01
       -2   -1    0    0    0  501  0.00000000000E+00  0.00000000000E+00  0.48475138455E+03  0.48475138455E+03  0.25500000920E-02 0.  1.
        2   -1    0    0  501    0  0.00000000000E+00  0.00000000000E+00 -0.18602346219E+04  0.18602346219E+04  0.25500000920E-02 0. -1.
    10030    2    1    2    0    0  0.00000000000E+00  0.00000000000E+00 -0.13754832374E+04  0.23449860065E+04  0.18992117402E+04 0.  0.
        2    1    3    3  502    0 -0.54841607326E+03  0.71974595588E+03 -0.33211597547E+03  0.96389597550E+03  0.25500000920E-02 0.  1.
       -2    1    3    3    0  502  0.54841607326E+03 -0.71974595588E+03 -0.10433672619E+04  0.13810900310E+04  0.25500000920E-02 0. -1.
</event>
<event>
 5   0  0.1658711E-04  0.1900658E+04  0.7818609E-02  0.8654529E-01
        2   -1    0    0  501    0  0.00000000000E+00  0.00000000000E+00  0.69834611439E+03  0.69834611439E+03  0.25500000920E-02 0. -1.
       -2   -1    0    0    0  501  0.00000000000E+00  0.00000000000E+00 -0.12932349683E+04  0.12932349683E+04  0.25500000920E-02 0.  1.
    10030    2    1    2    0    0  0.00000000000E+00  0.00000000000E+00 -0.59488885389E+03  0.19915810827E+04  0.19006584281E+04 0.  0.
        2    1    3    3  502    0  0.66919182674E+03  0.67304783377E+03 -0.34785540169E+03  0.10108483902E+04  0.25500000920E-02 0.  1.
       -2    1    3    3    0  502 -0.66919182674E+03 -0.67304783377E+03 -0.24703345220E+03  0.98073269245E+03  0.25500000920E-02 0. -1.
</event>
<event>
 5   0  0.1799738E-04  0.1950531E+04  0.7818609E-02  0.8630105E-01
        2   -1    0    0  501    0  0.00000000000E+00  0.00000000000E+00  0.18925176507E+04  0.18925176507E+04  0.25500000920E-02 0. -1.
       -2   -1    0    0    0  501  0.00000000000E+00  0.00000000000E+00 -0.50258052805E+03  0.50258052805E+03  0.25500000920E-02 0.  1.
    10030    2    1    2    0    0  0.00000000000E+00  0.00000000000E+00  0.13899371226E+04  0.23950981787E+04  0.19505307177E+04 0.  0.
        1    1    3    3  502    0  0.53860273910E+03  0.55953663997E+03 -0.29367993899E+02  0.77719794205E+03  0.50400001928E-02 0.  1.
       -1    1    3    3    0  502 -0.53860273910E+03 -0.55953663997E+03  0.14193051165E+04  0.16179002367E+04  0.50400001928E-02 0. -1.
</event>
<event>
 5   0  0.8587082E-05  0.1898463E+04  0.7818609E-02  0.8655622E-01
        1   -1    0    0  501    0  0.00000000000E+00  0.00000000000E+00  0.64351914594E+03  0.64351914596E+03  0.50400001928E-02 0. -1.
       -1   -1    0    0    0  501  0.00000000000E+00  0.00000000000E+00 -0.14001768803E+04  0.14001768803E+04  0.50400001928E-02 0.  1.
    10030    2    1    2    0    0  0.00000000000E+00  0.00000000000E+00 -0.75665773438E+03  0.20436960263E+04  0.18984631998E+04 0.  0.
        5    1    3    3  502    0  0.16044954095E+03  0.18428193672E+03 -0.13657293696E+04  0.13874230387E+04  0.46999998093E+01 0.  1.
       -5    1    3    3    0  502 -0.16044954095E+03 -0.18428193672E+03  0.60907163522E+03  0.65627298757E+03  0.46999998093E+01 0. -1.
</event>
<event>
 5   0  0.8905646E-05  0.1884265E+04  0.7818609E-02  0.8662729E-01
        1   -1    0    0  501    0  0.00000000000E+00  0.00000000000E+00  0.10478149937E+04  0.10478149937E+04  0.50400001928E-02 0. -1.
       -1   -1    0    0    0  501  0.00000000000E+00  0.00000000000E+00 -0.84710918796E+03  0.84710918798E+03  0.50400001928E-02 0.  1.
    10030    2    1    2    0    0  0.00000000000E+00  0.00000000000E+00  0.20070580571E+03  0.18949241817E+04  0.18842650646E+04 0.  0.
        1    1    3    3  502    0  0.19286909465E+03 -0.88552092906E+03 -0.15852886293E+03  0.92004195767E+03  0.50400001928E-02 0.  1.
       -1    1    3    3    0  502 -0.19286909465E+03  0.88552092906E+03  0.35923466865E+03  0.97488222399E+03  0.50400001928E-02 0. -1.
</event>
<event>
 5   0  0.1799738E-04  0.1817316E+04  0.7818609E-02  0.8697145E-01
       -2   -1    0    0    0  501  0.00000000000E+00  0.00000000000E+00  0.93955110592E+03  0.93955110593E+03  0.25500000920E-02 0.  1.
        2   -1    0    0  501    0  0.00000000000E+00  0.00000000000E+00 -0.87878057499E+03  0.87878057500E+03  0.25500000920E-02 0. -1.
    10030    2    1    2    0    0  0.00000000000E+00  0.00000000000E+00  0.60770530931E+02  0.18183316809E+04  0.18173158901E+04 0.  0.
        1    1    3    3  502    0 -0.81088934949E+02 -0.39861298669E+03  0.84336113747E+03  0.93633633740E+03  0.50400001928E-02 0.  1.
       -1    1    3    3    0  502  0.81088934949E+02  0.39861298669E+03 -0.78259060654E+03  0.88199534352E+03  0.50400001928E-02 0. -1.
</event>
<event>
 5   0  0.8602017E-05  0.1904811E+04  0.7818609E-02  0.8652465E-01
        1   -1    0    0  501    0  0.00000000000E+00  0.00000000000E+00  0.70992390446E+03  0.70992390448E+03  0.50400001928E-02 0.  1.
       -1   -1    0    0    0  501  0.00000000000E+00  0.00000000000E+00 -0.12777089136E+04  0.12777089136E+04  0.50400001928E-02 0. -1.
    10030    2    1    2    0    0  0.00000000000E+00  0.00000000000E+00 -0.56778500912E+03  0.19876328181E+04  0.19048108575E+04 0.  0.
        2    1    3    3  502    0  0.39209187464E+03  0.53058088503E+03  0.43286840020E+03  0.78906727572E+03  0.25500000920E-02 0.  1.
       -2    1    3    3    0  502 -0.39209187464E+03 -0.53058088503E+03 -0.10006534093E+04  0.11985655424E+04  0.25500000920E-02 0. -1.
</event>
<event>
 5   0  0.8681396E-05  0.1924779E+04  0.7818609E-02  0.8642620E-01
       -1   -1    0    0    0  501  0.00000000000E+00  0.00000000000E+00  0.65780288485E+03  0.65780288487E+03  0.50400001928E-02 0. -1.
        1   -1    0    0  501    0  0.00000000000E+00  0.00000000000E+00 -0.14080109836E+04  0.14080109836E+04  0.50400001928E-02 0.  1.
    10030    2    1    2    0    0  0.00000000000E+00  0.00000000000E+00 -0.75020809876E+03  0.20658138685E+04  0.19247791426E+04 0.  0.
        3    1    3    3  502    0  0.28873876328E+03  0.87951276884E+03 -0.65760311942E+03  0.11354975371E+04  0.10100000352E+00 0.  1.
       -3    1    3    3    0  502 -0.28873876328E+03 -0.87951276884E+03 -0.92604979346E+02  0.93031633135E+03  0.10100000352E+00 0. -1.
</event>
<event>
 5   0  0.8567844E-05  0.1904906E+04  0.7818609E-02  0.8652418E-01
       -1   -1    0    0    0  501  0.00000000000E+00  0.00000000000E+00  0.50871157980E+03  0.50871157983E+03  0.50400001928E-02 0. -1.
        1   -1    0    0  501    0  0.00000000000E+00  0.00000000000E+00 -0.17832628039E+04  0.17832628039E+04  0.50400001928E-02 0.  1.
    10030    2    1    2    0    0  0.00000000000E+00  0.00000000000E+00 -0.12745512241E+04  0.22919743838E+04  0.19049057071E+04 0.  0.
        4    1    3    3  502    0  0.45906153646E+02  0.94876752536E+03 -0.55307225526E+03  0.10991622831E+04  0.12699999809E+01 0.  1.
       -4    1    3    3    0  502 -0.45906153646E+02 -0.94876752536E+03 -0.72147896885E+03  0.11928121007E+04  0.12699999809E+01 0. -1.
</event>
<event>
 5   0  0.1799738E-04  0.1922949E+04  0.7818609E-02  0.8643517E-01
       -2   -1    0    0    0  501  0.00000000000E+00  0.00000000000E+00  0.11128129810E+04  0.11128129810E+04  0.25500000920E-02 0.  1.
        2   -1    0    0  501    0  0.00000000000E+00  0.00000000000E+00 -0.83071728554E+03  0.83071728555E+03  0.25500000920E-02 0. -1.
    10030    2    1    2    0    0  0.00000000000E+00  0.00000000000E+00  0.28209569541E+03  0.19435302665E+04  0.19229487553E+04 0.  0.
        1    1    3    3  502    0  0.63679417566E+03 -0.17815240767E+03 -0.56441124188E+03  0.86937054959E+03  0.50400001928E-02 0. -1.
       -1    1    3    3    0  502 -0.63679417566E+03  0.17815240767E+03  0.84650693729E+03  0.10741597169E+04  0.50400001928E-02 0.  1.
</event>
<event>
 5   0  0.8602017E-05  0.1895183E+04  0.7818609E-02  0.8657258E-01
        1   -1    0    0  501    0  0.00000000000E+00  0.00000000000E+00  0.61100196164E+03  0.61100196166E+03  0.50400001928E-02 0. -1.
       -1   -1    0    0    0  501  0.00000000000E+00  0.00000000000E+00 -0.14696013652E+04  0.14696013652E+04  0.50400001928E-02 0.  1.
    10030    2    1    2    0    0  0.00000000000E+00  0.00000000000E+00 -0.85859940356E+03  0.20806033269E+04  0.18951826477E+04 0.  0.
        2    1    3    3  502    0  0.65912969815E+03  0.58463469467E+03 -0.46345216316E+02  0.88226841964E+03  0.25500000920E-02 0. -1.
       -2    1    3    3    0  502 -0.65912969815E+03 -0.58463469467E+03 -0.81225418724E+03  0.11983349072E+04  0.25500000920E-02 0.  1.
</event>
<event>
 5   0  0.8587082E-05  0.1923397E+04  0.7818609E-02  0.8643297E-01
        1   -1    0    0  501    0  0.00000000000E+00  0.00000000000E+00  0.10302136533E+04  0.10302136533E+04  0.50400001928E-02 0. -1.
       -1   -1    0    0    0  501  0.00000000000E+00  0.00000000000E+00 -0.89774018699E+03  0.89774018700E+03  0.50400001928E-02 0.  1.
    10030    2    1    2    0    0  0.00000000000E+00  0.00000000000E+00  0.13247346629E+03  0.19279538403E+04  0.19233972005E+04 0.  0.
        5    1    3    3  502    0  0.70517956918E+03 -0.38755372847E+03  0.59413988669E+03  0.10002501748E+04  0.46999998093E+01 0. -1.
       -5    1    3    3    0  502 -0.70517956918E+03  0.38755372847E+03 -0.46166642040E+03  0.92770366549E+03  0.46999998093E+01 0.  1.
</event>
<event>
 5   0  0.8587082E-05  0.1910322E+04  0.7818609E-02  0.8649735E-01
       -1   -1    0    0    0  501  0.00000000000E+00  0.00000000000E+00  0.93709608001E+03  0.93709608002E+03  0.50400001928E-02 0.  1.
        1   -1    0    0  501    0  0.00000000000E+00  0.00000000000E+00 -0.97357427660E+03  0.97357427661E+03  0.50400001928E-02 0. -1.
    10030    2    1    2    0    0  0.00000000000E+00  0.00000000000E+00 -0.36478196588E+02  0.19106703566E+04  0.19103221071E+04 0.  0.
        5    1    3    3  502    0  0.85404976650E+03 -0.40521223485E+03 -0.15505800225E+03  0.95794730178E+03  0.46999998093E+01 0. -1.
       -5    1    3    3    0  502 -0.85404976650E+03  0.40521223485E+03  0.11857980566E+03  0.95272305485E+03  0.46999998093E+01 0.  1.
</event>
<event>
 5   0  0.1799738E-04  0.1913013E+04  0.7818609E-02  0.8648406E-01
        2   -1    0    0  501    0  0.00000000000E+00  0.00000000000E+00  0.11635079052E+04  0.11635079052E+04  0.25500000920E-02 0. -1.
       -2   -1    0    0    0  501  0.00000000000E+00  0.00000000000E+00 -0.78633327968E+03  0.78633327968E+03  0.25500000920E-02 0.  1.
    10030    2    1    2    0    0  0.00000000000E+00  0.00000000000E+00  0.37717462550E+03  0.19498411849E+04  0.19130133162E+04 0.  0.
        1    1    3    3  502    0 -0.23210560545E+03  0.22911077206E+03 -0.72791182956E+03  0.79763424550E+03  0.50400001928E-02 0.  1.
       -1    1    3    3    0  502  0.23210560545E+03 -0.22911077206E+03  0.11050864551E+04  0.11522069394E+04  0.50400001928E-02 0. -1.
</event>
<event>
 5   0  0.8587082E-05  0.1861507E+04  0.7818609E-02  0.8674257E-01
        1   -1    0    0  501    0  0.00000000000E+00  0.00000000000E+00  0.15608181224E+04  0.15608181224E+04  0.50400001928E-02 0.  1.
       -1   -1    0    0    0  501  0.00000000000E+00  0.00000000000E+00 -0.55503101424E+03  0.55503101426E+03  0.50400001928E-02 0. -1.
    10030    2    1    2    0    0  0.00000000000E+00  0.00000000000E+00  0.10057871081E+04  0.21158491366E+04  0.18615074166E+04 0.  0.
        5    1    3    3  502    0 -0.74265210606E+03  0.31758902017E+03  0.10285603406E+04  0.13078048021E+04  0.46999998093E+01 0.  1.
       -5    1    3    3    0  502  0.74265210606E+03 -0.31758902017E+03 -0.22773232426E+02  0.80804433448E+03  0.46999998093E+01 0. -1.
</event>
<event>
 5   0  0.1658711E-04  0.1907825E+04  0.7818609E-02  0.8650971E-01
        2   -1    0    0  501    0  0.00000000000E+00  0.00000000000E+00  0.11271532440E+04  0.11271532440E+04  0.25500000920E-02 0. -1.
       -2   -1    0    0    0  501  0.00000000000E+00  0.00000000000E+00 -0.80729860828E+03  0.80729860828E+03  0.25500000920E-02 0.  1.
    10030    2    1    2    0    0  0.00000000000E+00  0.00000000000E+00  0.31985463571E+03  0.19344518523E+04  0.19078251966E+04 0.  0.
        2    1    3    3  502    0  0.36512097533E+03  0.54231571219E+03  0.86426564002E+03  0.10836857270E+04  0.25500000920E-02 0. -1.
       -2    1    3    3    0  502 -0.36512097533E+03 -0.54231571219E+03 -0.54441100432E+03  0.85076612529E+03  0.25500000920E-02 0.  1.
</event>
<event>
 5   0  0.8602017E-05  0.1898867E+04  0.7818609E-02  0.8655420E-01
        1   -1    0    0  501    0  0.00000000000E+00  0.00000000000E+00  0.87874097261E+03  0.87874097263E+03  0.50400001928E-02 0. -1.
       -1   -1    0    0    0  501  0.00000000000E+00  0.00000000000E+00 -0.10258132409E+04  0.10258132409E+04  0.50400001928E-02 0.  1.
    10030    2    1    2    0    0  0.00000000000E+00  0.00000000000E+00 -0.14707226827E+03  0.19045542135E+04  0.18988671623E+04 0.  0.
        2    1    3    3  502    0 -0.40336563128E+03  0.55006151980E+03 -0.73593258465E+03  0.10034282621E+04  0.25500000920E-02 0.  1.
       -2    1    3    3    0  502  0.40336563128E+03 -0.55006151980E+03  0.58886031639E+03  0.90112595140E+03  0.25500000920E-02 0. -1.
</event>
<event>
 5   0  0.1790832E-04  0.1915662E+04  0.7818609E-02  0.8647100E-01
        2   -1    0    0  501    0  0.00000000000E+00  0.00000000000E+00  0.81012564587E+03  0.81012564587E+03  0.25500000920E-02 0.  1.
       -2   -1    0    0    0  501  0.00000000000E+00  0.00000000000E+00 -0.11324660113E+04  0.11324660114E+04  0.25500000920E-02 0. -1.
    10030    2    1    2    0    0  0.00000000000E+00  0.00000000000E+00 -0.32234036548E+03  0.19425916572E+04  0.19156615138E+04 0.  0.
        5    1    3    3  502    0 -0.62966410006E+02  0.94295828543E+03 -0.31918946607E+03  0.99751646708E+03  0.46999998093E+01 0.  1.
       -5    1    3    3    0  502  0.62966410006E+02 -0.94295828543E+03 -0.31508994055E+01  0.94507519014E+03  0.46999998093E+01 0. -1.
</event>
<event>
 5   0  0.1810569E-04  0.1912215E+04  0.7818609E-02  0.8648800E-01
        2   -1    0    0  501    0  0.00000000000E+00  0.00000000000E+00  0.91110263301E+03  0.91110263301E+03  0.25500000920E-02 0. -1.
       -2   -1    0    0    0  501  0.00000000000E+00  0.00000000000E+00 -0.10033356732E+04  0.10033356732E+04  0.25500000920E-02 0.  1.
    10030    2    1    2    0    0  0.00000000000E+00  0.00000000000E+00 -0.92233040162E+02  0.19144383062E+04  0.19122152323E+04 0.  0.
        4    1    3    3  502    0 -0.21844069151E+03 -0.61498087178E+03  0.65342489568E+03  0.92351692760E+03  0.12699999809E+01 0. -1.
       -4    1    3    3    0  502  0.21844069151E+03  0.61498087178E+03 -0.74565793584E+03  0.99092137859E+03  0.12699999809E+01 0.  1.
</event>
<event>
 5   0  0.1810569E-04  0.1891895E+04  0.7818609E-02  0.8658901E-01
        2   -1    0    0  501    0  0.00000000000E+00  0.00000000000E+00  0.53348403961E+03  0.53348403961E+03  0.25500000920E-02 0.  1.
       -2   -1    0    0    0  501  0.00000000000E+00  0.00000000000E+00 -0.16773068947E+04  0.16773068947E+04  0.25500000920E-02 0. -1.
    10030    2    1    2    0    0  0.00000000000E+00  0.00000000000E+00 -0.11438228551E+04  0.22107909343E+04  0.18918947728E+04 0.  0.
        4    1    3    3  502    0 -0.68004109269E+03 -0.28048581835E+03 -0.12668717971E+04  0.14649552708E+04  0.12699999809E+01 0. -1.
       -4    1    3    3    0  502  0.68004109269E+03  0.28048581835E+03  0.12304894201E+03  0.74583566359E+03  0.12699999809E+01 0.  1.
</event>
<event>
 5   0  0.8587082E-05  0.1910756E+04  0.7818609E-02  0.8649521E-01
        1   -1    0    0  501    0  0.00000000000E+00  0.00000000000E+00  0.89056633023E+03  0.89056633025E+03  0.50400001928E-02 0.  1.
       -1   -1    0    0    0  501  0.00000000000E+00  0.00000000000E+00 -0.10249067658E+04  0.10249067658E+04  0.50400001928E-02 0. -1.
    10030    2    1    2    0    0  0.00000000000E+00  0.00000000000E+00 -0.13434043556E+03  0.19154730960E+04  0.19107563500E+04 0.  0.
        5    1    3    3  502    0 -0.67678220801E+03  0.65492864974E+03 -0.22806461668E+03  0.96902077001E+03  0.46999998093E+01 0. -1.
       -5    1    3    3    0  502  0.67678220801E+03 -0.65492864974E+03  0.93724181125E+02  0.94645232603E+03  0.46999998093E+01 0.  1.
</event>
<event>
 5   0  0.6375750E-05  0.1971410E+04  0.7818609E-02  0.8620106E-01
       -3   -1    0    0    0  501  0.00000000000E+00  0.00000000000E+00  0.86760858101E+03  0.86760858689E+03  0.10100000352E+00 0. -1.
        3   -1    0    0  501    0  0.00000000000E+00  0.00000000000E+00 -0.11198757903E+04  0.11198757949E+04  0.10100000352E+00 0.  1.
    10030    2    1    2    0    0  0.00000000000E+00  0.00000000000E+00 -0.25226720930E+03  0.19874843817E+04  0.19714095016E+04 0.  0.
        2    1    3    3  502    0  0.15401567691E+03  0.24879862102E+03 -0.10750803625E+04  0.11141900055E+04  0.25500000920E-02 0.  1.
       -2    1    3    3    0  502 -0.15401567691E+03 -0.24879862102E+03  0.82281315318E+03  0.87329437626E+03  0.25500000920E-02 0. -1.
</event>
<event>
 5   0  0.8587082E-05  0.1916866E+04  0.7818609E-02  0.8646506E-01
       -1   -1    0    0    0  501  0.00000000000E+00  0.00000000000E+00  0.68220806126E+03  0.68220806128E+03  0.50400001928E-02 0. -1.
        1   -1    0    0  501    0  0.00000000000E+00  0.00000000000E+00 -0.13465016152E+04  0.13465016153E+04  0.50400001928E-02 0.  1.
    10030    2    1    2    0    0  0.00000000000E+00  0.00000000000E+00 -0.66429355399E+03  0.20287096765E+04  0.19168664601E+04 0.  0.
        5    1    3    3  502    0 -0.50146321812E+03  0.52418988690E+03  0.33076354431E+03  0.79728728128E+03  0.46999998093E+01 0. -1.
       -5    1    3    3    0  502  0.50146321812E+03 -0.52418988690E+03 -0.99505709830E+03  0.12314223952E+04  0.46999998093E+01 0.  1.
</event>
<event>
 5   0  0.1810569E-04  0.1902031E+04  0.7818609E-02  0.8653846E-01
       -2   -1    0    0    0  501  0.00000000000E+00  0.00000000000E+00  0.76929473093E+03  0.76929473093E+03  0.25500000920E-02 0.  1.
        2   -1    0    0  501    0  0.00000000000E+00  0.00000000000E+00 -0.11756615556E+04  0.11756615556E+04  0.25500000920E-02 0. -1.
    10030    2    1    2    0    0  0.00000000000E+00  0.00000000000E+00 -0.40636682464E+03  0.19449562865E+04  0.19020307464E+04 0.  0.
        4    1    3    3  502    0  0.32433080507E+02 -0.70205844365E+03  0.45197142805E+03  0.83559424824E+03  0.12699999809E+01 0.  1.
       -4    1    3    3    0  502 -0.32433080507E+02  0.70205844365E+03 -0.85833825269E+03  0.11093620383E+04  0.12699999809E+01 0. -1.
</event>
<event>
 5   0  0.1790832E-04  0.1867435E+04  0.7818609E-02  0.8671238E-01
        2   -1    0    0  501    0  0.00000000000E+00  0.00000000000E+00  0.79725534383E+03  0.79725534384E+03  0.25500000920E-02 0. -1.
       -2   -1    0    0    0  501  0.00000000000E+00  0.00000000000E+00 -0.10935370719E+04  0.10935370719E+04  0.25500000920E-02 0.  1.
    10030    2    1    2    0    0  0.00000000000E+00  0.00000000000E+00 -0.29628172809E+03  0.18907924158E+04  0.18674348977E+04 0.  0.
        5    1    3    3  502    0  0.28068905993E+03  0.89051152774E+03 -0.15118763624E+03  0.94587362832E+03  0.46999998093E+01 0. -1.
       -5    1    3    3    0  502 -0.28068905993E+03 -0.89051152774E+03 -0.14509409185E+03  0.94491878745E+03  0.46999998093E+01 0.  1.
</event>
<event>
 5   0  0.8681396E-05  0.1922376E+04  0.7818609E-02  0.8643798E-01
       -1   -1    0    0    0  501  0.00000000000E+00  0.00000000000E+00  0.10430793556E+04  0.10430793556E+04  0.50400001928E-02 0.  1.
        1   -1    0    0  501    0  0.00000000000E+00  0.00000000000E+00 -0.88572572538E+03  0.88572572540E+03  0.50400001928E-02 0. -1.
    10030    2    1    2    0    0  0.00000000000E+00  0.00000000000E+00  0.15735363017E+03  0.19288050810E+04  0.19223758414E+04 0.  0.
        3    1    3    3  502    0  0.82911382704E+03  0.26609665323E+03 -0.32967948623E+03  0.93108847103E+03  0.10100000352E+00 0. -1.
       -3    1    3    3    0  502 -0.82911382704E+03 -0.26609665323E+03  0.48703311641E+03  0.99771660993E+03  0.10100000352E+00 0.  1.
</event>
<event>
 5   0  0.1810569E-04  0.1922390E+04  0.7818609E-02  0.8643791E-01
       -2   -1    0    0    0  501  0.00000000000E+00  0.00000000000E+00  0.55868429637E+03  0.55868429637E+03  0.25500000920E-02 0.  1.
        2   -1    0    0  501    0  0.00000000000E+00  0.00000000000E+00 -0.16536995584E+04  0.16536995584E+04  0.25500000920E-02 0. -1.
    10030    2    1    2    0    0  0.00000000000E+00  0.00000000000E+00 -0.10950152620E+04  0.22123838547E+04  0.19223901521E+04 0.  0.
        4    1    3    3  502    0  0.87306401833E+03 -0.39934951955E+02 -0.10079324220E+04  0.13340783188E+04  0.12699999809E+01 0. -1.
       -4    1    3    3    0  502 -0.87306401833E+03  0.39934951955E+02 -0.87082839953E+02  0.87830553590E+03  0.12699999809E+01 0.  1.
</event>
<event>
 5   0  0.1799738E-04  0.1896527E+04  0.7818609E-02  0.8656587E-01
       -2   -1    0    0    0  501  0.00000000000E+00  0.00000000000E+00  0.59881696556E+03  0.59881696557E+03  0.25500000920E-02 0.  1.
        2   -1    0    0  501    0  0.00000000000E+00  0.00000000000E+00 -0.15016328198E+04  0.15016328198E+04  0.25500000920E-02 0. -1.
    10030    2    1    2    0    0  0.00000000000E+00  0.00000000000E+00 -0.90281585422E+03  0.21004497853E+04  0.18965265182E+04 0.  0.
        1    1    3    3  502    0 -0.32607524343E+03 -0.24536292512E+03 -0.13994096431E+04  0.14576952283E+04  0.50400001928E-02 0. -1.
       -1    1    3    3    0  502  0.32607524343E+03  0.24536292512E+03  0.49659378889E+03  0.64275455704E+03  0.50400001928E-02 0.  1.
</event>
<event>
 5   0  0.8681396E-05  0.1744219E+04  0.7818609E-02  0.8736539E-01
        1   -1    0    0  501    0  0.00000000000E+00  0.00000000000E+00  0.10065873472E+04  0.10065873473E+04  0.50400001928E-02 0.  1.
       -1   -1    0    0    0  501  0.00000000000E+00  0.00000000000E+00 -0.75559789331E+03  0.75559789332E+03  0.50400001928E-02 0. -1.
    10030    2    1    2    0    0  0.00000000000E+00  0.00000000000E+00  0.25098945394E+03  0.17621852406E+04  0.17442193429E+04 0.  0.
        3    1    3    3  502    0 -0.41721908627E+03 -0.73777777258E+03  0.33300622054E+03  0.91064864838E+03  0.10100000352E+00 0.  1.
       -3    1    3    3    0  502  0.41721908627E+03  0.73777777258E+03 -0.82016766599E+02  0.85153659221E+03  0.10100000352E+00 0. -1.
</event>
<event>
 5   0  0.1765328E-04  0.1900494E+04  0.7818609E-02  0.8654611E-01
       -2   -1    0    0    0  501  0.00000000000E+00  0.00000000000E+00  0.48749514827E+03  0.48749514828E+03  0.25500000920E-02 0. -1.
        2   -1    0    0  501    0  0.00000000000E+00  0.00000000000E+00 -0.18522633372E+04  0.18522633372E+04  0.25500000920E-02 0.  1.
    10030    2    1    2    0    0  0.00000000000E+00  0.00000000000E+00 -0.13647681890E+04  0.23397584855E+04  0.19004940308E+04 0.  0.
        3    1    3    3  502    0 -0.34498227765E+03  0.29165850243E+03 -0.17116072129E+04  0.17702193976E+04  0.10100000352E+00 0.  1.
       -3    1    3    3    0  502  0.34498227765E+03 -0.29165850243E+03  0.34683902398E+03  0.56953908794E+03  0.10100000352E+00 0. -1.
</event>
<event>
 5   0  0.8681396E-05  0.1919014E+04  0.7818609E-02  0.8645449E-01
       -1   -1    0    0    0  501  0.00000000000E+00  0.00000000000E+00  0.14992613474E+04  0.14992613474E+04  0.50400001928E-02 0. -1.
        1   -1    0    0  501    0  0.00000000000E+00  0.00000000000E+00 -0.61407168062E+03  0.61407168064E+03  0.50400001928E-02 0.  1.
    10030    2    1    2    0    0  0.00000000000E+00  0.00000000000E+00  0.88518966677E+03  0.21133330280E+04  0.19190142629E+04 0.  0.
        3    1    3    3  502    0  0.37757954965E+03  0.87102088511E+03  0.59602298024E+03  0.11209313546E+04  0.10100000352E+00 0. -1.
       -3    1    3    3    0  502 -0.37757954965E+03 -0.87102088511E+03  0.28916668653E+03  0.99240167342E+03  0.10100000352E+00 0.  1.
</event>
<event>
 5   0  0.8587082E-05  0.2096025E+04  0.7818609E-02  0.8562996E-01
        1   -1    0    0  501    0  0.00000000000E+00  0.00000000000E+00  0.11395969402E+04  0.11395969402E+04  0.50400001928E-02 0.  1.
       -1   -1    0    0    0  501  0.00000000000E+00  0.00000000000E+00 -0.96378814049E+03  0.96378814050E+03  0.50400001928E-02 0. -1.
    10030    2    1    2    0    0  0.00000000000E+00  0.00000000000E+00  0.17580879971E+03  0.21033850807E+04  0.20960248242E+04 0.  0.
        5    1    3    3  502    0  0.83420722119E+03  0.45103036430E+03 -0.35973131803E+03  0.10142774712E+04  0.46999998093E+01 0. -1.
       -5    1    3    3    0  502 -0.83420722119E+03 -0.45103036430E+03  0.53554011774E+03  0.10891076095E+04  0.46999998093E+01 0.  1.
</event>
<event>
 5   0  0.8905646E-05  0.1904780E+04  0.7818609E-02  0.8652481E-01
        1   -1    0    0  501    0  0.00000000000E+00  0.00000000000E+00  0.18109328685E+04  0.18109328685E+04  0.50400001928E-02 0. -1.
       -1   -1    0    0    0  501  0.00000000000E+00  0.00000000000E+00 -0.50087277111E+03  0.50087277114E+03  0.50400001928E-02 0.  1.
    10030    2    1    2    0    0  0.00000000000E+00  0.00000000000E+00  0.13100600974E+04  0.23118056396E+04  0.19047802647E+04 0.  0.
        1    1    3    3  502    0 -0.94854238516E+03 -0.47225512476E+01  0.55138944802E+03  0.10971714918E+04  0.50400001928E-02 0.  1.
       -1    1    3    3    0  502  0.94854238516E+03  0.47225512476E+01  0.75867064935E+03  0.12146341479E+04  0.50400001928E-02 0. -1.
</event>
<event>
 5   0  0.8905646E-05  0.1905194E+04  0.7818609E-02  0.8652275E-01
       -1   -1    0    0    0  501  0.00000000000E+00  0.00000000000E+00  0.12835932175E+04  0.12835932175E+04  0.50400001928E-02 0. -1.
        1   -1    0    0  501    0  0.00000000000E+00  0.00000000000E+00 -0.70695366188E+03  0.70695366190E+03  0.50400001928E-02 0.  1.
    10030    2    1    2    0    0  0.00000000000E+00  0.00000000000E+00  0.57663955559E+03  0.19905468794E+04  0.19051938752E+04 0.  0.
        1    1    3    3  502    0 -0.17955981543E+03 -0.41315230676E+03 -0.58863072007E+03  0.74123051781E+03  0.50400001928E-02 0.  1.
       -1    1    3    3    0  502  0.17955981543E+03  0.41315230676E+03  0.11652702757E+04  0.12493163616E+04  0.50400001928E-02 0. -1.
</event>
<event>
 5   0  0.1765328E-04  0.1902084E+04  0.7818609E-02  0.8653820E-01
        2   -1    0    0  501    0  0.00000000000E+00  0.00000000000E+00  0.31697954852E+03  0.31697954853E+03  0.25500000920E-02 0. -1.
       -2   -1    0    0    0  501  0.00000000000E+00  0.00000000000E+00 -0.28534363119E+04  0.28534363119E+04  0.25500000920E-02 0.  1.
    10030    2    1    2    0    0  0.00000000000E+00  0.00000000000E+00 -0.25364567634E+04  0.31704158604E+04  0.19020840716E+04 0.  0.
        3    1    3    3  502    0  0.20330601558E+03 -0.82010254038E+03 -0.19958817369E+04  0.21673590913E+04  0.10100000352E+00 0.  1.
       -3    1    3    3    0  502 -0.20330601558E+03  0.82010254038E+03 -0.54057502652E+03  0.10030567692E+04  0.10100000352E+00 0. -1.
</event>
<event>
 5   0  0.8905646E-05  0.1906240E+04  0.7818609E-02  0.8651757E-01
       -1   -1    0    0    0  501  0.00000000000E+00  0.00000000000E+00  0.14547465783E+04  0.14547465783E+04  0.50400001928E-02 0. -1.
        1   -1    0    0  501    0  0.00000000000E+00  0.00000000000E+00 -0.62446445980E+03  0.62446445982E+03  0.50400001928E-02 0.  1.
    10030    2    1    2    0    0  0.00000000000E+00  0.00000000000E+00  0.83028211853E+03  0.20792110382E+04  0.19062397921E+04 0.  0.
        1    1    3    3  502    0  0.92756300039E+03 -0.21910607097E+03  0.42337207117E+03  0.10428923725E+04  0.50400001928E-02 0. -1.
       -1    1    3    3    0  502 -0.92756300039E+03  0.21910607097E+03  0.40691004735E+03  0.10363186656E+04  0.50400001928E-02 0.  1.
</event>
<event>
 5   0  0.8602017E-05  0.1884648E+04  0.7818609E-02  0.8662536E-01
       -1   -1    0    0    0  501  0.00000000000E+00  0.00000000000E+00  0.55086724856E+03  0.55086724859E+03  0.50400001928E-02 0. -1.
        1   -1    0    0  501    0  0.00000000000E+00  0.00000000000E+00 -0.16119575278E+04  0.16119575278E+04  0.50400001928E-02 0.  1.
    10030    2    1    2    0    0  0.00000000000E+00  0.00000000000E+00 -0.10610902792E+04  0.21628247764E+04  0.18846480925E+04 0.  0.
        2    1    3    3  502    0 -0.84470054600E+03 -0.28599555488E+03 -0.18121003838E+03  0.91002722368E+03  0.25500000920E-02 0. -1.
       -2    1    3    3    0  502  0.84470054600E+03  0.28599555488E+03 -0.87988024086E+03  0.12527975527E+04  0.25500000920E-02 0.  1.
</event>
<event>
 5   0  0.8587082E-05  0.1901971E+04  0.7818609E-02  0.8653876E-01
        1   -1    0    0  501    0  0.00000000000E+00  0.00000000000E+00  0.94698569711E+03  0.94698569712E+03  0.50400001928E-02 0.  1.
       -1   -1    0    0    0  501  0.00000000000E+00  0.00000000000E+00 -0.95500199415E+03  0.95500199417E+03  0.50400001928E-02 0. -1.
    10030    2    1    2    0    0  0.00000000000E+00  0.00000000000E+00 -0.80162970464E+01  0.19019876913E+04  0.19019707981E+04 0.  0.
        5    1    3    3  502    0 -0.39027073465E+03  0.86702608354E+03  0.13475236974E+02  0.95092015852E+03  0.46999998093E+01 0. -1.
       -5    1    3    3    0  502  0.39027073465E+03 -0.86702608354E+03 -0.21491534021E+02  0.95106753277E+03  0.46999998093E+01 0.  1.
</event>
<event>
 5   0  0.1810569E-04  0.1944049E+04  0.7818609E-02  0.8633236E-01
       -2   -1    0    0    0  501  0.00000000000E+00  0.00000000000E+00  0.43467042772E+03  0.43467042773E+03  0.25500000920E-02 0.  1.
        2   -1    0    0  501    0  0.00000000000E+00  0.00000000000E+00 -0.21736725962E+04  0.21736725962E+04  0.25500000920E-02 0. -1.
    10030    2    1    2    0    0  0.00000000000E+00  0.00000000000E+00 -0.17390021684E+04  0.26083430239E+04  0.19440485561E+04 0.  0.
        4    1    3    3  502    0 -0.69696538857E+03 -0.31801486439E+03 -0.66788799454E+02  0.76899711538E+03  0.12699999809E+01 0.  1.
       -4    1    3    3    0  502  0.69696538857E+03  0.31801486439E+03 -0.16722133690E+04  0.18393459085E+04  0.12699999809E+01 0. -1.
</event>
<event>
 5   0  0.1765328E-04  0.1898735E+04  0.7818609E-02  0.8655486E-01
       -2   -1    0    0    0  501  0.00000000000E+00  0.00000000000E+00  0.38151785164E+03  0.38151785165E+03  0.25500000920E-02 0. -1.
        2   -1    0    0  501    0  0.00000000000E+00  0.00000000000E+00 -0.23624034769E+04  0.23624034769E+04  0.25500000920E-02 0.  1.
    10030    2    1    2    0    0  0.00000000000E+00  0.00000000000E+00 -0.19808856253E+04  0.27439213286E+04  0.18987354731E+04 0.  0.
        3    1    3    3  502    0 -0.34147924672E+03 -0.88570180004E+03 -0.96884622681E+03  0.13563697047E+04  0.10100000352E+00 0.  1.
       -3    1    3    3    0  502  0.34147924672E+03  0.88570180004E+03 -0.10120393985E+04  0.13875516238E+04  0.10100000352E+00 0. -1.
</event>
<event>
 5   0  0.8567844E-05  0.1864802E+04  0.7818609E-02  0.8672578E-01
        1   -1    0    0  501    0  0.00000000000E+00  0.00000000000E+00  0.21821312720E+04  0.21821312720E+04  0.50400001928E-02 0.  1.
       -1   -1    0    0    0  501  0.00000000000E+00  0.00000000000E+00 -0.39840488862E+03  0.39840488865E+03  0.50400001928E-02 0. -1.
    10030    2    1    2    0    0  0.00000000000E+00  0.00000000000E+00  0.17837263833E+04  0.25805361606E+04  0.18648021519E+04 0.  0.
        4    1    3    3  502    0 -0.79660618237E+03 -0.43442881550E+03  0.11888524863E+04  0.14955539618E+04  0.12699999809E+01 0.  1.
       -4    1    3    3    0  502  0.79660618237E+03  0.43442881550E+03  0.59487389706E+03  0.10849821989E+04  0.12699999809E+01 0. -1.
</event>
<event>
 5   0  0.8602017E-05  0.1901025E+04  0.7818609E-02  0.8654346E-01
        1   -1    0    0  501    0  0.00000000000E+00  0.00000000000E+00  0.69509183202E+03  0.69509183204E+03  0.50400001928E-02 0. -1.
       -1   -1    0    0    0  501  0.00000000000E+00  0.00000000000E+00 -0.12997911593E+04  0.12997911593E+04  0.50400001928E-02 0.  1.
    10030    2    1    2    0    0  0.00000000000E+00  0.00000000000E+00 -0.60469932728E+03  0.19948829914E+04  0.19010252162E+04 0.  0.
        2    1    3    3  502    0  0.81927511089E+03  0.17304342775E+03 -0.77435545773E+03  0.11405183515E+04  0.25500000920E-02 0.  1.
       -2    1    3    3    0  502 -0.81927511089E+03 -0.17304342775E+03  0.16965613045E+03  0.85436463984E+03  0.25500000920E-02 0. -1.
</event>
<event>
 5   0  0.8567844E-05  0.1791977E+04  0.7818609E-02  0.8710578E-01
       -1   -1    0    0    0  501  0.00000000000E+00  0.00000000000E+00  0.62656309364E+03  0.62656309366E+03  0.50400001928E-02 0.  1.
        1   -1    0    0  501    0  0.00000000000E+00  0.00000000000E+00 -0.12812684347E+04  0.12812684347E+04  0.50400001928E-02 0. -1.
    10030    2    1    2    0    0  0.00000000000E+00  0.00000000000E+00 -0.65470534109E+03  0.19078315284E+04  0.17919771363E+04 0.  0.
        4    1    3    3  502    0  0.11858840391E+03 -0.78200297904E+03  0.12081642643E+03  0.80011879778E+03  0.12699999809E+01 0.  1.
       -4    1    3    3    0  502 -0.11858840391E+03  0.78200297904E+03 -0.77552176752E+03  0.11077127306E+04  0.12699999809E+01 0. -1.
</event>
<event>
 5   0  0.8905646E-05  0.1897425E+04  0.7818609E-02  0.8656139E-01
       -1   -1    0    0    0  501  0.00000000000E+00  0.00000000000E+00  0.11336601163E+04  0.11336601163E+04  0.50400001928E-02 0. -1.
        1   -1    0    0  501    0  0.00000000000E+00  0.00000000000E+00 -0.79393797353E+03  0.79393797355E+03  0.50400001928E-02 0.  1.
    10030    2    1    2    0    0  0.00000000000E+00  0.00000000000E+00  0.33972214280E+03  0.19275980899E+04  0.18974254298E+04 0.  0.
        1    1    3    3  502    0 -0.43306410214E+03  0.61026848369E+03  0.76230146807E+03  0.10682114337E+04  0.50400001928E-02 0. -1.
       -1    1    3    3    0  502  0.43306410214E+03 -0.61026848369E+03 -0.42257932526E+03  0.85938665624E+03  0.50400001928E-02 0.  1.
</event>
<event>
 5   0  0.6375750E-05  0.1911883E+04  0.7818609E-02  0.8648964E-01
        3   -1    0    0  501    0  0.00000000000E+00  0.00000000000E+00  0.10390677388E+04  0.10390677437E+04  0.10100000352E+00 0.  1.
       -3   -1    0    0    0  501  0.00000000000E+00  0.00000000000E+00 -0.87946584579E+03  0.87946585159E+03  0.10100000352E+00 0. -1.
    10030    2    1    2    0    0  0.00000000000E+00  0.00000000000E+00  0.15960189298E+03  0.19185335953E+04  0.19118834671E+04 0.  0.
        3    1    3    3  502    0 -0.59671876185E+03  0.55826018100E+03 -0.41800610296E+03  0.91785446708E+03  0.10100000352E+00 0. -1.
       -3    1    3    3    0  502  0.59671876185E+03 -0.55826018100E+03  0.57760799594E+03  0.10006791282E+04  0.10100000352E+00 0.  1.
</event>
<event>
 5   0  0.8567844E-05  0.1912639E+04  0.7818609E-02  0.8648591E-01
       -1   -1    0    0    0  501  0.00000000000E+00  0.00000000000E+00  0.90095248115E+03  0.90095248116E+03  0.50400001928E-02 0. -1.
        1   -1    0    0  501    0  0.00000000000E+00  0.00000000000E+00 -0.10150889350E+04  0.10150889350E+04  0.50400001928E-02 0.  1.
    10030    2    1    2    0    0  0.00000000000E+00  0.00000000000E+00 -0.11413645382E+03  0.19160414161E+04  0.19126389043E+04 0.  0.
        4    1    3    3  502    0 -0.90444960306E+03 -0.74476789527E+02  0.24507967584E+03  0.94002209392E+03  0.12699999809E+01 0. -1.
       -4    1    3    3    0  502  0.90444960306E+03  0.74476789527E+02 -0.35921612965E+03  0.97601932222E+03  0.12699999809E+01 0.  1.
</event>
<event>
 5   0  0.1810569E-04  0.1919501E+04  0.7818609E-02  0.8645210E-01
       -2   -1    0    0    0  501  0.00000000000E+00  0.00000000000E+00  0.39501216961E+03  0.39501216962E+03  0.25500000920E-02 0. -1.
        2   -1    0    0  501    0  0.00000000000E+00  0.00000000000E+00 -0.23318790750E+04  0.23318790750E+04  0.25500000920E-02 0.  1.
    10030    2    1    2    0    0  0.00000000000E+00  0.00000000000E+00 -0.19368669054E+04  0.27268912447E+04  0.19195005733E+04 0.  0.
        4    1    3    3  502    0  0.34184221447E+03  0.97451580647E+02 -0.22349160768E+04  0.22630078200E+04  0.12699999809E+01 0.  1.
       -4    1    3    3    0  502 -0.34184221447E+03 -0.97451580647E+02  0.29804917140E+03  0.46388342462E+03  0.12699999809E+01 0. -1.
</event>
<event>
 5   0  0.1810569E-04  0.1657128E+04  0.7818609E-02  0.8786201E-01
        2   -1    0    0  501    0  0.00000000000E+00  0.00000000000E+00  0.21329548682E+04  0.21329548682E+04  0.25500000920E-02 0. -1.
       -2   -1    0    0    0  501  0.00000000000E+00  0.00000000000E+00 -0.32186252586E+03  0.32186252587E+03  0.25500000920E-02 0.  1.
    10030    2    1    2    0    0  0.00000000000E+00  0.00000000000E+00  0.18110923424E+04  0.24548173941E+04  0.16571279268E+04 0.  0.
        4    1    3    3  502    0 -0.45170772051E+02 -0.79091891378E+03  0.12651360255E+04  0.14927035548E+04  0.12699999809E+01 0.  1.
       -4    1    3    3    0  502  0.45170772051E+02  0.79091891378E+03  0.54595631692E+03  0.96211383927E+03  0.12699999809E+01 0. -1.
</event>
<event>
 5   0  0.8905646E-05  0.1908359E+04  0.7818609E-02  0.8650707E-01
       -1   -1    0    0    0  501  0.00000000000E+00  0.00000000000E+00  0.65720881383E+03  0.65720881385E+03  0.50400001928E-02 0. -1.
        1   -1    0    0  501    0  0.00000000000E+00  0.00000000000E+00 -0.13853406953E+04  0.13853406953E+04  0.50400001928E-02 0.  1.
    10030    2    1    2    0    0  0.00000000000E+00  0.00000000000E+00 -0.72813188144E+03  0.20425495091E+04  0.19083585775E+04 0.  0.
        1    1    3    3  502    0  0.37040137011E+03 -0.29541105283E+03 -0.12505532690E+04  0.13372914207E+04  0.50400001928E-02 0.  1.
       -1    1    3    3    0  502 -0.37040137011E+03  0.29541105283E+03  0.52242138758E+03  0.70525808846E+03  0.50400001928E-02 0. -1.
</event>
<event>
 5   0  0.8567844E-05  0.1884617E+04  0.7818609E-02  0.8662552E-01
        1   -1    0    0  501    0  0.00000000000E+00  0.00000000000E+00  0.57500105586E+03  0.57500105588E+03  0.50400001928E-02 0. -1.
       -1   -1    0    0    0  501  0.00000000000E+00  0.00000000000E+00 -0.15442497877E+04  0.15442497878E+04  0.50400001928E-02 0.  1.
    10030    2    1    2    0    0  0.00000000000E+00  0.00000000000E+00 -0.96924873189E+03  0.21192508436E+04  0.18846169462E+04 0.  0.
        4    1    3    3  502    0  0.26992997103E+03 -0.66210498906E+02  0.52786092692E+03  0.59656080201E+03  0.12699999809E+01 0. -1.
       -4    1    3    3    0  502 -0.26992997103E+03  0.66210498906E+02 -0.14971096588E+04  0.15226900416E+04  0.12699999809E+01 0.  1.
</event>
<event>
 5   0  0.1810569E-04  0.1940960E+04  0.7818609E-02  0.8634732E-01
       -2   -1    0    0    0  501  0.00000000000E+00  0.00000000000E+00  0.19327274129E+04  0.19327274129E+04  0.25500000920E-02 0.  1.
        2   -1    0    0  501    0  0.00000000000E+00  0.00000000000E+00 -0.48730688879E+03  0.48730688879E+03  0.25500000920E-02 0. -1.
    10030    2    1    2    0    0  0.00000000000E+00  0.00000000000E+00  0.14454205242E+04  0.24200343017E+04  0.19409599506E+04 0.  0.
        4    1    3    3  502    0  0.15554491390E+03 -0.48620784445E+03 -0.30638176787E+03  0.59536853194E+03  0.12699999809E+01 0. -1.
       -4    1    3    3    0  502 -0.15554491390E+03  0.48620784445E+03  0.17518022920E+04  0.18246657698E+04  0.12699999809E+01 0.  1.
</event>
<event>
 5   0  0.1810569E-04  0.1939318E+04  0.7818609E-02  0.8635529E-01
        2   -1    0    0  501    0  0.00000000000E+00  0.00000000000E+00  0.16014372448E+04  0.16014372448E+04  0.25500000920E-02 0. -1.
       -2   -1    0    0    0  501  0.00000000000E+00  0.00000000000E+00 -0.58712171373E+03  0.58712171374E+03  0.25500000920E-02 0.  1.
    10030    2    1    2    0    0  0.00000000000E+00  0.00000000000E+00  0.10143155311E+04  0.21885589586E+04  0.19393180035E+04 0.  0.
        4    1    3    3  502    0  0.16657048568E+03  0.94322073964E+03  0.33665832758E+03  0.10152593426E+04  0.12699999809E+01 0.  1.
       -4    1    3    3    0  502 -0.16657048568E+03 -0.94322073964E+03  0.67765720353E+03  0.11732996159E+04  0.12699999809E+01 0. -1.
</event>
<event>
 5   0  0.1790832E-04  0.1775343E+04  0.7818609E-02  0.8719523E-01
       -2   -1    0    0    0  501  0.00000000000E+00  0.00000000000E+00  0.81726454759E+03  0.81726454759E+03  0.25500000920E-02 0. -1.
        2   -1    0    0  501    0  0.00000000000E+00  0.00000000000E+00 -0.96414419682E+03  0.96414419683E+03  0.25500000920E-02 0.  1.
    10030    2    1    2    0    0  0.00000000000E+00  0.00000000000E+00 -0.14687964924E+03  0.17814087444E+04  0.17753432016E+04 0.  0.
        5    1    3    3  502    0 -0.78282924711E+03  0.52534101664E+02  0.34313797652E+03  0.85635694829E+03  0.46999998093E+01 0. -1.
       -5    1    3    3    0  502  0.78282924711E+03 -0.52534101664E+02 -0.49001762575E+03  0.92505179612E+03  0.46999998093E+01 0.  1.
</event>
<event>
 5   0  0.1799738E-04  0.1913847E+04  0.7818609E-02  0.8647995E-01
        2   -1    0    0  501    0  0.00000000000E+00  0.00000000000E+00  0.14537448320E+04  0.14537448320E+04  0.25500000920E-02 0. -1.
       -2   -1    0    0    0  501  0.00000000000E+00  0.00000000000E+00 -0.62989205301E+03  0.62989205301E+03  0.25500000920E-02 0.  1.
    10030    2    1    2    0    0  0.00000000000E+00  0.00000000000E+00  0.82385277896E+03  0.20836368850E+04  0.19138467198E+04 0.  0.
        1    1    3    3  502    0  0.93784800371E+03  0.18989870746E+03  0.40207247624E+03  0.10379222868E+04  0.50400001928E-02 0. -1.
       -1    1    3    3    0  502 -0.93784800371E+03 -0.18989870746E+03  0.42178030272E+03  0.10457145982E+04  0.50400001928E-02 0.  1.
</event>
<event>
 5   0  0.8587082E-05  0.1868674E+04  0.7818609E-02  0.8670609E-01
       -1   -1    0    0    0  501  0.00000000000E+00  0.00000000000E+00  0.13106069511E+04  0.13106069512E+04  0.50400001928E-02 0.  1.
        1   -1    0    0  501    0  0.00000000000E+00  0.00000000000E+00 -0.66609238756E+03  0.66609238758E+03  0.50400001928E-02 0. -1.
    10030    2    1    2    0    0  0.00000000000E+00  0.00000000000E+00  0.64451456359E+03  0.19766993387E+04  0.18686736615E+04 0.  0.
        5    1    3    3  502    0  0.39493464357E+03 -0.36773034630E+03 -0.48457016735E+03  0.72527878596E+03  0.46999998093E+01 0. -1.
       -5    1    3    3    0  502 -0.39493464357E+03  0.36773034630E+03  0.11290847309E+04  0.12514205528E+04  0.46999998093E+01 0.  1.
</event>
<event>
 5   0  0.1790832E-04  0.1905069E+04  0.7818609E-02  0.8652337E-01
       -2   -1    0    0    0  501  0.00000000000E+00  0.00000000000E+00  0.92107532191E+03  0.92107532192E+03  0.25500000920E-02 0. -1.
        2   -1    0    0  501    0  0.00000000000E+00  0.00000000000E+00 -0.98506849066E+03  0.98506849067E+03  0.25500000920E-02 0.  1.
    10030    2    1    2    0    0  0.00000000000E+00  0.00000000000E+00 -0.63993168750E+02  0.19061438126E+04  0.19050693186E+04 0.  0.
        5    1    3    3  502    0 -0.10448525016E+02  0.74948712395E+03  0.55609343256E+03  0.93332851471E+03  0.46999998093E+01 0. -1.
       -5    1    3    3    0  502  0.10448525016E+02 -0.74948712395E+03 -0.62008660131E+03  0.97281529787E+03  0.46999998093E+01 0.  1.
</event>
<event>
 5   0  0.8602017E-05  0.1898236E+04  0.7818609E-02  0.8655735E-01
        1   -1    0    0  501    0  0.00000000000E+00  0.00000000000E+00  0.13638826992E+04  0.13638826992E+04  0.50400001928E-02 0.  1.
       -1   -1    0    0    0  501  0.00000000000E+00  0.00000000000E+00 -0.66048575139E+03  0.66048575141E+03  0.50400001928E-02 0. -1.
    10030    2    1    2    0    0  0.00000000000E+00  0.00000000000E+00  0.70339694783E+03  0.20243684506E+04  0.18982361175E+04 0.  0.
        2    1    3    3  502    0 -0.54883520545E+03 -0.25731616897E+03  0.11305651897E+04  0.12828130580E+04  0.25500000920E-02 0.  1.
       -2    1    3    3    0  502  0.54883520545E+03  0.25731616897E+03 -0.42716824185E+03  0.74155539267E+03  0.25500000920E-02 0. -1.
</event>
<event>
 5   0  0.1790832E-04  0.1881476E+04  0.7818609E-02  0.8664132E-01
        2   -1    0    0  501    0  0.00000000000E+00  0.00000000000E+00  0.16391193257E+04  0.16391193257E+04  0.25500000920E-02 0. -1.
       -2   -1    0    0    0  501  0.00000000000E+00  0.00000000000E+00 -0.53991655633E+03  0.53991655634E+03  0.25500000920E-02 0.  1.
    10030    2    1    2    0    0  0.00000000000E+00  0.00000000000E+00  0.10992027694E+04  0.21790358821E+04  0.18814756568E+04 0.  0.
        5    1    3    3  502    0 -0.42830664518E+03  0.73843616798E+03  0.10073735750E+04  0.13204386264E+04  0.46999998093E+01 0.  1.
       -5    1    3    3    0  502  0.42830664518E+03 -0.73843616798E+03  0.91829194387E+02  0.85859725566E+03  0.46999998093E+01 0. -1.
</event>
<event>
 5   0  0.8681396E-05  0.1864329E+04  0.7818609E-02  0.8672818E-01
        1   -1    0    0  501    0  0.00000000000E+00  0.00000000000E+00  0.74622291226E+03  0.74622291228E+03  0.50400001928E-02 0. -1.
       -1   -1    0    0    0  501  0.00000000000E+00  0.00000000000E+00 -0.11644390073E+04  0.11644390073E+04  0.50400001928E-02 0.  1.
    10030    2    1    2    0    0  0.00000000000E+00  0.00000000000E+00 -0.41821609504E+03  0.19106619196E+04  0.18643294421E+04 0.  0.
        3    1    3    3  502    0 -0.10360084244E+01 -0.67324005661E+03  0.45164566268E+03  0.81070158626E+03  0.10100000352E+00 0. -1.
       -3    1    3    3    0  502  0.10360084244E+01  0.67324005661E+03 -0.86986175773E+03  0.10999603333E+04  0.10100000352E+00 0.  1.
</event>
<event>
 5   0  0.8567844E-05  0.1911935E+04  0.7818609E-02  0.8648938E-01
        1   -1    0    0  501    0  0.00000000000E+00  0.00000000000E+00  0.10868696889E+04  0.10868696889E+04  0.50400001928E-02 0. -1.
       -1   -1    0    0    0  501  0.00000000000E+00  0.00000000000E+00 -0.84083120871E+03  0.84083120872E+03  0.50400001928E-02 0.  1.
    10030    2    1    2    0    0  0.00000000000E+00  0.00000000000E+00  0.24603848020E+03  0.19277008976E+04  0.19119350975E+04 0.  0.
        4    1    3    3  502    0 -0.39272008718E+03 -0.72696375659E+03  0.60778216284E+03  0.10257222532E+04  0.12699999809E+01 0. -1.
       -4    1    3    3    0  502  0.39272008718E+03  0.72696375659E+03 -0.36174368263E+03  0.90197864448E+03  0.12699999809E+01 0.  1.
</event>
<event>
 5   0  0.8681396E-05  0.1914832E+04  0.7818609E-02  0.8647509E-01
       -1   -1    0    0    0  501  0.00000000000E+00  0.00000000000E+00  0.36561420748E+03  0.36561420751E+03  0.50400001928E-02 0. -1.
        1   -1    0    0  501    0  0.00000000000E+00  0.00000000000E+00 -0.25071384938E+04  0.25071384938E+04  0.50400001928E-02 0.  1.
    10030    2    1    2    0    0  0.00000000000E+00  0.00000000000E+00 -0.21415242864E+04  0.28727527014E+04  0.19148320590E+04 0.  0.
        3    1    3    3  502    0  0.13428848454E+03  0.44554971205E+03 -0.23260600805E+04  0.23721516501E+04  0.10100000352E+00 0.  1.
       -3    1    3    3    0  502 -0.13428848454E+03 -0.44554971205E+03  0.18453579411E+03  0.50060105124E+03  0.10100000352E+00 0. -1.
</event>
<event>
 5   0  0.8681396E-05  0.1892731E+04  0.7818609E-02  0.8658483E-01
        1   -1    0    0  501    0  0.00000000000E+00  0.00000000000E+00  0.93540647426E+03  0.93540647428E+03  0.50400001928E-02 0. -1.
       -1   -1    0    0    0  501  0.00000000000E+00  0.00000000000E+00 -0.95745306354E+03  0.95745306356E+03  0.50400001928E-02 0.  1.
    10030    2    1    2    0    0  0.00000000000E+00  0.00000000000E+00 -0.22046589283E+02  0.18928595378E+04  0.18927311425E+04 0.  0.
        3    1    3    3  502    0  0.93360374385E+03  0.13523140336E+03  0.64508653725E+02  0.94555003019E+03  0.10100000352E+00 0. -1.
       -3    1    3    3    0  502 -0.93360374385E+03 -0.13523140336E+03 -0.86555243009E+02  0.94730950765E+03  0.10100000352E+00 0.  1.
</event>
<event>
 5   0  0.1658711E-04  0.1595069E+04  0.7818609E-02  0.8823583E-01
       -2   -1    0    0    0  501  0.00000000000E+00  0.00000000000E+00  0.60273436820E+03  0.60273436820E+03  0.25500000920E-02 0.  1.
        2   -1    0    0  501    0  0.00000000000E+00  0.00000000000E+00 -0.10552926120E+04  0.10552926120E+04  0.25500000920E-02 0. -1.
    10030    2    1    2    0    0  0.00000000000E+00  0.00000000000E+00 -0.45255824384E+03  0.16580269802E+04  0.15950688083E+04 0.  0.
        2    1    3    3  502    0  0.24143548793E+03 -0.38531526696E+03  0.45479395967E+03  0.64311468304E+03  0.25500000920E-02 0.  1.
       -2    1    3    3    0  502 -0.24143548793E+03  0.38531526696E+03 -0.90735220351E+03  0.10149122972E+04  0.25500000920E-02 0. -1.
</event>
<event>
 5   0  0.8587082E-05  0.2064770E+04  0.7818609E-02  0.8576923E-01
       -1   -1    0    0    0  501  0.00000000000E+00  0.00000000000E+00  0.41202761670E+03  0.41202761673E+03  0.50400001928E-02 0.  1.
        1   -1    0    0  501    0  0.00000000000E+00  0.00000000000E+00 -0.25867661317E+04  0.25867661317E+04  0.50400001928E-02 0. -1.
    10030    2    1    2    0    0  0.00000000000E+00  0.00000000000E+00 -0.21747385150E+04  0.29987937485E+04  0.20647702868E+04 0.  0.
        5    1    3    3  502    0  0.51780142072E+03  0.43925777865E+03 -0.22167908180E+04  0.23184583947E+04  0.46999998093E+01 0. -1.
       -5    1    3    3    0  502 -0.51780142072E+03 -0.43925777865E+03  0.42052302926E+02  0.68033535377E+03  0.46999998093E+01 0.  1.
</event>
<event>
 5   0  0.8602017E-05  0.1860862E+04  0.7818609E-02  0.8674587E-01
       -1   -1    0    0    0  501  0.00000000000E+00  0.00000000000E+00  0.10034774075E+04  0.10034774075E+04  0.50400001928E-02 0. -1.
        1   -1    0    0  501    0  0.00000000000E+00  0.00000000000E+00 -0.86270222905E+03  0.86270222907E+03  0.50400001928E-02 0.  1.
    10030    2    1    2    0    0  0.00000000000E+00  0.00000000000E+00  0.14077517849E+03  0.18661796366E+04  0.18608623768E+04 0.  0.
        2    1    3    3  502    0  0.68160716942E+03 -0.34763835898E+03 -0.46052235617E+03  0.89304065002E+03  0.25500000920E-02 0.  1.
       -2    1    3    3    0  502 -0.68160716942E+03  0.34763835898E+03  0.60129753466E+03  0.97313898660E+03  0.25500000920E-02 0. -1.
</event>
<event>
 5   0  0.8681396E-05  0.1910431E+04  0.7818609E-02  0.8649682E-01
        1   -1    0    0  501    0  0.00000000000E+00  0.00000000000E+00  0.13621504828E+04  0.13621504828E+04  0.50400001928E-02 0. -1.
       -1   -1    0    0    0  501  0.00000000000E+00  0.00000000000E+00 -0.66985017165E+03  0.66985017167E+03  0.50400001928E-02 0.  1.
    10030    2    1    2    0    0  0.00000000000E+00  0.00000000000E+00  0.69230031118E+03  0.20320006545E+04  0.19104310872E+04 0.  0.
        3    1    3    3  502    0 -0.55324374019E+02  0.87817040033E+03 -0.49248325238E+02  0.88128851469E+03  0.10100000352E+00 0.  1.
       -3    1    3    3    0  502  0.55324374019E+02 -0.87817040033E+03  0.74154863642E+03  0.11507121398E+04  0.10100000352E+00 0. -1.
</event>
<event>
 5   0  0.1799738E-04  0.1906429E+04  0.7818609E-02  0.8651663E-01
        2   -1    0    0  501    0  0.00000000000E+00  0.00000000000E+00  0.10724569902E+04  0.10724569902E+04  0.25500000920E-02 0.  1.
       -2   -1    0    0    0  501  0.00000000000E+00  0.00000000000E+00 -0.84723033737E+03  0.84723033738E+03  0.25500000920E-02 0. -1.
    10030    2    1    2    0    0  0.00000000000E+00  0.00000000000E+00  0.22522665286E+03  0.19196873276E+04  0.19064292252E+04 0.  0.
        1    1    3    3  502    0 -0.80366644455E+03 -0.45746603504E+03 -0.12021572308E+03  0.93252707597E+03  0.50400001928E-02 0. -1.
       -1    1    3    3    0  502  0.80366644455E+03  0.45746603504E+03  0.34544237594E+03  0.98716025165E+03  0.50400001928E-02 0.  1.
</event>
<event>
 5   0  0.1658711E-04  0.1915706E+04  0.7818609E-02  0.8647078E-01
        2   -1    0    0  501    0  0.00000000000E+00  0.00000000000E+00  0.95799717744E+03  0.95799717744E+03  0.25500000920E-02 0. -1.
       -2   -1    0    0    0  501  0.00000000000E+00  0.00000000000E+00 -0.95770856321E+03  0.95770856321E+03  0.25500000920E-02 0.  1.
    10030    2    1    2    0    0  0.00000000000E+00  0.00000000000E+00  0.28861423059E+00  0.19157057407E+04  0.19157057189E+04 0.  0.
        2    1    3    3  502    0  0.83600265233E+03  0.26403645010E+01  0.46766403836E+03  0.95792330539E+03  0.25500000920E-02 0. -1.
       -2    1    3    3    0  502 -0.83600265233E+03 -0.26403645010E+01 -0.46737542413E+03  0.95778243527E+03  0.25500000920E-02 0.  1.
</event>
<event>
 5   0  0.8681396E-05  0.1959923E+04  0.7818609E-02  0.8625590E-01
        1   -1    0    0  501    0  0.00000000000E+00  0.00000000000E+00  0.11706552963E+04  0.11706552963E+04  0.50400001928E-02 0.  1.
       -1   -1    0    0    0  501  0.00000000000E+00  0.00000000000E+00 -0.82033104454E+03  0.82033104456E+03  0.50400001928E-02 0. -1.
    10030    2    1    2    0    0  0.00000000000E+00  0.00000000000E+00  0.35032425173E+03  0.19909863408E+04  0.19599233475E+04 0.  0.
        3    1    3    3  502    0 -0.71276093171E+03 -0.48325972818E+03  0.65028937283E+03  0.10790942448E+04  0.10100000352E+00 0.  1.
       -3    1    3    3    0  502  0.71276093171E+03  0.48325972818E+03 -0.29996512110E+03  0.91189209599E+03  0.10100000352E+00 0. -1.
</event>
<event>
 5   0  0.1799738E-04  0.1868366E+04  0.7818609E-02  0.8670765E-01
        2   -1    0    0  501    0  0.00000000000E+00  0.00000000000E+00  0.64501526847E+03  0.64501526848E+03  0.25500000920E-02 0. -1.
       -2   -1    0    0    0  501  0.00000000000E+00  0.00000000000E+00 -0.13529872234E+04  0.13529872234E+04  0.25500000920E-02 0.  1.
    10030    2    1    2    0    0  0.00000000000E+00  0.00000000000E+00 -0.70797195488E+03  0.19980024918E+04  0.18683655072E+04 0.  0.
        1    1    3    3  502    0  0.52818708344E+03  0.44188399704E+03 -0.10290165979E+04  0.12381915122E+04  0.50400001928E-02 0.  1.
       -1    1    3    3    0  502 -0.52818708344E+03 -0.44188399704E+03  0.32104464306E+03  0.75981097966E+03  0.50400001928E-02 0. -1.
</event>
<event>
 5   0  0.8905646E-05  0.1904038E+04  0.7818609E-02  0.8652849E-01
        1   -1    0    0  501    0  0.00000000000E+00  0.00000000000E+00  0.12924157077E+04  0.12924157077E+04  0.50400001928E-02 0. -1.
       -1   -1    0    0    0  501  0.00000000000E+00  0.00000000000E+00 -0.70127582393E+03  0.70127582395E+03  0.50400001928E-02 0.  1.
    10030    2    1    2    0    0  0.00000000000E+00  0.00000000000E+00  0.59113988377E+03  0.19936915317E+04  0.19040376995E+04 0.  0.
        1    1    3    3  502    0  0.12786312202E+03  0.69626725355E+03 -0.37095844872E+03  0.79921663961E+03  0.50400001928E-02 0.  1.
       -1    1    3    3    0  502 -0.12786312202E+03 -0.69626725355E+03  0.96209833248E+03  0.11944748920E+04  0.50400001928E-02 0. -1.
</event>
<event>
 5   0  0.8681396E-05  0.1892650E+04  0.7818609E-02  0.8658524E-01
        1   -1    0    0  501    0  0.00000000000E+00  0.00000000000E+00  0.15283430584E+04  0.15283430584E+04  0.50400001928E-02 0.  1.
       -1   -1    0    0    0  501  0.00000000000E+00  0.00000000000E+00 -0.58594890239E+03  0.58594890241E+03  0.50400001928E-02 0. -1.
    10030    2    1    2    0    0  0.00000000000E+00  0.00000000000E+00  0.94239415605E+03  0.21142919609E+04  0.18926499281E+04 0.  0.
        3    1    3    3  502    0  0.28690224663E+03 -0.17184609343E+03 -0.51773388099E+03  0.61635408709E+03  0.10100000352E+00 0. -1.
       -3    1    3    3    0  502 -0.28690224663E+03  0.17184609343E+03  0.14601280370E+04  0.14979378738E+04  0.10100000352E+00 0.  1.
</event>
<event>
 5   0  0.1810569E-04  0.1863871E+04  0.7818609E-02  0.8673052E-01
        2   -1    0    0  501    0  0.00000000000E+00  0.00000000000E+00  0.10902870989E+04  0.10902870989E+04  0.25500000920E-02 0.  1.
       -2   -1    0    0    0  501  0.00000000000E+00  0.00000000000E+00 -0.79658276334E+03  0.79658276334E+03  0.25500000920E-02 0. -1.
    10030    2    1    2    0    0  0.00000000000E+00  0.00000000000E+00  0.29370433553E+03  0.18868698622E+04  0.18638711437E+04 0.  0.
        4    1    3    3  502    0  0.81669548130E+03  0.16600380225E+03  0.56907593931E+03  0.10091569794E+04  0.12699999809E+01 0.  1.
       -4    1    3    3    0  502 -0.81669548130E+03 -0.16600380225E+03 -0.27537160378E+03  0.87771288278E+03  0.12699999809E+01 0. -1.
</event>
<event>
 5   0  0.1790832E-04  0.1867665E+04  0.7818609E-02  0.8671121E-01
        2   -1    0    0  501    0  0.00000000000E+00  0.00000000000E+00  0.24455586942E+04  0.24455586942E+04  0.25500000920E-02 0. -1.
       -2   -1    0    0    0  501  0.00000000000E+00  0.00000000000E+00 -0.35658221167E+03  0.35658221168E+03  0.25500000920E-02 0.  1.
    10030    2    1    2    0    0  0.00000000000E+00  0.00000000000E+00  0.20889764825E+04  0.28021409058E+04  0.18676645608E+04 0.  0.
        5    1    3    3  502    0  0.77475398865E+03  0.43725314174E+03  0.61857369951E+03  0.10835541355E+04  0.46999998093E+01 0.  1.
       -5    1    3    3    0  502 -0.77475398865E+03 -0.43725314174E+03  0.14704027830E+04  0.17185867703E+04  0.46999998093E+01 0. -1.
</event>
<event>
 5   0  0.1799738E-04  0.1939325E+04  0.7818609E-02  0.8635526E-01
       -2   -1    0    0    0  501  0.00000000000E+00  0.00000000000E+00  0.18090169461E+04  0.18090169461E+04  0.25500000920E-02 0.  1.
        2   -1    0    0  501    0  0.00000000000E+00  0.00000000000E+00 -0.51975479911E+03  0.51975479912E+03  0.25500000920E-02 0. -1.
    10030    2    1    2    0    0  0.00000000000E+00  0.00000000000E+00  0.12892621470E+04  0.23287717453E+04  0.19393248716E+04 0.  0.
        1    1    3    3  502    0  0.53531505297E+03 -0.69498448982E+03  0.11407287060E+04  0.14390370488E+04  0.50400001928E-02 0.  1.
       -1    1    3    3    0  502 -0.53531505297E+03  0.69498448982E+03  0.14853344106E+03  0.88973469650E+03  0.50400001928E-02 0. -1.
</event>
<event>
 5   0  0.1790832E-04  0.1941043E+04  0.7818609E-02  0.8634692E-01
       -2   -1    0    0    0  501  0.00000000000E+00  0.00000000000E+00  0.45123170560E+03  0.45123170561E+03  0.25500000920E-02 0. -1.
        2   -1    0    0  501    0  0.00000000000E+00  0.00000000000E+00 -0.20874247848E+04  0.20874247848E+04  0.25500000920E-02 0.  1.
    10030    2    1    2    0    0  0.00000000000E+00  0.00000000000E+00 -0.16361930792E+04  0.25386564904E+04  0.19410432720E+04 0.  0.
        5    1    3    3  502    0  0.68563491021E+02  0.72804507782E+03 -0.16526235130E+04  0.18071904032E+04  0.46999998093E+01 0.  1.
       -5    1    3    3    0  502 -0.68563491021E+02 -0.72804507782E+03  0.16430433785E+02  0.73146608724E+03  0.46999998093E+01 0. -1.
</event>
<event>
 5   0  0.1810569E-04  0.1886933E+04  0.7818609E-02  0.8661388E-01
        2   -1    0    0  501    0  0.00000000000E+00  0.00000000000E+00  0.93624976978E+03  0.93624976979E+03  0.25500000920E-02 0.  1.
       -2   -1    0    0    0  501  0.00000000000E+00  0.00000000000E+00 -0.95073868337E+03  0.95073868338E+03  0.25500000920E-02 0. -1.
    10030    2    1    2    0    0  0.00000000000E+00  0.00000000000E+00 -0.14488913588E+02  0.18869884532E+04  0.18869328270E+04 0.  0.
        4    1    3    3  502    0 -0.63271119573E+03  0.62487771047E+03 -0.32242298859E+03  0.94591427028E+03  0.12699999809E+01 0. -1.
       -4    1    3    3    0  502  0.63271119573E+03 -0.62487771047E+03  0.30793407500E+03  0.94107418288E+03  0.12699999809E+01 0.  1.
</event>
<event>
 5   0  0.8681396E-05  0.1902280E+04  0.7818609E-02  0.8653722E-01
        1   -1    0    0  501    0  0.00000000000E+00  0.00000000000E+00  0.89020914482E+03  0.89020914484E+03  0.50400001928E-02 0.  1.
       -1   -1    0    0    0  501  0.00000000000E+00  0.00000000000E+00 -0.10162414508E+04  0.10162414508E+04  0.50400001928E-02 0. -1.
    10030    2    1    2    0    0  0.00000000000E+00  0.00000000000E+00 -0.12603230599E+03  0.19064505957E+04  0.19022801401E+04 0.  0.
        3    1    3    3  502    0 -0.38153483866E+03  0.64361761456E+03 -0.65154711719E+03  0.99213210965E+03  0.10100000352E+00 0. -1.
       -3    1    3    3    0  502  0.38153483866E+03 -0.64361761456E+03  0.52551481120E+03  0.91431848602E+03  0.10100000352E+00 0.  1.
</event>
<event>
 5   0  0.8681396E-05  0.1899067E+04  0.7818609E-02  0.8655321E-01
       -1   -1    0    0    0  501  0.00000000000E+00  0.00000000000E+00  0.76917266054E+03  0.76917266055E+03  0.50400001928E-02 0. -1.
        1   -1    0    0  501    0  0.00000000000E+00  0.00000000000E+00 -0.11721859740E+04  0.11721859740E+04  0.50400001928E-02 0.  1.
    10030    2    1    2    0    0  0.00000000000E+00  0.00000000000E+00 -0.40301331343E+03  0.19413586345E+04  0.18990665120E+04 0.  0.
        3    1    3    3  502    0 -0.21746173878E+03  0.40476145806E+02  0.74246733074E+03  0.77471651178E+03  0.10100000352E+00 0. -1.
       -3    1    3    3    0  502  0.21746173878E+03 -0.40476145806E+02 -0.11454806442E+04  0.11666421228E+04  0.10100000352E+00 0.  1.
</event>
<event>
 5   0  0.1765328E-04  0.1898020E+04  0.7818609E-02  0.8655843E-01
        2   -1    0    0  501    0  0.00000000000E+00  0.00000000000E+00  0.14559202135E+04  0.14559202135E+04  0.25500000920E-02 0.  1.
       -2   -1    0    0    0  501  0.00000000000E+00  0.00000000000E+00 -0.61859129830E+03  0.61859129830E+03  0.25500000920E-02 0. -1.
    10030    2    1    2    0    0  0.00000000000E+00  0.00000000000E+00  0.83732891521E+03  0.20745115118E+04  0.18980195732E+04 0.  0.
        3    1    3    3  502    0  0.19750458082E+03  0.86791626183E+02 -0.59143494154E+03  0.62955233786E+03  0.10100000352E+00 0. -1.
       -3    1    3    3    0  502 -0.19750458082E+03 -0.86791626183E+02  0.14287638568E+04  0.14449591739E+04  0.10100000352E+00 0.  1.
</event>
<event>
 5   0  0.1810569E-04  0.1956516E+04  0.7818609E-02  0.8627225E-01
        2   -1    0    0  501    0  0.00000000000E+00  0.00000000000E+00  0.13481460059E+04  0.13481460059E+04  0.25500000920E-02 0.  1.
       -2   -1    0    0    0  501  0.00000000000E+00  0.00000000000E+00 -0.70985520089E+03  0.70985520089E+03  0.25500000920E-02 0. -1.
    10030    2    1    2    0    0  0.00000000000E+00  0.00000000000E+00  0.63829080497E+03  0.20580012067E+04  0.19565157335E+04 0.  0.
        4    1    3    3  502    0 -0.56024919946E+02 -0.89150577490E+03  0.73866309516E+03  0.11591143686E+04  0.12699999809E+01 0.  1.
       -4    1    3    3    0  502  0.56024919946E+02  0.89150577490E+03 -0.10037229019E+03  0.89888683819E+03  0.12699999809E+01 0. -1.
</event>
<event>
 5   0  0.8602017E-05  0.1898679E+04  0.7818609E-02  0.8655514E-01
        1   -1    0    0  501    0  0.00000000000E+00  0.00000000000E+00  0.22445980044E+04  0.22445980044E+04  0.50400001928E-02 0.  1.
       -1   -1    0    0    0  501  0.00000000000E+00  0.00000000000E+00 -0.40151773922E+03  0.40151773925E+03  0.50400001928E-02 0. -1.
    10030    2    1    2    0    0  0.00000000000E+00  0.00000000000E+00  0.18430802651E+04  0.26461157436E+04  0.18986794529E+04 0.  0.
        2    1    3    3  502    0  0.42092721299E+03  0.77990165575E+03  0.44724548271E+03  0.99270077722E+03  0.25500000920E-02 0. -1.
       -2    1    3    3    0  502 -0.42092721299E+03 -0.77990165575E+03  0.13958347824E+04  0.16534149664E+04  0.25500000920E-02 0.  1.
</event>
<event>
 5   0  0.8905646E-05  0.1914314E+04  0.7818609E-02  0.8647764E-01
       -1   -1    0    0    0  501  0.00000000000E+00  0.00000000000E+00  0.12996427393E+04  0.12996427393E+04  0.50400001928E-02 0. -1.
        1   -1    0    0  501    0  0.00000000000E+00  0.00000000000E+00 -0.70492428912E+03  0.70492428914E+03  0.50400001928E-02 0.  1.
    10030    2    1    2    0    0  0.00000000000E+00  0.00000000000E+00  0.59471845019E+03  0.20045670285E+04  0.19143142210E+04 0.  0.
        1    1    3    3  502    0  0.39036412773E+03  0.76444873949E+03  0.74086456570E+03  0.11338634540E+04  0.50400001928E-02 0. -1.
       -1    1    3    3    0  502 -0.39036412773E+03 -0.76444873949E+03 -0.14614611551E+03  0.87070357449E+03  0.50400001928E-02 0.  1.
</event>
<event>
 5   0  0.8602017E-05  0.2039878E+04  0.7818609E-02  0.8588200E-01
        1   -1    0    0  501    0  0.00000000000E+00  0.00000000000E+00  0.13323826302E+04  0.13323826303E+04  0.50400001928E-02 0.  1.
       -1   -1    0    0    0  501  0.00000000000E+00  0.00000000000E+00 -0.78076341220E+03  0.78076341222E+03  0.50400001928E-02 0. -1.
    10030    2    1    2    0    0  0.00000000000E+00  0.00000000000E+00  0.55161921804E+03  0.21131460425E+04  0.20398780442E+04 0.  0.
        2    1    3    3  502    0  0.59866430202E+03 -0.59815654660E+03 -0.31392287143E+03  0.90262825680E+03  0.25500000920E-02 0. -1.
       -2    1    3    3    0  502 -0.59866430202E+03  0.59815654660E+03  0.86554208947E+03  0.12105177857E+04  0.25500000920E-02 0.  1.
</event>
<event>
 5   0  0.1810569E-04  0.1796356E+04  0.7818609E-02  0.8708240E-01
        2   -1    0    0  501    0  0.00000000000E+00  0.00000000000E+00  0.13866095798E+04  0.13866095798E+04  0.25500000920E-02 0.  1.
       -2   -1    0    0    0  501  0.00000000000E+00  0.00000000000E+00 -0.58179583448E+03  0.58179583448E+03  0.25500000920E-02 0. -1.
    10030    2    1    2    0    0  0.00000000000E+00  0.00000000000E+00  0.80481374528E+03  0.19684054142E+04  0.17963559531E+04 0.  0.
        4    1    3    3  502    0  0.88581492017E+02 -0.21259650605E+03  0.13537016317E+04  0.13731546437E+04  0.12699999809E+01 0.  1.
       -4    1    3    3    0  502 -0.88581492017E+02  0.21259650605E+03 -0.54888788637E+03  0.59525077053E+03  0.12699999809E+01 0. -1.
</event>
<event>
 5   0  0.1810569E-04  0.1930628E+04  0.7818609E-02  0.8639759E-01
       -2   -1    0    0    0  501  0.00000000000E+00  0.00000000000E+00  0.14117837460E+04  0.14117837460E+04  0.25500000920E-02 0.  1.
        2   -1    0    0  501    0  0.00000000000E+00  0.00000000000E+00 -0.66003816670E+03  0.66003816670E+03  0.25500000920E-02 0. -1.
    10030    2    1    2    0    0  0.00000000000E+00  0.00000000000E+00  0.75174557929E+03  0.20718219127E+04  0.19306280382E+04 0.  0.
        4    1    3    3  502    0 -0.18825182771E+03  0.28490504057E+03  0.13448001105E+04  0.13874792189E+04  0.12699999809E+01 0.  1.
       -4    1    3    3    0  502  0.18825182771E+03 -0.28490504057E+03 -0.59305453116E+03  0.68434269384E+03  0.12699999809E+01 0. -1.
</event>
<event>
 5   0  0.1790832E-04  0.1898338E+04  0.7818609E-02  0.8655684E-01
       -2   -1    0    0    0  501  0.00000000000E+00  0.00000000000E+00  0.66851766632E+03  0.66851766633E+03  0.25500000920E-02 0.  1.
        2   -1    0    0  501    0  0.00000000000E+00  0.00000000000E+00 -0.13476407376E+04  0.13476407376E+04  0.25500000920E-02 0. -1.
    10030    2    1    2    0    0  0.00000000000E+00  0.00000000000E+00 -0.67912307129E+03  0.20161584039E+04  0.18983378424E+04 0.  0.
        5    1    3    3  502    0  0.37273473460E+03  0.32054185614E+02  0.58689832576E+03  0.69601033611E+03  0.46999998093E+01 0.  1.
       -5    1    3    3    0  502 -0.37273473460E+03 -0.32054185614E+02 -0.12660213971E+04  0.13201480678E+04  0.46999998093E+01 0. -1.
</event>
<event>
 5   0  0.8681396E-05  0.1914920E+04  0.7818609E-02  0.8647465E-01
       -1   -1    0    0    0  501  0.00000000000E+00  0.00000000000E+00  0.66777128934E+03  0.66777128935E+03  0.50400001928E-02 0.  1.
        1   -1    0    0  501    0  0.00000000000E+00  0.00000000000E+00 -0.13728196204E+04  0.13728196204E+04  0.50400001928E-02 0. -1.
    10030    2    1    2    0    0  0.00000000000E+00  0.00000000000E+00 -0.70504833105E+03  0.20405909098E+04  0.19149198709E+04 0.  0.
        3    1    3    3  502    0 -0.20798913761E+03  0.53469431046E+03  0.46431377028E+03  0.73806827223E+03  0.10100000352E+00 0.  1.
       -3    1    3    3    0  502  0.20798913761E+03 -0.53469431046E+03 -0.11693621013E+04  0.13025226375E+04  0.10100000352E+00 0. -1.
</event>
<event>
 5   0  0.8602017E-05  0.1899497E+04  0.7818609E-02  0.8655107E-01
        1   -1    0    0  501    0  0.00000000000E+00  0.00000000000E+00  0.11712822264E+04  0.11712822264E+04  0.50400001928E-02 0.  1.
       -1   -1    0    0    0  501  0.00000000000E+00  0.00000000000E+00 -0.77011548428E+03  0.77011548429E+03  0.50400001928E-02 0. -1.
    10030    2    1    2    0    0  0.00000000000E+00  0.00000000000E+00  0.40116674212E+03  0.19413977107E+04  0.18994973851E+04 0.  0.
        2    1    3    3  502    0  0.40620071454E+03 -0.61464607279E+03  0.81316559101E+03  0.10972816838E+04  0.25500000920E-02 0.  1.
       -2    1    3    3    0  502 -0.40620071454E+03  0.61464607279E+03 -0.41199884889E+03  0.84411602685E+03  0.25500000920E-02 0. -1.
</event>
<event>
 5   0  0.1799738E-04  0.1894860E+04  0.7818609E-02  0.8657419E-01
        2   -1    0    0  501    0  0.00000000000E+00  0.00000000000E+00  0.74584824206E+03  0.74584824206E+03  0.25500000920E-02 0.  1.
       -2   -1    0    0    0  501  0.00000000000E+00  0.00000000000E+00 -0.12034934605E+04  0.12034934605E+04  0.25500000920E-02 0. -1.
    10030    2    1    2    0    0  0.00000000000E+00  0.00000000000E+00 -0.45764521840E+03  0.19493417025E+04  0.18948598701E+04 0.  0.
        1    1    3    3  502    0 -0.57451654087E+03 -0.37444719307E+03 -0.90133368287E+03  0.11325556781E+04  0.50400001928E-02 0. -1.
       -1    1    3    3    0  502  0.57451654087E+03  0.37444719307E+03  0.44368846447E+03  0.81678602441E+03  0.50400001928E-02 0.  1.
</event>
<event>
 5   0  0.8567844E-05  0.1926083E+04  0.7818609E-02  0.8641981E-01
        1   -1    0    0  501    0  0.00000000000E+00  0.00000000000E+00  0.72829779453E+03  0.72829779455E+03  0.50400001928E-02 0. -1.
       -1   -1    0    0    0  501  0.00000000000E+00  0.00000000000E+00 -0.12734476885E+04  0.12734476885E+04  0.50400001928E-02 0.  1.
    10030    2    1    2    0    0  0.00000000000E+00  0.00000000000E+00 -0.54514989397E+03  0.20017454831E+04  0.19260832204E+04 0.  0.
        4    1    3    3  502    0 -0.10620175441E+03 -0.80926470934E+03 -0.80378921152E+03  0.11455421825E+04  0.12699999809E+01 0.  1.
       -4    1    3    3    0  502  0.10620175441E+03  0.80926470934E+03  0.25863931755E+03  0.85620330057E+03  0.12699999809E+01 0. -1.
</event>
<event>
 5   0  0.1810569E-04  0.1919484E+04  0.7818609E-02  0.8645218E-01
        2   -1    0    0  501    0  0.00000000000E+00  0.00000000000E+00  0.62885063951E+03  0.62885063951E+03  0.25500000920E-02 0.  1.
       -2   -1    0    0    0  501  0.00000000000E+00  0.00000000000E+00 -0.14647431699E+04  0.14647431699E+04  0.25500000920E-02 0. -1.
    10030    2    1    2    0    0  0.00000000000E+00  0.00000000000E+00 -0.83589253039E+03  0.20935938094E+04  0.19194839714E+04 0.  0.
        4    1    3    3  502    0 -0.37745922575E+03 -0.56753641309E+03  0.31901151032E+03  0.75255764158E+03  0.12699999809E+01 0.  1.
       -4    1    3    3    0  502  0.37745922575E+03  0.56753641309E+03 -0.11549040407E+04  0.13410361678E+04  0.12699999809E+01 0. -1.
</event>
<event>
 5   0  0.6375750E-05  0.1901358E+04  0.7818609E-02  0.8654181E-01
       -3   -1    0    0    0  501  0.00000000000E+00  0.00000000000E+00  0.91476285456E+03  0.91476286013E+03  0.10100000352E+00 0. -1.
        3   -1    0    0  501    0  0.00000000000E+00  0.00000000000E+00 -0.98800547700E+03  0.98800548216E+03  0.10100000352E+00 0.  1.
    10030    2    1    2    0    0  0.00000000000E+00  0.00000000000E+00 -0.73242622444E+02  0.19027683423E+04  0.19013581679E+04 0.  0.
        3    1    3    3  502    0 -0.94630388343E+03  0.69367171550E+02 -0.95723272017E+02  0.95365916306E+03  0.10100000352E+00 0.  1.
       -3    1    3    3    0  502  0.94630388343E+03 -0.69367171550E+02  0.22480649573E+02  0.94910917923E+03  0.10100000352E+00 0. -1.
</event>
<event>
 5   0  0.1658711E-04  0.1900602E+04  0.7818609E-02  0.8654557E-01
        2   -1    0    0  501    0  0.00000000000E+00  0.00000000000E+00  0.49764834434E+03  0.49764834435E+03  0.25500000920E-02 0.  1.
       -2   -1    0    0    0  501  0.00000000000E+00  0.00000000000E+00 -0.18146798064E+04  0.18146798064E+04  0.25500000920E-02 0. -1.
    10030    2    1    2    0    0  0.00000000000E+00  0.00000000000E+00 -0.13170314621E+04  0.23123281508E+04  0.19006024321E+04 0.  0.
        2    1    3    3  502    0 -0.29064603196E+03 -0.53048200358E+03  0.23318799381E+03  0.64827687949E+03  0.25500000920E-02 0.  1.
       -2    1    3    3    0  502  0.29064603196E+03  0.53048200358E+03 -0.15502194559E+04  0.16640512713E+04  0.25500000920E-02 0. -1.
</event>
<event>
 5   0  0.8567844E-05  0.1873099E+04  0.7818609E-02  0.8668364E-01
        1   -1    0    0  501    0  0.00000000000E+00  0.00000000000E+00  0.96422689098E+03  0.96422689099E+03  0.50400001928E-02 0.  1.
       -1   -1    0    0    0  501  0.00000000000E+00  0.00000000000E+00 -0.90966611856E+03  0.90966611858E+03  0.50400001928E-02 0. -1.
    10030    2    1    2    0    0  0.00000000000E+00  0.00000000000E+00  0.54560772416E+02  0.18738930096E+04  0.18730985381E+04 0.  0.
        4    1    3    3  502    0  0.62661545339E+03  0.52635306215E+02 -0.66706407754E+03  0.91672978479E+03  0.12699999809E+01 0. -1.
       -4    1    3    3    0  502 -0.62661545339E+03 -0.52635306215E+02  0.72162484995E+03  0.95716322477E+03  0.12699999809E+01 0.  1.
</event>
<event>
 5   0  0.1810569E-04  0.1881468E+04  0.7818609E-02  0.8664136E-01
       -2   -1    0    0    0  501  0.00000000000E+00  0.00000000000E+00  0.72632036309E+03  0.72632036310E+03  0.25500000920E-02 0. -1.
        2   -1    0    0  501    0  0.00000000000E+00  0.00000000000E+00 -0.12184441657E+04  0.12184441657E+04  0.25500000920E-02 0.  1.
    10030    2    1    2    0    0  0.00000000000E+00  0.00000000000E+00 -0.49212380264E+03  0.19447645288E+04  0.18814683722E+04 0.  0.
        4    1    3    3  502    0 -0.66760602562E+03 -0.57676669826E+03 -0.58357655383E+03  0.10577905448E+04  0.12699999809E+01 0. -1.
       -4    1    3    3    0  502  0.66760602562E+03  0.57676669826E+03  0.91452751194E+02  0.88697398399E+03  0.12699999809E+01 0.  1.
</event>
<event>
 5   0  0.8681396E-05  0.1889567E+04  0.7818609E-02  0.8660067E-01
        1   -1    0    0  501    0  0.00000000000E+00  0.00000000000E+00  0.16812184874E+04  0.16812184874E+04  0.50400001928E-02 0.  1.
       -1   -1    0    0    0  501  0.00000000000E+00  0.00000000000E+00 -0.53093406797E+03  0.53093406799E+03  0.50400001928E-02 0. -1.
    10030    2    1    2    0    0  0.00000000000E+00  0.00000000000E+00  0.11502844194E+04  0.22121525554E+04  0.18895673268E+04 0.  0.
        3    1    3    3  502    0 -0.92104168739E+03  0.58212838780E+02  0.81193338349E+03  0.12292039513E+04  0.10100000352E+00 0.  1.
       -3    1    3    3    0  502  0.92104168739E+03 -0.58212838780E+02  0.33835103591E+03  0.98294860405E+03  0.10100000352E+00 0. -1.
</event>
<event>
 5   0  0.1790832E-04  0.1891063E+04  0.7818609E-02  0.8659318E-01
        2   -1    0    0  501    0  0.00000000000E+00  0.00000000000E+00  0.12041035304E+04  0.12041035304E+04  0.25500000920E-02 0.  1.
       -2   -1    0    0    0  501  0.00000000000E+00  0.00000000000E+00 -0.74248577208E+03  0.74248577209E+03  0.25500000920E-02 0. -1.
    10030    2    1    2    0    0  0.00000000000E+00  0.00000000000E+00  0.46161775827E+03  0.19465893024E+04  0.18910629174E+04 0.  0.
        5    1    3    3  502    0  0.73934612860E+03  0.49965409063E+03 -0.90973108693E+02  0.89698668031E+03  0.46999998093E+01 0. -1.
       -5    1    3    3    0  502 -0.73934612860E+03 -0.49965409063E+03  0.55259086697E+03  0.10496026221E+04  0.46999998093E+01 0.  1.
</event>
<event>
 5   0  0.1790832E-04  0.1909318E+04  0.7818609E-02  0.8650232E-01
        2   -1    0    0  501    0  0.00000000000E+00  0.00000000000E+00  0.15024504787E+04  0.15024504787E+04  0.25500000920E-02 0. -1.
       -2   -1    0    0    0  501  0.00000000000E+00  0.00000000000E+00 -0.60659188843E+03  0.60659188843E+03  0.25500000920E-02 0.  1.
    10030    2    1    2    0    0  0.00000000000E+00  0.00000000000E+00  0.89585859030E+03  0.21090423672E+04  0.19093184891E+04 0.  0.
        5    1    3    3  502    0  0.21729493186E+03  0.62617280753E+03  0.12068520489E+04  0.13768890406E+04  0.46999998093E+01 0. -1.
       -5    1    3    3    0  502 -0.21729493186E+03 -0.62617280753E+03 -0.31099345857E+03  0.73215332655E+03  0.46999998093E+01 0.  1.
</event>
<event>
 5   0  0.1799738E-04  0.1910019E+04  0.7818609E-02  0.8649885E-01
        2   -1    0    0  501    0  0.00000000000E+00  0.00000000000E+00  0.11461204932E+04  0.11461204933E+04  0.25500000920E-02 0. -1.
       -2   -1    0    0    0  501  0.00000000000E+00  0.00000000000E+00 -0.79576585571E+03  0.79576585571E+03  0.25500000920E-02 0.  1.
    10030    2    1    2    0    0  0.00000000000E+00  0.00000000000E+00  0.35035463754E+03  0.19418863490E+04  0.19100194293E+04 0.  0.
        1    1    3    3  502    0 -0.33791667225E+03 -0.75445323421E+03 -0.31098076313E+03  0.88323065790E+03  0.50400001928E-02 0.  1.
       -1    1    3    3    0  502  0.33791667225E+03  0.75445323421E+03  0.66133540067E+03  0.10586556911E+04  0.50400001928E-02 0. -1.
</event>
<event>
 5   0  0.8602017E-05  0.1900320E+04  0.7818609E-02  0.8654697E-01
        1   -1    0    0  501    0  0.00000000000E+00  0.00000000000E+00  0.13391396570E+04  0.13391396570E+04  0.50400001928E-02 0.  1.
       -1   -1    0    0    0  501  0.00000000000E+00  0.00000000000E+00 -0.67416737687E+03  0.67416737689E+03  0.50400001928E-02 0. -1.
    10030    2    1    2    0    0  0.00000000000E+00  0.00000000000E+00  0.66497228010E+03  0.20133070339E+04  0.19003202570E+04 0.  0.
        2    1    3    3  502    0 -0.67550314929E+03 -0.99638597950E+02 -0.36753492629E+03  0.77544456729E+03  0.25500000920E-02 0. -1.
       -2    1    3    3    0  502  0.67550314929E+03  0.99638597950E+02  0.10325072064E+04  0.12378624666E+04  0.25500000920E-02 0.  1.
</event>
<event>
 5   0  0.8681396E-05  0.1922019E+04  0.7818609E-02  0.8643973E-01
       -1   -1    0    0    0  501  0.00000000000E+00  0.00000000000E+00  0.14795086630E+04  0.14795086630E+04  0.50400001928E-02 0. -1.
        1   -1    0    0  501    0  0.00000000000E+00  0.00000000000E+00 -0.62422005078E+03  0.62422005081E+03  0.50400001928E-02 0.  1.
    10030    2    1    2    0    0  0.00000000000E+00  0.00000000000E+00  0.85528861221E+03  0.21037287138E+04  0.19220187021E+04 0.  0.
        3    1    3    3  502    0 -0.66533825548E+03 -0.67922595108E+03  0.27473695209E+03  0.98969858536E+03  0.10100000352E+00 0.  1.
       -3    1    3    3    0  502  0.66533825548E+03  0.67922595108E+03  0.58055166012E+03  0.11140301284E+04  0.10100000352E+00 0. -1.
</event>
<event>
 5   0  0.8681396E-05  0.1879225E+04  0.7818609E-02  0.8665267E-01
        1   -1    0    0  501    0  0.00000000000E+00  0.00000000000E+00  0.27032035903E+04  0.27032035903E+04  0.50400001928E-02 0. -1.
       -1   -1    0    0    0  501  0.00000000000E+00  0.00000000000E+00 -0.32660213265E+03  0.32660213269E+03  0.50400001928E-02 0.  1.
    10030    2    1    2    0    0  0.00000000000E+00  0.00000000000E+00  0.23766014577E+04  0.30298057230E+04  0.18792254337E+04 0.  0.
        3    1    3    3  502    0 -0.68797606281E+03 -0.62274528256E+03  0.14260715276E+04  0.17014119907E+04  0.10100000352E+00 0.  1.
       -3    1    3    3    0  502  0.68797606281E+03  0.62274528256E+03  0.95052993003E+03  0.13283937323E+04  0.10100000352E+00 0. -1.
</event>
<event>
 5   0  0.1810569E-04  0.1909789E+04  0.7818609E-02  0.8649999E-01
       -2   -1    0    0    0  501  0.00000000000E+00  0.00000000000E+00  0.64113993157E+03  0.64113993158E+03  0.25500000920E-02 0.  1.
        2   -1    0    0  501    0  0.00000000000E+00  0.00000000000E+00 -0.14221911387E+04  0.14221911387E+04  0.25500000920E-02 0. -1.
    10030    2    1    2    0    0  0.00000000000E+00  0.00000000000E+00 -0.78105120709E+03  0.20633310702E+04  0.19097890243E+04 0.  0.
        4    1    3    3  502    0  0.72365415668E+03 -0.84212998512E+02 -0.10574509361E+04  0.12841227600E+04  0.12699999809E+01 0. -1.
       -4    1    3    3    0  502 -0.72365415668E+03  0.84212998512E+02  0.27639972904E+03  0.77920831022E+03  0.12699999809E+01 0.  1.
</event>
<event>
 5   0  0.8587082E-05  0.1777046E+04  0.7818609E-02  0.8718602E-01
       -1   -1    0    0    0  501  0.00000000000E+00  0.00000000000E+00  0.49112056016E+03  0.49112056019E+03  0.50400001928E-02 0. -1.
        1   -1    0    0  501    0  0.00000000000E+00  0.00000000000E+00 -0.16074940582E+04  0.16074940582E+04  0.50400001928E-02 0.  1.
    10030    2    1    2    0    0  0.00000000000E+00  0.00000000000E+00 -0.11163734981E+04  0.20986146184E+04  0.17770462936E+04 0.  0.
        5    1    3    3  502    0 -0.43285342693E+03  0.35220401257E+03  0.25833314198E+03  0.61495354127E+03  0.46999998093E+01 0. -1.
       -5    1    3    3    0  502  0.43285342693E+03 -0.35220401257E+03 -0.13747066401E+04  0.14836610772E+04  0.46999998093E+01 0.  1.
</event>
<event>
 5   0  0.8567844E-05  0.1896964E+04  0.7818609E-02  0.8656369E-01
        1   -1    0    0  501    0  0.00000000000E+00  0.00000000000E+00  0.71198641512E+03  0.71198641513E+03  0.50400001928E-02 0.  1.
       -1   -1    0    0    0  501  0.00000000000E+00  0.00000000000E+00 -0.12635320810E+04  0.12635320810E+04  0.50400001928E-02 0. -1.
    10030    2    1    2    0    0  0.00000000000E+00  0.00000000000E+00 -0.55154566586E+03  0.19755184961E+04  0.18969635492E+04 0.  0.
        4    1    3    3  502    0  0.78711628225E+03 -0.19839134893E+03  0.23516089828E+03  0.84511148974E+03  0.12699999809E+01 0.  1.
       -4    1    3    3    0  502 -0.78711628225E+03  0.19839134893E+03 -0.78670656415E+03  0.11304070064E+04  0.12699999809E+01 0. -1.
</event>
<event>
 5   0  0.8602017E-05  0.1912372E+04  0.7818609E-02  0.8648722E-01
        1   -1    0    0  501    0  0.00000000000E+00  0.00000000000E+00  0.83616520285E+03  0.83616520287E+03  0.50400001928E-02 0. -1.
       -1   -1    0    0    0  501  0.00000000000E+00  0.00000000000E+00 -0.10934344091E+04  0.10934344091E+04  0.50400001928E-02 0.  1.
    10030    2    1    2    0    0  0.00000000000E+00  0.00000000000E+00 -0.25726920622E+03  0.19295996120E+04  0.19123721442E+04 0.  0.
        2    1    3    3  502    0 -0.28677214227E+03  0.28562474548E+03 -0.10027364836E+04  0.10813418573E+04  0.25500000920E-02 0.  1.
       -2    1    3    3    0  502  0.28677214227E+03 -0.28562474548E+03  0.74546727733E+03  0.84825775469E+03  0.25500000920E-02 0. -1.
</event>
<event>
 5   0  0.1765328E-04  0.1904666E+04  0.7818609E-02  0.8652537E-01
        2   -1    0    0  501    0  0.00000000000E+00  0.00000000000E+00  0.21629464226E+04  0.21629464226E+04  0.25500000920E-02 0. -1.
       -2   -1    0    0    0  501  0.00000000000E+00  0.00000000000E+00 -0.41930686538E+03  0.41930686539E+03  0.25500000920E-02 0.  1.
    10030    2    1    2    0    0  0.00000000000E+00  0.00000000000E+00  0.17436395572E+04  0.25822532880E+04  0.19046661486E+04 0.  0.
        3    1    3    3  502    0  0.39136506444E+03  0.68868314638E+03  0.15508096215E+03  0.80715624559E+03  0.10100000352E+00 0. -1.
       -3    1    3    3    0  502 -0.39136506444E+03 -0.68868314638E+03  0.15885585950E+04  0.17750970424E+04  0.10100000352E+00 0.  1.
</event>
<event>
 5   0  0.1810569E-04  0.1915087E+04  0.7818609E-02  0.8647383E-01
       -2   -1    0    0    0  501  0.00000000000E+00  0.00000000000E+00  0.51798270526E+03  0.51798270526E+03  0.25500000920E-02 0. -1.
        2   -1    0    0  501    0  0.00000000000E+00  0.00000000000E+00 -0.17701168934E+04  0.17701168934E+04  0.25500000920E-02 0.  1.
    10030    2    1    2    0    0  0.00000000000E+00  0.00000000000E+00 -0.12521341881E+04  0.22880995986E+04  0.19150873996E+04 0.  0.
        4    1    3    3  502    0  0.63200174713E+03  0.97663634042E+02  0.22543488844E+03  0.67807587748E+03  0.12699999809E+01 0. -1.
       -4    1    3    3    0  502 -0.63200174713E+03 -0.97663634042E+02 -0.14775690765E+04  0.16100237211E+04  0.12699999809E+01 0.  1.
</event>
<event>
 5   0  0.1799738E-04  0.1899971E+04  0.7818609E-02  0.8654871E-01
       -2   -1    0    0    0  501  0.00000000000E+00  0.00000000000E+00  0.58072452786E+03  0.58072452786E+03  0.25500000920E-02 0. -1.
        2   -1    0    0  501    0  0.00000000000E+00  0.00000000000E+00 -0.15540464458E+04  0.15540464458E+04  0.25500000920E-02 0.  1.
    10030    2    1    2    0    0  0.00000000000E+00  0.00000000000E+00 -0.97332191795E+03  0.21347709737E+04  0.18999714614E+04 0.  0.
        1    1    3    3  502    0 -0.73340956608E+03  0.44600616206E+03 -0.29346008246E+02  0.85887849923E+03  0.50400001928E-02 0. -1.
       -1    1    3    3    0  502  0.73340956608E+03 -0.44600616206E+03 -0.94397590970E+03  0.12758924744E+04  0.50400001928E-02 0.  1.
</event>
<event>
 5   0  0.1765328E-04  0.1920967E+04  0.7818609E-02  0.8644490E-01
        2   -1    0    0  501    0  0.00000000000E+00  0.00000000000E+00  0.72949344461E+03  0.72949344461E+03  0.25500000920E-02 0.  1.
       -2   -1    0    0    0  501  0.00000000000E+00  0.00000000000E+00 -0.12646148368E+04  0.12646148368E+04  0.25500000920E-02 0. -1.
    10030    2    1    2    0    0  0.00000000000E+00  0.00000000000E+00 -0.53512139221E+03  0.19941082814E+04  0.19209666665E+04 0.  0.
        3    1    3    3  502    0  0.59770880025E+03 -0.93902300872E+02  0.50680096635E+03  0.78925324307E+03  0.10100000352E+00 0.  1.
       -3    1    3    3    0  502 -0.59770880025E+03  0.93902300872E+02 -0.10419223586E+04  0.12048550384E+04  0.10100000352E+00 0. -1.
</event>
<event>
 5   0  0.8587082E-05  0.1960471E+04  0.7818609E-02  0.8625328E-01
        1   -1    0    0  501    0  0.00000000000E+00  0.00000000000E+00  0.15899902662E+04  0.15899902662E+04  0.50400001928E-02 0.  1.
       -1   -1    0    0    0  501  0.00000000000E+00  0.00000000000E+00 -0.60431899470E+03  0.60431899472E+03  0.50400001928E-02 0. -1.
    10030    2    1    2    0    0  0.00000000000E+00  0.00000000000E+00  0.98567127149E+03  0.21943092609E+04  0.19604706774E+04 0.  0.
        5    1    3    3  502    0  0.73256092009E+03  0.63558472682E+03  0.33365502998E+03  0.10256516054E+04  0.46999998093E+01 0. -1.
       -5    1    3    3    0  502 -0.73256092009E+03 -0.63558472682E+03  0.65201624152E+03  0.11686576555E+04  0.46999998093E+01 0.  1.
</event>
<event>
 5   0  0.8567844E-05  0.1961606E+04  0.7818609E-02  0.8624784E-01
       -1   -1    0    0    0  501  0.00000000000E+00  0.00000000000E+00  0.10877212203E+04  0.10877212203E+04  0.50400001928E-02 0.  1.
        1   -1    0    0  501    0  0.00000000000E+00  0.00000000000E+00 -0.88439457920E+03  0.88439457922E+03  0.50400001928E-02 0. -1.
    10030    2    1    2    0    0  0.00000000000E+00  0.00000000000E+00  0.20332664105E+03  0.19721157995E+04  0.19616062305E+04 0.  0.
        4    1    3    3  502    0  0.15740958331E+03  0.28484203403E+03  0.10318557019E+04  0.10819614428E+04  0.12699999809E+01 0.  1.
       -4    1    3    3    0  502 -0.15740958331E+03 -0.28484203403E+03 -0.82852906081E+03  0.89015435671E+03  0.12699999809E+01 0. -1.
</event>
<event>
 5   0  0.8587082E-05  0.1832263E+04  0.7818609E-02  0.8689328E-01
       -1   -1    0    0    0  501  0.00000000000E+00  0.00000000000E+00  0.39913624968E+03  0.39913624971E+03  0.50400001928E-02 0. -1.
        1   -1    0    0  501    0  0.00000000000E+00  0.00000000000E+00 -0.21027820012E+04  0.21027820012E+04  0.50400001928E-02 0.  1.
    10030    2    1    2    0    0  0.00000000000E+00  0.00000000000E+00 -0.17036457515E+04  0.25019182509E+04  0.18322625596E+04 0.  0.
        5    1    3    3  502    0 -0.53548973005E+03 -0.23921854566E+03  0.10916835892E+03  0.59658577268E+03  0.46999998093E+01 0. -1.
       -5    1    3    3    0  502  0.53548973005E+03  0.23921854566E+03 -0.18128141104E+04  0.19053324782E+04  0.46999998093E+01 0.  1.
</event>
<event>
 5   0  0.8905646E-05  0.1899526E+04  0.7818609E-02  0.8655093E-01
        1   -1    0    0  501    0  0.00000000000E+00  0.00000000000E+00  0.12013580820E+04  0.12013580820E+04  0.50400001928E-02 0.  1.
       -1   -1    0    0    0  501  0.00000000000E+00  0.00000000000E+00 -0.75085802901E+03  0.75085802903E+03  0.50400001928E-02 0. -1.
    10030    2    1    2    0    0  0.00000000000E+00  0.00000000000E+00  0.45050005295E+03  0.19522161110E+04  0.18995255845E+04 0.  0.
        1    1    3    3  502    0 -0.39429510525E+03 -0.65619759471E+02 -0.66020212438E+03  0.77177809500E+03  0.50400001928E-02 0. -1.
       -1    1    3    3    0  502  0.39429510525E+03  0.65619759471E+02  0.11107021773E+04  0.11804380160E+04  0.50400001928E-02 0.  1.
</event>
<event>
 5   0  0.1810569E-04  0.1835470E+04  0.7818609E-02  0.8687661E-01
        2   -1    0    0  501    0  0.00000000000E+00  0.00000000000E+00  0.45642049016E+03  0.45642049017E+03  0.25500000920E-02 0. -1.
       -2   -1    0    0    0  501  0.00000000000E+00  0.00000000000E+00 -0.18453114367E+04  0.18453114367E+04  0.25500000920E-02 0.  1.
    10030    2    1    2    0    0  0.00000000000E+00  0.00000000000E+00 -0.13888909465E+04  0.23017319269E+04  0.18354704579E+04 0.  0.
        4    1    3    3  502    0 -0.11377185599E+03 -0.82740859069E+03 -0.21744084964E+03  0.86303600571E+03  0.12699999809E+01 0. -1.
       -4    1    3    3    0  502  0.11377185599E+03  0.82740859069E+03 -0.11714500969E+04  0.14386959212E+04  0.12699999809E+01 0.  1.
</event>
<event>
 5   0  0.1799738E-04  0.1884415E+04  0.7818609E-02  0.8662653E-01
        2   -1    0    0  501    0  0.00000000000E+00  0.00000000000E+00  0.14682448138E+04  0.14682448138E+04  0.25500000920E-02 0. -1.
       -2   -1    0    0    0  501  0.00000000000E+00  0.00000000000E+00 -0.60463673674E+03  0.60463673674E+03  0.25500000920E-02 0.  1.
    10030    2    1    2    0    0  0.00000000000E+00  0.00000000000E+00  0.86360807708E+03  0.20728815506E+04  0.18844147664E+04 0.  0.
        1    1    3    3  502    0  0.39187321515E+03 -0.96725911064E+02 -0.50471656425E+03  0.64626567979E+03  0.50400001928E-02 0.  1.
       -1    1    3    3    0  502 -0.39187321515E+03  0.96725911064E+02  0.13683246413E+04  0.14266158708E+04  0.50400001928E-02 0. -1.
</event>
<event>
 5   0  0.1658711E-04  0.1899708E+04  0.7818609E-02  0.8655002E-01
       -2   -1    0    0    0  501  0.00000000000E+00  0.00000000000E+00  0.34428357123E+03  0.34428357124E+03  0.25500000920E-02 0.  1.
        2   -1    0    0  501    0  0.00000000000E+00  0.00000000000E+00 -0.26205807351E+04  0.26205807351E+04  0.25500000920E-02 0. -1.
    10030    2    1    2    0    0  0.00000000000E+00  0.00000000000E+00 -0.22762971639E+04  0.29648643063E+04  0.18997082873E+04 0.  0.
        2    1    3    3  502    0  0.37037588570E+03 -0.48674422057E+03 -0.39577608591E+01  0.61164850759E+03  0.25500000920E-02 0.  1.
       -2    1    3    3    0  502 -0.37037588570E+03  0.48674422057E+03 -0.22723394030E+04  0.23532157987E+04  0.25500000920E-02 0. -1.
</event>
<event>
 5   0  0.8681396E-05  0.1879756E+04  0.7818609E-02  0.8664999E-01
       -1   -1    0    0    0  501  0.00000000000E+00  0.00000000000E+00  0.51850155729E+03  0.51850155731E+03  0.50400001928E-02 0. -1.
        1   -1    0    0  501    0  0.00000000000E+00  0.00000000000E+00 -0.17036992054E+04  0.17036992054E+04  0.50400001928E-02 0.  1.
    10030    2    1    2    0    0  0.00000000000E+00  0.00000000000E+00 -0.11851976481E+04  0.22222007627E+04  0.18797560386E+04 0.  0.
        3    1    3    3  502    0  0.73521832519E+03 -0.33145348973E+03 -0.22007006723E+02  0.80677860662E+03  0.10100000352E+00 0. -1.
       -3    1    3    3    0  502 -0.73521832519E+03  0.33145348973E+03 -0.11631906414E+04  0.14154221561E+04  0.10100000352E+00 0.  1.
</event>
<event>
 5   0  0.1765328E-04  0.1895894E+04  0.7818609E-02  0.8656903E-01
        2   -1    0    0  501    0  0.00000000000E+00  0.00000000000E+00  0.12306085717E+04  0.12306085717E+04  0.25500000920E-02 0. -1.
       -2   -1    0    0    0  501  0.00000000000E+00  0.00000000000E+00 -0.73021084033E+03  0.73021084033E+03  0.25500000920E-02 0.  1.
    10030    2    1    2    0    0  0.00000000000E+00  0.00000000000E+00  0.50039773139E+03  0.19608194120E+04  0.18958942157E+04 0.  0.
        3    1    3    3  502    0  0.78181867647E+03  0.46066250468E+03 -0.33330202286E+02  0.90805357699E+03  0.10100000352E+00 0. -1.
       -3    1    3    3    0  502 -0.78181867647E+03 -0.46066250468E+03  0.53372793368E+03  0.10527658351E+04  0.10100000352E+00 0.  1.
</event>
<event>
 5   0  0.1790832E-04  0.1850159E+04  0.7818609E-02  0.8680071E-01
       -2   -1    0    0    0  501  0.00000000000E+00  0.00000000000E+00  0.80528820322E+03  0.80528820323E+03  0.25500000920E-02 0. -1.
        2   -1    0    0  501    0  0.00000000000E+00  0.00000000000E+00 -0.10626901628E+04  0.10626901628E+04  0.25500000920E-02 0.  1.
    10030    2    1    2    0    0  0.00000000000E+00  0.00000000000E+00 -0.25740195953E+03  0.18679783660E+04  0.18501587518E+04 0.  0.
        5    1    3    3  502    0  0.18357499837E+03 -0.45940449745E+03  0.66049081387E+03  0.82524086030E+03  0.46999998093E+01 0. -1.
       -5    1    3    3    0  502 -0.18357499837E+03  0.45940449745E+03 -0.91789277340E+03  0.10427375057E+04  0.46999998093E+01 0.  1.
</event>
<event>
 5   0  0.1799738E-04  0.1877406E+04  0.7818609E-02  0.8666185E-01
       -2   -1    0    0    0  501  0.00000000000E+00  0.00000000000E+00  0.18601296618E+04  0.18601296618E+04  0.25500000920E-02 0. -1.
        2   -1    0    0  501    0  0.00000000000E+00  0.00000000000E+00 -0.47371082307E+03  0.47371082308E+03  0.25500000920E-02 0.  1.
    10030    2    1    2    0    0  0.00000000000E+00  0.00000000000E+00  0.13864188387E+04  0.23338404848E+04  0.18774062460E+04 0.  0.
        1    1    3    3  502    0 -0.91491826392E+03  0.19504627016E+03  0.78986207479E+03  0.12243367896E+04  0.50400001928E-02 0.  1.
       -1    1    3    3    0  502  0.91491826392E+03 -0.19504627016E+03  0.59655676390E+03  0.11095036952E+04  0.50400001928E-02 0. -1.
</event>
<event>
 5   0  0.8681396E-05  0.1898126E+04  0.7818609E-02  0.8655790E-01
       -1   -1    0    0    0  501  0.00000000000E+00  0.00000000000E+00  0.77516170092E+03  0.77516170094E+03  0.50400001928E-02 0. -1.
        1   -1    0    0  501    0  0.00000000000E+00  0.00000000000E+00 -0.11619780369E+04  0.11619780369E+04  0.50400001928E-02 0.  1.
    10030    2    1    2    0    0  0.00000000000E+00  0.00000000000E+00 -0.38681633601E+03  0.19371397379E+04  0.18981263094E+04 0.  0.
        3    1    3    3  502    0  0.64841935612E+03 -0.22397097377E+03  0.47589936620E+03  0.83491968202E+03  0.10100000352E+00 0. -1.
       -3    1    3    3    0  502 -0.64841935612E+03  0.22397097377E+03 -0.86271570221E+03  0.11022200558E+04  0.10100000352E+00 0.  1.
</event>
<event>
 5   0  0.8567844E-05  0.1903219E+04  0.7818609E-02  0.8653256E-01
       -1   -1    0    0    0  501  0.00000000000E+00  0.00000000000E+00  0.54568402404E+03  0.54568402406E+03  0.50400001928E-02 0.  1.
        1   -1    0    0  501    0  0.00000000000E+00  0.00000000000E+00 -0.16594960375E+04  0.16594960375E+04  0.50400001928E-02 0. -1.
    10030    2    1    2    0    0  0.00000000000E+00  0.00000000000E+00 -0.11138120135E+04  0.22051800616E+04  0.19032188268E+04 0.  0.
        4    1    3    3  502    0  0.53578919917E+02 -0.93508452255E+03 -0.36197197656E+03  0.10041310122E+04  0.12699999809E+01 0.  1.
       -4    1    3    3    0  502 -0.53578919917E+02  0.93508452255E+03 -0.75184003692E+03  0.12010490494E+04  0.12699999809E+01 0. -1.
</event>
<event>
 5   0  0.8681396E-05  0.1879909E+04  0.7818609E-02  0.8664922E-01
       -1   -1    0    0    0  501  0.00000000000E+00  0.00000000000E+00  0.17325692300E+04  0.17325692300E+04  0.50400001928E-02 0.  1.
        1   -1    0    0  501    0  0.00000000000E+00  0.00000000000E+00 -0.50994467230E+03  0.50994467233E+03  0.50400001928E-02 0. -1.
    10030    2    1    2    0    0  0.00000000000E+00  0.00000000000E+00  0.12226245577E+04  0.22425139023E+04  0.18799089853E+04 0.  0.
        3    1    3    3  502    0  0.79745403245E+03  0.17988132263E+03  0.57906250562E+02  0.81953850926E+03  0.10100000352E+00 0. -1.
       -3    1    3    3    0  502 -0.79745403245E+03 -0.17988132263E+03  0.11647183071E+04  0.14229753930E+04  0.10100000352E+00 0.  1.
</event>
<event>
 5   0  0.1810569E-04  0.1916012E+04  0.7818609E-02  0.8646927E-01
       -2   -1    0    0    0  501  0.00000000000E+00  0.00000000000E+00  0.53326880230E+03  0.53326880231E+03  0.25500000920E-02 0.  1.
        2   -1    0    0  501    0  0.00000000000E+00  0.00000000000E+00 -0.17210364816E+04  0.17210364816E+04  0.25500000920E-02 0. -1.
    10030    2    1    2    0    0  0.00000000000E+00  0.00000000000E+00 -0.11877676793E+04  0.22543052839E+04  0.19160115483E+04 0.  0.
        4    1    3    3  502    0 -0.81779285253E+03  0.23731929777E+02 -0.11803086553E+04  0.14361331724E+04  0.12699999809E+01 0. -1.
       -4    1    3    3    0  502  0.81779285253E+03 -0.23731929777E+02 -0.74590239886E+01  0.81817211152E+03  0.12699999809E+01 0.  1.
</event>
<event>
 5   0  0.1790832E-04  0.1903908E+04  0.7818609E-02  0.8652914E-01
       -2   -1    0    0    0  501  0.00000000000E+00  0.00000000000E+00  0.28375185136E+03  0.28375185137E+03  0.25500000920E-02 0.  1.
        2   -1    0    0  501    0  0.00000000000E+00  0.00000000000E+00 -0.31936919559E+04  0.31936919559E+04  0.25500000920E-02 0. -1.
    10030    2    1    2    0    0  0.00000000000E+00  0.00000000000E+00 -0.29099401046E+04  0.34774438073E+04  0.19039075662E+04 0.  0.
        5    1    3    3  502    0  0.36274976966E+03 -0.76148951057E+02 -0.30564561303E+04  0.30788524201E+04  0.46999998093E+01 0. -1.
       -5    1    3    3    0  502 -0.36274976966E+03  0.76148951057E+02  0.14651602577E+03  0.39859138719E+03  0.46999998093E+01 0.  1.
</event>
<event>
 5   0  0.1658711E-04  0.1842293E+04  0.7818609E-02  0.8684126E-01
       -2   -1    0    0    0  501  0.00000000000E+00  0.00000000000E+00  0.48025561426E+03  0.48025561426E+03  0.25500000920E-02 0. -1.
        2   -1    0    0  501    0  0.00000000000E+00  0.00000000000E+00 -0.17667903633E+04  0.17667903633E+04  0.25500000920E-02 0.  1.
    10030    2    1    2    0    0  0.00000000000E+00  0.00000000000E+00 -0.12865347490E+04  0.22470459775E+04  0.18422931267E+04 0.  0.
        2    1    3    3  502    0 -0.22397639426E+03 -0.23778427938E+03  0.40723701542E+03  0.52206204176E+03  0.25500000920E-02 0. -1.
       -2    1    3    3    0  502  0.22397639426E+03  0.23778427938E+03 -0.16937717644E+04  0.17249839358E+04  0.25500000920E-02 0.  1.
</event>
<event>
 5   0  0.1765328E-04  0.1911486E+04  0.7818609E-02  0.8649160E-01
        2   -1    0    0  501    0  0.00000000000E+00  0.00000000000E+00  0.17168141148E+04  0.17168141148E+04  0.25500000920E-02 0.  1.
       -2   -1    0    0    0  501  0.00000000000E+00  0.00000000000E+00 -0.53205784866E+03  0.53205784866E+03  0.25500000920E-02 0. -1.
    10030    2    1    2    0    0  0.00000000000E+00  0.00000000000E+00  0.11847562661E+04  0.22488719634E+04  0.19114857305E+04 0.  0.
        3    1    3    3  502    0  0.25999598608E+03  0.90159886143E+03  0.37876558469E+03  0.10119000929E+04  0.10100000352E+00 0. -1.
       -3    1    3    3    0  502 -0.25999598608E+03 -0.90159886143E+03  0.80599068142E+03  0.12369718705E+04  0.10100000352E+00 0.  1.
</event>
<event>
 5   0  0.1658711E-04  0.1898562E+04  0.7818609E-02  0.8655573E-01
        2   -1    0    0  501    0  0.00000000000E+00  0.00000000000E+00  0.18629602153E+04  0.18629602153E+04  0.25500000920E-02 0.  1.
       -2   -1    0    0    0  501  0.00000000000E+00  0.00000000000E+00 -0.48371096809E+03  0.48371096809E+03  0.25500000920E-02 0. -1.
    10030    2    1    2    0    0  0.00000000000E+00  0.00000000000E+00  0.13792492472E+04  0.23466711834E+04  0.18985618655E+04 0.  0.
        2    1    3    3  502    0  0.64332602802E+03 -0.66800750089E+03  0.93999805780E+03  0.13204918585E+04  0.25500000920E-02 0. -1.
       -2    1    3    3    0  502 -0.64332602802E+03  0.66800750089E+03  0.43925118944E+03  0.10261793250E+04  0.25500000920E-02 0.  1.
</event>
<event>
 5   0  0.1765328E-04  0.1924496E+04  0.7818609E-02  0.8642758E-01
        2   -1    0    0  501    0  0.00000000000E+00  0.00000000000E+00  0.14026273677E+04  0.14026273677E+04  0.25500000920E-02 0. -1.
       -2   -1    0    0    0  501  0.00000000000E+00  0.00000000000E+00 -0.66013341381E+03  0.66013341381E+03  0.25500000920E-02 0.  1.
    10030    2    1    2    0    0  0.00000000000E+00  0.00000000000E+00  0.74249395392E+03  0.20627607815E+04  0.19244959782E+04 0.  0.
        3    1    3    3  502    0  0.45846975831E+03 -0.55017163051E+03 -0.31760637871E+03  0.78342655323E+03  0.10100000352E+00 0.  1.
       -3    1    3    3    0  502 -0.45846975831E+03  0.55017163051E+03  0.10601003326E+04  0.12793342283E+04  0.10100000352E+00 0. -1.
</event>
<event>
 5   0  0.1765328E-04  0.1884294E+04  0.7818609E-02  0.8662714E-01
       -2   -1    0    0    0  501  0.00000000000E+00  0.00000000000E+00  0.76183466152E+03  0.76183466152E+03  0.25500000920E-02 0.  1.
        2   -1    0    0  501    0  0.00000000000E+00  0.00000000000E+00 -0.11651354361E+04  0.11651354361E+04  0.25500000920E-02 0. -1.
    10030    2    1    2    0    0  0.00000000000E+00  0.00000000000E+00 -0.40330077456E+03  0.19269700976E+04  0.18842935659E+04 0.  0.
        3    1    3    3  502    0  0.77462690779E+03  0.46055470218E+01  0.34675294046E+03  0.84870823565E+03  0.10100000352E+00 0.  1.
       -3    1    3    3    0  502 -0.77462690779E+03 -0.46055470218E+01 -0.75005371502E+03  0.10782618620E+04  0.10100000352E+00 0. -1.
</event>
<event>
 5   0  0.1658711E-04  0.1902146E+04  0.7818609E-02  0.8653789E-01
        2   -1    0    0  501    0  0.00000000000E+00  0.00000000000E+00  0.16800583169E+04  0.16800583169E+04  0.25500000920E-02 0. -1.
       -2   -1    0    0    0  501  0.00000000000E+00  0.00000000000E+00 -0.53839795515E+03  0.53839795516E+03  0.25500000920E-02 0.  1.
    10030    2    1    2    0    0  0.00000000000E+00  0.00000000000E+00  0.11416603617E+04  0.22184562720E+04  0.19021461167E+04 0.  0.
        2    1    3    3  502    0 -0.48143157139E+03 -0.27274771098E+03  0.14730092244E+04  0.15735068627E+04  0.25500000920E-02 0. -1.
       -2    1    3    3    0  502  0.48143157139E+03  0.27274771098E+03 -0.33134886269E+03  0.64494940932E+03  0.25500000920E-02 0.  1.
</event>
<event>
 5   0  0.8587082E-05  0.1891290E+04  0.7818609E-02  0.8659204E-01
       -1   -1    0    0    0  501  0.00000000000E+00  0.00000000000E+00  0.66837206445E+03  0.66837206446E+03  0.50400001928E-02 0.  1.
        1   -1    0    0  501    0  0.00000000000E+00  0.00000000000E+00 -0.13379434503E+04  0.13379434503E+04  0.50400001928E-02 0. -1.
    10030    2    1    2    0    0  0.00000000000E+00  0.00000000000E+00 -0.66957138586E+03  0.20063155148E+04  0.18912895347E+04 0.  0.
        5    1    3    3  502    0 -0.19936552403E+03  0.98077575153E+02 -0.13098484923E+04  0.13285672680E+04  0.46999998093E+01 0. -1.
       -5    1    3    3    0  502  0.19936552403E+03 -0.98077575153E+02  0.64027710645E+03  0.67774824674E+03  0.46999998093E+01 0.  1.
</event>
<event>
 5   0  0.8602017E-05  0.1867795E+04  0.7818609E-02  0.8671055E-01
        1   -1    0    0  501    0  0.00000000000E+00  0.00000000000E+00  0.62118367252E+03  0.62118367254E+03  0.50400001928E-02 0. -1.
       -1   -1    0    0    0  501  0.00000000000E+00  0.00000000000E+00 -0.14040359804E+04  0.14040359804E+04  0.50400001928E-02 0.  1.
    10030    2    1    2    0    0  0.00000000000E+00  0.00000000000E+00 -0.78285230783E+03  0.20252196529E+04  0.18677946639E+04 0.  0.
        2    1    3    3  502    0 -0.16046961517E+03  0.37916580416E+03 -0.13003167456E+04  0.13639431232E+04  0.25500000920E-02 0.  1.
       -2    1    3    3    0  502  0.16046961517E+03 -0.37916580416E+03  0.51746443774E+03  0.66127652973E+03  0.25500000920E-02 0. -1.
</event>
<event>
 5   0  0.8602017E-05  0.1904885E+04  0.7818609E-02  0.8652429E-01
        1   -1    0    0  501    0  0.00000000000E+00  0.00000000000E+00  0.13029392745E+04  0.13029392746E+04  0.50400001928E-02 0. -1.
       -1   -1    0    0    0  501  0.00000000000E+00  0.00000000000E+00 -0.69623077680E+03  0.69623077682E+03  0.50400001928E-02 0.  1.
    10030    2    1    2    0    0  0.00000000000E+00  0.00000000000E+00  0.60670849775E+03  0.19991700514E+04  0.19048846929E+04 0.  0.
        2    1    3    3  502    0  0.64513504333E+03 -0.58088024154E+03  0.71457127219E+03  0.11243812441E+04  0.25500000920E-02 0. -1.
       -2    1    3    3    0  502 -0.64513504333E+03  0.58088024154E+03 -0.10786277443E+03  0.87478880723E+03  0.25500000920E-02 0.  1.
</event>
<event>
 5   0  0.8681396E-05  0.1900629E+04  0.7818609E-02  0.8654544E-01
        1   -1    0    0  501    0  0.00000000000E+00  0.00000000000E+00  0.74755419112E+03  0.74755419114E+03  0.50400001928E-02 0.  1.
       -1   -1    0    0    0  501  0.00000000000E+00  0.00000000000E+00 -0.12080692856E+04  0.12080692856E+04  0.50400001928E-02 0. -1.
    10030    2    1    2    0    0  0.00000000000E+00  0.00000000000E+00 -0.46051509448E+03  0.19556234768E+04  0.19006285883E+04 0.  0.
        3    1    3    3  502    0  0.40870155075E+03  0.30510839200E+03  0.59479774753E+03  0.78352565952E+03  0.10100000352E+00 0.  1.
       -3    1    3    3    0  502 -0.40870155075E+03 -0.30510839200E+03 -0.10553128420E+04  0.11720978172E+04  0.10100000352E+00 0. -1.
</event>
<event>
 5   0  0.1799738E-04  0.1892434E+04  0.7818609E-02  0.8658632E-01
       -2   -1    0    0    0  501  0.00000000000E+00  0.00000000000E+00  0.59699903062E+03  0.59699903062E+03  0.25500000920E-02 0.  1.
        2   -1    0    0  501    0  0.00000000000E+00  0.00000000000E+00 -0.14997118945E+04  0.14997118945E+04  0.25500000920E-02 0. -1.
    10030    2    1    2    0    0  0.00000000000E+00  0.00000000000E+00 -0.90271286391E+03  0.20967109252E+04  0.18924339325E+04 0.  0.
        1    1    3    3  502    0 -0.16817035546E+03 -0.71117605811E+03  0.21458513104E+03  0.76164258847E+03  0.50400001928E-02 0.  1.
       -1    1    3    3    0  502  0.16817035546E+03  0.71117605811E+03 -0.11172979950E+04  0.13350683367E+04  0.50400001928E-02 0. -1.
</event>
<event>
 5   0  0.8681396E-05  0.1934589E+04  0.7818609E-02  0.8637828E-01
       -1   -1    0    0    0  501  0.00000000000E+00  0.00000000000E+00  0.69376540270E+03  0.69376540272E+03  0.50400001928E-02 0.  1.
        1   -1    0    0  501    0  0.00000000000E+00  0.00000000000E+00 -0.13486673368E+04  0.13486673368E+04  0.50400001928E-02 0. -1.
    10030    2    1    2    0    0  0.00000000000E+00  0.00000000000E+00 -0.65490193409E+03  0.20424327395E+04  0.19345890913E+04 0.  0.
        3    1    3    3  502    0  0.13064212336E+03  0.69969199173E+03 -0.10189619043E+04  0.12429479556E+04  0.10100000352E+00 0. -1.
       -3    1    3    3    0  502 -0.13064212336E+03 -0.69969199173E+03  0.36405997018E+03  0.79948478396E+03  0.10100000352E+00 0.  1.
</event>
<event>
 5   0  0.1765328E-04  0.1890995E+04  0.7818609E-02  0.8659352E-01
        2   -1    0    0  501    0  0.00000000000E+00  0.00000000000E+00  0.14534762856E+04  0.14534762856E+04  0.25500000920E-02 0.  1.
       -2   -1    0    0    0  501  0.00000000000E+00  0.00000000000E+00 -0.61505308459E+03  0.61505308460E+03  0.25500000920E-02 0. -1.
    10030    2    1    2    0    0  0.00000000000E+00  0.00000000000E+00  0.83842320098E+03  0.20685293702E+04  0.18909945244E+04 0.  0.
        3    1    3    3  502    0  0.88934767418E+03 -0.73030855655E+02  0.77309693203E+02  0.89568386740E+03  0.10100000352E+00 0. -1.
       -3    1    3    3    0  502 -0.88934767418E+03  0.73030855655E+02  0.76111350778E+03  0.11728455028E+04  0.10100000352E+00 0.  1.
</event>
<event>
 5   0  0.8905646E-05  0.1878337E+04  0.7818609E-02  0.8665715E-01
       -1   -1    0    0    0  501  0.00000000000E+00  0.00000000000E+00  0.58302234522E+03  0.58302234524E+03  0.50400001928E-02 0.  1.
        1   -1    0    0  501    0  0.00000000000E+00  0.00000000000E+00 -0.15128701328E+04  0.15128701328E+04  0.50400001928E-02 0. -1.
    10030    2    1    2    0    0  0.00000000000E+00  0.00000000000E+00 -0.92984778756E+03  0.20958924780E+04  0.18783365969E+04 0.  0.
        1    1    3    3  502    0  0.42984846848E+03 -0.81148419126E+03 -0.68460459838E+03  0.11454081171E+04  0.50400001928E-02 0. -1.
       -1    1    3    3    0  502 -0.42984846848E+03  0.81148419126E+03 -0.24524318917E+03  0.95048436094E+03  0.50400001928E-02 0.  1.
</event>
<event>
 5   0  0.1810569E-04  0.1891031E+04  0.7818609E-02  0.8659334E-01
       -2   -1    0    0    0  501  0.00000000000E+00  0.00000000000E+00  0.51858325676E+03  0.51858325677E+03  0.25500000920E-02 0.  1.
        2   -1    0    0  501    0  0.00000000000E+00  0.00000000000E+00 -0.17239273177E+04  0.17239273177E+04  0.25500000920E-02 0. -1.
    10030    2    1    2    0    0  0.00000000000E+00  0.00000000000E+00 -0.12053440610E+04  0.22425105745E+04  0.18910312984E+04 0.  0.
        4    1    3    3  502    0 -0.61805725166E+03 -0.67775944279E+03 -0.87476469158E+03  0.12675044407E+04  0.12699999809E+01 0. -1.
       -4    1    3    3    0  502  0.61805725166E+03  0.67775944279E+03 -0.33057936940E+03  0.97500613383E+03  0.12699999809E+01 0.  1.
</event>
<event>
 5   0  0.1810569E-04  0.1895329E+04  0.7818609E-02  0.8657185E-01
        2   -1    0    0  501    0  0.00000000000E+00  0.00000000000E+00  0.19703736164E+04  0.19703736164E+04  0.25500000920E-02 0. -1.
       -2   -1    0    0    0  501  0.00000000000E+00  0.00000000000E+00 -0.45578564501E+03  0.45578564502E+03  0.25500000920E-02 0.  1.
    10030    2    1    2    0    0  0.00000000000E+00  0.00000000000E+00  0.15145879714E+04  0.24261592614E+04  0.18953290054E+04 0.  0.
        4    1    3    3  502    0  0.31906575054E+03  0.63805731527E+02  0.18966252052E+04  0.19243344061E+04  0.12699999809E+01 0. -1.
       -4    1    3    3    0  502 -0.31906575054E+03 -0.63805731527E+02 -0.38203723380E+03  0.50182485535E+03  0.12699999809E+01 0.  1.
</event>
<event>
 5   0  0.8587082E-05  0.1894064E+04  0.7818609E-02  0.8657817E-01
        1   -1    0    0  501    0  0.00000000000E+00  0.00000000000E+00  0.16042072652E+04  0.16042072652E+04  0.50400001928E-02 0.  1.
       -1   -1    0    0    0  501  0.00000000000E+00  0.00000000000E+00 -0.55907314818E+03  0.55907314821E+03  0.50400001928E-02 0. -1.
    10030    2    1    2    0    0  0.00000000000E+00  0.00000000000E+00  0.10451341170E+04  0.21632804134E+04  0.18940635745E+04 0.  0.
        5    1    3    3  502    0 -0.27674081835E+03  0.37672735476E+03 -0.41811179857E+03  0.62717505249E+03  0.46999998093E+01 0. -1.
       -5    1    3    3    0  502  0.27674081835E+03 -0.37672735476E+03  0.14632459155E+04  0.15361053609E+04  0.46999998093E+01 0.  1.
</event>
<event>
 5   0  0.8681396E-05  0.1897178E+04  0.7818609E-02  0.8656262E-01
       -1   -1    0    0    0  501  0.00000000000E+00  0.00000000000E+00  0.50030226759E+03  0.50030226762E+03  0.50400001928E-02 0. -1.
        1   -1    0    0  501    0  0.00000000000E+00  0.00000000000E+00 -0.17985543089E+04  0.17985543089E+04  0.50400001928E-02 0.  1.
    10030    2    1    2    0    0  0.00000000000E+00  0.00000000000E+00 -0.12982520413E+04  0.22988565765E+04  0.18971776924E+04 0.  0.
        3    1    3    3  502    0 -0.34215006559E+02 -0.54791259880E+03  0.28825221629E+03  0.62005502417E+03  0.10100000352E+00 0. -1.
       -3    1    3    3    0  502  0.34215006559E+02  0.54791259880E+03 -0.15865042576E+04  0.16788015523E+04  0.10100000352E+00 0.  1.
</event>
<event>
 5   0  0.8602017E-05  0.1911311E+04  0.7818609E-02  0.8649247E-01
        1   -1    0    0  501    0  0.00000000000E+00  0.00000000000E+00  0.11942358831E+04  0.11942358831E+04  0.50400001928E-02 0. -1.
       -1   -1    0    0    0  501  0.00000000000E+00  0.00000000000E+00 -0.76473765436E+03  0.76473765437E+03  0.50400001928E-02 0.  1.
    10030    2    1    2    0    0  0.00000000000E+00  0.00000000000E+00  0.42949822873E+03  0.19589735375E+04  0.19113107000E+04 0.  0.
        2    1    3    3  502    0  0.61348026569E+03  0.43958613905E+03  0.81561339968E+03  0.11112242023E+04  0.25500000920E-02 0.  1.
       -2    1    3    3    0  502 -0.61348026569E+03 -0.43958613905E+03 -0.38611517095E+03  0.84774933517E+03  0.25500000920E-02 0. -1.
</event>
<event>
 5   0  0.1810569E-04  0.1856237E+04  0.7818609E-02  0.8676952E-01
       -2   -1    0    0    0  501  0.00000000000E+00  0.00000000000E+00  0.74312411985E+03  0.74312411985E+03  0.25500000920E-02 0.  1.
        2   -1    0    0  501    0  0.00000000000E+00  0.00000000000E+00 -0.11591660647E+04  0.11591660647E+04  0.25500000920E-02 0. -1.
    10030    2    1    2    0    0  0.00000000000E+00  0.00000000000E+00 -0.41604194482E+03  0.19022901845E+04  0.18562373357E+04 0.  0.
        4    1    3    3  502    0 -0.76252091401E+03  0.17926939336E+03  0.30215213676E+03  0.83956726136E+03  0.12699999809E+01 0. -1.
       -4    1    3    3    0  502  0.76252091401E+03 -0.17926939336E+03 -0.71819408158E+03  0.10627229232E+04  0.12699999809E+01 0.  1.
</event>
<event>
 5   0  0.8681396E-05  0.1883581E+04  0.7818609E-02  0.8663073E-01
        1   -1    0    0  501    0  0.00000000000E+00  0.00000000000E+00  0.79623460292E+03  0.79623460294E+03  0.50400001928E-02 0. -1.
       -1   -1    0    0    0  501  0.00000000000E+00  0.00000000000E+00 -0.11139544356E+04  0.11139544356E+04  0.50400001928E-02 0.  1.
    10030    2    1    2    0    0  0.00000000000E+00  0.00000000000E+00 -0.31771983265E+03  0.19101890385E+04  0.18835807046E+04 0.  0.
        3    1    3    3  502    0  0.16551420910E+03  0.23278467546E+03  0.75125030445E+03  0.80371679632E+03  0.10100000352E+00 0. -1.
       -3    1    3    3    0  502 -0.16551420910E+03 -0.23278467546E+03 -0.10689701371E+04  0.11064722422E+04  0.10100000352E+00 0.  1.
</event>
<event>
 5   0  0.1658711E-04  0.1899199E+04  0.7818609E-02  0.8655255E-01
        2   -1    0    0  501    0  0.00000000000E+00  0.00000000000E+00  0.12220363879E+04  0.12220363879E+04  0.25500000920E-02 0.  1.
       -2   -1    0    0    0  501  0.00000000000E+00  0.00000000000E+00 -0.73789873384E+03  0.73789873385E+03  0.25500000920E-02 0. -1.
    10030    2    1    2    0    0  0.00000000000E+00  0.00000000000E+00  0.48413765409E+03  0.19599351218E+04  0.18991988873E+04 0.  0.
        2    1    3    3  502    0  0.13826544993E+03 -0.43600055460E+03  0.11008629539E+04  0.11921044675E+04  0.25500000920E-02 0.  1.
       -2    1    3    3    0  502 -0.13826544993E+03  0.43600055460E+03 -0.61672529978E+03  0.76783065428E+03  0.25500000920E-02 0. -1.
</event>
<event>
 5   0  0.1810569E-04  0.1919179E+04  0.7818609E-02  0.8645368E-01
        2   -1    0    0  501    0  0.00000000000E+00  0.00000000000E+00  0.15830566493E+04  0.15830566493E+04  0.25500000920E-02 0.  1.
       -2   -1    0    0    0  501  0.00000000000E+00  0.00000000000E+00 -0.58166714807E+03  0.58166714807E+03  0.25500000920E-02 0. -1.
    10030    2    1    2    0    0  0.00000000000E+00  0.00000000000E+00  0.10013895013E+04  0.21647237974E+04  0.19191790395E+04 0.  0.
        4    1    3    3  502    0  0.70895450349E+03  0.38918134191E+03 -0.81843464590E+02  0.81288287625E+03  0.12699999809E+01 0. -1.
       -4    1    3    3    0  502 -0.70895450349E+03 -0.38918134191E+03  0.10832329659E+04  0.13518409212E+04  0.12699999809E+01 0.  1.
</event>
<event>
 5   0  0.8587082E-05  0.1891005E+04  0.7818609E-02  0.8659347E-01
       -1   -1    0    0    0  501  0.00000000000E+00  0.00000000000E+00  0.79736509495E+03  0.79736509497E+03  0.50400001928E-02 0.  1.
        1   -1    0    0  501    0  0.00000000000E+00  0.00000000000E+00 -0.11211611215E+04  0.11211611215E+04  0.50400001928E-02 0. -1.
    10030    2    1    2    0    0  0.00000000000E+00  0.00000000000E+00 -0.32379602651E+03  0.19185262164E+04  0.18910047531E+04 0.  0.
        5    1    3    3  502    0 -0.69268148075E+03 -0.61003908096E+03  0.46017076421E+02  0.92417258961E+03  0.46999998093E+01 0.  1.
       -5    1    3    3    0  502  0.69268148075E+03  0.61003908096E+03 -0.36981310293E+03  0.99435362682E+03  0.46999998093E+01 0. -1.
</event>
<event>
 5   0  0.8602017E-05  0.1856615E+04  0.7818609E-02  0.8676758E-01
       -1   -1    0    0    0  501  0.00000000000E+00  0.00000000000E+00  0.42027355938E+03  0.42027355941E+03  0.50400001928E-02 0.  1.
        1   -1    0    0  501    0  0.00000000000E+00  0.00000000000E+00 -0.20504624889E+04  0.20504624889E+04  0.50400001928E-02 0. -1.
    10030    2    1    2    0    0  0.00000000000E+00  0.00000000000E+00 -0.16301889295E+04  0.24707360483E+04  0.18566153814E+04 0.  0.
        2    1    3    3  502    0  0.61236961287E+03  0.69348755677E+03 -0.71345227470E+03  0.11683046189E+04  0.25500000920E-02 0.  1.
       -2    1    3    3    0  502 -0.61236961287E+03 -0.69348755677E+03 -0.91673665483E+03  0.13024314295E+04  0.25500000920E-02 0. -1.
</event>
<event>
 5   0  0.1658711E-04  0.1896591E+04  0.7818609E-02  0.8656555E-01
        2   -1    0    0  501    0  0.00000000000E+00  0.00000000000E+00  0.11561535624E+04  0.11561535624E+04  0.25500000920E-02 0. -1.
       -2   -1    0    0    0  501  0.00000000000E+00  0.00000000000E+00 -0.77780684276E+03  0.77780684276E+03  0.25500000920E-02 0.  1.
    10030    2    1    2    0    0  0.00000000000E+00  0.00000000000E+00  0.37834671968E+03  0.19339604052E+04  0.18965907857E+04 0.  0.
        2    1    3    3  502    0 -0.10380521086E+03 -0.93176709025E+03  0.43892544987E+02  0.93855846264E+03  0.25500000920E-02 0. -1.
       -2    1    3    3    0  502  0.10380521086E+03  0.93176709025E+03  0.33445417469E+03  0.99540194256E+03  0.25500000920E-02 0.  1.
</event>
<event>
 5   0  0.1765328E-04  0.1908651E+04  0.7818609E-02  0.8650562E-01
       -2   -1    0    0    0  501  0.00000000000E+00  0.00000000000E+00  0.68803360719E+03  0.68803360720E+03  0.25500000920E-02 0.  1.
        2   -1    0    0  501    0  0.00000000000E+00  0.00000000000E+00 -0.13236815623E+04  0.13236815623E+04  0.25500000920E-02 0. -1.
    10030    2    1    2    0    0  0.00000000000E+00  0.00000000000E+00 -0.63564795513E+03  0.20117151695E+04  0.19086512516E+04 0.  0.
        3    1    3    3  502    0  0.16048178700E+03  0.27069241785E+03 -0.12674223973E+04  0.13059051774E+04  0.10100000352E+00 0. -1.
       -3    1    3    3    0  502 -0.16048178700E+03 -0.27069241785E+03  0.63177444214E+03  0.70580999212E+03  0.10100000352E+00 0.  1.
</event>
<event>
 5   0  0.1790832E-04  0.1902069E+04  0.7818609E-02  0.8653827E-01
        2   -1    0    0  501    0  0.00000000000E+00  0.00000000000E+00  0.57056875450E+03  0.57056875451E+03  0.25500000920E-02 0. -1.
       -2   -1    0    0    0  501  0.00000000000E+00  0.00000000000E+00 -0.15852012615E+04  0.15852012616E+04  0.25500000920E-02 0.  1.
    10030    2    1    2    0    0  0.00000000000E+00  0.00000000000E+00 -0.10146325070E+04  0.21557700161E+04  0.19020686733E+04 0.  0.
        5    1    3    3  502    0 -0.15665193446E+03  0.46231358571E+02  0.55454034929E+03  0.57811266728E+03  0.46999998093E+01 0. -1.
       -5    1    3    3    0  502  0.15665193446E+03 -0.46231358571E+02 -0.15691728563E+04  0.15776573488E+04  0.46999998093E+01 0.  1.
</event>
<event>
 5   0  0.8602017E-05  0.1913392E+04  0.7818609E-02  0.8648219E-01
        1   -1    0    0  501    0  0.00000000000E+00  0.00000000000E+00  0.12926798715E+04  0.12926798715E+04  0.50400001928E-02 0.  1.
       -1   -1    0    0    0  501  0.00000000000E+00  0.00000000000E+00 -0.70803868798E+03  0.70803868800E+03  0.50400001928E-02 0. -1.
    10030    2    1    2    0    0  0.00000000000E+00  0.00000000000E+00  0.58464118349E+03  0.20007185595E+04  0.19133921294E+04 0.  0.
        2    1    3    3  502    0  0.12089587565E+03 -0.31105362197E+03  0.12298443310E+04  0.12743183460E+04  0.25500000920E-02 0.  1.
       -2    1    3    3    0  502 -0.12089587565E+03  0.31105362197E+03 -0.64520314754E+03  0.72640021344E+03  0.25500000920E-02 0. -1.
</event>
<event>
 5   0  0.1658711E-04  0.1872835E+04  0.7818609E-02  0.8668497E-01
       -2   -1    0    0    0  501  0.00000000000E+00  0.00000000000E+00  0.13790907506E+04  0.13790907506E+04  0.25500000920E-02 0.  1.
        2   -1    0    0  501    0  0.00000000000E+00  0.00000000000E+00 -0.63583778691E+03  0.63583778692E+03  0.25500000920E-02 0. -1.
    10030    2    1    2    0    0  0.00000000000E+00  0.00000000000E+00  0.74325296369E+03  0.20149285375E+04  0.18728352953E+04 0.  0.
        2    1    3    3  502    0  0.69697053778E+03 -0.55862000935E+03  0.69129293177E+02  0.89588118886E+03  0.25500000920E-02 0. -1.
       -2    1    3    3    0  502 -0.69697053778E+03  0.55862000935E+03  0.67412367051E+03  0.11190473487E+04  0.25500000920E-02 0.  1.
</event>
<event>
 5   0  0.8602017E-05  0.1891825E+04  0.7818609E-02  0.8658937E-01
        1   -1    0    0  501    0  0.00000000000E+00  0.00000000000E+00  0.48266105064E+03  0.48266105066E+03  0.50400001928E-02 0.  1.
       -1   -1    0    0    0  501  0.00000000000E+00  0.00000000000E+00 -0.18537853837E+04  0.18537853837E+04  0.50400001928E-02 0. -1.
    10030    2    1    2    0    0  0.00000000000E+00  0.00000000000E+00 -0.13711243331E+04  0.23364464344E+04  0.18918245172E+04 0.  0.
        2    1    3    3  502    0 -0.97874667118E+02 -0.94069644632E+03 -0.66561945693E+03  0.11565200024E+04  0.25500000920E-02 0. -1.
       -2    1    3    3    0  502  0.97874667118E+02  0.94069644632E+03 -0.70550487617E+03  0.11799264320E+04  0.25500000920E-02 0.  1.
</event>
<event>
 5   0  0.1790832E-04  0.1925581E+04  0.7818609E-02  0.8642227E-01
        2   -1    0    0  501    0  0.00000000000E+00  0.00000000000E+00  0.17065022462E+04  0.17065022462E+04  0.25500000920E-02 0.  1.
       -2   -1    0    0    0  501  0.00000000000E+00  0.00000000000E+00 -0.54319606119E+03  0.54319606119E+03  0.25500000920E-02 0. -1.
    10030    2    1    2    0    0  0.00000000000E+00  0.00000000000E+00  0.11633061850E+04  0.22496983074E+04  0.19255807420E+04 0.  0.
        5    1    3    3  502    0 -0.16505568127E+03  0.16383250364E+03 -0.50987402717E+03  0.56042669525E+03  0.46999998093E+01 0. -1.
       -5    1    3    3    0  502  0.16505568127E+03 -0.16383250364E+03  0.16731802121E+04  0.16892716121E+04  0.46999998093E+01 0.  1.
</event>
<event>
 5   0  0.8905646E-05  0.1901647E+04  0.7818609E-02  0.8654037E-01
       -1   -1    0    0    0  501  0.00000000000E+00  0.00000000000E+00  0.68997791970E+03  0.68997791971E+03  0.50400001928E-02 0.  1.
        1   -1    0    0  501    0  0.00000000000E+00  0.00000000000E+00 -0.13102815698E+04  0.13102815698E+04  0.50400001928E-02 0. -1.
    10030    2    1    2    0    0  0.00000000000E+00  0.00000000000E+00 -0.62030365010E+03  0.20002594895E+04  0.19016470248E+04 0.  0.
        1    1    3    3  502    0  0.79824610529E+02 -0.93596117211E+03 -0.46499303786E+03  0.10481477994E+04  0.50400001928E-02 0. -1.
       -1    1    3    3    0  502 -0.79824610529E+02  0.93596117211E+03 -0.15531061224E+03  0.95211169010E+03  0.50400001928E-02 0.  1.
</event>
<event>
 5   0  0.8602017E-05  0.1896502E+04  0.7818609E-02  0.8656599E-01
        1   -1    0    0  501    0  0.00000000000E+00  0.00000000000E+00  0.78530971532E+03  0.78530971534E+03  0.50400001928E-02 0. -1.
       -1   -1    0    0    0  501  0.00000000000E+00  0.00000000000E+00 -0.11450009534E+04  0.11450009534E+04  0.50400001928E-02 0.  1.
    10030    2    1    2    0    0  0.00000000000E+00  0.00000000000E+00 -0.35969123806E+03  0.19303106687E+04  0.18965024363E+04 0.  0.
        2    1    3    3  502    0  0.83320803131E+03  0.20058727453E+03 -0.59292462510E+03  0.10421278661E+04  0.25500000920E-02 0.  1.
       -2    1    3    3    0  502 -0.83320803131E+03 -0.20058727453E+03  0.23323338704E+03  0.88818280268E+03  0.25500000920E-02 0. -1.
</event>
<event>
 5   0  0.8905646E-05  0.2077062E+04  0.7818609E-02  0.8571416E-01
        1   -1    0    0  501    0  0.00000000000E+00  0.00000000000E+00  0.17815265730E+04  0.17815265730E+04  0.50400001928E-02 0. -1.
       -1   -1    0    0    0  501  0.00000000000E+00  0.00000000000E+00 -0.60540589395E+03  0.60540589397E+03  0.50400001928E-02 0.  1.
    10030    2    1    2    0    0  0.00000000000E+00  0.00000000000E+00  0.11761206790E+04  0.23869324669E+04  0.20770620477E+04 0.  0.
        1    1    3    3  502    0 -0.54422359111E+03  0.17971994157E+03  0.15833305674E+04  0.16838688370E+04  0.50400001928E-02 0. -1.
       -1    1    3    3    0  502  0.54422359111E+03 -0.17971994157E+03 -0.40720988838E+03  0.70306362994E+03  0.50400001928E-02 0.  1.
</event>
<event>
 5   0  0.1790832E-04  0.1901273E+04  0.7818609E-02  0.8654223E-01
       -2   -1    0    0    0  501  0.00000000000E+00  0.00000000000E+00  0.79755668534E+03  0.79755668534E+03  0.25500000920E-02 0.  1.
        2   -1    0    0  501    0  0.00000000000E+00  0.00000000000E+00 -0.11330978465E+04  0.11330978465E+04  0.25500000920E-02 0. -1.
    10030    2    1    2    0    0  0.00000000000E+00  0.00000000000E+00 -0.33554116112E+03  0.19306545318E+04  0.19012730078E+04 0.  0.
        5    1    3    3  502    0  0.32061321158E+03  0.13600825857E+03 -0.10659716379E+04  0.11214315408E+04  0.46999998093E+01 0. -1.
       -5    1    3    3    0  502 -0.32061321158E+03 -0.13600825857E+03  0.73043047677E+03  0.80922299104E+03  0.46999998093E+01 0.  1.
</event>
<event>
 5   0  0.8587082E-05  0.1913635E+04  0.7818609E-02  0.8648099E-01
        1   -1    0    0  501    0  0.00000000000E+00  0.00000000000E+00  0.73254382018E+03  0.73254382020E+03  0.50400001928E-02 0.  1.
       -1   -1    0    0    0  501  0.00000000000E+00  0.00000000000E+00 -0.12497537174E+04  0.12497537174E+04  0.50400001928E-02 0. -1.
    10030    2    1    2    0    0  0.00000000000E+00  0.00000000000E+00 -0.51720989726E+03  0.19822975376E+04  0.19136346177E+04 0.  0.
        5    1    3    3  502    0  0.86657595820E+03  0.68775955083E+01 -0.67871318480E+03  0.11007610412E+04  0.46999998093E+01 0. -1.
       -5    1    3    3    0  502 -0.86657595820E+03 -0.68775955083E+01  0.16150328754E+03  0.88153649642E+03  0.46999998093E+01 0.  1.
</event>
<event>
 5   0  0.8681396E-05  0.1885417E+04  0.7818609E-02  0.8662149E-01
       -1   -1    0    0    0  501  0.00000000000E+00  0.00000000000E+00  0.96224765816E+03  0.96224765817E+03  0.50400001928E-02 0. -1.
        1   -1    0    0  501    0  0.00000000000E+00  0.00000000000E+00 -0.92356636929E+03  0.92356636930E+03  0.50400001928E-02 0.  1.
    10030    2    1    2    0    0  0.00000000000E+00  0.00000000000E+00  0.38681288871E+02  0.18858140275E+04  0.18854172759E+04 0.  0.
        3    1    3    3  502    0  0.78750372764E+03  0.67273193540E+02  0.53326951773E+03  0.95344857877E+03  0.10100000352E+00 0. -1.
       -3    1    3    3    0  502 -0.78750372764E+03 -0.67273193540E+02 -0.49458822886E+03  0.93236544871E+03  0.10100000352E+00 0.  1.
</event>
<event>
 5   0  0.1799738E-04  0.1798682E+04  0.7818609E-02  0.8707000E-01
        2   -1    0    0  501    0  0.00000000000E+00  0.00000000000E+00  0.18841930973E+04  0.18841930973E+04  0.25500000920E-02 0.  1.
       -2   -1    0    0    0  501  0.00000000000E+00  0.00000000000E+00 -0.42926313523E+03  0.42926313523E+03  0.25500000920E-02 0. -1.
    10030    2    1    2    0    0  0.00000000000E+00  0.00000000000E+00  0.14549299620E+04  0.23134562325E+04  0.17986824470E+04 0.  0.
        1    1    3    3  502    0 -0.88879938814E+03 -0.12970143028E+03  0.78538408089E+03  0.11931533715E+04  0.50400001928E-02 0. -1.
       -1    1    3    3    0  502  0.88879938814E+03  0.12970143028E+03  0.66954588114E+03  0.11203028610E+04  0.50400001928E-02 0.  1.
</event>
<event>
 5   0  0.8681396E-05  0.1952107E+04  0.7818609E-02  0.8629345E-01
        1   -1    0    0  501    0  0.00000000000E+00  0.00000000000E+00  0.15663915785E+04  0.15663915786E+04  0.50400001928E-02 0.  1.
       -1   -1    0    0    0  501  0.00000000000E+00  0.00000000000E+00 -0.60820060002E+03  0.60820060004E+03  0.50400001928E-02 0. -1.
    10030    2    1    2    0    0  0.00000000000E+00  0.00000000000E+00  0.95819097853E+03  0.21745921786E+04  0.19521068598E+04 0.  0.
        3    1    3    3  502    0 -0.34209978057E+03 -0.49389318195E+03 -0.37780711018E+03  0.70971892870E+03  0.10100000352E+00 0. -1.
       -3    1    3    3    0  502  0.34209978057E+03  0.49389318195E+03  0.13359980887E+04  0.14648732499E+04  0.10100000352E+00 0.  1.
</event>
<event>
 5   0  0.1765328E-04  0.1909402E+04  0.7818609E-02  0.8650191E-01
       -2   -1    0    0    0  501  0.00000000000E+00  0.00000000000E+00  0.67622365084E+03  0.67622365085E+03  0.25500000920E-02 0.  1.
        2   -1    0    0  501    0  0.00000000000E+00  0.00000000000E+00 -0.13478583609E+04  0.13478583609E+04  0.25500000920E-02 0. -1.
    10030    2    1    2    0    0  0.00000000000E+00  0.00000000000E+00 -0.67163471009E+03  0.20240820118E+04  0.19094016881E+04 0.  0.
        3    1    3    3  502    0  0.51419445789E+03 -0.73199788273E+03 -0.68937085861E+03  0.11293577962E+04  0.10100000352E+00 0. -1.
       -3    1    3    3    0  502 -0.51419445789E+03  0.73199788273E+03  0.17736148523E+02  0.89472421562E+03  0.10100000352E+00 0.  1.
</event>
<event>
 5   0  0.8905646E-05  0.1890050E+04  0.7818609E-02  0.8659825E-01
        1   -1    0    0  501    0  0.00000000000E+00  0.00000000000E+00  0.53459110845E+03  0.53459110848E+03  0.50400001928E-02 0.  1.
       -1   -1    0    0    0  501  0.00000000000E+00  0.00000000000E+00 -0.16705714405E+04  0.16705714405E+04  0.50400001928E-02 0. -1.
    10030    2    1    2    0    0  0.00000000000E+00  0.00000000000E+00 -0.11359803321E+04  0.22051625490E+04  0.18900504101E+04 0.  0.
        1    1    3    3  502    0  0.44163674427E+03 -0.50499863360E+03  0.20856448797E+03  0.70254236847E+03  0.50400001928E-02 0.  1.
       -1    1    3    3    0  502 -0.44163674427E+03  0.50499863360E+03 -0.13445448200E+04  0.15026201805E+04  0.50400001928E-02 0. -1.
</event>
<event>
 5   0  0.8905646E-05  0.1884947E+04  0.7818609E-02  0.8662385E-01
        1   -1    0    0  501    0  0.00000000000E+00  0.00000000000E+00  0.65529104203E+03  0.65529104205E+03  0.50400001928E-02 0.  1.
       -1   -1    0    0    0  501  0.00000000000E+00  0.00000000000E+00 -0.13555148816E+04  0.13555148816E+04  0.50400001928E-02 0. -1.
    10030    2    1    2    0    0  0.00000000000E+00  0.00000000000E+00 -0.70022383955E+03  0.20108059236E+04  0.18849474892E+04 0.  0.
        1    1    3    3  502    0  0.16850200327E+03 -0.48266803551E+03  0.49452185137E+03  0.71127576869E+03  0.50400001928E-02 0.  1.
       -1    1    3    3    0  502 -0.16850200327E+03  0.48266803551E+03 -0.11947456909E+04  0.12995301549E+04  0.50400001928E-02 0. -1.
</event>
<event>
 5   0  0.1799738E-04  0.1908737E+04  0.7818609E-02  0.8650520E-01
       -2   -1    0    0    0  501  0.00000000000E+00  0.00000000000E+00  0.56325106858E+03  0.56325106858E+03  0.25500000920E-02 0. -1.
        2   -1    0    0  501    0  0.00000000000E+00  0.00000000000E+00 -0.16170751889E+04  0.16170751889E+04  0.25500000920E-02 0.  1.
    10030    2    1    2    0    0  0.00000000000E+00  0.00000000000E+00 -0.10538241203E+04  0.21803262575E+04  0.19087370989E+04 0.  0.
        1    1    3    3  502    0 -0.64244646902E+03  0.70560852715E+03 -0.51081962835E+03  0.10823851218E+04  0.50400001928E-02 0.  1.
       -1    1    3    3    0  502  0.64244646902E+03 -0.70560852715E+03 -0.54300449200E+03  0.10979411357E+04  0.50400001928E-02 0. -1.
</event>
<event>
 5   0  0.8905646E-05  0.1895265E+04  0.7818609E-02  0.8657217E-01
       -1   -1    0    0    0  501  0.00000000000E+00  0.00000000000E+00  0.46966209450E+03  0.46966209452E+03  0.50400001928E-02 0. -1.
        1   -1    0    0  501    0  0.00000000000E+00  0.00000000000E+00 -0.19120281474E+04  0.19120281474E+04  0.50400001928E-02 0.  1.
    10030    2    1    2    0    0  0.00000000000E+00  0.00000000000E+00 -0.14423660529E+04  0.23816902419E+04  0.18952647778E+04 0.  0.
        1    1    3    3  502    0  0.73843231395E+03  0.58885425158E+02  0.21473795299E+02  0.74108764630E+03  0.50400001928E-02 0. -1.
       -1    1    3    3    0  502 -0.73843231395E+03 -0.58885425158E+02 -0.14638398482E+04  0.16406025956E+04  0.50400001928E-02 0.  1.
</event>
<event>
 5   0  0.8905646E-05  0.1840603E+04  0.7818609E-02  0.8685000E-01
       -1   -1    0    0    0  501  0.00000000000E+00  0.00000000000E+00  0.10122148408E+04  0.10122148408E+04  0.50400001928E-02 0. -1.
        1   -1    0    0  501    0  0.00000000000E+00  0.00000000000E+00 -0.83673451170E+03  0.83673451172E+03  0.50400001928E-02 0.  1.
    10030    2    1    2    0    0  0.00000000000E+00  0.00000000000E+00  0.17548032910E+03  0.18489493525E+04  0.18406032604E+04 0.  0.
        1    1    3    3  502    0 -0.93113187223E+01 -0.50372697928E+03  0.86138007403E+03  0.99789939487E+03  0.50400001928E-02 0. -1.
       -1    1    3    3    0  502  0.93113187223E+01  0.50372697928E+03 -0.68589974493E+03  0.85104995766E+03  0.50400001928E-02 0.  1.
</event>
<event>
 5   0  0.1765328E-04  0.1904723E+04  0.7818609E-02  0.8652509E-01
        2   -1    0    0  501    0  0.00000000000E+00  0.00000000000E+00  0.13285667662E+04  0.13285667662E+04  0.25500000920E-02 0.  1.
       -2   -1    0    0    0  501  0.00000000000E+00  0.00000000000E+00 -0.68268506191E+03  0.68268506191E+03  0.25500000920E-02 0. -1.
    10030    2    1    2    0    0  0.00000000000E+00  0.00000000000E+00  0.64588170425E+03  0.20112518281E+04  0.19047232712E+04 0.  0.
        3    1    3    3  502    0  0.10188592118E+03 -0.45270360164E+03  0.12011227239E+04  0.12876401283E+04  0.10100000352E+00 0.  1.
       -3    1    3    3    0  502 -0.10188592118E+03  0.45270360164E+03 -0.55524101970E+03  0.72361169975E+03  0.10100000352E+00 0. -1.
</event>
<event>
 5   0  0.1790832E-04  0.1948521E+04  0.7818609E-02  0.8631074E-01
        2   -1    0    0  501    0  0.00000000000E+00  0.00000000000E+00  0.15892540301E+04  0.15892540301E+04  0.25500000920E-02 0.  1.
       -2   -1    0    0    0  501  0.00000000000E+00  0.00000000000E+00 -0.59725123308E+03  0.59725123308E+03  0.25500000920E-02 0. -1.
    10030    2    1    2    0    0  0.00000000000E+00  0.00000000000E+00  0.99200279704E+03  0.21865052632E+04  0.19485214181E+04 0.  0.
        5    1    3    3  502    0  0.97256433575E+03  0.22858574015E+02  0.55493155045E+03  0.11199888469E+04  0.46999998093E+01 0. -1.
       -5    1    3    3    0  502 -0.97256433575E+03 -0.22858574015E+02  0.43707124659E+03  0.10665164163E+04  0.46999998093E+01 0.  1.
</event>
<event>
 5   0  0.1658711E-04  0.1907132E+04  0.7818609E-02  0.8651314E-01
       -2   -1    0    0    0  501  0.00000000000E+00  0.00000000000E+00  0.59313117498E+03  0.59313117499E+03  0.25500000920E-02 0. -1.
        2   -1    0    0  501    0  0.00000000000E+00  0.00000000000E+00 -0.15330310848E+04  0.15330310848E+04  0.25500000920E-02 0.  1.
    10030    2    1    2    0    0  0.00000000000E+00  0.00000000000E+00 -0.93989990983E+03  0.21261622598E+04  0.19071324323E+04 0.  0.
        2    1    3    3  502    0 -0.41629998177E+03 -0.39529134448E+03 -0.13187932925E+04  0.14383242576E+04  0.25500000920E-02 0.  1.
       -2    1    3    3    0  502  0.41629998177E+03  0.39529134448E+03  0.37889338262E+03  0.68783800218E+03  0.25500000920E-02 0. -1.
</event>
<event>
 5   0  0.1658711E-04  0.1934039E+04  0.7818609E-02  0.8638096E-01
       -2   -1    0    0    0  501  0.00000000000E+00  0.00000000000E+00  0.51664148605E+03  0.51664148606E+03  0.25500000920E-02 0. -1.
        2   -1    0    0  501    0  0.00000000000E+00  0.00000000000E+00 -0.18100102642E+04  0.18100102642E+04  0.25500000920E-02 0.  1.
    10030    2    1    2    0    0  0.00000000000E+00  0.00000000000E+00 -0.12933687781E+04  0.23266517503E+04  0.19340386684E+04 0.  0.
        2    1    3    3  502    0  0.92882985500E+02  0.96074907874E+03 -0.71745066329E+03  0.12026643320E+04  0.25500000920E-02 0. -1.
       -2    1    3    3    0  502 -0.92882985500E+02 -0.96074907874E+03 -0.57591811486E+03  0.11239874182E+04  0.25500000920E-02 0.  1.
</event>
<event>
 5   0  0.1765328E-04  0.1877943E+04  0.7818609E-02  0.8665914E-01
        2   -1    0    0  501    0  0.00000000000E+00  0.00000000000E+00  0.16035703701E+04  0.16035703701E+04  0.25500000920E-02 0.  1.
       -2   -1    0    0    0  501  0.00000000000E+00  0.00000000000E+00 -0.54981527723E+03  0.54981527724E+03  0.25500000920E-02 0. -1.
    10030    2    1    2    0    0  0.00000000000E+00  0.00000000000E+00  0.10537550928E+04  0.21533856473E+04  0.18779430104E+04 0.  0.
        3    1    3    3  502    0 -0.41749429047E+03  0.60884896618E+03 -0.13845830442E+03  0.75111201459E+03  0.10100000352E+00 0. -1.
       -3    1    3    3    0  502  0.41749429047E+03 -0.60884896618E+03  0.11922133973E+04  0.14022736327E+04  0.10100000352E+00 0.  1.
</event>
<event>
 5   0  0.8602017E-05  0.1888886E+04  0.7818609E-02  0.8660408E-01
       -1   -1    0    0    0  501  0.00000000000E+00  0.00000000000E+00  0.74582222105E+03  0.74582222106E+03  0.50400001928E-02 0.  1.
        1   -1    0    0  501    0  0.00000000000E+00  0.00000000000E+00 -0.11959586286E+04  0.11959586286E+04  0.50400001928E-02 0. -1.
    10030    2    1    2    0    0  0.00000000000E+00  0.00000000000E+00 -0.45013640753E+03  0.19417808497E+04  0.18888859369E+04 0.  0.
        2    1    3    3  502    0 -0.55211726564E+03 -0.51921045374E+03  0.35423651970E+03  0.83659816052E+03  0.25500000920E-02 0.  1.
       -2    1    3    3    0  502  0.55211726564E+03  0.51921045374E+03 -0.80437292723E+03  0.11051826891E+04  0.25500000920E-02 0. -1.
</event>
<event>
 5   0  0.1799738E-04  0.1953415E+04  0.7818609E-02  0.8628716E-01
        2   -1    0    0  501    0  0.00000000000E+00  0.00000000000E+00  0.13177459489E+04  0.13177459489E+04  0.25500000920E-02 0.  1.
       -2   -1    0    0    0  501  0.00000000000E+00  0.00000000000E+00 -0.72393119665E+03  0.72393119665E+03  0.25500000920E-02 0. -1.
    10030    2    1    2    0    0  0.00000000000E+00  0.00000000000E+00  0.59381475227E+03  0.20416771456E+04  0.19534148578E+04 0.  0.
        1    1    3    3  502    0  0.96261897382E+03  0.13576676308E+03  0.39545161108E+03  0.10494998235E+04  0.50400001928E-02 0.  1.
       -1    1    3    3    0  502 -0.96261897382E+03 -0.13576676308E+03  0.19836314118E+03  0.99217732211E+03  0.50400001928E-02 0. -1.
</event>
<event>
 5   0  0.8681396E-05  0.1904341E+04  0.7818609E-02  0.8652699E-01
       -1   -1    0    0    0  501  0.00000000000E+00  0.00000000000E+00  0.12139862233E+04  0.12139862233E+04  0.50400001928E-02 0.  1.
        1   -1    0    0  501    0  0.00000000000E+00  0.00000000000E+00 -0.74681938842E+03  0.74681938844E+03  0.50400001928E-02 0. -1.
    10030    2    1    2    0    0  0.00000000000E+00  0.00000000000E+00  0.46716683491E+03  0.19608056118E+04  0.19043407772E+04 0.  0.
        3    1    3    3  502    0  0.67575477423E+03  0.25138078991E+02  0.92379654340E+03  0.11448478072E+04  0.10100000352E+00 0.  1.
       -3    1    3    3    0  502 -0.67575477423E+03 -0.25138078991E+02 -0.45662970849E+03  0.81595780454E+03  0.10100000352E+00 0. -1.
</event>
<event>
 5   0  0.8681396E-05  0.1916553E+04  0.7818609E-02  0.8646660E-01
        1   -1    0    0  501    0  0.00000000000E+00  0.00000000000E+00  0.10816712900E+04  0.10816712901E+04  0.50400001928E-02 0. -1.
       -1   -1    0    0    0  501  0.00000000000E+00  0.00000000000E+00 -0.84895845523E+03  0.84895845524E+03  0.50400001928E-02 0.  1.
    10030    2    1    2    0    0  0.00000000000E+00  0.00000000000E+00  0.23271283482E+03  0.19306297453E+04  0.19165531430E+04 0.  0.
        3    1    3    3  502    0  0.72687772392E+03 -0.59465226086E+03 -0.75651631786E+02  0.94217074699E+03  0.10100000352E+00 0.  1.
       -3    1    3    3    0  502 -0.72687772392E+03  0.59465226086E+03  0.30836446660E+03  0.98845899831E+03  0.10100000352E+00 0. -1.
</event>
<event>
 5   0  0.8567844E-05  0.1884577E+04  0.7818609E-02  0.8662572E-01
        1   -1    0    0  501    0  0.00000000000E+00  0.00000000000E+00  0.99648834875E+03  0.99648834876E+03  0.50400001928E-02 0. -1.
       -1   -1    0    0    0  501  0.00000000000E+00  0.00000000000E+00 -0.89103640108E+03  0.89103640109E+03  0.50400001928E-02 0.  1.
    10030    2    1    2    0    0  0.00000000000E+00  0.00000000000E+00  0.10545194767E+03  0.18875247499E+04  0.18845767610E+04 0.  0.
        4    1    3    3  502    0  0.84302724395E+03 -0.40284414056E+03 -0.69643062893E+02  0.93692588007E+03  0.12699999809E+01 0. -1.
       -4    1    3    3    0  502 -0.84302724395E+03  0.40284414056E+03  0.17509501056E+03  0.95059886979E+03  0.12699999809E+01 0.  1.
</event>
<event>
 5   0  0.1810569E-04  0.1925006E+04  0.7818609E-02  0.8642508E-01
       -2   -1    0    0    0  501  0.00000000000E+00  0.00000000000E+00  0.14192793755E+04  0.14192793755E+04  0.25500000920E-02 0.  1.
        2   -1    0    0  501    0  0.00000000000E+00  0.00000000000E+00 -0.65273414157E+03  0.65273414157E+03  0.25500000920E-02 0. -1.
    10030    2    1    2    0    0  0.00000000000E+00  0.00000000000E+00  0.76654523391E+03  0.20720135170E+04  0.19250060829E+04 0.  0.
        4    1    3    3  502    0 -0.19932189510E+03 -0.41912183625E+03  0.12908858614E+04  0.13717799574E+04  0.12699999809E+01 0.  1.
       -4    1    3    3    0  502  0.19932189510E+03  0.41912183625E+03 -0.52434062750E+03  0.70023355963E+03  0.12699999809E+01 0. -1.
</event>
<event>
 5   0  0.8681396E-05  0.1904532E+04  0.7818609E-02  0.8652604E-01
       -1   -1    0    0    0  501  0.00000000000E+00  0.00000000000E+00  0.67775236276E+03  0.67775236278E+03  0.50400001928E-02 0. -1.
        1   -1    0    0  501    0  0.00000000000E+00  0.00000000000E+00 -0.13379679212E+04  0.13379679212E+04  0.50400001928E-02 0.  1.
    10030    2    1    2    0    0  0.00000000000E+00  0.00000000000E+00 -0.66021555842E+03  0.20157202840E+04  0.19045324045E+04 0.  0.
        3    1    3    3  502    0 -0.11700708652E+03  0.43413916021E+03  0.55832915879E+03  0.71686744136E+03  0.10100000352E+00 0. -1.
       -3    1    3    3    0  502  0.11700708652E+03 -0.43413916021E+03 -0.12185447172E+04  0.12988528426E+04  0.10100000352E+00 0.  1.
</event>
<event>
 5   0  0.1790832E-04  0.1903234E+04  0.7818609E-02  0.8653248E-01
       -2   -1    0    0    0  501  0.00000000000E+00  0.00000000000E+00  0.77687762393E+03  0.77687762394E+03  0.25500000920E-02 0. -1.
        2   -1    0    0  501    0  0.00000000000E+00  0.00000000000E+00 -0.11656602650E+04  0.11656602650E+04  0.25500000920E-02 0.  1.
    10030    2    1    2    0    0  0.00000000000E+00  0.00000000000E+00 -0.38878264103E+03  0.19425378889E+04  0.19032344858E+04 0.  0.
        5    1    3    3  502    0  0.24287409585E+03  0.64262857023E+03  0.47768535376E+03  0.83675844358E+03  0.46999998093E+01 0. -1.
       -5    1    3    3    0  502 -0.24287409585E+03 -0.64262857023E+03 -0.86646799479E+03  0.11057794453E+04  0.46999998093E+01 0.  1.
</event>
<event>
 5   0  0.8681396E-05  0.1893393E+04  0.7818609E-02  0.8658152E-01
       -1   -1    0    0    0  501  0.00000000000E+00  0.00000000000E+00  0.63973580455E+03  0.63973580457E+03  0.50400001928E-02 0.  1.
        1   -1    0    0  501    0  0.00000000000E+00  0.00000000000E+00 -0.14009448012E+04  0.14009448012E+04  0.50400001928E-02 0. -1.
    10030    2    1    2    0    0  0.00000000000E+00  0.00000000000E+00 -0.76120899664E+03  0.20406806058E+04  0.18933933026E+04 0.  0.
        3    1    3    3  502    0  0.26326916631E+03  0.56369802430E+03  0.38846383863E+03  0.73346457355E+03  0.10100000352E+00 0.  1.
       -3    1    3    3    0  502 -0.26326916631E+03 -0.56369802430E+03 -0.11496728353E+04  0.13072160322E+04  0.10100000352E+00 0. -1.
</event>
<event>
 5   0  0.1799738E-04  0.1896270E+04  0.7818609E-02  0.8656715E-01
       -2   -1    0    0    0  501  0.00000000000E+00  0.00000000000E+00  0.54992786872E+03  0.54992786872E+03  0.25500000920E-02 0. -1.
        2   -1    0    0  501    0  0.00000000000E+00  0.00000000000E+00 -0.16346878844E+04  0.16346878844E+04  0.25500000920E-02 0.  1.
    10030    2    1    2    0    0  0.00000000000E+00  0.00000000000E+00 -0.10847600157E+04  0.21846157531E+04  0.18962704705E+04 0.  0.
        1    1    3    3  502    0  0.93770411420E+03 -0.12869169216E+03 -0.60662594631E+03  0.11242088757E+04  0.50400001928E-02 0.  1.
       -1    1    3    3    0  502 -0.93770411420E+03  0.12869169216E+03 -0.47813406938E+03  0.10604068774E+04  0.50400001928E-02 0. -1.
</event>
<event>
 5   0  0.8681396E-05  0.1900538E+04  0.7818609E-02  0.8654589E-01
       -1   -1    0    0    0  501  0.00000000000E+00  0.00000000000E+00  0.13372962926E+04  0.13372962926E+04  0.50400001928E-02 0. -1.
        1   -1    0    0  501    0  0.00000000000E+00  0.00000000000E+00 -0.67525106077E+03  0.67525106079E+03  0.50400001928E-02 0.  1.
    10030    2    1    2    0    0  0.00000000000E+00  0.00000000000E+00  0.66204523181E+03  0.20125473534E+04  0.19005375452E+04 0.  0.
        3    1    3    3  502    0  0.51745281469E+03  0.77664226811E+03  0.52068775932E+03  0.10686657012E+04  0.10100000352E+00 0. -1.
       -3    1    3    3    0  502 -0.51745281469E+03 -0.77664226811E+03  0.14135747249E+03  0.94388165216E+03  0.10100000352E+00 0.  1.
</event>
<event>
 5   0  0.1790832E-04  0.1882877E+04  0.7818609E-02  0.8663427E-01
        2   -1    0    0  501    0  0.00000000000E+00  0.00000000000E+00  0.12090869796E+04  0.12090869796E+04  0.25500000920E-02 0. -1.
       -2   -1    0    0    0  501  0.00000000000E+00  0.00000000000E+00 -0.73303791965E+03  0.73303791965E+03  0.25500000920E-02 0.  1.
    10030    2    1    2    0    0  0.00000000000E+00  0.00000000000E+00  0.47604905995E+03  0.19421248992E+04  0.18828771646E+04 0.  0.
        5    1    3    3  502    0 -0.65726965801E+03  0.33042752029E+03  0.84396068979E+03  0.11195880874E+04  0.46999998093E+01 0. -1.
       -5    1    3    3    0  502  0.65726965801E+03 -0.33042752029E+03 -0.36791162984E+03  0.82253681186E+03  0.46999998093E+01 0.  1.
</event>
<event>
 5   0  0.1765328E-04  0.1810154E+04  0.7818609E-02  0.8700918E-01
        2   -1    0    0  501    0  0.00000000000E+00  0.00000000000E+00  0.10852084078E+04  0.10852084078E+04  0.25500000920E-02 0. -1.
       -2   -1    0    0    0  501  0.00000000000E+00  0.00000000000E+00 -0.75484552901E+03  0.75484552902E+03  0.25500000920E-02 0.  1.
    10030    2    1    2    0    0  0.00000000000E+00  0.00000000000E+00  0.33036287882E+03  0.18400539369E+04  0.18101543743E+04 0.  0.
        3    1    3    3  502    0  0.31082096586E+03  0.34445241816E+03 -0.62476959798E+03  0.77819933305E+03  0.10100000352E+00 0.  1.
       -3    1    3    3    0  502 -0.31082096586E+03 -0.34445241816E+03  0.95513247680E+03  0.10618546038E+04  0.10100000352E+00 0. -1.
</event>
<event>
 5   0  0.1765328E-04  0.1957589E+04  0.7818609E-02  0.8626710E-01
        2   -1    0    0  501    0  0.00000000000E+00  0.00000000000E+00  0.20361089480E+04  0.20361089480E+04  0.25500000920E-02 0.  1.
       -2   -1    0    0    0  501  0.00000000000E+00  0.00000000000E+00 -0.47052441413E+03  0.47052441414E+03  0.25500000920E-02 0. -1.
    10030    2    1    2    0    0  0.00000000000E+00  0.00000000000E+00  0.15655845339E+04  0.25066333622E+04  0.19575893031E+04 0.  0.
        3    1    3    3  502    0 -0.32438735104E+03 -0.17996714662E+03 -0.37702164362E+03  0.52892405630E+03  0.10100000352E+00 0. -1.
       -3    1    3    3    0  502  0.32438735104E+03  0.17996714662E+03  0.19426061775E+04  0.19777093059E+04  0.10100000352E+00 0.  1.
</event>
<event>
 5   0  0.8905646E-05  0.2006371E+04  0.7818609E-02  0.8603648E-01
       -1   -1    0    0    0  501  0.00000000000E+00  0.00000000000E+00  0.50099519605E+03  0.50099519608E+03  0.50400001928E-02 0. -1.
        1   -1    0    0  501    0  0.00000000000E+00  0.00000000000E+00 -0.20087635644E+04  0.20087635644E+04  0.50400001928E-02 0.  1.
    10030    2    1    2    0    0  0.00000000000E+00  0.00000000000E+00 -0.15077683683E+04  0.25097587604E+04  0.20063707492E+04 0.  0.
        1    1    3    3  502    0 -0.30256987934E+03 -0.83458951663E+03 -0.13383248140E+04  0.16059892593E+04  0.50400001928E-02 0.  1.
       -1    1    3    3    0  502  0.30256987934E+03  0.83458951663E+03 -0.16944355435E+03  0.90376950119E+03  0.50400001928E-02 0. -1.
</event>
<event>
 5   0  0.8567844E-05  0.1830066E+04  0.7818609E-02  0.8690472E-01
        1   -1    0    0  501    0  0.00000000000E+00  0.00000000000E+00  0.13540533613E+04  0.13540533613E+04  0.50400001928E-02 0.  1.
       -1   -1    0    0    0  501  0.00000000000E+00  0.00000000000E+00 -0.61835486813E+03  0.61835486815E+03  0.50400001928E-02 0. -1.
    10030    2    1    2    0    0  0.00000000000E+00  0.00000000000E+00  0.73569849321E+03  0.19724082295E+04  0.18300661056E+04 0.  0.
        4    1    3    3  502    0  0.44248945667E+03  0.15852847488E+03  0.12139960711E+04  0.13018126863E+04  0.12699999809E+01 0.  1.
       -4    1    3    3    0  502 -0.44248945667E+03 -0.15852847488E+03 -0.47829757792E+03  0.67059554319E+03  0.12699999809E+01 0. -1.
</event>
<event>
 5   0  0.8905646E-05  0.1945316E+04  0.7818609E-02  0.8632623E-01
       -1   -1    0    0    0  501  0.00000000000E+00  0.00000000000E+00  0.54565583255E+03  0.54565583257E+03  0.50400001928E-02 0.  1.
        1   -1    0    0  501    0  0.00000000000E+00  0.00000000000E+00 -0.17338103391E+04  0.17338103391E+04  0.50400001928E-02 0. -1.
    10030    2    1    2    0    0  0.00000000000E+00  0.00000000000E+00 -0.11881545066E+04  0.22794661717E+04  0.19453161431E+04 0.  0.
        1    1    3    3  502    0 -0.57848675366E+03  0.40585800083E+03  0.18908010515E+03  0.73151823435E+03  0.50400001928E-02 0.  1.
       -1    1    3    3    0  502  0.57848675366E+03 -0.40585800083E+03 -0.13772346117E+04  0.15479479374E+04  0.50400001928E-02 0. -1.
</event>
<event>
 5   0  0.6375750E-05  0.1907572E+04  0.7818609E-02  0.8651096E-01
       -3   -1    0    0    0  501  0.00000000000E+00  0.00000000000E+00  0.75835582666E+03  0.75835583339E+03  0.10100000352E+00 0.  1.
        3   -1    0    0  501    0  0.00000000000E+00  0.00000000000E+00 -0.11995794659E+04  0.11995794701E+04  0.10100000352E+00 0. -1.
    10030    2    1    2    0    0  0.00000000000E+00  0.00000000000E+00 -0.44122363922E+03  0.19579353035E+04  0.19075723716E+04 0.  0.
        2    1    3    3  502    0 -0.23454278899E+03 -0.38383512769E+03  0.64264522207E+03  0.78443139061E+03  0.25500000920E-02 0.  1.
       -2    1    3    3    0  502  0.23454278899E+03  0.38383512769E+03 -0.10838688613E+04  0.11735039129E+04  0.25500000920E-02 0. -1.
</event>
<event>
 5   0  0.8681396E-05  0.1928219E+04  0.7818609E-02  0.8640936E-01
       -1   -1    0    0    0  501  0.00000000000E+00  0.00000000000E+00  0.13546531284E+04  0.13546531284E+04  0.50400001928E-02 0.  1.
        1   -1    0    0  501    0  0.00000000000E+00  0.00000000000E+00 -0.68615878400E+03  0.68615878402E+03  0.50400001928E-02 0. -1.
    10030    2    1    2    0    0  0.00000000000E+00  0.00000000000E+00  0.66849434438E+03  0.20408119124E+04  0.19282190159E+04 0.  0.
        3    1    3    3  502    0  0.73634011001E+03  0.37124396887E+03 -0.19440704771E+03  0.84723842715E+03  0.10100000352E+00 0. -1.
       -3    1    3    3    0  502 -0.73634011001E+03 -0.37124396887E+03  0.86290139210E+03  0.11935734853E+04  0.10100000352E+00 0.  1.
</event>
<event>
 5   0  0.8567844E-05  0.1974524E+04  0.7818609E-02  0.8618625E-01
        1   -1    0    0  501    0  0.00000000000E+00  0.00000000000E+00  0.48264936543E+03  0.48264936546E+03  0.50400001928E-02 0. -1.
       -1   -1    0    0    0  501  0.00000000000E+00  0.00000000000E+00 -0.20194495301E+04  0.20194495301E+04  0.50400001928E-02 0.  1.
    10030    2    1    2    0    0  0.00000000000E+00  0.00000000000E+00 -0.15368001646E+04  0.25020988955E+04  0.19745237747E+04 0.  0.
        4    1    3    3  502    0  0.31089905568E+03  0.99426346606E+02  0.41229332290E+03  0.52586235673E+03  0.12699999809E+01 0. -1.
       -4    1    3    3    0  502 -0.31089905568E+03 -0.99426346606E+02 -0.19490934875E+04  0.19762365388E+04  0.12699999809E+01 0.  1.
</event>
<event>
 5   0  0.8602017E-05  0.1921418E+04  0.7818609E-02  0.8644268E-01
       -1   -1    0    0    0  501  0.00000000000E+00  0.00000000000E+00  0.46656756245E+03  0.46656756247E+03  0.50400001928E-02 0. -1.
        1   -1    0    0  501    0  0.00000000000E+00  0.00000000000E+00 -0.19781960366E+04  0.19781960366E+04  0.50400001928E-02 0.  1.
    10030    2    1    2    0    0  0.00000000000E+00  0.00000000000E+00 -0.15116284742E+04  0.24447635991E+04  0.19214183333E+04 0.  0.
        2    1    3    3  502    0 -0.23758827440E+03  0.88414940658E+03 -0.11263215975E+04  0.14514712199E+04  0.25500000920E-02 0.  1.
       -2    1    3    3    0  502  0.23758827440E+03 -0.88414940658E+03 -0.38530687668E+03  0.99329237917E+03  0.25500000920E-02 0. -1.
</event>
<event>
 5   0  0.1658711E-04  0.1904209E+04  0.7818609E-02  0.8652764E-01
       -2   -1    0    0    0  501  0.00000000000E+00  0.00000000000E+00  0.67836641376E+03  0.67836641376E+03  0.25500000920E-02 0.  1.
        2   -1    0    0  501    0  0.00000000000E+00  0.00000000000E+00 -0.13363035180E+04  0.13363035180E+04  0.25500000920E-02 0. -1.
    10030    2    1    2    0    0  0.00000000000E+00  0.00000000000E+00 -0.65793710422E+03  0.20146699318E+04  0.19042094687E+04 0.  0.
        2    1    3    3  502    0  0.81629103514E+03  0.46604727019E+03 -0.16861021363E+03  0.95496623828E+03  0.25500000920E-02 0.  1.
       -2    1    3    3    0  502 -0.81629103514E+03 -0.46604727019E+03 -0.48932689059E+03  0.10597036935E+04  0.25500000920E-02 0. -1.
</event>
<event>
 5   0  0.8587082E-05  0.1916054E+04  0.7818609E-02  0.8646906E-01
       -1   -1    0    0    0  501  0.00000000000E+00  0.00000000000E+00  0.82071065458E+03  0.82071065460E+03  0.50400001928E-02 0.  1.
        1   -1    0    0  501    0  0.00000000000E+00  0.00000000000E+00 -0.11183187758E+04  0.11183187758E+04  0.50400001928E-02 0. -1.
    10030    2    1    2    0    0  0.00000000000E+00  0.00000000000E+00 -0.29760812119E+03  0.19390294304E+04  0.19160544194E+04 0.  0.
        5    1    3    3  502    0 -0.19689025037E+03  0.58071078269E+03 -0.89370302130E+03  0.10838440682E+04  0.46999998093E+01 0. -1.
       -5    1    3    3    0  502  0.19689025037E+03 -0.58071078269E+03  0.59609490010E+03  0.85518536222E+03  0.46999998093E+01 0.  1.
</event>
<event>
 5   0  0.8681396E-05  0.1862188E+04  0.7818609E-02  0.8673910E-01
        1   -1    0    0  501    0  0.00000000000E+00  0.00000000000E+00  0.83634795763E+03  0.83634795764E+03  0.50400001928E-02 0.  1.
       -1   -1    0    0    0  501  0.00000000000E+00  0.00000000000E+00 -0.10365734282E+04  0.10365734282E+04  0.50400001928E-02 0. -1.
    10030    2    1    2    0    0  0.00000000000E+00  0.00000000000E+00 -0.20022547054E+03  0.18729213858E+04  0.18621880352E+04 0.  0.
        3    1    3    3  502    0  0.87098178780E+03  0.32898188032E+03 -0.90171068733E+02  0.93539787475E+03  0.10100000352E+00 0. -1.
       -3    1    3    3    0  502 -0.87098178780E+03 -0.32898188032E+03 -0.11005440181E+03  0.93752351107E+03  0.10100000352E+00 0.  1.
</event>
<event>
 5   0  0.1658711E-04  0.1898647E+04  0.7818609E-02  0.8655530E-01
       -2   -1    0    0    0  501  0.00000000000E+00  0.00000000000E+00  0.53623140416E+03  0.53623140416E+03  0.25500000920E-02 0.  1.
        2   -1    0    0  501    0  0.00000000000E+00  0.00000000000E+00 -0.16806466662E+04  0.16806466662E+04  0.25500000920E-02 0. -1.
    10030    2    1    2    0    0  0.00000000000E+00  0.00000000000E+00 -0.11444152620E+04  0.22168780704E+04  0.18986474362E+04 0.  0.
        2    1    3    3  502    0  0.21799060157E+03  0.66221992023E+03  0.18011727441E+03  0.72006760632E+03  0.25500000920E-02 0.  1.
       -2    1    3    3    0  502 -0.21799060157E+03 -0.66221992023E+03 -0.13245325365E+04  0.14968104640E+04  0.25500000920E-02 0. -1.
</event>
<event>
 5   0  0.8602017E-05  0.1923328E+04  0.7818609E-02  0.8643331E-01
       -1   -1    0    0    0  501  0.00000000000E+00  0.00000000000E+00  0.61916539808E+03  0.61916539810E+03  0.50400001928E-02 0. -1.
        1   -1    0    0  501    0  0.00000000000E+00  0.00000000000E+00 -0.14936203941E+04  0.14936203941E+04  0.50400001928E-02 0.  1.
    10030    2    1    2    0    0  0.00000000000E+00  0.00000000000E+00 -0.87445499601E+03  0.21127857922E+04  0.19233284336E+04 0.  0.
        2    1    3    3  502    0  0.10676017813E+03  0.54261990911E+03 -0.13014681653E+04  0.14140910461E+04  0.25500000920E-02 0.  1.
       -2    1    3    3    0  502 -0.10676017813E+03 -0.54261990911E+03  0.42701316931E+03  0.69869474606E+03  0.25500000920E-02 0. -1.
</event>
<event>
 5   0  0.8587082E-05  0.1876906E+04  0.7818609E-02  0.8666438E-01
        1   -1    0    0  501    0  0.00000000000E+00  0.00000000000E+00  0.15296872681E+04  0.15296872681E+04  0.50400001928E-02 0.  1.
       -1   -1    0    0    0  501  0.00000000000E+00  0.00000000000E+00 -0.57573453723E+03  0.57573453725E+03  0.50400001928E-02 0. -1.
    10030    2    1    2    0    0  0.00000000000E+00  0.00000000000E+00  0.95395273085E+03  0.21054218053E+04  0.18769057424E+04 0.  0.
        5    1    3    3  502    0 -0.68042519650E+03  0.63389101672E+03  0.61831452564E+03  0.11167502907E+04  0.46999998093E+01 0.  1.
       -5    1    3    3    0  502  0.68042519650E+03 -0.63389101672E+03  0.33563820521E+03  0.98867151466E+03  0.46999998093E+01 0. -1.
</event>
<event>
 5   0  0.1799738E-04  0.1817356E+04  0.7818609E-02  0.8697124E-01
        2   -1    0    0  501    0  0.00000000000E+00  0.00000000000E+00  0.24953847952E+04  0.24953847952E+04  0.25500000920E-02 0.  1.
       -2   -1    0    0    0  501  0.00000000000E+00  0.00000000000E+00 -0.33088899420E+03  0.33088899421E+03  0.25500000920E-02 0. -1.
    10030    2    1    2    0    0  0.00000000000E+00  0.00000000000E+00  0.21644958010E+04  0.28262737894E+04  0.18173556229E+04 0.  0.
        1    1    3    3  502    0  0.48464334931E+03 -0.45862663422E+03  0.20415137254E+04  0.21477885968E+04  0.50400001928E-02 0. -1.
       -1    1    3    3    0  502 -0.48464334931E+03  0.45862663422E+03  0.12298207564E+03  0.67848519262E+03  0.50400001928E-02 0.  1.
</event>
<event>
 5   0  0.1658711E-04  0.1928014E+04  0.7818609E-02  0.8641036E-01
       -2   -1    0    0    0  501  0.00000000000E+00  0.00000000000E+00  0.10670471579E+04  0.10670471579E+04  0.25500000920E-02 0.  1.
        2   -1    0    0  501    0  0.00000000000E+00  0.00000000000E+00 -0.87091686430E+03  0.87091686430E+03  0.25500000920E-02 0. -1.
    10030    2    1    2    0    0  0.00000000000E+00  0.00000000000E+00  0.19613029362E+03  0.19379640222E+04  0.19280138639E+04 0.  0.
        2    1    3    3  502    0  0.25847269364E+03 -0.30299132018E+02  0.10310705682E+04  0.10634061723E+04  0.25500000920E-02 0.  1.
       -2    1    3    3    0  502 -0.25847269364E+03  0.30299132018E+02 -0.83494027455E+03  0.87455784991E+03  0.25500000920E-02 0. -1.
</event>
<event>
 5   0  0.1810569E-04  0.1924635E+04  0.7818609E-02  0.8642690E-01
        2   -1    0    0  501    0  0.00000000000E+00  0.00000000000E+00  0.50919359220E+03  0.50919359220E+03  0.25500000920E-02 0. -1.
       -2   -1    0    0    0  501  0.00000000000E+00  0.00000000000E+00 -0.18186705715E+04  0.18186705715E+04  0.25500000920E-02 0.  1.
    10030    2    1    2    0    0  0.00000000000E+00  0.00000000000E+00 -0.13094769793E+04  0.23278641637E+04  0.19246354474E+04 0.  0.
        4    1    3    3  502    0  0.61303109280E+03  0.54581921332E+03 -0.12623023371E+04  0.15057006799E+04  0.12699999809E+01 0. -1.
       -4    1    3    3    0  502 -0.61303109280E+03 -0.54581921332E+03 -0.47174642247E+02  0.82216348383E+03  0.12699999809E+01 0.  1.
</event>
<event>
 5   0  0.1790832E-04  0.1901050E+04  0.7818609E-02  0.8654334E-01
       -2   -1    0    0    0  501  0.00000000000E+00  0.00000000000E+00  0.57672860018E+03  0.57672860018E+03  0.25500000920E-02 0. -1.
        2   -1    0    0  501    0  0.00000000000E+00  0.00000000000E+00 -0.15665903638E+04  0.15665903638E+04  0.25500000920E-02 0.  1.
    10030    2    1    2    0    0  0.00000000000E+00  0.00000000000E+00 -0.98986176364E+03  0.21433189640E+04  0.19010496759E+04 0.  0.
        5    1    3    3  502    0  0.24615773031E+03  0.81785459874E+03 -0.96521734705E+03  0.12888546815E+04  0.46999998093E+01 0.  1.
       -5    1    3    3    0  502 -0.24615773031E+03 -0.81785459874E+03 -0.24644416593E+02  0.85446428254E+03  0.46999998093E+01 0. -1.
</event>
<event>
 5   0  0.1810569E-04  0.1877278E+04  0.7818609E-02  0.8666250E-01
        2   -1    0    0  501    0  0.00000000000E+00  0.00000000000E+00  0.18165215038E+04  0.18165215038E+04  0.25500000920E-02 0.  1.
       -2   -1    0    0    0  501  0.00000000000E+00  0.00000000000E+00 -0.48501660622E+03  0.48501660623E+03  0.25500000920E-02 0. -1.
    10030    2    1    2    0    0  0.00000000000E+00  0.00000000000E+00  0.13315048975E+04  0.23015381100E+04  0.18772779175E+04 0.  0.
        4    1    3    3  502    0 -0.94371269582E+02 -0.92791474798E+03  0.53652878376E+03  0.10760095096E+04  0.12699999809E+01 0.  1.
       -4    1    3    3    0  502  0.94371269582E+02  0.92791474798E+03  0.79497611379E+03  0.12255286004E+04  0.12699999809E+01 0. -1.
</event>
<event>
 5   0  0.1799738E-04  0.1883109E+04  0.7818609E-02  0.8663310E-01
       -2   -1    0    0    0  501  0.00000000000E+00  0.00000000000E+00  0.14245319146E+04  0.14245319146E+04  0.25500000920E-02 0.  1.
        2   -1    0    0  501    0  0.00000000000E+00  0.00000000000E+00 -0.62232700166E+03  0.62232700166E+03  0.25500000920E-02 0. -1.
    10030    2    1    2    0    0  0.00000000000E+00  0.00000000000E+00  0.80220491297E+03  0.20468589163E+04  0.18831087862E+04 0.  0.
        1    1    3    3  502    0 -0.29859624614E+03 -0.66925724550E+03  0.10436585508E+04  0.12752600321E+04  0.50400001928E-02 0.  1.
       -1    1    3    3    0  502  0.29859624614E+03  0.66925724550E+03 -0.24145363779E+03  0.77159888420E+03  0.50400001928E-02 0. -1.
</event>
<event>
 5   0  0.8602017E-05  0.1790727E+04  0.7818609E-02  0.8711246E-01
       -1   -1    0    0    0  501  0.00000000000E+00  0.00000000000E+00  0.13911245388E+04  0.13911245388E+04  0.50400001928E-02 0.  1.
        1   -1    0    0  501    0  0.00000000000E+00  0.00000000000E+00 -0.57627885665E+03  0.57627885667E+03  0.50400001928E-02 0. -1.
    10030    2    1    2    0    0  0.00000000000E+00  0.00000000000E+00  0.81484568217E+03  0.19674033955E+04  0.17907268454E+04 0.  0.
        2    1    3    3  502    0 -0.15229783884E+03  0.66191451737E+03 -0.23353147523E+03  0.71823562287E+03  0.25500000920E-02 0. -1.
       -2    1    3    3    0  502  0.15229783884E+03 -0.66191451737E+03  0.10483771574E+04  0.12491677726E+04  0.25500000920E-02 0.  1.
</event>
<event>
 5   0  0.1658711E-04  0.1841602E+04  0.7818609E-02  0.8684484E-01
        2   -1    0    0  501    0  0.00000000000E+00  0.00000000000E+00  0.10633605629E+04  0.10633605629E+04  0.25500000920E-02 0. -1.
       -2   -1    0    0    0  501  0.00000000000E+00  0.00000000000E+00 -0.79735375229E+03  0.79735375229E+03  0.25500000920E-02 0.  1.
    10030    2    1    2    0    0  0.00000000000E+00  0.00000000000E+00  0.26600681060E+03  0.18607143152E+04  0.18416020578E+04 0.  0.
        2    1    3    3  502    0  0.81375497871E+02 -0.38175352367E+03 -0.70962815790E+03  0.80989496046E+03  0.25500000920E-02 0.  1.
       -2    1    3    3    0  502 -0.81375497871E+02  0.38175352367E+03  0.97563496850E+03  0.10508193547E+04  0.25500000920E-02 0. -1.
</event>
<event>
 5   0  0.1765328E-04  0.1882151E+04  0.7818609E-02  0.8663793E-01
        2   -1    0    0  501    0  0.00000000000E+00  0.00000000000E+00  0.79886971327E+03  0.79886971327E+03  0.25500000920E-02 0.  1.
       -2   -1    0    0    0  501  0.00000000000E+00  0.00000000000E+00 -0.11085946158E+04  0.11085946158E+04  0.25500000920E-02 0. -1.
    10030    2    1    2    0    0  0.00000000000E+00  0.00000000000E+00 -0.30972490255E+03  0.19074643291E+04  0.18821505390E+04 0.  0.
        3    1    3    3  502    0 -0.90456048798E+03  0.14602777740E+02  0.10781404353E+03  0.91108001609E+03  0.10100000352E+00 0.  1.
       -3    1    3    3    0  502  0.90456048798E+03 -0.14602777740E+02 -0.41753894608E+03  0.99638431301E+03  0.10100000352E+00 0. -1.
</event>
<event>
 5   0  0.1790832E-04  0.1897239E+04  0.7818609E-02  0.8656232E-01
       -2   -1    0    0    0  501  0.00000000000E+00  0.00000000000E+00  0.93605547713E+03  0.93605547714E+03  0.25500000920E-02 0. -1.
        2   -1    0    0  501    0  0.00000000000E+00  0.00000000000E+00 -0.96135217907E+03  0.96135217907E+03  0.25500000920E-02 0.  1.
    10030    2    1    2    0    0  0.00000000000E+00  0.00000000000E+00 -0.25296701932E+02  0.18974076562E+04  0.18972390178E+04 0.  0.
        5    1    3    3  502    0  0.74994870365E+02  0.40293092771E+03  0.84292714736E+03  0.93729708676E+03  0.46999998093E+01 0. -1.
       -5    1    3    3    0  502 -0.74994870365E+02 -0.40293092771E+03 -0.86822384929E+03  0.96011056945E+03  0.46999998093E+01 0.  1.
</event>
<event>
 5   0  0.1799738E-04  0.1951754E+04  0.7818609E-02  0.8629515E-01
        2   -1    0    0  501    0  0.00000000000E+00  0.00000000000E+00  0.13526162332E+04  0.13526162332E+04  0.25500000920E-02 0.  1.
       -2   -1    0    0    0  501  0.00000000000E+00  0.00000000000E+00 -0.70406953741E+03  0.70406953741E+03  0.25500000920E-02 0. -1.
    10030    2    1    2    0    0  0.00000000000E+00  0.00000000000E+00  0.64854669575E+03  0.20566857706E+04  0.19517539656E+04 0.  0.
        1    1    3    3  502    0  0.70430038304E+03 -0.56399185157E+03 -0.67479967747E+02  0.90480903193E+03  0.50400001928E-02 0. -1.
       -1    1    3    3    0  502 -0.70430038304E+03  0.56399185157E+03  0.71602666350E+03  0.11518767387E+04  0.50400001928E-02 0.  1.
</event>
<event>
 5   0  0.8905646E-05  0.1900869E+04  0.7818609E-02  0.8654424E-01
        1   -1    0    0  501    0  0.00000000000E+00  0.00000000000E+00  0.10015751184E+04  0.10015751185E+04  0.50400001928E-02 0. -1.
       -1   -1    0    0    0  501  0.00000000000E+00  0.00000000000E+00 -0.90190514557E+03  0.90190514559E+03  0.50400001928E-02 0.  1.
    10030    2    1    2    0    0  0.00000000000E+00  0.00000000000E+00  0.99669972873E+02  0.19034802640E+04  0.19008690150E+04 0.  0.
        1    1    3    3  502    0  0.93582131193E+02  0.67479543080E+03  0.71348159107E+03  0.98648997437E+03  0.50400001928E-02 0. -1.
       -1    1    3    3    0  502 -0.93582131193E+02 -0.67479543080E+03 -0.61381161820E+03  0.91699028968E+03  0.50400001928E-02 0.  1.
</event>
<event>
 5   0  0.1658711E-04  0.1911652E+04  0.7818609E-02  0.8649078E-01
       -2   -1    0    0    0  501  0.00000000000E+00  0.00000000000E+00  0.92584407251E+03  0.92584407251E+03  0.25500000920E-02 0. -1.
        2   -1    0    0  501    0  0.00000000000E+00  0.00000000000E+00 -0.98677907934E+03  0.98677907935E+03  0.25500000920E-02 0.  1.
    10030    2    1    2    0    0  0.00000000000E+00  0.00000000000E+00 -0.60935006833E+02  0.19126231519E+04  0.19116522293E+04 0.  0.
        2    1    3    3  502    0  0.42651275232E+03  0.49343754613E+02 -0.88486588189E+03  0.98353218705E+03  0.25500000920E-02 0.  1.
       -2    1    3    3    0  502 -0.42651275232E+03 -0.49343754613E+02  0.82393087506E+03  0.92909096481E+03  0.25500000920E-02 0. -1.
</event>
<event>
 5   0  0.8587082E-05  0.1898985E+04  0.7818609E-02  0.8655362E-01
       -1   -1    0    0    0  501  0.00000000000E+00  0.00000000000E+00  0.13254753725E+04  0.13254753725E+04  0.50400001928E-02 0. -1.
        1   -1    0    0  501    0  0.00000000000E+00  0.00000000000E+00 -0.68016037551E+03  0.68016037552E+03  0.50400001928E-02 0.  1.
    10030    2    1    2    0    0  0.00000000000E+00  0.00000000000E+00  0.64531499698E+03  0.20056357480E+04  0.18989848099E+04 0.  0.
        5    1    3    3  502    0 -0.56081384346E+02  0.47973971050E+03 -0.54069826860E+03  0.72503242629E+03  0.46999998093E+01 0.  1.
       -5    1    3    3    0  502  0.56081384346E+02 -0.47973971050E+03  0.11860132656E+04  0.12806033217E+04  0.46999998093E+01 0. -1.
</event>
<event>
 5   0  0.1790832E-04  0.1579672E+04  0.7818609E-02  0.8833135E-01
        2   -1    0    0  501    0  0.00000000000E+00  0.00000000000E+00  0.15133676172E+04  0.15133676172E+04  0.25500000920E-02 0. -1.
       -2   -1    0    0    0  501  0.00000000000E+00  0.00000000000E+00 -0.41222018086E+03  0.41222018086E+03  0.25500000920E-02 0.  1.
    10030    2    1    2    0    0  0.00000000000E+00  0.00000000000E+00  0.11011474364E+04  0.19255877981E+04  0.15796717037E+04 0.  0.
        5    1    3    3  502    0  0.28883032261E+03 -0.22218104925E+03 -0.30360949935E+03  0.47432920213E+03  0.46999998093E+01 0.  1.
       -5    1    3    3    0  502 -0.28883032261E+03  0.22218104925E+03  0.14047569357E+04  0.14512585960E+04  0.46999998093E+01 0. -1.
</event>
<event>
 5   0  0.8567844E-05  0.1898537E+04  0.7818609E-02  0.8655585E-01
        1   -1    0    0  501    0  0.00000000000E+00  0.00000000000E+00  0.16435222928E+04  0.16435222928E+04  0.50400001928E-02 0.  1.
       -1   -1    0    0    0  501  0.00000000000E+00  0.00000000000E+00 -0.54828005122E+03  0.54828005124E+03  0.50400001928E-02 0. -1.
    10030    2    1    2    0    0  0.00000000000E+00  0.00000000000E+00  0.10952422415E+04  0.21918023440E+04  0.18985367912E+04 0.  0.
        4    1    3    3  502    0 -0.36942116292E+03 -0.72672354006E+03  0.11090657304E+04  0.13764546875E+04  0.12699999809E+01 0.  1.
       -4    1    3    3    0  502  0.36942116292E+03  0.72672354006E+03 -0.13823488901E+02  0.81534765655E+03  0.12699999809E+01 0. -1.
</event>
<event>
 5   0  0.1810569E-04  0.1909391E+04  0.7818609E-02  0.8650196E-01
        2   -1    0    0  501    0  0.00000000000E+00  0.00000000000E+00  0.21172179036E+04  0.21172179036E+04  0.25500000920E-02 0. -1.
       -2   -1    0    0    0  501  0.00000000000E+00  0.00000000000E+00 -0.43049122427E+03  0.43049122427E+03  0.25500000920E-02 0.  1.
    10030    2    1    2    0    0  0.00000000000E+00  0.00000000000E+00  0.16867266794E+04  0.25477091279E+04  0.19093912406E+04 0.  0.
        4    1    3    3  502    0 -0.84707252982E+02  0.43823807830E+03 -0.28269327485E+03  0.52834177625E+03  0.12699999809E+01 0.  1.
       -4    1    3    3    0  502  0.84707252982E+02 -0.43823807830E+03  0.19694199542E+04  0.20193673517E+04  0.12699999809E+01 0. -1.
</event>
<event>
 5   0  0.8905646E-05  0.1895026E+04  0.7818609E-02  0.8657336E-01
       -1   -1    0    0    0  501  0.00000000000E+00  0.00000000000E+00  0.79116530159E+03  0.79116530160E+03  0.50400001928E-02 0. -1.
        1   -1    0    0  501    0  0.00000000000E+00  0.00000000000E+00 -0.11347577246E+04  0.11347577246E+04  0.50400001928E-02 0.  1.
    10030    2    1    2    0    0  0.00000000000E+00  0.00000000000E+00 -0.34359242298E+03  0.19259230262E+04  0.18950260551E+04 0.  0.
        1    1    3    3  502    0  0.38195330026E+03 -0.55399405310E+03 -0.84974290805E+03  0.10839099336E+04  0.50400001928E-02 0.  1.
       -1    1    3    3    0  502 -0.38195330026E+03  0.55399405310E+03  0.50615048507E+03  0.84201309254E+03  0.50400001928E-02 0. -1.
</event>
<event>
 5   0  0.1799738E-04  0.1867223E+04  0.7818609E-02  0.8671346E-01
       -2   -1    0    0    0  501  0.00000000000E+00  0.00000000000E+00  0.79339759150E+03  0.79339759150E+03  0.25500000920E-02 0.  1.
        2   -1    0    0  501    0  0.00000000000E+00  0.00000000000E+00 -0.10986049475E+04  0.10986049475E+04  0.25500000920E-02 0. -1.
    10030    2    1    2    0    0  0.00000000000E+00  0.00000000000E+00 -0.30520735597E+03  0.18920025390E+04  0.18672230925E+04 0.  0.
        1    1    3    3  502    0  0.80921740299E+03  0.43382974811E+03 -0.32393174266E+03  0.97363896264E+03  0.50400001928E-02 0. -1.
       -1    1    3    3    0  502 -0.80921740299E+03 -0.43382974811E+03  0.18724386694E+02  0.91836357633E+03  0.50400001928E-02 0.  1.
</event>
<event>
 5   0  0.8567844E-05  0.1915673E+04  0.7818609E-02  0.8647094E-01
       -1   -1    0    0    0  501  0.00000000000E+00  0.00000000000E+00  0.48777947923E+03  0.48777947926E+03  0.50400001928E-02 0. -1.
        1   -1    0    0  501    0  0.00000000000E+00  0.00000000000E+00 -0.18808713592E+04  0.18808713592E+04  0.50400001928E-02 0.  1.
    10030    2    1    2    0    0  0.00000000000E+00  0.00000000000E+00 -0.13930918799E+04  0.23686508384E+04  0.19156726778E+04 0.  0.
        4    1    3    3  502    0 -0.84413760125E+03 -0.45226677658E+03 -0.67390448138E+03  0.11710091332E+04  0.12699999809E+01 0. -1.
       -4    1    3    3    0  502  0.84413760125E+03  0.45226677658E+03 -0.71918739854E+03  0.11976417053E+04  0.12699999809E+01 0.  1.
</event>
<event>
 5   0  0.1765328E-04  0.1897852E+04  0.7818609E-02  0.8655926E-01
       -2   -1    0    0    0  501  0.00000000000E+00  0.00000000000E+00  0.11417965629E+04  0.11417965629E+04  0.25500000920E-02 0. -1.
        2   -1    0    0  501    0  0.00000000000E+00  0.00000000000E+00 -0.78863454505E+03  0.78863454506E+03  0.25500000920E-02 0.  1.
    10030    2    1    2    0    0  0.00000000000E+00  0.00000000000E+00  0.35316201781E+03  0.19304311079E+04  0.18978516411E+04 0.  0.
        3    1    3    3  502    0  0.12986783266E+03  0.39033616535E+03  0.10463816217E+04  0.11243409111E+04  0.10100000352E+00 0. -1.
       -3    1    3    3    0  502 -0.12986783266E+03 -0.39033616535E+03 -0.69321960391E+03  0.80609019680E+03  0.10100000352E+00 0.  1.
</event>
<event>
 5   0  0.8681396E-05  0.1899385E+04  0.7818609E-02  0.8655162E-01
       -1   -1    0    0    0  501  0.00000000000E+00  0.00000000000E+00  0.63561244460E+03  0.63561244462E+03  0.50400001928E-02 0. -1.
        1   -1    0    0  501    0  0.00000000000E+00  0.00000000000E+00 -0.14189717624E+04  0.14189717624E+04  0.50400001928E-02 0.  1.
    10030    2    1    2    0    0  0.00000000000E+00  0.00000000000E+00 -0.78335931778E+03  0.20545842070E+04  0.18993852803E+04 0.  0.
        3    1    3    3  502    0  0.28143056035E+03  0.24972783158E+02 -0.13724568907E+04  0.14012368562E+04  0.10100000352E+00 0.  1.
       -3    1    3    3    0  502 -0.28143056035E+03 -0.24972783158E+02  0.58909757290E+03  0.65334735080E+03  0.10100000352E+00 0. -1.
</event>
<event>
 5   0  0.1799738E-04  0.1991864E+04  0.7818609E-02  0.8610434E-01
        2   -1    0    0  501    0  0.00000000000E+00  0.00000000000E+00  0.15141759646E+04  0.15141759646E+04  0.25500000920E-02 0.  1.
       -2   -1    0    0    0  501  0.00000000000E+00  0.00000000000E+00 -0.65506294978E+03  0.65506294978E+03  0.25500000920E-02 0. -1.
    10030    2    1    2    0    0  0.00000000000E+00  0.00000000000E+00  0.85911301484E+03  0.21692389144E+04  0.19918640254E+04 0.  0.
        1    1    3    3  502    0 -0.90555867546E+03  0.32441945010E+03  0.71059902711E+03  0.11959245259E+04  0.50400001928E-02 0.  1.
       -1    1    3    3    0  502  0.90555867546E+03 -0.32441945010E+03  0.14851398774E+03  0.97331438851E+03  0.50400001928E-02 0. -1.
</event>
<event>
 5   0  0.8567844E-05  0.1918593E+04  0.7818609E-02  0.8645656E-01
       -1   -1    0    0    0  501  0.00000000000E+00  0.00000000000E+00  0.10105032552E+04  0.10105032552E+04  0.50400001928E-02 0. -1.
        1   -1    0    0  501    0  0.00000000000E+00  0.00000000000E+00 -0.91068448811E+03  0.91068448813E+03  0.50400001928E-02 0.  1.
    10030    2    1    2    0    0  0.00000000000E+00  0.00000000000E+00  0.99818767052E+02  0.19211877433E+04  0.19185928590E+04 0.  0.
        4    1    3    3  502    0 -0.47998352403E+03  0.45003720773E+03 -0.64912528570E+03  0.92427426726E+03  0.12699999809E+01 0.  1.
       -4    1    3    3    0  502  0.47998352403E+03 -0.45003720773E+03  0.74894405275E+03  0.99691347605E+03  0.12699999809E+01 0. -1.
</event>
<event>
 5   0  0.1765328E-04  0.1923306E+04  0.7818609E-02  0.8643342E-01
       -2   -1    0    0    0  501  0.00000000000E+00  0.00000000000E+00  0.11632004119E+04  0.11632004119E+04  0.25500000920E-02 0.  1.
        2   -1    0    0  501    0  0.00000000000E+00  0.00000000000E+00 -0.79502744848E+03  0.79502744848E+03  0.25500000920E-02 0. -1.
    10030    2    1    2    0    0  0.00000000000E+00  0.00000000000E+00  0.36817296341E+03  0.19582278604E+04  0.19233057537E+04 0.  0.
        3    1    3    3  502    0 -0.27787875804E+03 -0.47264157976E+03  0.98847561149E+03  0.11303498183E+04  0.10100000352E+00 0.  1.
       -3    1    3    3    0  502  0.27787875804E+03  0.47264157976E+03 -0.62030264807E+03  0.82787804204E+03  0.10100000352E+00 0. -1.
</event>
<event>
 5   0  0.8567844E-05  0.1842646E+04  0.7818609E-02  0.8683944E-01
        1   -1    0    0  501    0  0.00000000000E+00  0.00000000000E+00  0.85205257010E+03  0.85205257011E+03  0.50400001928E-02 0. -1.
       -1   -1    0    0    0  501  0.00000000000E+00  0.00000000000E+00 -0.99622529846E+03  0.99622529847E+03  0.50400001928E-02 0.  1.
    10030    2    1    2    0    0  0.00000000000E+00  0.00000000000E+00 -0.14417272836E+03  0.18482778686E+04  0.18426462775E+04 0.  0.
        4    1    3    3  502    0  0.33447955610E+03  0.16150300690E+03  0.77362445165E+03  0.85817026270E+03  0.12699999809E+01 0. -1.
       -4    1    3    3    0  502 -0.33447955610E+03 -0.16150300690E+03 -0.91779718001E+03  0.99010760588E+03  0.12699999809E+01 0.  1.
</event>
<event>
 5   0  0.6375750E-05  0.1902609E+04  0.7818609E-02  0.8653559E-01
        3   -1    0    0  501    0  0.00000000000E+00  0.00000000000E+00  0.59161054149E+03  0.59161055012E+03  0.10100000352E+00 0. -1.
       -3   -1    0    0    0  501  0.00000000000E+00  0.00000000000E+00 -0.15296892519E+04  0.15296892553E+04  0.10100000352E+00 0.  1.
    10030    2    1    2    0    0  0.00000000000E+00  0.00000000000E+00 -0.93807871043E+03  0.21212998054E+04  0.19026090500E+04 0.  0.
        2    1    3    3  502    0 -0.34407355170E+03 -0.73195796256E+03  0.89357931074E+02  0.81371611007E+03  0.25500000920E-02 0. -1.
       -2    1    3    3    0  502  0.34407355170E+03  0.73195796256E+03 -0.10274366415E+04  0.13075836953E+04  0.25500000920E-02 0.  1.
</event>
<event>
 5   0  0.8567844E-05  0.1904098E+04  0.7818609E-02  0.8652819E-01
       -1   -1    0    0    0  501  0.00000000000E+00  0.00000000000E+00  0.37999613972E+03  0.37999613976E+03  0.50400001928E-02 0. -1.
        1   -1    0    0  501    0  0.00000000000E+00  0.00000000000E+00 -0.23852809210E+04  0.23852809210E+04  0.50400001928E-02 0.  1.
    10030    2    1    2    0    0  0.00000000000E+00  0.00000000000E+00 -0.20052847813E+04  0.27652770608E+04  0.19040982561E+04 0.  0.
        4    1    3    3  502    0  0.93293133209E+03 -0.10439412588E+03 -0.77238935019E+03  0.12156668644E+04  0.12699999809E+01 0. -1.
       -4    1    3    3    0  502 -0.93293133209E+03  0.10439412588E+03 -0.12328954311E+04  0.15496101964E+04  0.12699999809E+01 0.  1.
</event>
<event>
 5   0  0.8587082E-05  0.1887893E+04  0.7818609E-02  0.8660907E-01
        1   -1    0    0  501    0  0.00000000000E+00  0.00000000000E+00  0.11070950517E+04  0.11070950517E+04  0.50400001928E-02 0. -1.
       -1   -1    0    0    0  501  0.00000000000E+00  0.00000000000E+00 -0.80484031296E+03  0.80484031298E+03  0.50400001928E-02 0.  1.
    10030    2    1    2    0    0  0.00000000000E+00  0.00000000000E+00  0.30225473874E+03  0.19119353647E+04  0.18878927172E+04 0.  0.
        5    1    3    3  502    0  0.32766730264E+03  0.84188465347E+03  0.42824881331E+03  0.99977735875E+03  0.46999998093E+01 0.  1.
       -5    1    3    3    0  502 -0.32766730264E+03 -0.84188465347E+03 -0.12599407457E+03  0.91215800593E+03  0.46999998093E+01 0. -1.
</event>
<event>
 5   0  0.1658711E-04  0.1915385E+04  0.7818609E-02  0.8647236E-01
       -2   -1    0    0    0  501  0.00000000000E+00  0.00000000000E+00  0.61558322748E+03  0.61558322749E+03  0.25500000920E-02 0.  1.
        2   -1    0    0  501    0  0.00000000000E+00  0.00000000000E+00 -0.14899286870E+04  0.14899286870E+04  0.25500000920E-02 0. -1.
    10030    2    1    2    0    0  0.00000000000E+00  0.00000000000E+00 -0.87434545951E+03  0.21055119145E+04  0.19153851935E+04 0.  0.
        2    1    3    3  502    0  0.92788415675E+03 -0.61772312369E+02 -0.68878218032E+03  0.11572405622E+04  0.25500000920E-02 0. -1.
       -2    1    3    3    0  502 -0.92788415675E+03  0.61772312369E+02 -0.18556327919E+03  0.94827135226E+03  0.25500000920E-02 0.  1.
</event>
<event>
 5   0  0.1810569E-04  0.1908924E+04  0.7818609E-02  0.8650427E-01
        2   -1    0    0  501    0  0.00000000000E+00  0.00000000000E+00  0.79244844606E+03  0.79244844607E+03  0.25500000920E-02 0. -1.
       -2   -1    0    0    0  501  0.00000000000E+00  0.00000000000E+00 -0.11495982037E+04  0.11495982037E+04  0.25500000920E-02 0.  1.
    10030    2    1    2    0    0  0.00000000000E+00  0.00000000000E+00 -0.35714975762E+03  0.19420466498E+04  0.19089235816E+04 0.  0.
        4    1    3    3  502    0  0.64546277966E+03  0.25710090448E+03  0.48720592802E+03  0.84858370489E+03  0.12699999809E+01 0. -1.
       -4    1    3    3    0  502 -0.64546277966E+03 -0.25710090448E+03 -0.84435568564E+03  0.10934629449E+04  0.12699999809E+01 0.  1.
</event>
<event>
 5   0  0.1790832E-04  0.1864595E+04  0.7818609E-02  0.8672683E-01
       -2   -1    0    0    0  501  0.00000000000E+00  0.00000000000E+00  0.75467695123E+03  0.75467695123E+03  0.25500000920E-02 0.  1.
        2   -1    0    0  501    0  0.00000000000E+00  0.00000000000E+00 -0.11517225356E+04  0.11517225356E+04  0.25500000920E-02 0. -1.
    10030    2    1    2    0    0  0.00000000000E+00  0.00000000000E+00 -0.39704558438E+03  0.19063994868E+04  0.18645948105E+04 0.  0.
        5    1    3    3  502    0 -0.17774139694E+03 -0.34726001005E+03  0.66720508033E+03  0.77289470692E+03  0.46999998093E+01 0.  1.
       -5    1    3    3    0  502  0.17774139694E+03  0.34726001005E+03 -0.10642506647E+04  0.11335047799E+04  0.46999998093E+01 0. -1.
</event>
<event>
 5   0  0.1790832E-04  0.1855047E+04  0.7818609E-02  0.8677562E-01
       -2   -1    0    0    0  501  0.00000000000E+00  0.00000000000E+00  0.42299721106E+03  0.42299721107E+03  0.25500000920E-02 0. -1.
        2   -1    0    0  501    0  0.00000000000E+00  0.00000000000E+00 -0.20338184964E+04  0.20338184964E+04  0.25500000920E-02 0.  1.
    10030    2    1    2    0    0  0.00000000000E+00  0.00000000000E+00 -0.16108212854E+04  0.24568157075E+04  0.18550466860E+04 0.  0.
        5    1    3    3  502    0 -0.92050531786E+03  0.10997468915E+03 -0.84409091652E+03  0.12537687338E+04  0.46999998093E+01 0.  1.
       -5    1    3    3    0  502  0.92050531786E+03 -0.10997468915E+03 -0.76673036884E+03  0.12030469737E+04  0.46999998093E+01 0. -1.
</event>
<event>
 5   0  0.8567844E-05  0.1919863E+04  0.7818609E-02  0.8645032E-01
        1   -1    0    0  501    0  0.00000000000E+00  0.00000000000E+00  0.12747224139E+04  0.12747224139E+04  0.50400001928E-02 0. -1.
       -1   -1    0    0    0  501  0.00000000000E+00  0.00000000000E+00 -0.72287776289E+03  0.72287776291E+03  0.50400001928E-02 0.  1.
    10030    2    1    2    0    0  0.00000000000E+00  0.00000000000E+00  0.55184465098E+03  0.19976001768E+04  0.19198630023E+04 0.  0.
        4    1    3    3  502    0  0.85195650794E+03 -0.38130412204E+03  0.50915053388E+03  0.10632302685E+04  0.12699999809E+01 0.  1.
       -4    1    3    3    0  502 -0.85195650794E+03  0.38130412204E+03  0.42694117102E+02  0.93436990825E+03  0.12699999809E+01 0. -1.
</event>
<event>
 5   0  0.8905646E-05  0.1903619E+04  0.7818609E-02  0.8653057E-01
       -1   -1    0    0    0  501  0.00000000000E+00  0.00000000000E+00  0.68999478162E+03  0.68999478164E+03  0.50400001928E-02 0.  1.
        1   -1    0    0  501    0  0.00000000000E+00  0.00000000000E+00 -0.13129683614E+04  0.13129683614E+04  0.50400001928E-02 0. -1.
    10030    2    1    2    0    0  0.00000000000E+00  0.00000000000E+00 -0.62297357977E+03  0.20029631430E+04  0.19036189932E+04 0.  0.
        1    1    3    3  502    0 -0.16207920258E+03 -0.93118350340E+03 -0.42944879125E+03  0.10381708189E+04  0.50400001928E-02 0.  1.
       -1    1    3    3    0  502  0.16207920258E+03  0.93118350340E+03 -0.19352478852E+03  0.96479232413E+03  0.50400001928E-02 0. -1.
</event>
<event>
 5   0  0.1765328E-04  0.1901618E+04  0.7818609E-02  0.8654051E-01
       -2   -1    0    0    0  501  0.00000000000E+00  0.00000000000E+00  0.42910022331E+03  0.42910022332E+03  0.25500000920E-02 0. -1.
        2   -1    0    0  501    0  0.00000000000E+00  0.00000000000E+00 -0.21068228616E+04  0.21068228616E+04  0.25500000920E-02 0.  1.
    10030    2    1    2    0    0  0.00000000000E+00  0.00000000000E+00 -0.16777226383E+04  0.25359230850E+04  0.19016184269E+04 0.  0.
        3    1    3    3  502    0  0.47631606822E+03  0.79820251086E+03 -0.11056864170E+04  0.14444883898E+04  0.10100000352E+00 0.  1.
       -3    1    3    3    0  502 -0.47631606822E+03 -0.79820251086E+03 -0.57203622129E+03  0.10914346952E+04  0.10100000352E+00 0. -1.
</event>
<event>
 5   0  0.1799738E-04  0.1875337E+04  0.7818609E-02  0.8667231E-01
       -2   -1    0    0    0  501  0.00000000000E+00  0.00000000000E+00  0.11066172719E+04  0.11066172719E+04  0.25500000920E-02 0. -1.
        2   -1    0    0  501    0  0.00000000000E+00  0.00000000000E+00 -0.79451377352E+03  0.79451377353E+03  0.25500000920E-02 0.  1.
    10030    2    1    2    0    0  0.00000000000E+00  0.00000000000E+00  0.31210349833E+03  0.19011310454E+04  0.18753374784E+04 0.  0.
        1    1    3    3  502    0  0.85954805105E+03 -0.16064245705E+03 -0.18712132633E+03  0.89422773490E+03  0.50400001928E-02 0.  1.
       -1    1    3    3    0  502 -0.85954805105E+03  0.16064245705E+03  0.49922482466E+03  0.10069033105E+04  0.50400001928E-02 0. -1.
</event>
<event>
 5   0  0.1790832E-04  0.1765229E+04  0.7818609E-02  0.8725012E-01
       -2   -1    0    0    0  501  0.00000000000E+00  0.00000000000E+00  0.11021100912E+04  0.11021100912E+04  0.25500000920E-02 0.  1.
        2   -1    0    0  501    0  0.00000000000E+00  0.00000000000E+00 -0.70683322450E+03  0.70683322450E+03  0.25500000920E-02 0. -1.
    10030    2    1    2    0    0  0.00000000000E+00  0.00000000000E+00  0.39527686674E+03  0.18089433157E+04  0.17652286306E+04 0.  0.
        5    1    3    3  502    0  0.17373045037E+03 -0.81001657825E+03 -0.11432920202E+03  0.83630280572E+03  0.46999998093E+01 0. -1.
       -5    1    3    3    0  502 -0.17373045037E+03  0.81001657825E+03  0.50960606877E+03  0.97264051003E+03  0.46999998093E+01 0.  1.
</event>
<event>
 5   0  0.8681396E-05  0.1887592E+04  0.7818609E-02  0.8661057E-01
       -1   -1    0    0    0  501  0.00000000000E+00  0.00000000000E+00  0.51764609813E+03  0.51764609815E+03  0.50400001928E-02 0. -1.
        1   -1    0    0  501    0  0.00000000000E+00  0.00000000000E+00 -0.17207721558E+04  0.17207721558E+04  0.50400001928E-02 0.  1.
    10030    2    1    2    0    0  0.00000000000E+00  0.00000000000E+00 -0.12031260576E+04  0.22384182539E+04  0.18875921087E+04 0.  0.
        3    1    3    3  502    0  0.39756820056E+03 -0.84976843498E+03 -0.47956288084E+03  0.10536353421E+04  0.10100000352E+00 0. -1.
       -3    1    3    3    0  502 -0.39756820056E+03  0.84976843498E+03 -0.72356317679E+03  0.11847829118E+04  0.10100000352E+00 0.  1.
</event>
<event>
 5   0  0.1658711E-04  0.1893929E+04  0.7818609E-02  0.8657884E-01
       -2   -1    0    0    0  501  0.00000000000E+00  0.00000000000E+00  0.80179043072E+03  0.80179043072E+03  0.25500000920E-02 0.  1.
        2   -1    0    0  501    0  0.00000000000E+00  0.00000000000E+00 -0.11184245315E+04  0.11184245315E+04  0.25500000920E-02 0. -1.
    10030    2    1    2    0    0  0.00000000000E+00  0.00000000000E+00 -0.31663410078E+03  0.19202149622E+04  0.18939293406E+04 0.  0.
        2    1    3    3  502    0 -0.58665819474E+03  0.58604701027E+03 -0.62196370911E+03  0.10365605584E+04  0.25500000920E-02 0. -1.
       -2    1    3    3    0  502  0.58665819474E+03 -0.58604701027E+03  0.30532960833E+03  0.88365440385E+03  0.25500000920E-02 0.  1.
</event>
<event>
 5   0  0.8905646E-05  0.1900650E+04  0.7818609E-02  0.8654533E-01
        1   -1    0    0  501    0  0.00000000000E+00  0.00000000000E+00  0.20328444911E+04  0.20328444911E+04  0.50400001928E-02 0.  1.
       -1   -1    0    0    0  501  0.00000000000E+00  0.00000000000E+00 -0.44426295482E+03  0.44426295485E+03  0.50400001928E-02 0. -1.
    10030    2    1    2    0    0  0.00000000000E+00  0.00000000000E+00  0.15885815363E+04  0.24771074460E+04  0.19006498892E+04 0.  0.
        1    1    3    3  502    0  0.39907999891E+03  0.80542295490E+02  0.19134300881E+04  0.19562634304E+04  0.50400001928E-02 0.  1.
       -1    1    3    3    0  502 -0.39907999891E+03 -0.80542295490E+02 -0.32484855184E+03  0.52084401557E+03  0.50400001928E-02 0. -1.
</event>
<event>
 5   0  0.1765328E-04  0.1893037E+04  0.7818609E-02  0.8658330E-01
        2   -1    0    0  501    0  0.00000000000E+00  0.00000000000E+00  0.16776948444E+04  0.16776948444E+04  0.25500000920E-02 0.  1.
       -2   -1    0    0    0  501  0.00000000000E+00  0.00000000000E+00 -0.53400465989E+03  0.53400465989E+03  0.25500000920E-02 0. -1.
    10030    2    1    2    0    0  0.00000000000E+00  0.00000000000E+00  0.11436901845E+04  0.22116995043E+04  0.18930365710E+04 0.  0.
        3    1    3    3  502    0  0.18126367118E+03 -0.57344287722E+03  0.14257716543E+04  0.15474230425E+04  0.10100000352E+00 0.  1.
       -3    1    3    3    0  502 -0.18126367118E+03  0.57344287722E+03 -0.28208146980E+03  0.66427646182E+03  0.10100000352E+00 0. -1.
</event>
<event>
 5   0  0.1658711E-04  0.1871199E+04  0.7818609E-02  0.8669327E-01
       -2   -1    0    0    0  501  0.00000000000E+00  0.00000000000E+00  0.61580435581E+03  0.61580435582E+03  0.25500000920E-02 0. -1.
        2   -1    0    0  501    0  0.00000000000E+00  0.00000000000E+00 -0.14214676696E+04  0.14214676696E+04  0.25500000920E-02 0.  1.
    10030    2    1    2    0    0  0.00000000000E+00  0.00000000000E+00 -0.80566331381E+03  0.20372720254E+04  0.18711985278E+04 0.  0.
        2    1    3    3  502    0  0.82018754047E+03 -0.13886423546E+03  0.63371980806E+02  0.83427027119E+03  0.25500000920E-02 0. -1.
       -2    1    3    3    0  502 -0.82018754047E+03  0.13886423546E+03 -0.86903529462E+03  0.12030017542E+04  0.25500000920E-02 0.  1.
</event>
<event>
 5   0  0.8905646E-05  0.1895202E+04  0.7818609E-02  0.8657248E-01
        1   -1    0    0  501    0  0.00000000000E+00  0.00000000000E+00  0.96503174925E+03  0.96503174926E+03  0.50400001928E-02 0.  1.
       -1   -1    0    0    0  501  0.00000000000E+00  0.00000000000E+00 -0.93048515695E+03  0.93048515697E+03  0.50400001928E-02 0. -1.
    10030    2    1    2    0    0  0.00000000000E+00  0.00000000000E+00  0.34546592295E+02  0.18955169062E+04  0.18952020670E+04 0.  0.
        1    1    3    3  502    0 -0.18206676353E+03  0.74403746414E+03  0.57522586686E+03  0.95792737322E+03  0.50400001928E-02 0.  1.
       -1    1    3    3    0  502  0.18206676353E+03 -0.74403746414E+03 -0.54067927457E+03  0.93758953301E+03  0.50400001928E-02 0. -1.
</event>
<event>
 5   0  0.1790832E-04  0.1819040E+04  0.7818609E-02  0.8696239E-01
       -2   -1    0    0    0  501  0.00000000000E+00  0.00000000000E+00  0.44598632959E+03  0.44598632959E+03  0.25500000920E-02 0. -1.
        2   -1    0    0  501    0  0.00000000000E+00  0.00000000000E+00 -0.18548252231E+04  0.18548252231E+04  0.25500000920E-02 0.  1.
    10030    2    1    2    0    0  0.00000000000E+00  0.00000000000E+00 -0.14088388935E+04  0.23008115527E+04  0.18190400691E+04 0.  0.
        5    1    3    3  502    0 -0.29123829343E+03  0.16600375303E+03  0.36497874192E+03  0.49558910564E+03  0.46999998093E+01 0. -1.
       -5    1    3    3    0  502  0.29123829343E+03 -0.16600375303E+03 -0.17738176354E+04  0.18052224471E+04  0.46999998093E+01 0.  1.
</event>
<event>
 5   0  0.1658711E-04  0.1895739E+04  0.7818609E-02  0.8656980E-01
        2   -1    0    0  501    0  0.00000000000E+00  0.00000000000E+00  0.84582235027E+03  0.84582235028E+03  0.25500000920E-02 0.  1.
       -2   -1    0    0    0  501  0.00000000000E+00  0.00000000000E+00 -0.10622285351E+04  0.10622285351E+04  0.25500000920E-02 0. -1.
    10030    2    1    2    0    0  0.00000000000E+00  0.00000000000E+00 -0.21640618486E+03  0.19080508854E+04  0.18957390497E+04 0.  0.
        2    1    3    3  502    0 -0.56404761336E+03  0.34623277243E+03  0.57475350634E+03  0.87656627582E+03  0.25500000920E-02 0.  1.
       -2    1    3    3    0  502  0.56404761336E+03 -0.34623277243E+03 -0.79115969120E+03  0.10314846096E+04  0.25500000920E-02 0. -1.
</event>
<event>
 5   0  0.1790832E-04  0.1904695E+04  0.7818609E-02  0.8652523E-01
        2   -1    0    0  501    0  0.00000000000E+00  0.00000000000E+00  0.16739358704E+04  0.16739358704E+04  0.25500000920E-02 0.  1.
       -2   -1    0    0    0  501  0.00000000000E+00  0.00000000000E+00 -0.54181625322E+03  0.54181625322E+03  0.25500000920E-02 0. -1.
    10030    2    1    2    0    0  0.00000000000E+00  0.00000000000E+00  0.11321196172E+04  0.22157521236E+04  0.19046948957E+04 0.  0.
        5    1    3    3  502    0 -0.26902730641E+03  0.75024556237E+03 -0.40313612316E+02  0.79805474298E+03  0.46999998093E+01 0. -1.
       -5    1    3    3    0  502  0.26902730641E+03 -0.75024556237E+03  0.11724332295E+04  0.14176973806E+04  0.46999998093E+01 0.  1.
</event>
<event>
 5   0  0.8905646E-05  0.1923144E+04  0.7818609E-02  0.8643421E-01
        1   -1    0    0  501    0  0.00000000000E+00  0.00000000000E+00  0.62299034232E+03  0.62299034234E+03  0.50400001928E-02 0. -1.
       -1   -1    0    0    0  501  0.00000000000E+00  0.00000000000E+00 -0.14841659711E+04  0.14841659711E+04  0.50400001928E-02 0.  1.
    10030    2    1    2    0    0  0.00000000000E+00  0.00000000000E+00 -0.86117562874E+03  0.21071563134E+04  0.19231443694E+04 0.  0.
        1    1    3    3  502    0 -0.65692671850E+03  0.66799489193E+03 -0.19342580571E+03  0.95665219984E+03  0.50400001928E-02 0. -1.
       -1    1    3    3    0  502  0.65692671850E+03 -0.66799489193E+03 -0.66774982303E+03  0.11505041136E+04  0.50400001928E-02 0.  1.
</event>
<event>
 5   0  0.1810569E-04  0.1900963E+04  0.7818609E-02  0.8654377E-01
       -2   -1    0    0    0  501  0.00000000000E+00  0.00000000000E+00  0.76714521890E+03  0.76714521890E+03  0.25500000920E-02 0.  1.
        2   -1    0    0  501    0  0.00000000000E+00  0.00000000000E+00 -0.11776319487E+04  0.11776319487E+04  0.25500000920E-02 0. -1.
    10030    2    1    2    0    0  0.00000000000E+00  0.00000000000E+00 -0.41048672981E+03  0.19447771676E+04  0.19009626183E+04 0.  0.
        4    1    3    3  502    0  0.71049840740E+03 -0.57279983670E+03  0.66405356412E+02  0.91505132320E+03  0.12699999809E+01 0. -1.
       -4    1    3    3    0  502 -0.71049840740E+03  0.57279983670E+03 -0.47689208622E+03  0.10297258444E+04  0.12699999809E+01 0.  1.
</event>
<event>
 5   0  0.1765328E-04  0.1917703E+04  0.7818609E-02  0.8646094E-01
       -2   -1    0    0    0  501  0.00000000000E+00  0.00000000000E+00  0.50762463501E+03  0.50762463502E+03  0.25500000920E-02 0.  1.
        2   -1    0    0  501    0  0.00000000000E+00  0.00000000000E+00 -0.18111734079E+04  0.18111734079E+04  0.25500000920E-02 0. -1.
    10030    2    1    2    0    0  0.00000000000E+00  0.00000000000E+00 -0.13035487729E+04  0.23187980429E+04  0.19177030428E+04 0.  0.
        3    1    3    3  502    0  0.84279069839E+03  0.34123524349E+03 -0.28370950509E+03  0.95248556218E+03  0.10100000352E+00 0.  1.
       -3    1    3    3    0  502 -0.84279069839E+03 -0.34123524349E+03 -0.10198392678E+04  0.13663124807E+04  0.10100000352E+00 0. -1.
</event>
<event>
 5   0  0.1790832E-04  0.1950311E+04  0.7818609E-02  0.8630211E-01
        2   -1    0    0  501    0  0.00000000000E+00  0.00000000000E+00  0.10989093803E+04  0.10989093803E+04  0.25500000920E-02 0.  1.
       -2   -1    0    0    0  501  0.00000000000E+00  0.00000000000E+00 -0.86533853480E+03  0.86533853480E+03  0.25500000920E-02 0. -1.
    10030    2    1    2    0    0  0.00000000000E+00  0.00000000000E+00  0.23357084555E+03  0.19642479152E+04  0.19503113937E+04 0.  0.
        5    1    3    3  502    0  0.16578230668E+03  0.24043442397E+03  0.10538175757E+04  0.10935474651E+04  0.46999998093E+01 0.  1.
       -5    1    3    3    0  502 -0.16578230668E+03 -0.24043442397E+03 -0.82024673018E+03  0.87070045010E+03  0.46999998093E+01 0. -1.
</event>
<event>
 5   0  0.1765328E-04  0.1891127E+04  0.7818609E-02  0.8659286E-01
       -2   -1    0    0    0  501  0.00000000000E+00  0.00000000000E+00  0.78237156718E+03  0.78237156719E+03  0.25500000920E-02 0.  1.
        2   -1    0    0  501    0  0.00000000000E+00  0.00000000000E+00 -0.11427953568E+04  0.11427953568E+04  0.25500000920E-02 0. -1.
    10030    2    1    2    0    0  0.00000000000E+00  0.00000000000E+00 -0.36042378964E+03  0.19251669240E+04  0.18911272768E+04 0.  0.
        3    1    3    3  502    0 -0.22316187631E+03  0.55376725128E+03 -0.92664322806E+03  0.11023280247E+04  0.10100000352E+00 0. -1.
       -3    1    3    3    0  502  0.22316187631E+03 -0.55376725128E+03  0.56621943842E+03  0.82283889935E+03  0.10100000352E+00 0.  1.
</event>
<event>
 5   0  0.8681396E-05  0.1909612E+04  0.7818609E-02  0.8650087E-01
       -1   -1    0    0    0  501  0.00000000000E+00  0.00000000000E+00  0.85334119913E+03  0.85334119914E+03  0.50400001928E-02 0.  1.
        1   -1    0    0  501    0  0.00000000000E+00  0.00000000000E+00 -0.10683352638E+04  0.10683352638E+04  0.50400001928E-02 0. -1.
    10030    2    1    2    0    0  0.00000000000E+00  0.00000000000E+00 -0.21499406463E+03  0.19216764629E+04  0.19096119973E+04 0.  0.
        3    1    3    3  502    0 -0.52865410074E+03  0.34209947930E+03 -0.82976913178E+03  0.10416448695E+04  0.10100000352E+00 0. -1.
       -3    1    3    3    0  502  0.52865410074E+03 -0.34209947930E+03  0.61477506715E+03  0.88003159338E+03  0.10100000352E+00 0.  1.
</event>
<event>
 5   0  0.8681396E-05  0.1897052E+04  0.7818609E-02  0.8656325E-01
        1   -1    0    0  501    0  0.00000000000E+00  0.00000000000E+00  0.17571776087E+04  0.17571776088E+04  0.50400001928E-02 0. -1.
       -1   -1    0    0    0  501  0.00000000000E+00  0.00000000000E+00 -0.51201509336E+03  0.51201509338E+03  0.50400001928E-02 0.  1.
    10030    2    1    2    0    0  0.00000000000E+00  0.00000000000E+00  0.12451625154E+04  0.22691927021E+04  0.18970518785E+04 0.  0.
        3    1    3    3  502    0 -0.74390671646E+02 -0.70349859409E+03  0.13784015552E+04  0.15493337605E+04  0.10100000352E+00 0. -1.
       -3    1    3    3    0  502  0.74390671646E+02  0.70349859409E+03 -0.13323903979E+03  0.71985894163E+03  0.10100000352E+00 0.  1.
</event>
<event>
 5   0  0.1810569E-04  0.1930006E+04  0.7818609E-02  0.8640063E-01
       -2   -1    0    0    0  501  0.00000000000E+00  0.00000000000E+00  0.12376188218E+04  0.12376188218E+04  0.25500000920E-02 0. -1.
        2   -1    0    0  501    0  0.00000000000E+00  0.00000000000E+00 -0.75243781814E+03  0.75243781814E+03  0.25500000920E-02 0.  1.
    10030    2    1    2    0    0  0.00000000000E+00  0.00000000000E+00  0.48518100369E+03  0.19900566400E+04  0.19300064311E+04 0.  0.
        4    1    3    3  502    0 -0.64904770618E+02 -0.40716977164E+03  0.11422217975E+04  0.12143607783E+04  0.12699999809E+01 0. -1.
       -4    1    3    3    0  502  0.64904770618E+02  0.40716977164E+03 -0.65704079383E+03  0.77569586170E+03  0.12699999809E+01 0.  1.
</event>
<event>
 5   0  0.8587082E-05  0.1889933E+04  0.7818609E-02  0.8659884E-01
       -1   -1    0    0    0  501  0.00000000000E+00  0.00000000000E+00  0.14625450735E+04  0.14625450735E+04  0.50400001928E-02 0.  1.
        1   -1    0    0  501    0  0.00000000000E+00  0.00000000000E+00 -0.61055335331E+03  0.61055335333E+03  0.50400001928E-02 0. -1.
    10030    2    1    2    0    0  0.00000000000E+00  0.00000000000E+00  0.85199172014E+03  0.20730984268E+04  0.18899331194E+04 0.  0.
        5    1    3    3  502    0  0.32621821776E+03 -0.39757922845E+03 -0.44358423732E+03  0.67917349336E+03  0.46999998093E+01 0. -1.
       -5    1    3    3    0  502 -0.32621821776E+03  0.39757922845E+03  0.12955759575E+04  0.13939249334E+04  0.46999998093E+01 0.  1.
</event>
<event>
 5   0  0.6375750E-05  0.1737355E+04  0.7818609E-02  0.8740342E-01
        3   -1    0    0  501    0  0.00000000000E+00  0.00000000000E+00  0.15103129120E+04  0.15103129154E+04  0.10100000352E+00 0.  1.
       -3   -1    0    0    0  501  0.00000000000E+00  0.00000000000E+00 -0.49963189670E+03  0.49963190691E+03  0.10100000352E+00 0. -1.
    10030    2    1    2    0    0  0.00000000000E+00  0.00000000000E+00  0.10106810153E+04  0.20099448223E+04  0.17373549073E+04 0.  0.
        5    1    3    3  502    0 -0.79471561470E+03 -0.33496592728E+03  0.38509336408E+03  0.94450731588E+03  0.46999998093E+01 0. -1.
       -5    1    3    3    0  502  0.79471561470E+03  0.33496592728E+03  0.62558765121E+03  0.10654375064E+04  0.46999998093E+01 0.  1.
</event>
<event>
 5   0  0.8681396E-05  0.1906223E+04  0.7818609E-02  0.8651765E-01
       -1   -1    0    0    0  501  0.00000000000E+00  0.00000000000E+00  0.76760884018E+03  0.76760884019E+03  0.50400001928E-02 0. -1.
        1   -1    0    0  501    0  0.00000000000E+00  0.00000000000E+00 -0.11834437245E+04  0.11834437245E+04  0.50400001928E-02 0.  1.
    10030    2    1    2    0    0  0.00000000000E+00  0.00000000000E+00 -0.41583488430E+03  0.19510525647E+04  0.19062233498E+04 0.  0.
        3    1    3    3  502    0 -0.10003716426E+03 -0.84878454849E+03 -0.63971464358E+03  0.10675567804E+04  0.10100000352E+00 0.  1.
       -3    1    3    3    0  502  0.10003716426E+03  0.84878454849E+03  0.22387975928E+03  0.88349578427E+03  0.10100000352E+00 0. -1.
</event>
<event>
 5   0  0.6375750E-05  0.1907646E+04  0.7818609E-02  0.8651060E-01
       -3   -1    0    0    0  501  0.00000000000E+00  0.00000000000E+00  0.54620653067E+03  0.54620654001E+03  0.10100000352E+00 0. -1.
        3   -1    0    0  501    0  0.00000000000E+00  0.00000000000E+00 -0.16656309704E+04  0.16656309734E+04  0.10100000352E+00 0.  1.
    10030    2    1    2    0    0  0.00000000000E+00  0.00000000000E+00 -0.11194244397E+04  0.22118375134E+04  0.19076462224E+04 0.  0.
        4    1    3    3  502    0  0.12125012544E+03 -0.71758700909E+03  0.15516189275E+03  0.74411661344E+03  0.12699999809E+01 0. -1.
       -4    1    3    3    0  502 -0.12125012544E+03  0.71758700909E+03 -0.12745863325E+04  0.14677209000E+04  0.12699999809E+01 0.  1.
</event>
<event>
 5   0  0.8681396E-05  0.1895994E+04  0.7818609E-02  0.8656853E-01
        1   -1    0    0  501    0  0.00000000000E+00  0.00000000000E+00  0.84795660456E+03  0.84795660457E+03  0.50400001928E-02 0. -1.
       -1   -1    0    0    0  501  0.00000000000E+00  0.00000000000E+00 -0.10598403246E+04  0.10598403246E+04  0.50400001928E-02 0.  1.
    10030    2    1    2    0    0  0.00000000000E+00  0.00000000000E+00 -0.21188372005E+03  0.19077969292E+04  0.18959943070E+04 0.  0.
        3    1    3    3  502    0 -0.27069485641E+03  0.80962706246E+03 -0.52072986908E+03  0.99996564557E+03  0.10100000352E+00 0. -1.
       -3    1    3    3    0  502  0.27069485641E+03 -0.80962706246E+03  0.30884614903E+03  0.90783128363E+03  0.10100000352E+00 0.  1.
</event>
<event>
 5   0  0.1799738E-04  0.1905455E+04  0.7818609E-02  0.8652146E-01
       -2   -1    0    0    0  501  0.00000000000E+00  0.00000000000E+00  0.32256529044E+03  0.32256529045E+03  0.25500000920E-02 0. -1.
        2   -1    0    0  501    0  0.00000000000E+00  0.00000000000E+00 -0.28139715324E+04  0.28139715324E+04  0.25500000920E-02 0.  1.
    10030    2    1    2    0    0  0.00000000000E+00  0.00000000000E+00 -0.24914062419E+04  0.31365368228E+04  0.19054548482E+04 0.  0.
        1    1    3    3  502    0  0.31422912749E+03  0.26557952806E+03 -0.26602019923E+04  0.26918296881E+04  0.50400001928E-02 0.  1.
       -1    1    3    3    0  502 -0.31422912749E+03 -0.26557952806E+03  0.16879575033E+03  0.44470713468E+03  0.50400001928E-02 0. -1.
</event>
<event>
 5   0  0.8602017E-05  0.1899845E+04  0.7818609E-02  0.8654934E-01
       -1   -1    0    0    0  501  0.00000000000E+00  0.00000000000E+00  0.74359568457E+03  0.74359568458E+03  0.50400001928E-02 0. -1.
        1   -1    0    0  501    0  0.00000000000E+00  0.00000000000E+00 -0.12134991405E+04  0.12134991405E+04  0.50400001928E-02 0.  1.
    10030    2    1    2    0    0  0.00000000000E+00  0.00000000000E+00 -0.46990345591E+03  0.19570948251E+04  0.18998449664E+04 0.  0.
        2    1    3    3  502    0  0.60941019205E+03  0.47624571602E+03  0.33317622123E+03  0.84213844384E+03  0.25500000920E-02 0. -1.
       -2    1    3    3    0  502 -0.60941019205E+03 -0.47624571602E+03 -0.80307967714E+03  0.11149563812E+04  0.25500000920E-02 0.  1.
</event>
<event>
 5   0  0.8681396E-05  0.1851906E+04  0.7818609E-02  0.8679173E-01
        1   -1    0    0  501    0  0.00000000000E+00  0.00000000000E+00  0.78889722685E+03  0.78889722686E+03  0.50400001928E-02 0. -1.
       -1   -1    0    0    0  501  0.00000000000E+00  0.00000000000E+00 -0.10868196271E+04  0.10868196271E+04  0.50400001928E-02 0.  1.
    10030    2    1    2    0    0  0.00000000000E+00  0.00000000000E+00 -0.29792240028E+03  0.18757168540E+04  0.18519060343E+04 0.  0.
        3    1    3    3  502    0  0.91156264479E+03  0.15639863040E+03 -0.10386921364E+03  0.93069641168E+03  0.10100000352E+00 0. -1.
       -3    1    3    3    0  502 -0.91156264479E+03 -0.15639863040E+03 -0.19405318663E+03  0.94502044232E+03  0.10100000352E+00 0.  1.
</event>
<event>
 5   0  0.8602017E-05  0.1844760E+04  0.7818609E-02  0.8682852E-01
       -1   -1    0    0    0  501  0.00000000000E+00  0.00000000000E+00  0.70583869000E+03  0.70583869002E+03  0.50400001928E-02 0.  1.
        1   -1    0    0  501    0  0.00000000000E+00  0.00000000000E+00 -0.12053537448E+04  0.12053537448E+04  0.50400001928E-02 0. -1.
    10030    2    1    2    0    0  0.00000000000E+00  0.00000000000E+00 -0.49951505481E+03  0.19111924348E+04  0.18447604812E+04 0.  0.
        2    1    3    3  502    0  0.62271759479E+03  0.49257715183E+03 -0.73610474562E+03  0.10827094023E+04  0.25500000920E-02 0. -1.
       -2    1    3    3    0  502 -0.62271759479E+03 -0.49257715183E+03  0.23658969081E+03  0.82848303252E+03  0.25500000920E-02 0.  1.
</event>
<event>
 5   0  0.8681396E-05  0.1896174E+04  0.7818609E-02  0.8656763E-01
        1   -1    0    0  501    0  0.00000000000E+00  0.00000000000E+00  0.12495396446E+04  0.12495396446E+04  0.50400001928E-02 0.  1.
       -1   -1    0    0    0  501  0.00000000000E+00  0.00000000000E+00 -0.71935972146E+03  0.71935972148E+03  0.50400001928E-02 0. -1.
    10030    2    1    2    0    0  0.00000000000E+00  0.00000000000E+00  0.53017992310E+03  0.19688993660E+04  0.18961735054E+04 0.  0.
        3    1    3    3  502    0 -0.63994300644E+02  0.68817994578E+03 -0.40878625023E+03  0.80299011007E+03  0.10100000352E+00 0. -1.
       -3    1    3    3    0  502  0.63994300644E+02 -0.68817994578E+03  0.93896617334E+03  0.11659092560E+04  0.10100000352E+00 0.  1.
</event>
<event>
 5   0  0.1790832E-04  0.1845037E+04  0.7818609E-02  0.8682709E-01
        2   -1    0    0  501    0  0.00000000000E+00  0.00000000000E+00  0.12641710157E+04  0.12641710158E+04  0.25500000920E-02 0.  1.
       -2   -1    0    0    0  501  0.00000000000E+00  0.00000000000E+00 -0.67320022334E+03  0.67320022334E+03  0.25500000920E-02 0. -1.
    10030    2    1    2    0    0  0.00000000000E+00  0.00000000000E+00  0.59097079241E+03  0.19373712391E+04  0.18450368128E+04 0.  0.
        5    1    3    3  502    0  0.65251231129E+03 -0.54093579135E+03  0.67790107850E+03  0.10853367261E+04  0.46999998093E+01 0.  1.
       -5    1    3    3    0  502 -0.65251231129E+03  0.54093579135E+03 -0.86930286086E+02  0.85203451302E+03  0.46999998093E+01 0. -1.
</event>
<event>
 5   0  0.1799738E-04  0.1867371E+04  0.7818609E-02  0.8671270E-01
       -2   -1    0    0    0  501  0.00000000000E+00  0.00000000000E+00  0.40454066186E+03  0.40454066187E+03  0.25500000920E-02 0. -1.
        2   -1    0    0  501    0  0.00000000000E+00  0.00000000000E+00 -0.21549597160E+04  0.21549597160E+04  0.25500000920E-02 0.  1.
    10030    2    1    2    0    0  0.00000000000E+00  0.00000000000E+00 -0.17504190541E+04  0.25595003779E+04  0.18673712323E+04 0.  0.
        1    1    3    3  502    0 -0.34016353530E+03 -0.49554695436E+02 -0.20650686241E+04  0.20934840150E+04  0.50400001928E-02 0.  1.
       -1    1    3    3    0  502  0.34016353530E+03  0.49554695436E+02  0.31464956997E+03  0.46601636291E+03  0.50400001928E-02 0. -1.
</event>
<event>
 5   0  0.8905646E-05  0.1920163E+04  0.7818609E-02  0.8644885E-01
       -1   -1    0    0    0  501  0.00000000000E+00  0.00000000000E+00  0.10326491709E+04  0.10326491709E+04  0.50400001928E-02 0.  1.
        1   -1    0    0  501    0  0.00000000000E+00  0.00000000000E+00 -0.89261319181E+03  0.89261319183E+03  0.50400001928E-02 0. -1.
    10030    2    1    2    0    0  0.00000000000E+00  0.00000000000E+00  0.14003597911E+03  0.19252623628E+04  0.19201627770E+04 0.  0.
        1    1    3    3  502    0  0.72892525743E+02 -0.94499566125E+03  0.22348052047E+03  0.97379343967E+03  0.50400001928E-02 0.  1.
       -1    1    3    3    0  502 -0.72892525743E+02  0.94499566125E+03 -0.83444541355E+02  0.95146892309E+03  0.50400001928E-02 0. -1.
</event>
<event>
 5   0  0.1658711E-04  0.1908218E+04  0.7818609E-02  0.8650777E-01
       -2   -1    0    0    0  501  0.00000000000E+00  0.00000000000E+00  0.84401164550E+03  0.84401164550E+03  0.25500000920E-02 0. -1.
        2   -1    0    0  501    0  0.00000000000E+00  0.00000000000E+00 -0.10785681196E+04  0.10785681196E+04  0.25500000920E-02 0.  1.
    10030    2    1    2    0    0  0.00000000000E+00  0.00000000000E+00 -0.23455647406E+03  0.19225797651E+04  0.19082180728E+04 0.  0.
        2    1    3    3  502    0 -0.70709829288E+03 -0.54496099986E+03 -0.45649238404E+03  0.10026743159E+04  0.25500000920E-02 0.  1.
       -2    1    3    3    0  502  0.70709829288E+03  0.54496099986E+03  0.22193590998E+03  0.91990544912E+03  0.25500000920E-02 0. -1.
</event>
<event>
 5   0  0.1790832E-04  0.1887010E+04  0.7818609E-02  0.8661350E-01
        2   -1    0    0  501    0  0.00000000000E+00  0.00000000000E+00  0.13290989563E+04  0.13290989563E+04  0.25500000920E-02 0.  1.
       -2   -1    0    0    0  501  0.00000000000E+00  0.00000000000E+00 -0.66977809020E+03  0.66977809020E+03  0.25500000920E-02 0. -1.
    10030    2    1    2    0    0  0.00000000000E+00  0.00000000000E+00  0.65932086613E+03  0.19988770465E+04  0.18870096562E+04 0.  0.
        5    1    3    3  502    0 -0.59473765229E+03  0.61231336561E+03 -0.96085297116E+02  0.85900815309E+03  0.46999998093E+01 0. -1.
       -5    1    3    3    0  502  0.59473765229E+03 -0.61231336561E+03  0.75540616324E+03  0.11398688934E+04  0.46999998093E+01 0.  1.
</event>
<event>
 5   0  0.8602017E-05  0.1827808E+04  0.7818609E-02  0.8691650E-01
        1   -1    0    0  501    0  0.00000000000E+00  0.00000000000E+00  0.64939642998E+03  0.64939643000E+03  0.50400001928E-02 0. -1.
       -1   -1    0    0    0  501  0.00000000000E+00  0.00000000000E+00 -0.12861484103E+04  0.12861484103E+04  0.50400001928E-02 0.  1.
    10030    2    1    2    0    0  0.00000000000E+00  0.00000000000E+00 -0.63675198028E+03  0.19355448403E+04  0.18278076333E+04 0.  0.
        2    1    3    3  502    0 -0.55894830550E+03 -0.10615021353E+03  0.43899371100E+03  0.71861432936E+03  0.25500000920E-02 0. -1.
       -2    1    3    3    0  502  0.55894830550E+03  0.10615021353E+03 -0.10757456913E+04  0.12169305109E+04  0.25500000920E-02 0.  1.
</event>
<event>
 5   0  0.1658711E-04  0.1871447E+04  0.7818609E-02  0.8669201E-01
        2   -1    0    0  501    0  0.00000000000E+00  0.00000000000E+00  0.13978829560E+04  0.13978829560E+04  0.25500000920E-02 0.  1.
       -2   -1    0    0    0  501  0.00000000000E+00  0.00000000000E+00 -0.62636013486E+03  0.62636013486E+03  0.25500000920E-02 0. -1.
    10030    2    1    2    0    0  0.00000000000E+00  0.00000000000E+00  0.77152282118E+03  0.20242430909E+04  0.18714466670E+04 0.  0.
        2    1    3    3  502    0  0.52544271634E+02 -0.85425861979E+03 -0.23351807875E+02  0.85619156554E+03  0.25500000920E-02 0. -1.
       -2    1    3    3    0  502 -0.52544271634E+02  0.85425861979E+03  0.79487462905E+03  0.11680515254E+04  0.25500000920E-02 0.  1.
</event>
<event>
 5   0  0.1765328E-04  0.1894107E+04  0.7818609E-02  0.8657795E-01
       -2   -1    0    0    0  501  0.00000000000E+00  0.00000000000E+00  0.61042325824E+03  0.61042325824E+03  0.25500000920E-02 0. -1.
        2   -1    0    0  501    0  0.00000000000E+00  0.00000000000E+00 -0.14693254707E+04  0.14693254707E+04  0.25500000920E-02 0.  1.
    10030    2    1    2    0    0  0.00000000000E+00  0.00000000000E+00 -0.85890221249E+03  0.20797487290E+04  0.18941071155E+04 0.  0.
        3    1    3    3  502    0 -0.32195400832E+02  0.58297398288E+03 -0.12481980142E+04  0.13780034476E+04  0.10100000352E+00 0.  1.
       -3    1    3    3    0  502  0.32195400832E+02 -0.58297398288E+03  0.38929580174E+03  0.70174528142E+03  0.10100000352E+00 0. -1.
</event>
<event>
 5   0  0.6375750E-05  0.1873901E+04  0.7818609E-02  0.8667958E-01
        3   -1    0    0  501    0  0.00000000000E+00  0.00000000000E+00  0.72917758404E+03  0.72917759104E+03  0.10100000352E+00 0.  1.
       -3   -1    0    0    0  501  0.00000000000E+00  0.00000000000E+00 -0.12039267784E+04  0.12039267826E+04  0.10100000352E+00 0. -1.
    10030    2    1    2    0    0  0.00000000000E+00  0.00000000000E+00 -0.47474919433E+03  0.19331043736E+04  0.18739012039E+04 0.  0.
        2    1    3    3  502    0  0.27699759379E+03 -0.16593357309E+03  0.66996737610E+03  0.74371896754E+03  0.25500000920E-02 0.  1.
       -2    1    3    3    0  502 -0.27699759379E+03  0.16593357309E+03 -0.11447165704E+04  0.11893854061E+04  0.25500000920E-02 0. -1.
</event>
<event>
 5   0  0.8587082E-05  0.1891466E+04  0.7818609E-02  0.8659116E-01
       -1   -1    0    0    0  501  0.00000000000E+00  0.00000000000E+00  0.15342348222E+04  0.15342348222E+04  0.50400001928E-02 0.  1.
        1   -1    0    0  501    0  0.00000000000E+00  0.00000000000E+00 -0.58296844719E+03  0.58296844722E+03  0.50400001928E-02 0. -1.
    10030    2    1    2    0    0  0.00000000000E+00  0.00000000000E+00  0.95126637504E+03  0.21172032695E+04  0.18914655609E+04 0.  0.
        5    1    3    3  502    0  0.91668187255E+03  0.11322790759E+02  0.73563604357E+03  0.11754217710E+04  0.46999998093E+01 0.  1.
       -5    1    3    3    0  502 -0.91668187255E+03 -0.11322790759E+02  0.21563033147E+03  0.94178149849E+03  0.46999998093E+01 0. -1.
</event>
<event>
 5   0  0.1799738E-04  0.1896373E+04  0.7818609E-02  0.8656664E-01
        2   -1    0    0  501    0  0.00000000000E+00  0.00000000000E+00  0.15269209025E+04  0.15269209025E+04  0.25500000920E-02 0. -1.
       -2   -1    0    0    0  501  0.00000000000E+00  0.00000000000E+00 -0.58880411869E+03  0.58880411870E+03  0.25500000920E-02 0.  1.
    10030    2    1    2    0    0  0.00000000000E+00  0.00000000000E+00  0.93811678381E+03  0.21157250212E+04  0.18963726599E+04 0.  0.
        1    1    3    3  502    0 -0.17543110899E+03  0.17183128206E+02 -0.57036357895E+03  0.59698069158E+03  0.50400001928E-02 0.  1.
       -1    1    3    3    0  502  0.17543110899E+03 -0.17183128206E+02  0.15084803628E+04  0.15187443296E+04  0.50400001928E-02 0. -1.
</event>
<event>
 5   0  0.8567844E-05  0.2177561E+04  0.7818609E-02  0.8527826E-01
       -1   -1    0    0    0  501  0.00000000000E+00  0.00000000000E+00  0.48042374527E+03  0.48042374529E+03  0.50400001928E-02 0. -1.
        1   -1    0    0  501    0  0.00000000000E+00  0.00000000000E+00 -0.24674939751E+04  0.24674939751E+04  0.50400001928E-02 0.  1.
    10030    2    1    2    0    0  0.00000000000E+00  0.00000000000E+00 -0.19870702298E+04  0.29479177204E+04  0.21775607427E+04 0.  0.
        4    1    3    3  502    0  0.98359830736E+03  0.43111897123E+03 -0.12361279608E+04  0.16374807315E+04  0.12699999809E+01 0.  1.
       -4    1    3    3    0  502 -0.98359830736E+03 -0.43111897123E+03 -0.75094226902E+03  0.13104369889E+04  0.12699999809E+01 0. -1.
</event>
<event>
 5   0  0.8602017E-05  0.1904314E+04  0.7818609E-02  0.8652712E-01
        1   -1    0    0  501    0  0.00000000000E+00  0.00000000000E+00  0.16597287788E+04  0.16597287788E+04  0.50400001928E-02 0. -1.
       -1   -1    0    0    0  501  0.00000000000E+00  0.00000000000E+00 -0.54623582290E+03  0.54623582292E+03  0.50400001928E-02 0.  1.
    10030    2    1    2    0    0  0.00000000000E+00  0.00000000000E+00  0.11134929559E+04  0.22059646017E+04  0.19043143809E+04 0.  0.
        2    1    3    3  502    0  0.59278816481E+03  0.89650726163E+01  0.14198349934E+04  0.15386388756E+04  0.25500000920E-02 0. -1.
       -2    1    3    3    0  502 -0.59278816481E+03 -0.89650726163E+01 -0.30634203751E+03  0.66732572617E+03  0.25500000920E-02 0.  1.
</event>
<event>
 5   0  0.1810569E-04  0.1892737E+04  0.7818609E-02  0.8658480E-01
       -2   -1    0    0    0  501  0.00000000000E+00  0.00000000000E+00  0.97147721664E+03  0.97147721664E+03  0.25500000920E-02 0.  1.
        2   -1    0    0  501    0  0.00000000000E+00  0.00000000000E+00 -0.92190922696E+03  0.92190922696E+03  0.25500000920E-02 0. -1.
    10030    2    1    2    0    0  0.00000000000E+00  0.00000000000E+00  0.49567989677E+02  0.18933864436E+04  0.18927374988E+04 0.  0.
        4    1    3    3  502    0 -0.27388783713E+03  0.53056011342E+03 -0.70970450311E+03  0.92746464942E+03  0.12699999809E+01 0. -1.
       -4    1    3    3    0  502  0.27388783713E+03 -0.53056011342E+03  0.75927249279E+03  0.96592179419E+03  0.12699999809E+01 0.  1.
</event>
<event>
 5   0  0.1658711E-04  0.1894149E+04  0.7818609E-02  0.8657774E-01
        2   -1    0    0  501    0  0.00000000000E+00  0.00000000000E+00  0.89242012529E+03  0.89242012530E+03  0.25500000920E-02 0. -1.
       -2   -1    0    0    0  501  0.00000000000E+00  0.00000000000E+00 -0.10050765570E+04  0.10050765570E+04  0.25500000920E-02 0.  1.
    10030    2    1    2    0    0  0.00000000000E+00  0.00000000000E+00 -0.11265643169E+03  0.18974966823E+04  0.18941494629E+04 0.  0.
        2    1    3    3  502    0  0.30552259345E+02 -0.18287810088E+03 -0.98671736373E+03  0.10039865518E+04  0.25500000920E-02 0.  1.
       -2    1    3    3    0  502 -0.30552259345E+02  0.18287810088E+03  0.87406093204E+03  0.89351013047E+03  0.25500000920E-02 0. -1.
</event>
<event>
 5   0  0.1765328E-04  0.1908156E+04  0.7818609E-02  0.8650807E-01
        2   -1    0    0  501    0  0.00000000000E+00  0.00000000000E+00  0.15604892035E+04  0.15604892035E+04  0.25500000920E-02 0. -1.
       -2   -1    0    0    0  501  0.00000000000E+00  0.00000000000E+00 -0.58332016952E+03  0.58332016953E+03  0.25500000920E-02 0.  1.
    10030    2    1    2    0    0  0.00000000000E+00  0.00000000000E+00  0.97716903397E+03  0.21438093730E+04  0.19081559965E+04 0.  0.
        3    1    3    3  502    0  0.71889474039E+03  0.28122970754E+03  0.11185103179E+04  0.13590309553E+04  0.10100000352E+00 0. -1.
       -3    1    3    3    0  502 -0.71889474039E+03 -0.28122970754E+03 -0.14134128388E+03  0.78477841770E+03  0.10100000352E+00 0.  1.
</event>
<event>
 5   0  0.6375750E-05  0.1926447E+04  0.7818609E-02  0.8641803E-01
       -4   -1    0    0    0  501  0.00000000000E+00  0.00000000000E+00  0.62456090336E+03  0.62456219458E+03  0.12699999809E+01 0. -1.
        4   -1    0    0  501    0  0.00000000000E+00  0.00000000000E+00 -0.14855202894E+04  0.14855208323E+04  0.12699999809E+01 0.  1.
    10030    2    1    2    0    0  0.00000000000E+00  0.00000000000E+00 -0.86095938604E+03  0.21100830268E+04  0.19264473301E+04 0.  0.
        5    1    3    3  502    0 -0.23482430309E+03  0.22623061678E+03  0.56225749619E+03  0.64998332849E+03  0.46999998093E+01 0. -1.
       -5    1    3    3    0  502  0.23482430309E+03 -0.22623061678E+03 -0.14232168822E+04  0.14600996984E+04  0.46999998093E+01 0.  1.
</event>
<event>
 5   0  0.1810569E-04  0.1895528E+04  0.7818609E-02  0.8657086E-01
       -2   -1    0    0    0  501  0.00000000000E+00  0.00000000000E+00  0.16644037847E+04  0.16644037847E+04  0.25500000920E-02 0. -1.
        2   -1    0    0  501    0  0.00000000000E+00  0.00000000000E+00 -0.53968667581E+03  0.53968667581E+03  0.25500000920E-02 0.  1.
    10030    2    1    2    0    0  0.00000000000E+00  0.00000000000E+00  0.11247171089E+04  0.22040904605E+04  0.18955279431E+04 0.  0.
        4    1    3    3  502    0  0.21125015741E+03  0.92157869937E+03  0.63879343574E+03  0.11410489011E+04  0.12699999809E+01 0.  1.
       -4    1    3    3    0  502 -0.21125015741E+03 -0.92157869937E+03  0.48592367318E+03  0.10630415595E+04  0.12699999809E+01 0. -1.
</event>
<event>
 5   0  0.1765328E-04  0.1918830E+04  0.7818609E-02  0.8645540E-01
       -2   -1    0    0    0  501  0.00000000000E+00  0.00000000000E+00  0.79481520698E+03  0.79481520698E+03  0.25500000920E-02 0. -1.
        2   -1    0    0  501    0  0.00000000000E+00  0.00000000000E+00 -0.11581020559E+04  0.11581020559E+04  0.25500000920E-02 0.  1.
    10030    2    1    2    0    0  0.00000000000E+00  0.00000000000E+00 -0.36328684890E+03  0.19529172629E+04  0.19188299823E+04 0.  0.
        3    1    3    3  502    0  0.63949074995E+03 -0.14922500297E+03  0.53025407553E+03  0.84402957034E+03  0.10100000352E+00 0. -1.
       -3    1    3    3    0  502 -0.63949074995E+03  0.14922500297E+03 -0.89354092443E+03  0.11088876925E+04  0.10100000352E+00 0.  1.
</event>
<event>
 5   0  0.8681396E-05  0.1908679E+04  0.7818609E-02  0.8650549E-01
        1   -1    0    0  501    0  0.00000000000E+00  0.00000000000E+00  0.15042056754E+04  0.15042056754E+04  0.50400001928E-02 0.  1.
       -1   -1    0    0    0  501  0.00000000000E+00  0.00000000000E+00 -0.60547800440E+03  0.60547800442E+03  0.50400001928E-02 0. -1.
    10030    2    1    2    0    0  0.00000000000E+00  0.00000000000E+00  0.89872767096E+03  0.21096836798E+04  0.19086785487E+04 0.  0.
        3    1    3    3  502    0  0.38257074827E+03 -0.10946927109E+03  0.14081341609E+04  0.14632790999E+04  0.10100000352E+00 0.  1.
       -3    1    3    3    0  502 -0.38257074827E+03  0.10946927109E+03 -0.50940648995E+03  0.64640457993E+03  0.10100000352E+00 0. -1.
</event>
<event>
 5   0  0.1765328E-04  0.1861260E+04  0.7818609E-02  0.8674384E-01
        2   -1    0    0  501    0  0.00000000000E+00  0.00000000000E+00  0.17334049528E+04  0.17334049528E+04  0.25500000920E-02 0. -1.
       -2   -1    0    0    0  501  0.00000000000E+00  0.00000000000E+00 -0.49963645148E+03  0.49963645149E+03  0.25500000920E-02 0.  1.
    10030    2    1    2    0    0  0.00000000000E+00  0.00000000000E+00  0.12337685013E+04  0.22330414043E+04  0.18612601104E+04 0.  0.
        3    1    3    3  502    0  0.87852597976E+03 -0.28603542585E+03  0.75074144534E+03  0.11904775890E+04  0.10100000352E+00 0. -1.
       -3    1    3    3    0  502 -0.87852597976E+03  0.28603542585E+03  0.48302705599E+03  0.10425638153E+04  0.10100000352E+00 0.  1.
</event>
<event>
 5   0  0.8602017E-05  0.1845402E+04  0.7818609E-02  0.8682521E-01
       -1   -1    0    0    0  501  0.00000000000E+00  0.00000000000E+00  0.79380363900E+03  0.79380363902E+03  0.50400001928E-02 0.  1.
        1   -1    0    0  501    0  0.00000000000E+00  0.00000000000E+00 -0.10725282225E+04  0.10725282225E+04  0.50400001928E-02 0. -1.
    10030    2    1    2    0    0  0.00000000000E+00  0.00000000000E+00 -0.27872458346E+03  0.18663318615E+04  0.18454016429E+04 0.  0.
        2    1    3    3  502    0 -0.57397044736E+03  0.71956133146E+03 -0.20464064026E+03  0.94291482958E+03  0.25500000920E-02 0. -1.
       -2    1    3    3    0  502  0.57397044736E+03 -0.71956133146E+03 -0.74083943199E+02  0.92341703191E+03  0.25500000920E-02 0.  1.
</event>
<event>
 5   0  0.8905646E-05  0.1885774E+04  0.7818609E-02  0.8661970E-01
       -1   -1    0    0    0  501  0.00000000000E+00  0.00000000000E+00  0.44087728803E+03  0.44087728806E+03  0.50400001928E-02 0.  1.
        1   -1    0    0  501    0  0.00000000000E+00  0.00000000000E+00 -0.20165146964E+04  0.20165146964E+04  0.50400001928E-02 0. -1.
    10030    2    1    2    0    0  0.00000000000E+00  0.00000000000E+00 -0.15756374084E+04  0.24573919845E+04  0.18857736138E+04 0.  0.
        1    1    3    3  502    0 -0.40520012082E+03 -0.43322059197E+03 -0.17428994175E+04  0.18410772930E+04  0.50400001928E-02 0. -1.
       -1    1    3    3    0  502  0.40520012082E+03  0.43322059197E+03  0.16726200913E+03  0.61631469148E+03  0.50400001928E-02 0.  1.
</event>
<event>
 5   0  0.1810569E-04  0.1874136E+04  0.7818609E-02  0.8667839E-01
       -2   -1    0    0    0  501  0.00000000000E+00  0.00000000000E+00  0.10851102307E+04  0.10851102307E+04  0.25500000920E-02 0. -1.
        2   -1    0    0  501    0  0.00000000000E+00  0.00000000000E+00 -0.80922304778E+03  0.80922304778E+03  0.25500000920E-02 0.  1.
    10030    2    1    2    0    0  0.00000000000E+00  0.00000000000E+00  0.27588718291E+03  0.18943332785E+04  0.18741357561E+04 0.  0.
        4    1    3    3  502    0 -0.26314698812E+03  0.89815334592E+03  0.90871055094E+02  0.94031108240E+03  0.12699999809E+01 0. -1.
       -4    1    3    3    0  502  0.26314698812E+03 -0.89815334592E+03  0.18501612781E+03  0.95402219607E+03  0.12699999809E+01 0.  1.
</event>
<event>
 5   0  0.1810569E-04  0.1940174E+04  0.7818609E-02  0.8635113E-01
        2   -1    0    0  501    0  0.00000000000E+00  0.00000000000E+00  0.14837901955E+04  0.14837901955E+04  0.25500000920E-02 0. -1.
       -2   -1    0    0    0  501  0.00000000000E+00  0.00000000000E+00 -0.63423330687E+03  0.63423330687E+03  0.25500000920E-02 0.  1.
    10030    2    1    2    0    0  0.00000000000E+00  0.00000000000E+00  0.84955688858E+03  0.21180235023E+04  0.19401743864E+04 0.  0.
        4    1    3    3  502    0 -0.61677064483E+03 -0.32781549251E+03 -0.31013171563E+03  0.76423315774E+03  0.12699999809E+01 0.  1.
       -4    1    3    3    0  502  0.61677064483E+03  0.32781549251E+03  0.11596886042E+04  0.13537903446E+04  0.12699999809E+01 0. -1.
</event>
<event>
 5   0  0.1810569E-04  0.1895073E+04  0.7818609E-02  0.8657313E-01
        2   -1    0    0  501    0  0.00000000000E+00  0.00000000000E+00  0.71918600888E+03  0.71918600888E+03  0.25500000920E-02 0. -1.
       -2   -1    0    0    0  501  0.00000000000E+00  0.00000000000E+00 -0.12483908365E+04  0.12483908366E+04  0.25500000920E-02 0.  1.
    10030    2    1    2    0    0  0.00000000000E+00  0.00000000000E+00 -0.52920482767E+03  0.19675768454E+04  0.18950727936E+04 0.  0.
        4    1    3    3  502    0 -0.63947830028E+03  0.18539314609E+03  0.43537260668E+03  0.79552123459E+03  0.12699999809E+01 0. -1.
       -4    1    3    3    0  502  0.63947830028E+03 -0.18539314609E+03 -0.96457743435E+03  0.11720556108E+04  0.12699999809E+01 0.  1.
</event>
<event>
 5   0  0.6375750E-05  0.1905421E+04  0.7818609E-02  0.8652163E-01
       -3   -1    0    0    0  501  0.00000000000E+00  0.00000000000E+00  0.98710628445E+03  0.98710628962E+03  0.10100000352E+00 0. -1.
        3   -1    0    0  501    0  0.00000000000E+00  0.00000000000E+00 -0.91951296466E+03  0.91951297021E+03  0.10100000352E+00 0.  1.
    10030    2    1    2    0    0  0.00000000000E+00  0.00000000000E+00  0.67593319787E+02  0.19066192598E+04  0.19054207265E+04 0.  0.
        5    1    3    3  502    0 -0.17555663109E+03 -0.90086326513E+03  0.28941809456E+03  0.96237190141E+03  0.46999998093E+01 0. -1.
       -5    1    3    3    0  502  0.17555663109E+03  0.90086326513E+03 -0.22182477478E+03  0.94424735842E+03  0.46999998093E+01 0.  1.
</event>
<event>
 5   0  0.8905646E-05  0.1936815E+04  0.7818609E-02  0.8636745E-01
        1   -1    0    0  501    0  0.00000000000E+00  0.00000000000E+00  0.74172272551E+03  0.74172272553E+03  0.50400001928E-02 0.  1.
       -1   -1    0    0    0  501  0.00000000000E+00  0.00000000000E+00 -0.12643712060E+04  0.12643712060E+04  0.50400001928E-02 0. -1.
    10030    2    1    2    0    0  0.00000000000E+00  0.00000000000E+00 -0.52264848052E+03  0.20060939316E+04  0.19368147635E+04 0.  0.
        1    1    3    3  502    0 -0.43844666950E+02 -0.48055432823E+03  0.60832638038E+03  0.77647653042E+03  0.50400001928E-02 0.  1.
       -1    1    3    3    0  502  0.43844666950E+02  0.48055432823E+03 -0.11309748609E+04  0.12296174011E+04  0.50400001928E-02 0. -1.
</event>
<event>
 5   0  0.1765328E-04  0.1890045E+04  0.7818609E-02  0.8659828E-01
        2   -1    0    0  501    0  0.00000000000E+00  0.00000000000E+00  0.17489572232E+04  0.17489572232E+04  0.25500000920E-02 0.  1.
       -2   -1    0    0    0  501  0.00000000000E+00  0.00000000000E+00 -0.51062843431E+03  0.51062843431E+03  0.25500000920E-02 0. -1.
    10030    2    1    2    0    0  0.00000000000E+00  0.00000000000E+00  0.12383287889E+04  0.22595856575E+04  0.18900447493E+04 0.  0.
        3    1    3    3  502    0  0.74630747708E+02 -0.87497296105E+03  0.10366042655E+04  0.13585638905E+04  0.10100000352E+00 0.  1.
       -3    1    3    3    0  502 -0.74630747708E+02  0.87497296105E+03  0.20172452336E+03  0.90102176700E+03  0.10100000352E+00 0. -1.
</event>
<event>
 5   0  0.1799738E-04  0.1894015E+04  0.7818609E-02  0.8657841E-01
        2   -1    0    0  501    0  0.00000000000E+00  0.00000000000E+00  0.20764289267E+04  0.20764289267E+04  0.25500000920E-02 0. -1.
       -2   -1    0    0    0  501  0.00000000000E+00  0.00000000000E+00 -0.43190642710E+03  0.43190642711E+03  0.25500000920E-02 0.  1.
    10030    2    1    2    0    0  0.00000000000E+00  0.00000000000E+00  0.16445224996E+04  0.25083353538E+04  0.18940147823E+04 0.  0.
        1    1    3    3  502    0 -0.64006557294E+03 -0.48155939984E+03  0.14913385065E+04  0.16928301551E+04  0.50400001928E-02 0. -1.
       -1    1    3    3    0  502  0.64006557294E+03  0.48155939984E+03  0.15318399308E+03  0.81550519863E+03  0.50400001928E-02 0.  1.
</event>
<event>
 5   0  0.8602017E-05  0.1897610E+04  0.7818609E-02  0.8656047E-01
       -1   -1    0    0    0  501  0.00000000000E+00  0.00000000000E+00  0.65906230132E+03  0.65906230134E+03  0.50400001928E-02 0.  1.
        1   -1    0    0  501    0  0.00000000000E+00  0.00000000000E+00 -0.13659274980E+04  0.13659274980E+04  0.50400001928E-02 0. -1.
    10030    2    1    2    0    0  0.00000000000E+00  0.00000000000E+00 -0.70686519667E+03  0.20249897993E+04  0.18976104134E+04 0.  0.
        2    1    3    3  502    0 -0.38540097261E+03  0.75070481230E+03  0.10943417167E+03  0.85092153741E+03  0.25500000920E-02 0.  1.
       -2    1    3    3    0  502  0.38540097261E+03 -0.75070481230E+03 -0.81629936834E+03  0.11740682619E+04  0.25500000920E-02 0. -1.
</event>
<event>
 5   0  0.8905646E-05  0.1907126E+04  0.7818609E-02  0.8651317E-01
       -1   -1    0    0    0  501  0.00000000000E+00  0.00000000000E+00  0.78711356703E+03  0.78711356704E+03  0.50400001928E-02 0.  1.
        1   -1    0    0  501    0  0.00000000000E+00  0.00000000000E+00 -0.11552112081E+04  0.11552112081E+04  0.50400001928E-02 0. -1.
    10030    2    1    2    0    0  0.00000000000E+00  0.00000000000E+00 -0.36809764110E+03  0.19423247752E+04  0.19071260207E+04 0.  0.
        1    1    3    3  502    0  0.68547964301E+02  0.86979531238E+03  0.20781174856E+03  0.89689934314E+03  0.50400001928E-02 0.  1.
       -1    1    3    3    0  502 -0.68547964301E+02 -0.86979531238E+03 -0.57590938966E+03  0.10454254321E+04  0.50400001928E-02 0. -1.
</event>
<event>
 5   0  0.8602017E-05  0.1839143E+04  0.7818609E-02  0.8685756E-01
       -1   -1    0    0    0  501  0.00000000000E+00  0.00000000000E+00  0.96183396692E+03  0.96183396693E+03  0.50400001928E-02 0. -1.
        1   -1    0    0  501    0  0.00000000000E+00  0.00000000000E+00 -0.87916584058E+03  0.87916584059E+03  0.50400001928E-02 0.  1.
    10030    2    1    2    0    0  0.00000000000E+00  0.00000000000E+00  0.82668126339E+02  0.18409998075E+04  0.18391428091E+04 0.  0.
        2    1    3    3  502    0 -0.22731146517E+03 -0.42946187909E+03 -0.74016131347E+03  0.88540769014E+03  0.25500000920E-02 0.  1.
       -2    1    3    3    0  502  0.22731146517E+03  0.42946187909E+03  0.82282943981E+03  0.95559211739E+03  0.25500000920E-02 0. -1.
</event>
<event>
 5   0  0.1765328E-04  0.1907341E+04  0.7818609E-02  0.8651211E-01
        2   -1    0    0  501    0  0.00000000000E+00  0.00000000000E+00  0.15622033224E+04  0.15622033224E+04  0.25500000920E-02 0.  1.
       -2   -1    0    0    0  501  0.00000000000E+00  0.00000000000E+00 -0.58218254708E+03  0.58218254708E+03  0.25500000920E-02 0. -1.
    10030    2    1    2    0    0  0.00000000000E+00  0.00000000000E+00  0.98002077530E+03  0.21443858695E+04  0.19073410909E+04 0.  0.
        3    1    3    3  502    0  0.10645536544E+03 -0.39704646339E+03  0.14574852757E+04  0.15143453959E+04  0.10100000352E+00 0.  1.
       -3    1    3    3    0  502 -0.10645536544E+03  0.39704646339E+03 -0.47746450044E+03  0.63004047355E+03  0.10100000352E+00 0. -1.
</event>
<event>
 5   0  0.8602017E-05  0.1906275E+04  0.7818609E-02  0.8651739E-01
       -1   -1    0    0    0  501  0.00000000000E+00  0.00000000000E+00  0.77903270925E+03  0.77903270927E+03  0.50400001928E-02 0.  1.
        1   -1    0    0  501    0  0.00000000000E+00  0.00000000000E+00 -0.11661526673E+04  0.11661526673E+04  0.50400001928E-02 0. -1.
    10030    2    1    2    0    0  0.00000000000E+00  0.00000000000E+00 -0.38711995800E+03  0.19451853765E+04  0.19062749768E+04 0.  0.
        2    1    3    3  502    0  0.65200043404E+03 -0.40952294891E+03  0.37974204867E+03  0.85849731229E+03  0.25500000920E-02 0.  1.
       -2    1    3    3    0  502 -0.65200043404E+03  0.40952294891E+03 -0.76686200667E+03  0.10866880642E+04  0.25500000920E-02 0. -1.
</event>
<event>
 5   0  0.1658711E-04  0.1904065E+04  0.7818609E-02  0.8652835E-01
       -2   -1    0    0    0  501  0.00000000000E+00  0.00000000000E+00  0.45441853965E+03  0.45441853966E+03  0.25500000920E-02 0. -1.
        2   -1    0    0  501    0  0.00000000000E+00  0.00000000000E+00 -0.19945628124E+04  0.19945628124E+04  0.25500000920E-02 0.  1.
    10030    2    1    2    0    0  0.00000000000E+00  0.00000000000E+00 -0.15401442728E+04  0.24489813521E+04  0.19040654616E+04 0.  0.
        2    1    3    3  502    0 -0.69943828171E+03  0.27627971694E+03 -0.19197615791E+02  0.75227185270E+03  0.25500000920E-02 0. -1.
       -2    1    3    3    0  502  0.69943828171E+03 -0.27627971694E+03 -0.15209466570E+04  0.16967094994E+04  0.25500000920E-02 0.  1.
</event>
<event>
 5   0  0.8681396E-05  0.1893103E+04  0.7818609E-02  0.8658297E-01
        1   -1    0    0  501    0  0.00000000000E+00  0.00000000000E+00  0.21932671846E+04  0.21932671846E+04  0.50400001928E-02 0. -1.
       -1   -1    0    0    0  501  0.00000000000E+00  0.00000000000E+00 -0.40850467945E+03  0.40850467948E+03  0.50400001928E-02 0.  1.
    10030    2    1    2    0    0  0.00000000000E+00  0.00000000000E+00  0.17847625052E+04  0.26017718641E+04  0.18931031755E+04 0.  0.
        3    1    3    3  502    0  0.18976675100E+03 -0.88138571645E+03  0.49618026567E+03  0.10291001250E+04  0.10100000352E+00 0. -1.
       -3    1    3    3    0  502 -0.18976675100E+03  0.88138571645E+03  0.12885822395E+04  0.15726717391E+04  0.10100000352E+00 0.  1.
</event>
<event>
 5   0  0.8905646E-05  0.1897102E+04  0.7818609E-02  0.8656300E-01
        1   -1    0    0  501    0  0.00000000000E+00  0.00000000000E+00  0.87290124925E+03  0.87290124927E+03  0.50400001928E-02 0.  1.
       -1   -1    0    0    0  501  0.00000000000E+00  0.00000000000E+00 -0.10307573480E+04  0.10307573480E+04  0.50400001928E-02 0. -1.
    10030    2    1    2    0    0  0.00000000000E+00  0.00000000000E+00 -0.15785609877E+03  0.19036585973E+04  0.18971023976E+04 0.  0.
        1    1    3    3  502    0  0.14413863714E+02  0.91154331511E+03 -0.34180745425E+03  0.97362791178E+03  0.50400001928E-02 0. -1.
       -1    1    3    3    0  502 -0.14413863714E+02 -0.91154331511E+03  0.18395135548E+03  0.93003068552E+03  0.50400001928E-02 0.  1.
</event>
<event>
 5   0  0.1810569E-04  0.1911954E+04  0.7818609E-02  0.8648929E-01
       -2   -1    0    0    0  501  0.00000000000E+00  0.00000000000E+00  0.58817617408E+03  0.58817617409E+03  0.25500000920E-02 0. -1.
        2   -1    0    0  501    0  0.00000000000E+00  0.00000000000E+00 -0.15537727494E+04  0.15537727494E+04  0.25500000920E-02 0.  1.
    10030    2    1    2    0    0  0.00000000000E+00  0.00000000000E+00 -0.96559657536E+03  0.21419489235E+04  0.19119540906E+04 0.  0.
        4    1    3    3  502    0 -0.63375187789E+03 -0.63699845323E+03 -0.11722891479E+03  0.90617476433E+03  0.12699999809E+01 0.  1.
       -4    1    3    3    0  502  0.63375187789E+03  0.63699845323E+03 -0.84836766056E+03  0.12357741592E+04  0.12699999809E+01 0. -1.
</event>
<event>
 5   0  0.1790832E-04  0.1817094E+04  0.7818609E-02  0.8697262E-01
       -2   -1    0    0    0  501  0.00000000000E+00  0.00000000000E+00  0.12263572370E+04  0.12263572370E+04  0.25500000920E-02 0.  1.
        2   -1    0    0  501    0  0.00000000000E+00  0.00000000000E+00 -0.67309709167E+03  0.67309709167E+03  0.25500000920E-02 0. -1.
    10030    2    1    2    0    0  0.00000000000E+00  0.00000000000E+00  0.55326014535E+03  0.18994543287E+04  0.18170938221E+04 0.  0.
        5    1    3    3  502    0  0.22411866173E+02 -0.49303523688E+03 -0.52073422387E+03  0.71747631212E+03  0.46999998093E+01 0. -1.
       -5    1    3    3    0  502 -0.22411866173E+02  0.49303523688E+03  0.10739943692E+04  0.11819780166E+04  0.46999998093E+01 0.  1.
</event>
<event>
 5   0  0.8602017E-05  0.1913710E+04  0.7818609E-02  0.8648062E-01
        1   -1    0    0  501    0  0.00000000000E+00  0.00000000000E+00  0.67445723548E+03  0.67445723550E+03  0.50400001928E-02 0. -1.
       -1   -1    0    0    0  501  0.00000000000E+00  0.00000000000E+00 -0.13574944643E+04  0.13574944643E+04  0.50400001928E-02 0.  1.
    10030    2    1    2    0    0  0.00000000000E+00  0.00000000000E+00 -0.68303722881E+03  0.20319516998E+04  0.19137104939E+04 0.  0.
        2    1    3    3  502    0 -0.15391426876E+03  0.16608149023E+03  0.64559972974E+03  0.68415763869E+03  0.25500000920E-02 0. -1.
       -2    1    3    3    0  502  0.15391426876E+03 -0.16608149023E+03 -0.13286369586E+04  0.13477940611E+04  0.25500000920E-02 0.  1.
</event>
<event>
 5   0  0.8602017E-05  0.1922724E+04  0.7818609E-02  0.8643627E-01
       -1   -1    0    0    0  501  0.00000000000E+00  0.00000000000E+00  0.41102927775E+03  0.41102927778E+03  0.50400001928E-02 0.  1.
        1   -1    0    0  501    0  0.00000000000E+00  0.00000000000E+00 -0.22485417587E+04  0.22485417587E+04  0.50400001928E-02 0. -1.
    10030    2    1    2    0    0  0.00000000000E+00  0.00000000000E+00 -0.18375124810E+04  0.26595710365E+04  0.19227235840E+04 0.  0.
        2    1    3    3  502    0 -0.75582607550E+03 -0.58079083607E+03 -0.74584990090E+03  0.12103235627E+04  0.25500000920E-02 0.  1.
       -2    1    3    3    0  502  0.75582607550E+03  0.58079083607E+03 -0.10916625801E+04  0.14492474738E+04  0.25500000920E-02 0. -1.
</event>
<event>
 5   0  0.8905646E-05  0.1904322E+04  0.7818609E-02  0.8652708E-01
        1   -1    0    0  501    0  0.00000000000E+00  0.00000000000E+00  0.15893149863E+04  0.15893149863E+04  0.50400001928E-02 0. -1.
       -1   -1    0    0    0  501  0.00000000000E+00  0.00000000000E+00 -0.57044104460E+03  0.57044104462E+03  0.50400001928E-02 0.  1.
    10030    2    1    2    0    0  0.00000000000E+00  0.00000000000E+00  0.10188739417E+04  0.21597560310E+04  0.19043219277E+04 0.  0.
        1    1    3    3  502    0  0.86630012769E+03  0.27686852403E+03  0.82917103854E+03  0.12307138993E+04  0.50400001928E-02 0. -1.
       -1    1    3    3    0  502 -0.86630012769E+03 -0.27686852403E+03  0.18970290320E+03  0.92904213163E+03  0.50400001928E-02 0.  1.
</event>
<event>
 5   0  0.8587082E-05  0.1882964E+04  0.7818609E-02  0.8663383E-01
        1   -1    0    0  501    0  0.00000000000E+00  0.00000000000E+00  0.22320974027E+04  0.22320974027E+04  0.50400001928E-02 0.  1.
       -1   -1    0    0    0  501  0.00000000000E+00  0.00000000000E+00 -0.39711022245E+03  0.39711022248E+03  0.50400001928E-02 0. -1.
    10030    2    1    2    0    0  0.00000000000E+00  0.00000000000E+00  0.18349871803E+04  0.26292076252E+04  0.18829643610E+04 0.  0.
        5    1    3    3  502    0 -0.54619326703E+03  0.22621196027E+01  0.19882338957E+04  0.20618992012E+04  0.46999998093E+01 0.  1.
       -5    1    3    3    0  502  0.54619326703E+03 -0.22621196027E+01 -0.15324671539E+03  0.56730842398E+03  0.46999998093E+01 0. -1.
</event>
<event>
 5   0  0.8681396E-05  0.1927517E+04  0.7818609E-02  0.8641280E-01
       -1   -1    0    0    0  501  0.00000000000E+00  0.00000000000E+00  0.35536431483E+03  0.35536431487E+03  0.50400001928E-02 0.  1.
        1   -1    0    0  501    0  0.00000000000E+00  0.00000000000E+00 -0.26137405407E+04  0.26137405407E+04  0.50400001928E-02 0. -1.
    10030    2    1    2    0    0  0.00000000000E+00  0.00000000000E+00 -0.22583762258E+04  0.29691048555E+04  0.19275166577E+04 0.  0.
        3    1    3    3  502    0  0.73839467479E+03  0.60909569704E+03 -0.95624099435E+03  0.13530044765E+04  0.10100000352E+00 0.  1.
       -3    1    3    3    0  502 -0.73839467479E+03 -0.60909569704E+03 -0.13021352315E+04  0.16161003790E+04  0.10100000352E+00 0. -1.
</event>
<event>
 5   0  0.1799738E-04  0.1910116E+04  0.7818609E-02  0.8649837E-01
        2   -1    0    0  501    0  0.00000000000E+00  0.00000000000E+00  0.60757414667E+03  0.60757414668E+03  0.25500000920E-02 0. -1.
       -2   -1    0    0    0  501  0.00000000000E+00  0.00000000000E+00 -0.15012751789E+04  0.15012751789E+04  0.25500000920E-02 0.  1.
    10030    2    1    2    0    0  0.00000000000E+00  0.00000000000E+00 -0.89370103225E+03  0.21088493256E+04  0.19101162119E+04 0.  0.
        1    1    3    3  502    0 -0.37006215215E+03 -0.82677652798E+03 -0.11265090844E+03  0.91279551427E+03  0.50400001928E-02 0.  1.
       -1    1    3    3    0  502  0.37006215215E+03  0.82677652798E+03 -0.78105012381E+03  0.11960538113E+04  0.50400001928E-02 0. -1.
</event>
<event>
 5   0  0.8587082E-05  0.1924296E+04  0.7818609E-02  0.8642856E-01
        1   -1    0    0  501    0  0.00000000000E+00  0.00000000000E+00  0.13222076865E+04  0.13222076865E+04  0.50400001928E-02 0. -1.
       -1   -1    0    0    0  501  0.00000000000E+00  0.00000000000E+00 -0.70013871044E+03  0.70013871045E+03  0.50400001928E-02 0.  1.
    10030    2    1    2    0    0  0.00000000000E+00  0.00000000000E+00  0.62206897604E+03  0.20223463969E+04  0.19242960111E+04 0.  0.
        5    1    3    3  502    0  0.18830615156E+03 -0.35136783058E+03 -0.60924842439E+03  0.72809634781E+03  0.46999998093E+01 0.  1.
       -5    1    3    3    0  502 -0.18830615156E+03  0.35136783058E+03  0.12313174004E+04  0.12942500491E+04  0.46999998093E+01 0. -1.
</event>
<event>
 5   0  0.8905646E-05  0.1890776E+04  0.7818609E-02  0.8659462E-01
        1   -1    0    0  501    0  0.00000000000E+00  0.00000000000E+00  0.19879282824E+04  0.19879282824E+04  0.50400001928E-02 0.  1.
       -1   -1    0    0    0  501  0.00000000000E+00  0.00000000000E+00 -0.44959279458E+03  0.44959279461E+03  0.50400001928E-02 0. -1.
    10030    2    1    2    0    0  0.00000000000E+00  0.00000000000E+00  0.15383354878E+04  0.24375210770E+04  0.18907757476E+04 0.  0.
        1    1    3    3  502    0  0.77822511153E+02  0.84699278759E+03  0.23715480881E+03  0.88300369696E+03  0.50400001928E-02 0. -1.
       -1    1    3    3    0  502 -0.77822511153E+02 -0.84699278759E+03  0.13011806790E+04  0.15545173801E+04  0.50400001928E-02 0.  1.
</event>
<event>
 5   0  0.8905646E-05  0.1893077E+04  0.7818609E-02  0.8658310E-01
        1   -1    0    0  501    0  0.00000000000E+00  0.00000000000E+00  0.16839443937E+04  0.16839443937E+04  0.50400001928E-02 0. -1.
       -1   -1    0    0    0  501  0.00000000000E+00  0.00000000000E+00 -0.53204564977E+03  0.53204564980E+03  0.50400001928E-02 0.  1.
    10030    2    1    2    0    0  0.00000000000E+00  0.00000000000E+00  0.11518987440E+04  0.22159900435E+04  0.18930771661E+04 0.  0.
        1    1    3    3  502    0  0.66911418224E+03  0.79025182862E+01 -0.20768878275E+03  0.70065031876E+03  0.50400001928E-02 0.  1.
       -1    1    3    3    0  502 -0.66911418224E+03 -0.79025182862E+01  0.13595875267E+04  0.15153397248E+04  0.50400001928E-02 0. -1.
</event>
<event>
 5   0  0.8567844E-05  0.1945112E+04  0.7818609E-02  0.8632721E-01
       -1   -1    0    0    0  501  0.00000000000E+00  0.00000000000E+00  0.87240027374E+03  0.87240027376E+03  0.50400001928E-02 0.  1.
        1   -1    0    0  501    0  0.00000000000E+00  0.00000000000E+00 -0.10842104670E+04  0.10842104670E+04  0.50400001928E-02 0. -1.
    10030    2    1    2    0    0  0.00000000000E+00  0.00000000000E+00 -0.21181019321E+03  0.19566107407E+04  0.19451123445E+04 0.  0.
        4    1    3    3  502    0 -0.49712950332E+03  0.81563606212E+03  0.78107880087E+02  0.95838529973E+03  0.12699999809E+01 0.  1.
       -4    1    3    3    0  502  0.49712950332E+03 -0.81563606212E+03 -0.28991807330E+03  0.99822544099E+03  0.12699999809E+01 0. -1.
</event>
<event>
 5   0  0.8681396E-05  0.1884307E+04  0.7818609E-02  0.8662708E-01
       -1   -1    0    0    0  501  0.00000000000E+00  0.00000000000E+00  0.54033774519E+03  0.54033774522E+03  0.50400001928E-02 0.  1.
        1   -1    0    0  501    0  0.00000000000E+00  0.00000000000E+00 -0.16427745477E+04  0.16427745477E+04  0.50400001928E-02 0. -1.
    10030    2    1    2    0    0  0.00000000000E+00  0.00000000000E+00 -0.11024368025E+04  0.21831122930E+04  0.18843068699E+04 0.  0.
        3    1    3    3  502    0  0.91381867592E+03 -0.19095455927E+03 -0.69833867909E+03  0.11658495345E+04  0.10100000352E+00 0.  1.
       -3    1    3    3    0  502 -0.91381867592E+03  0.19095455927E+03 -0.40409812345E+03  0.10172627585E+04  0.10100000352E+00 0. -1.
</event>
<event>
 5   0  0.1799738E-04  0.1875759E+04  0.7818609E-02  0.8667018E-01
       -2   -1    0    0    0  501  0.00000000000E+00  0.00000000000E+00  0.94676346939E+03  0.94676346939E+03  0.25500000920E-02 0.  1.
        2   -1    0    0  501    0  0.00000000000E+00  0.00000000000E+00 -0.92907840071E+03  0.92907840071E+03  0.25500000920E-02 0. -1.
    10030    2    1    2    0    0  0.00000000000E+00  0.00000000000E+00  0.17685068686E+02  0.18758418701E+04  0.18757585026E+04 0.  0.
        1    1    3    3  502    0  0.90861635710E+03  0.21602193255E+03 -0.77000259281E+02  0.93711162606E+03  0.50400001928E-02 0.  1.
       -1    1    3    3    0  502 -0.90861635710E+03 -0.21602193255E+03  0.94685327967E+02  0.93873024405E+03  0.50400001928E-02 0. -1.
</event>
<event>
 5   0  0.1765328E-04  0.1890313E+04  0.7818609E-02  0.8659693E-01
       -2   -1    0    0    0  501  0.00000000000E+00  0.00000000000E+00  0.34999159768E+03  0.34999159769E+03  0.25500000920E-02 0.  1.
        2   -1    0    0  501    0  0.00000000000E+00  0.00000000000E+00 -0.25524066097E+04  0.25524066097E+04  0.25500000920E-02 0. -1.
    10030    2    1    2    0    0  0.00000000000E+00  0.00000000000E+00 -0.22024150120E+04  0.29023982073E+04  0.18903130611E+04 0.  0.
        3    1    3    3  502    0  0.39223443620E+03  0.25532197885E+03 -0.23620028311E+04  0.24079232858E+04  0.10100000352E+00 0. -1.
       -3    1    3    3    0  502 -0.39223443620E+03 -0.25532197885E+03  0.15958781914E+03  0.49447492156E+03  0.10100000352E+00 0.  1.
</event>
<event>
 5   0  0.8681396E-05  0.1902557E+04  0.7818609E-02  0.8653585E-01
        1   -1    0    0  501    0  0.00000000000E+00  0.00000000000E+00  0.79910523887E+03  0.79910523888E+03  0.50400001928E-02 0. -1.
       -1   -1    0    0    0  501  0.00000000000E+00  0.00000000000E+00 -0.11324303036E+04  0.11324303036E+04  0.50400001928E-02 0.  1.
    10030    2    1    2    0    0  0.00000000000E+00  0.00000000000E+00 -0.33332506472E+03  0.19315355425E+04  0.19025572141E+04 0.  0.
        3    1    3    3  502    0  0.51196175979E+03  0.26531476552E+03 -0.93478022436E+03  0.10983218319E+04  0.10100000352E+00 0.  1.
       -3    1    3    3    0  502 -0.51196175979E+03 -0.26531476552E+03  0.60145515964E+03  0.83321371061E+03  0.10100000352E+00 0. -1.
</event>
<event>
 5   0  0.6375750E-05  0.2059031E+04  0.7818609E-02  0.8579508E-01
        4   -1    0    0  501    0  0.00000000000E+00  0.00000000000E+00  0.78283042100E+03  0.78283145117E+03  0.12699999809E+01 0. -1.
       -4   -1    0    0    0  501  0.00000000000E+00  0.00000000000E+00 -0.13539342537E+04  0.13539348494E+04  0.12699999809E+01 0.  1.
    10030    2    1    2    0    0  0.00000000000E+00  0.00000000000E+00 -0.57110383273E+03  0.21367663005E+04  0.20590314799E+04 0.  0.
        2    1    3    3  502    0 -0.80871903045E+03  0.31990262775E+03  0.28619117980E+03  0.91557061599E+03  0.25500000920E-02 0. -1.
       -2    1    3    3    0  502  0.80871903045E+03 -0.31990262775E+03 -0.85729501252E+03  0.12211956846E+04  0.25500000920E-02 0.  1.
</event>
<event>
 5   0  0.8567844E-05  0.1905372E+04  0.7818609E-02  0.8652187E-01
        1   -1    0    0  501    0  0.00000000000E+00  0.00000000000E+00  0.12265975522E+04  0.12265975522E+04  0.50400001928E-02 0. -1.
       -1   -1    0    0    0  501  0.00000000000E+00  0.00000000000E+00 -0.73994199388E+03  0.73994199390E+03  0.50400001928E-02 0.  1.
    10030    2    1    2    0    0  0.00000000000E+00  0.00000000000E+00  0.48665555832E+03  0.19665395461E+04  0.19053724450E+04 0.  0.
        4    1    3    3  502    0 -0.21357875631E+03  0.53525682351E+03  0.10262940990E+04  0.11770288624E+04  0.12699999809E+01 0. -1.
       -4    1    3    3    0  502  0.21357875631E+03 -0.53525682351E+03 -0.53963854069E+03  0.78951068375E+03  0.12699999809E+01 0.  1.
</event>
<event>
 5   0  0.8602017E-05  0.1827693E+04  0.7818609E-02  0.8691710E-01
       -1   -1    0    0    0  501  0.00000000000E+00  0.00000000000E+00  0.41466272030E+03  0.41466272033E+03  0.50400001928E-02 0.  1.
        1   -1    0    0  501    0  0.00000000000E+00  0.00000000000E+00 -0.20139630170E+04  0.20139630170E+04  0.50400001928E-02 0. -1.
    10030    2    1    2    0    0  0.00000000000E+00  0.00000000000E+00 -0.15993002967E+04  0.24286257373E+04  0.18276929537E+04 0.  0.
        2    1    3    3  502    0  0.56693107695E+03 -0.46395414877E+02  0.15074071002E+03  0.58846082469E+03  0.25500000920E-02 0.  1.
       -2    1    3    3    0  502 -0.56693107695E+03  0.46395414877E+02 -0.17500410067E+04  0.18401649126E+04  0.25500000920E-02 0. -1.
</event>
<event>
 5   0  0.8905646E-05  0.1869016E+04  0.7818609E-02  0.8670434E-01
       -1   -1    0    0    0  501  0.00000000000E+00  0.00000000000E+00  0.50821435714E+03  0.50821435716E+03  0.50400001928E-02 0. -1.
        1   -1    0    0  501    0  0.00000000000E+00  0.00000000000E+00 -0.17183805392E+04  0.17183805393E+04  0.50400001928E-02 0.  1.
    10030    2    1    2    0    0  0.00000000000E+00  0.00000000000E+00 -0.12101661821E+04  0.22265948964E+04  0.18690164912E+04 0.  0.
        1    1    3    3  502    0  0.93654345068E+02 -0.88078959173E+03 -0.95997664715E+03  0.13061839856E+04  0.50400001928E-02 0.  1.
       -1    1    3    3    0  502 -0.93654345068E+02  0.88078959173E+03 -0.25018953497E+03  0.92041091078E+03  0.50400001928E-02 0. -1.
</event>
<event>
 5   0  0.8587082E-05  0.1890299E+04  0.7818609E-02  0.8659700E-01
        1   -1    0    0  501    0  0.00000000000E+00  0.00000000000E+00  0.95305379698E+03  0.95305379699E+03  0.50400001928E-02 0. -1.
       -1   -1    0    0    0  501  0.00000000000E+00  0.00000000000E+00 -0.93731046449E+03  0.93731046451E+03  0.50400001928E-02 0.  1.
    10030    2    1    2    0    0  0.00000000000E+00  0.00000000000E+00  0.15743332483E+02  0.18903642615E+04  0.18902987035E+04 0.  0.
        5    1    3    3  502    0  0.83038808733E+03  0.42186773608E+03  0.16840276054E+03  0.94651906588E+03  0.46999998093E+01 0. -1.
       -5    1    3    3    0  502 -0.83038808733E+03 -0.42186773608E+03 -0.15265942805E+03  0.94384519562E+03  0.46999998093E+01 0.  1.
</event>
<event>
 5   0  0.1790832E-04  0.1879394E+04  0.7818609E-02  0.8665182E-01
        2   -1    0    0  501    0  0.00000000000E+00  0.00000000000E+00  0.11253327457E+04  0.11253327457E+04  0.25500000920E-02 0.  1.
       -2   -1    0    0    0  501  0.00000000000E+00  0.00000000000E+00 -0.78468364502E+03  0.78468364502E+03  0.25500000920E-02 0. -1.
    10030    2    1    2    0    0  0.00000000000E+00  0.00000000000E+00  0.34064910070E+03  0.19100163907E+04  0.18793937329E+04 0.  0.
        5    1    3    3  502    0  0.66981428763E+02  0.65574158249E+02 -0.77990841613E+03  0.78553530129E+03  0.46999998093E+01 0. -1.
       -5    1    3    3    0  502 -0.66981428763E+02 -0.65574158249E+02  0.11205575168E+04  0.11244810895E+04  0.46999998093E+01 0.  1.
</event>
<event>
 5   0  0.1810569E-04  0.1912144E+04  0.7818609E-02  0.8648835E-01
       -2   -1    0    0    0  501  0.00000000000E+00  0.00000000000E+00  0.96254333857E+03  0.96254333858E+03  0.25500000920E-02 0.  1.
        2   -1    0    0  501    0  0.00000000000E+00  0.00000000000E+00 -0.94964403093E+03  0.94964403093E+03  0.25500000920E-02 0. -1.
    10030    2    1    2    0    0  0.00000000000E+00  0.00000000000E+00  0.12899307642E+02  0.19121873695E+04  0.19121438607E+04 0.  0.
        4    1    3    3  502    0  0.27587877818E+03  0.90792539501E+03  0.12321831574E+03  0.95688138732E+03  0.12699999809E+01 0. -1.
       -4    1    3    3    0  502 -0.27587877818E+03 -0.90792539501E+03 -0.11031900810E+03  0.95530598219E+03  0.12699999809E+01 0.  1.
</event>
<event>
 5   0  0.8587082E-05  0.1892668E+04  0.7818609E-02  0.8658515E-01
       -1   -1    0    0    0  501  0.00000000000E+00  0.00000000000E+00  0.11224777309E+04  0.11224777309E+04  0.50400001928E-02 0.  1.
        1   -1    0    0  501    0  0.00000000000E+00  0.00000000000E+00 -0.79783157813E+03  0.79783157815E+03  0.50400001928E-02 0. -1.
    10030    2    1    2    0    0  0.00000000000E+00  0.00000000000E+00  0.32464615273E+03  0.19203093090E+04  0.18926681478E+04 0.  0.
        5    1    3    3  502    0  0.47897883597E+03  0.36581099060E+03  0.90255859922E+03  0.10852983558E+04  0.46999998093E+01 0.  1.
       -5    1    3    3    0  502 -0.47897883597E+03 -0.36581099060E+03 -0.57791244649E+03  0.83501095319E+03  0.46999998093E+01 0. -1.
</event>
<event>
 5   0  0.6375750E-05  0.1903353E+04  0.7818609E-02  0.8653189E-01
       -3   -1    0    0    0  501  0.00000000000E+00  0.00000000000E+00  0.96292282786E+03  0.96292283315E+03  0.10100000352E+00 0.  1.
        3   -1    0    0  501    0  0.00000000000E+00  0.00000000000E+00 -0.94056151627E+03  0.94056152170E+03  0.10100000352E+00 0. -1.
    10030    2    1    2    0    0  0.00000000000E+00  0.00000000000E+00  0.22361311583E+02  0.19034843548E+04  0.19033530048E+04 0.  0.
        4    1    3    3  502    0 -0.60788341797E+02 -0.12817492560E+03  0.95228891073E+03  0.96279791049E+03  0.12699999809E+01 0.  1.
       -4    1    3    3    0  502  0.60788341797E+02  0.12817492560E+03 -0.92992759914E+03  0.94068644436E+03  0.12699999809E+01 0. -1.
</event>
<event>
 5   0  0.1799738E-04  0.1870088E+04  0.7818609E-02  0.8669890E-01
       -2   -1    0    0    0  501  0.00000000000E+00  0.00000000000E+00  0.89134142628E+03  0.89134142629E+03  0.25500000920E-02 0. -1.
        2   -1    0    0  501    0  0.00000000000E+00  0.00000000000E+00 -0.98088983057E+03  0.98088983058E+03  0.25500000920E-02 0.  1.
    10030    2    1    2    0    0  0.00000000000E+00  0.00000000000E+00 -0.89548404292E+02  0.18722312569E+04  0.18700884905E+04 0.  0.
        1    1    3    3  502    0  0.68376432255E+03  0.63697296999E+03 -0.77052846480E+02  0.93765950881E+03  0.50400001928E-02 0.  1.
       -1    1    3    3    0  502 -0.68376432255E+03 -0.63697296999E+03 -0.12495557813E+02  0.93457174806E+03  0.50400001928E-02 0. -1.
</event>
<event>
 5   0  0.1810569E-04  0.1906889E+04  0.7818609E-02  0.8651435E-01
        2   -1    0    0  501    0  0.00000000000E+00  0.00000000000E+00  0.11845061815E+04  0.11845061815E+04  0.25500000920E-02 0.  1.
       -2   -1    0    0    0  501  0.00000000000E+00  0.00000000000E+00 -0.76745632645E+03  0.76745632645E+03  0.25500000920E-02 0. -1.
    10030    2    1    2    0    0  0.00000000000E+00  0.00000000000E+00  0.41704985510E+03  0.19519625080E+04  0.19068893652E+04 0.  0.
        4    1    3    3  502    0 -0.83311519485E+03  0.41931596999E+03  0.59887324952E+01  0.93270804027E+03  0.12699999809E+01 0. -1.
       -4    1    3    3    0  502  0.83311519485E+03 -0.41931596999E+03  0.41106112260E+03  0.10192544677E+04  0.12699999809E+01 0.  1.
</event>
<event>
 5   0  0.1810569E-04  0.1903401E+04  0.7818609E-02  0.8653165E-01
       -2   -1    0    0    0  501  0.00000000000E+00  0.00000000000E+00  0.11242696996E+04  0.11242696996E+04  0.25500000920E-02 0.  1.
        2   -1    0    0  501    0  0.00000000000E+00  0.00000000000E+00 -0.80561970526E+03  0.80561970527E+03  0.25500000920E-02 0. -1.
    10030    2    1    2    0    0  0.00000000000E+00  0.00000000000E+00  0.31864999433E+03  0.19298894049E+04  0.19034009814E+04 0.  0.
        4    1    3    3  502    0 -0.12541847664E+03  0.64995342035E+03 -0.53397657724E+03  0.85047154029E+03  0.12699999809E+01 0. -1.
       -4    1    3    3    0  502  0.12541847664E+03 -0.64995342035E+03  0.85262657158E+03  0.10794178646E+04  0.12699999809E+01 0.  1.
</event>
<event>
 5   0  0.8567844E-05  0.1886498E+04  0.7818609E-02  0.8661606E-01
        1   -1    0    0  501    0  0.00000000000E+00  0.00000000000E+00  0.12372814291E+04  0.12372814291E+04  0.50400001928E-02 0. -1.
       -1   -1    0    0    0  501  0.00000000000E+00  0.00000000000E+00 -0.71909180937E+03  0.71909180939E+03  0.50400001928E-02 0.  1.
    10030    2    1    2    0    0  0.00000000000E+00  0.00000000000E+00  0.51818961968E+03  0.19563732385E+04  0.18864982815E+04 0.  0.
        4    1    3    3  502    0 -0.33410313085E+03  0.96205209867E+02  0.11684057846E+04  0.12190381597E+04  0.12699999809E+01 0. -1.
       -4    1    3    3    0  502  0.33410313085E+03 -0.96205209867E+02 -0.65021616487E+03  0.73733507879E+03  0.12699999809E+01 0.  1.
</event>
<event>
 5   0  0.8681396E-05  0.1904281E+04  0.7818609E-02  0.8652728E-01
        1   -1    0    0  501    0  0.00000000000E+00  0.00000000000E+00  0.82674285073E+03  0.82674285074E+03  0.50400001928E-02 0. -1.
       -1   -1    0    0    0  501  0.00000000000E+00  0.00000000000E+00 -0.10965579899E+04  0.10965579900E+04  0.50400001928E-02 0.  1.
    10030    2    1    2    0    0  0.00000000000E+00  0.00000000000E+00 -0.26981513921E+03  0.19233008407E+04  0.19042809442E+04 0.  0.
        3    1    3    3  502    0 -0.61308470419E+03 -0.30181463664E+03  0.53474304508E+03  0.86770678449E+03  0.10100000352E+00 0. -1.
       -3    1    3    3    0  502  0.61308470419E+03  0.30181463664E+03 -0.80455818429E+03  0.10555940562E+04  0.10100000352E+00 0.  1.
</event>
<event>
 5   0  0.8681396E-05  0.1901879E+04  0.7818609E-02  0.8653921E-01
        1   -1    0    0  501    0  0.00000000000E+00  0.00000000000E+00  0.12973748046E+04  0.12973748046E+04  0.50400001928E-02 0.  1.
       -1   -1    0    0    0  501  0.00000000000E+00  0.00000000000E+00 -0.69701240211E+03  0.69701240213E+03  0.50400001928E-02 0. -1.
    10030    2    1    2    0    0  0.00000000000E+00  0.00000000000E+00  0.60036240247E+03  0.19943872067E+04  0.19018794168E+04 0.  0.
        3    1    3    3  502    0  0.16472499822E+03 -0.72711356735E+03  0.91919685289E+03  0.11835334087E+04  0.10100000352E+00 0.  1.
       -3    1    3    3    0  502 -0.16472499822E+03  0.72711356735E+03 -0.31883445042E+03  0.81085379806E+03  0.10100000352E+00 0. -1.
</event>
<event>
 5   0  0.1810569E-04  0.1911335E+04  0.7818609E-02  0.8649235E-01
        2   -1    0    0  501    0  0.00000000000E+00  0.00000000000E+00  0.93889186652E+03  0.93889186652E+03  0.25500000920E-02 0.  1.
       -2   -1    0    0    0  501  0.00000000000E+00  0.00000000000E+00 -0.97274289060E+03  0.97274289060E+03  0.25500000920E-02 0. -1.
    10030    2    1    2    0    0  0.00000000000E+00  0.00000000000E+00 -0.33851024081E+02  0.19116347571E+04  0.19113350185E+04 0.  0.
        4    1    3    3  502    0  0.37730732560E+02 -0.13082270378E+03  0.92914068275E+03  0.93906453944E+03  0.12699999809E+01 0.  1.
       -4    1    3    3    0  502 -0.37730732560E+02  0.13082270378E+03 -0.96299170683E+03  0.97257021768E+03  0.12699999809E+01 0. -1.
</event>
<event>
 5   0  0.8567844E-05  0.1892643E+04  0.7818609E-02  0.8658527E-01
       -1   -1    0    0    0  501  0.00000000000E+00  0.00000000000E+00  0.78034580717E+03  0.78034580719E+03  0.50400001928E-02 0. -1.
        1   -1    0    0  501    0  0.00000000000E+00  0.00000000000E+00 -0.11475992881E+04  0.11475992881E+04  0.50400001928E-02 0.  1.
    10030    2    1    2    0    0  0.00000000000E+00  0.00000000000E+00 -0.36725348091E+03  0.19279450953E+04  0.18926429064E+04 0.  0.
        4    1    3    3  502    0  0.26595827482E+03  0.59766653555E+03 -0.88018205493E+03  0.10966590876E+04  0.12699999809E+01 0.  1.
       -4    1    3    3    0  502 -0.26595827482E+03 -0.59766653555E+03  0.51292857402E+03  0.83128600770E+03  0.12699999809E+01 0. -1.
</event>
<event>
 5   0  0.1799738E-04  0.1918113E+04  0.7818609E-02  0.8645892E-01
       -2   -1    0    0    0  501  0.00000000000E+00  0.00000000000E+00  0.22407243137E+04  0.22407243137E+04  0.25500000920E-02 0. -1.
        2   -1    0    0  501    0  0.00000000000E+00  0.00000000000E+00 -0.41048770132E+03  0.41048770132E+03  0.25500000920E-02 0.  1.
    10030    2    1    2    0    0  0.00000000000E+00  0.00000000000E+00  0.18302366124E+04  0.26512120151E+04  0.19181134198E+04 0.  0.
        1    1    3    3  502    0  0.55740502502E+03 -0.47696794823E+03  0.17689440197E+04  0.19150356996E+04  0.50400001928E-02 0. -1.
       -1    1    3    3    0  502 -0.55740502502E+03  0.47696794823E+03  0.61292592673E+02  0.73617631550E+03  0.50400001928E-02 0.  1.
</event>
<event>
 5   0  0.8587082E-05  0.1897094E+04  0.7818609E-02  0.8656304E-01
        1   -1    0    0  501    0  0.00000000000E+00  0.00000000000E+00  0.54297299607E+03  0.54297299609E+03  0.50400001928E-02 0. -1.
       -1   -1    0    0    0  501  0.00000000000E+00  0.00000000000E+00 -0.16570640687E+04  0.16570640688E+04  0.50400001928E-02 0.  1.
    10030    2    1    2    0    0  0.00000000000E+00  0.00000000000E+00 -0.11140910727E+04  0.22000370648E+04  0.18970936109E+04 0.  0.
        5    1    3    3  502    0 -0.43946216591E+03  0.84914068999E+02 -0.15268815883E+04  0.15911401161E+04  0.46999998093E+01 0.  1.
       -5    1    3    3    0  502  0.43946216591E+03 -0.84914068999E+02  0.41279051564E+03  0.60889694873E+03  0.46999998093E+01 0. -1.
</event>
<event>
 5   0  0.1765328E-04  0.1889824E+04  0.7818609E-02  0.8659938E-01
       -2   -1    0    0    0  501  0.00000000000E+00  0.00000000000E+00  0.33755729951E+03  0.33755729952E+03  0.25500000920E-02 0.  1.
        2   -1    0    0  501    0  0.00000000000E+00  0.00000000000E+00 -0.26450587371E+04  0.26450587371E+04  0.25500000920E-02 0. -1.
    10030    2    1    2    0    0  0.00000000000E+00  0.00000000000E+00 -0.23075014376E+04  0.29826160367E+04  0.18898242081E+04 0.  0.
        3    1    3    3  502    0  0.65304372323E+03 -0.37920956714E+03 -0.20501537688E+04  0.21848104005E+04  0.10100000352E+00 0. -1.
       -3    1    3    3    0  502 -0.65304372323E+03  0.37920956714E+03 -0.25734766888E+03  0.79780563619E+03  0.10100000352E+00 0.  1.
</event>
<event>
 5   0  0.1799738E-04  0.1894451E+04  0.7818609E-02  0.8657623E-01
        2   -1    0    0  501    0  0.00000000000E+00  0.00000000000E+00  0.19886518384E+04  0.19886518384E+04  0.25500000920E-02 0. -1.
       -2   -1    0    0    0  501  0.00000000000E+00  0.00000000000E+00 -0.45117830350E+03  0.45117830351E+03  0.25500000920E-02 0.  1.
    10030    2    1    2    0    0  0.00000000000E+00  0.00000000000E+00  0.15374735349E+04  0.24398301419E+04  0.18944514380E+04 0.  0.
        1    1    3    3  502    0 -0.18556034233E+03 -0.83775143580E+03  0.25201436204E+03  0.89429936125E+03  0.50400001928E-02 0.  1.
       -1    1    3    3    0  502  0.18556034233E+03  0.83775143580E+03  0.12854591728E+04  0.15455307806E+04  0.50400001928E-02 0. -1.
</event>
<event>
 5   0  0.8587082E-05  0.1897918E+04  0.7818609E-02  0.8655894E-01
       -1   -1    0    0    0  501  0.00000000000E+00  0.00000000000E+00  0.81460719383E+03  0.81460719385E+03  0.50400001928E-02 0. -1.
        1   -1    0    0  501    0  0.00000000000E+00  0.00000000000E+00 -0.11054689131E+04  0.11054689131E+04  0.50400001928E-02 0.  1.
    10030    2    1    2    0    0  0.00000000000E+00  0.00000000000E+00 -0.29086171925E+03  0.19200761069E+04  0.18979177318E+04 0.  0.
        5    1    3    3  502    0 -0.41394590515E+03  0.67254980801E+03 -0.67771655954E+03  0.10406710728E+04  0.46999998093E+01 0.  1.
       -5    1    3    3    0  502  0.41394590515E+03 -0.67254980801E+03  0.38685484029E+03  0.87940503416E+03  0.46999998093E+01 0. -1.
</event>
<event>
 5   0  0.8602017E-05  0.1886329E+04  0.7818609E-02  0.8661692E-01
       -1   -1    0    0    0  501  0.00000000000E+00  0.00000000000E+00  0.79138171181E+03  0.79138171183E+03  0.50400001928E-02 0. -1.
        1   -1    0    0  501    0  0.00000000000E+00  0.00000000000E+00 -0.11240579002E+04  0.11240579002E+04  0.50400001928E-02 0.  1.
    10030    2    1    2    0    0  0.00000000000E+00  0.00000000000E+00 -0.33267618838E+03  0.19154396120E+04  0.18863285666E+04 0.  0.
        2    1    3    3  502    0 -0.31524947090E+03  0.86670605099E+03 -0.36686292381E+03  0.99254723444E+03  0.25500000920E-02 0.  1.
       -2    1    3    3    0  502  0.31524947090E+03 -0.86670605099E+03  0.34186735429E+02  0.92289237759E+03  0.25500000920E-02 0. -1.
</event>
<event>
 5   0  0.1658711E-04  0.1896212E+04  0.7818609E-02  0.8656744E-01
        2   -1    0    0  501    0  0.00000000000E+00  0.00000000000E+00  0.19129586397E+04  0.19129586397E+04  0.25500000920E-02 0. -1.
       -2   -1    0    0    0  501  0.00000000000E+00  0.00000000000E+00 -0.46990282688E+03  0.46990282689E+03  0.25500000920E-02 0.  1.
    10030    2    1    2    0    0  0.00000000000E+00  0.00000000000E+00  0.14430558128E+04  0.23828614666E+04  0.18962116680E+04 0.  0.
        2    1    3    3  502    0  0.25658751003E+03 -0.59938486445E+03 -0.14346379293E+03  0.66759360836E+03  0.25500000920E-02 0.  1.
       -2    1    3    3    0  502 -0.25658751003E+03  0.59938486445E+03  0.15865196057E+04  0.17152678582E+04  0.25500000920E-02 0. -1.
</event>
<event>
 5   0  0.1658711E-04  0.1888792E+04  0.7818609E-02  0.8660455E-01
       -2   -1    0    0    0  501  0.00000000000E+00  0.00000000000E+00  0.11639020102E+04  0.11639020102E+04  0.25500000920E-02 0.  1.
        2   -1    0    0  501    0  0.00000000000E+00  0.00000000000E+00 -0.76628802182E+03  0.76628802182E+03  0.25500000920E-02 0. -1.
    10030    2    1    2    0    0  0.00000000000E+00  0.00000000000E+00  0.39761398842E+03  0.19301900321E+04  0.18887923857E+04 0.  0.
        2    1    3    3  502    0 -0.19507763124E+03  0.75163796278E+03 -0.35043850836E+03  0.85195191029E+03  0.25500000920E-02 0. -1.
       -2    1    3    3    0  502  0.19507763124E+03 -0.75163796278E+03  0.74805249678E+03  0.10782381218E+04  0.25500000920E-02 0.  1.
</event>
<event>
 5   0  0.8681396E-05  0.1917793E+04  0.7818609E-02  0.8646050E-01
        1   -1    0    0  501    0  0.00000000000E+00  0.00000000000E+00  0.41741245335E+03  0.41741245338E+03  0.50400001928E-02 0.  1.
       -1   -1    0    0    0  501  0.00000000000E+00  0.00000000000E+00 -0.22028147468E+04  0.22028147468E+04  0.50400001928E-02 0. -1.
    10030    2    1    2    0    0  0.00000000000E+00  0.00000000000E+00 -0.17854022935E+04  0.26202272002E+04  0.19177928019E+04 0.  0.
        3    1    3    3  502    0 -0.60697669848E+03 -0.29350680436E+03  0.38887538023E+02  0.67533636621E+03  0.10100000352E+00 0.  1.
       -3    1    3    3    0  502  0.60697669848E+03  0.29350680436E+03 -0.18242898315E+04  0.19448908340E+04  0.10100000352E+00 0. -1.
</event>
<event>
 5   0  0.8602017E-05  0.1890705E+04  0.7818609E-02  0.8659497E-01
       -1   -1    0    0    0  501  0.00000000000E+00  0.00000000000E+00  0.84824555422E+03  0.84824555424E+03  0.50400001928E-02 0. -1.
        1   -1    0    0  501    0  0.00000000000E+00  0.00000000000E+00 -0.10535764876E+04  0.10535764876E+04  0.50400001928E-02 0.  1.
    10030    2    1    2    0    0  0.00000000000E+00  0.00000000000E+00 -0.20533093337E+03  0.19018220418E+04  0.18907052353E+04 0.  0.
        2    1    3    3  502    0 -0.64076086538E+03  0.60108660528E+03  0.24840237351E+03  0.91300784927E+03  0.25500000920E-02 0. -1.
       -2    1    3    3    0  502  0.64076086538E+03 -0.60108660528E+03 -0.45373330688E+03  0.98881419257E+03  0.25500000920E-02 0.  1.
</event>
<event>
 5   0  0.1799738E-04  0.1956410E+04  0.7818609E-02  0.8627276E-01
       -2   -1    0    0    0  501  0.00000000000E+00  0.00000000000E+00  0.47323485767E+03  0.47323485768E+03  0.25500000920E-02 0.  1.
        2   -1    0    0  501    0  0.00000000000E+00  0.00000000000E+00 -0.20220091422E+04  0.20220091422E+04  0.25500000920E-02 0. -1.
    10030    2    1    2    0    0  0.00000000000E+00  0.00000000000E+00 -0.15487742845E+04  0.24952439998E+04  0.19564101907E+04 0.  0.
        1    1    3    3  502    0  0.18740562822E+03 -0.17855573901E+03 -0.19775359925E+04  0.19944050800E+04  0.50400001928E-02 0. -1.
       -1    1    3    3    0  502 -0.18740562822E+03  0.17855573901E+03  0.42876170798E+03  0.50083891989E+03  0.50400001928E-02 0.  1.
</event>
<event>
 5   0  0.8567844E-05  0.1870136E+04  0.7818609E-02  0.8669866E-01
       -1   -1    0    0    0  501  0.00000000000E+00  0.00000000000E+00  0.95390227751E+03  0.95390227752E+03  0.50400001928E-02 0.  1.
        1   -1    0    0  501    0  0.00000000000E+00  0.00000000000E+00 -0.91660561803E+03  0.91660561804E+03  0.50400001928E-02 0. -1.
    10030    2    1    2    0    0  0.00000000000E+00  0.00000000000E+00  0.37296659483E+02  0.18705078956E+04  0.18701360235E+04 0.  0.
        4    1    3    3  502    0  0.67082467776E+03 -0.24655233815E+03 -0.58442825673E+03  0.92322900945E+03  0.12699999809E+01 0. -1.
       -4    1    3    3    0  502 -0.67082467776E+03  0.24655233815E+03  0.62172491621E+03  0.94727888611E+03  0.12699999809E+01 0.  1.
</event>
<event>
 5   0  0.1799738E-04  0.1920127E+04  0.7818609E-02  0.8644902E-01
       -2   -1    0    0    0  501  0.00000000000E+00  0.00000000000E+00  0.89287027188E+03  0.89287027189E+03  0.25500000920E-02 0.  1.
        2   -1    0    0  501    0  0.00000000000E+00  0.00000000000E+00 -0.10323132058E+04  0.10323132058E+04  0.25500000920E-02 0. -1.
    10030    2    1    2    0    0  0.00000000000E+00  0.00000000000E+00 -0.13944293394E+03  0.19251834777E+04  0.19201268424E+04 0.  0.
        1    1    3    3  502    0 -0.74435984551E+03  0.45534873012E+03 -0.47116034967E+03  0.99166835220E+03  0.50400001928E-02 0. -1.
       -1    1    3    3    0  502  0.74435984551E+03 -0.45534873012E+03  0.33171741573E+03  0.93351512551E+03  0.50400001928E-02 0.  1.
</event>
<event>
 5   0  0.8905646E-05  0.1885989E+04  0.7818609E-02  0.8661862E-01
       -1   -1    0    0    0  501  0.00000000000E+00  0.00000000000E+00  0.18283342177E+04  0.18283342177E+04  0.50400001928E-02 0.  1.
        1   -1    0    0  501    0  0.00000000000E+00  0.00000000000E+00 -0.48636548679E+03  0.48636548681E+03  0.50400001928E-02 0. -1.
    10030    2    1    2    0    0  0.00000000000E+00  0.00000000000E+00  0.13419687309E+04  0.23146997045E+04  0.18859890369E+04 0.  0.
        1    1    3    3  502    0  0.28581609043E+03 -0.63743099235E+02 -0.42914632949E+03  0.51953882664E+03  0.50400001928E-02 0. -1.
       -1    1    3    3    0  502 -0.28581609043E+03  0.63743099235E+02  0.17711150604E+04  0.17951608778E+04  0.50400001928E-02 0.  1.
</event>
<event>
 5   0  0.1810569E-04  0.1905303E+04  0.7818609E-02  0.8652221E-01
        2   -1    0    0  501    0  0.00000000000E+00  0.00000000000E+00  0.16908346392E+04  0.16908346392E+04  0.25500000920E-02 0. -1.
       -2   -1    0    0    0  501  0.00000000000E+00  0.00000000000E+00 -0.53674365490E+03  0.53674365491E+03  0.25500000920E-02 0.  1.
    10030    2    1    2    0    0  0.00000000000E+00  0.00000000000E+00  0.11540909843E+04  0.22275782941E+04  0.19053028779E+04 0.  0.
        4    1    3    3  502    0 -0.57835119022E+03 -0.57580431572E+03  0.24929941176E+01  0.81611796767E+03  0.12699999809E+01 0.  1.
       -4    1    3    3    0  502  0.57835119022E+03  0.57580431572E+03  0.11515979902E+04  0.14114603264E+04  0.12699999809E+01 0. -1.
</event>
<event>
 5   0  0.6375750E-05  0.1888728E+04  0.7818609E-02  0.8660488E-01
        3   -1    0    0  501    0  0.00000000000E+00  0.00000000000E+00  0.71582804076E+03  0.71582804788E+03  0.10100000352E+00 0. -1.
       -3   -1    0    0    0  501  0.00000000000E+00  0.00000000000E+00 -0.12458626546E+04  0.12458626587E+04  0.10100000352E+00 0.  1.
    10030    2    1    2    0    0  0.00000000000E+00  0.00000000000E+00 -0.53003461382E+03  0.19616907066E+04  0.18887280737E+04 0.  0.
        4    1    3    3  502    0 -0.65976170496E+03  0.67225674147E+03 -0.19451894305E+03  0.96179720622E+03  0.12699999809E+01 0. -1.
       -4    1    3    3    0  502  0.65976170496E+03 -0.67225674147E+03 -0.33551567077E+03  0.99989350034E+03  0.12699999809E+01 0.  1.
</event>
<event>
 5   0  0.1765328E-04  0.1906408E+04  0.7818609E-02  0.8651673E-01
        2   -1    0    0  501    0  0.00000000000E+00  0.00000000000E+00  0.83747781810E+03  0.83747781810E+03  0.25500000920E-02 0. -1.
       -2   -1    0    0    0  501  0.00000000000E+00  0.00000000000E+00 -0.10849216894E+04  0.10849216894E+04  0.25500000920E-02 0.  1.
    10030    2    1    2    0    0  0.00000000000E+00  0.00000000000E+00 -0.24744387131E+03  0.19223995075E+04  0.19064079828E+04 0.  0.
        3    1    3    3  502    0 -0.60680426349E+03 -0.58091685796E+03 -0.57796927972E+03  0.10196687249E+04  0.10100000352E+00 0.  1.
       -3    1    3    3    0  502  0.60680426349E+03  0.58091685796E+03  0.33052540841E+03  0.90273078260E+03  0.10100000352E+00 0. -1.
</event>
<event>
 5   0  0.1658711E-04  0.1920927E+04  0.7818609E-02  0.8644509E-01
       -2   -1    0    0    0  501  0.00000000000E+00  0.00000000000E+00  0.45243434422E+03  0.45243434422E+03  0.25500000920E-02 0.  1.
        2   -1    0    0  501    0  0.00000000000E+00  0.00000000000E+00 -0.20389488005E+04  0.20389488005E+04  0.25500000920E-02 0. -1.
    10030    2    1    2    0    0  0.00000000000E+00  0.00000000000E+00 -0.15865144563E+04  0.24913831447E+04  0.19209273422E+04 0.  0.
        2    1    3    3  502    0 -0.40623863842E+03 -0.18949723436E+03  0.30844246792E+03  0.54412846755E+03  0.25500000920E-02 0.  1.
       -2    1    3    3    0  502  0.40623863842E+03  0.18949723436E+03 -0.18949569242E+04  0.19472546772E+04  0.25500000920E-02 0. -1.
</event>
<event>
 5   0  0.1799738E-04  0.1902653E+04  0.7818609E-02  0.8653537E-01
        2   -1    0    0  501    0  0.00000000000E+00  0.00000000000E+00  0.10680134759E+04  0.10680134759E+04  0.25500000920E-02 0.  1.
       -2   -1    0    0    0  501  0.00000000000E+00  0.00000000000E+00 -0.84738835298E+03  0.84738835298E+03  0.25500000920E-02 0. -1.
    10030    2    1    2    0    0  0.00000000000E+00  0.00000000000E+00  0.22062512294E+03  0.19154018289E+04  0.19026530743E+04 0.  0.
        1    1    3    3  502    0  0.16073468039E+03  0.62089961614E+03  0.81763714225E+03  0.10391739350E+04  0.50400001928E-02 0.  1.
       -1    1    3    3    0  502 -0.16073468039E+03 -0.62089961614E+03 -0.59701201931E+03  0.87622789389E+03  0.50400001928E-02 0. -1.
</event>
<event>
 5   0  0.8602017E-05  0.1892721E+04  0.7818609E-02  0.8658488E-01
        1   -1    0    0  501    0  0.00000000000E+00  0.00000000000E+00  0.17905392613E+04  0.17905392613E+04  0.50400001928E-02 0. -1.
       -1   -1    0    0    0  501  0.00000000000E+00  0.00000000000E+00 -0.50018347578E+03  0.50018347580E+03  0.50400001928E-02 0.  1.
    10030    2    1    2    0    0  0.00000000000E+00  0.00000000000E+00  0.12903557855E+04  0.22907227371E+04  0.18927209528E+04 0.  0.
        2    1    3    3  502    0  0.79836516245E+03 -0.49108968167E+03  0.48718118339E+03  0.10563623969E+04  0.25500000920E-02 0.  1.
       -2    1    3    3    0  502 -0.79836516245E+03  0.49108968167E+03  0.80317460216E+03  0.12343603403E+04  0.25500000920E-02 0. -1.
</event>
<event>
 5   0  0.1658711E-04  0.1880086E+04  0.7818609E-02  0.8664833E-01
        2   -1    0    0  501    0  0.00000000000E+00  0.00000000000E+00  0.14774340516E+04  0.14774340516E+04  0.25500000920E-02 0.  1.
       -2   -1    0    0    0  501  0.00000000000E+00  0.00000000000E+00 -0.59811870467E+03  0.59811870468E+03  0.25500000920E-02 0. -1.
    10030    2    1    2    0    0  0.00000000000E+00  0.00000000000E+00  0.87931534688E+03  0.20755527562E+04  0.18800861056E+04 0.  0.
        2    1    3    3  502    0 -0.45026774812E+03 -0.55561910338E+03  0.11131926487E+04  0.13231218788E+04  0.25500000920E-02 0.  1.
       -2    1    3    3    0  502  0.45026774812E+03  0.55561910338E+03 -0.23387730180E+03  0.75243087745E+03  0.25500000920E-02 0. -1.
</event>
<event>
 5   0  0.8681396E-05  0.1896860E+04  0.7818609E-02  0.8656421E-01
        1   -1    0    0  501    0  0.00000000000E+00  0.00000000000E+00  0.86224657237E+03  0.86224657238E+03  0.50400001928E-02 0. -1.
       -1   -1    0    0    0  501  0.00000000000E+00  0.00000000000E+00 -0.10432280382E+04  0.10432280382E+04  0.50400001928E-02 0.  1.
    10030    2    1    2    0    0  0.00000000000E+00  0.00000000000E+00 -0.18098146584E+03  0.19054746106E+04  0.18968603535E+04 0.  0.
        3    1    3    3  502    0 -0.61958907230E+03  0.71521181774E+02  0.62725660316E+03  0.88456585643E+03  0.10100000352E+00 0. -1.
       -3    1    3    3    0  502  0.61958907230E+03 -0.71521181774E+02 -0.80823806900E+03  0.10209087542E+04  0.10100000352E+00 0.  1.
</event>
<event>
 5   0  0.8567844E-05  0.1906900E+04  0.7818609E-02  0.8651430E-01
       -1   -1    0    0    0  501  0.00000000000E+00  0.00000000000E+00  0.66084834919E+03  0.66084834921E+03  0.50400001928E-02 0. -1.
        1   -1    0    0  501    0  0.00000000000E+00  0.00000000000E+00 -0.13756052858E+04  0.13756052858E+04  0.50400001928E-02 0.  1.
    10030    2    1    2    0    0  0.00000000000E+00  0.00000000000E+00 -0.71475693657E+03  0.20364536350E+04  0.19068995592E+04 0.  0.
        4    1    3    3  502    0 -0.65139086498E+03 -0.30308939560E+03 -0.10267744423E+04  0.12531722184E+04  0.12699999809E+01 0.  1.
       -4    1    3    3    0  502  0.65139086498E+03  0.30308939560E+03  0.31201750577E+03  0.78328141655E+03  0.12699999809E+01 0. -1.
</event>
<event>
 5   0  0.8602017E-05  0.1927403E+04  0.7818609E-02  0.8641335E-01
        1   -1    0    0  501    0  0.00000000000E+00  0.00000000000E+00  0.74241889622E+03  0.74241889624E+03  0.50400001928E-02 0. -1.
       -1   -1    0    0    0  501  0.00000000000E+00  0.00000000000E+00 -0.12509383826E+04  0.12509383826E+04  0.50400001928E-02 0.  1.
    10030    2    1    2    0    0  0.00000000000E+00  0.00000000000E+00 -0.50851948639E+03  0.19933572789E+04  0.19274027013E+04 0.  0.
        2    1    3    3  502    0  0.31842934985E+02 -0.90781910226E+03 -0.58709654858E+03  0.10815876535E+04  0.25500000920E-02 0.  1.
       -2    1    3    3    0  502 -0.31842934985E+02  0.90781910226E+03  0.78577062191E+02  0.91176962532E+03  0.25500000920E-02 0. -1.
</event>
<event>
 5   0  0.8587082E-05  0.1899832E+04  0.7818609E-02  0.8654940E-01
        1   -1    0    0  501    0  0.00000000000E+00  0.00000000000E+00  0.73697289597E+03  0.73697289598E+03  0.50400001928E-02 0. -1.
       -1   -1    0    0    0  501  0.00000000000E+00  0.00000000000E+00 -0.12243872348E+04  0.12243872348E+04  0.50400001928E-02 0.  1.
    10030    2    1    2    0    0  0.00000000000E+00  0.00000000000E+00 -0.48741433884E+03  0.19613601308E+04  0.18998317886E+04 0.  0.
        5    1    3    3  502    0 -0.34027151325E+03 -0.34273701249E+03  0.60074735872E+03  0.77082607732E+03  0.46999998093E+01 0. -1.
       -5    1    3    3    0  502  0.34027151325E+03  0.34273701249E+03 -0.10881616976E+04  0.11905340535E+04  0.46999998093E+01 0.  1.
</event>
<event>
 5   0  0.1799738E-04  0.1915115E+04  0.7818609E-02  0.8647369E-01
       -2   -1    0    0    0  501  0.00000000000E+00  0.00000000000E+00  0.41077674110E+03  0.41077674111E+03  0.25500000920E-02 0.  1.
        2   -1    0    0  501    0  0.00000000000E+00  0.00000000000E+00 -0.22321537074E+04  0.22321537074E+04  0.25500000920E-02 0. -1.
    10030    2    1    2    0    0  0.00000000000E+00  0.00000000000E+00 -0.18213769663E+04  0.26429304486E+04  0.19151154802E+04 0.  0.
        1    1    3    3  502    0  0.87650621309E+03 -0.25333534002E+03 -0.50958670832E+03  0.10450457164E+04  0.50400001928E-02 0.  1.
       -1    1    3    3    0  502 -0.87650621309E+03  0.25333534002E+03 -0.13117902580E+04  0.15978847321E+04  0.50400001928E-02 0. -1.
</event>
<event>
 5   0  0.1810569E-04  0.1855298E+04  0.7818609E-02  0.8677433E-01
        2   -1    0    0  501    0  0.00000000000E+00  0.00000000000E+00  0.15748580918E+04  0.15748580918E+04  0.25500000920E-02 0. -1.
       -2   -1    0    0    0  501  0.00000000000E+00  0.00000000000E+00 -0.54641900239E+03  0.54641900239E+03  0.25500000920E-02 0.  1.
    10030    2    1    2    0    0  0.00000000000E+00  0.00000000000E+00  0.10284390894E+04  0.21212770942E+04  0.18552976984E+04 0.  0.
        4    1    3    3  502    0  0.12881363584E+03  0.29390658004E+03  0.15093760378E+04  0.15431110352E+04  0.12699999809E+01 0. -1.
       -4    1    3    3    0  502 -0.12881363584E+03 -0.29390658004E+03 -0.48093694838E+03  0.57816605900E+03  0.12699999809E+01 0.  1.
</event>
<event>
 5   0  0.1765328E-04  0.1906142E+04  0.7818609E-02  0.8651805E-01
       -2   -1    0    0    0  501  0.00000000000E+00  0.00000000000E+00  0.48259448798E+03  0.48259448799E+03  0.25500000920E-02 0. -1.
        2   -1    0    0  501    0  0.00000000000E+00  0.00000000000E+00 -0.18822095185E+04  0.18822095185E+04  0.25500000920E-02 0.  1.
    10030    2    1    2    0    0  0.00000000000E+00  0.00000000000E+00 -0.13996150305E+04  0.23648040064E+04  0.19061415885E+04 0.  0.
        3    1    3    3  502    0 -0.50695557734E+03 -0.80015066475E+03 -0.56910628659E+03  0.11050461616E+04  0.10100000352E+00 0.  1.
       -3    1    3    3    0  502  0.50695557734E+03  0.80015066475E+03 -0.83050874388E+03  0.12597578448E+04  0.10100000352E+00 0. -1.
</event>
<event>
 5   0  0.8602017E-05  0.1889895E+04  0.7818609E-02  0.8659902E-01
       -1   -1    0    0    0  501  0.00000000000E+00  0.00000000000E+00  0.40278251178E+03  0.40278251181E+03  0.50400001928E-02 0.  1.
        1   -1    0    0  501    0  0.00000000000E+00  0.00000000000E+00 -0.22168942390E+04  0.22168942390E+04  0.50400001928E-02 0. -1.
    10030    2    1    2    0    0  0.00000000000E+00  0.00000000000E+00 -0.18141117272E+04  0.26196767508E+04  0.18898954786E+04 0.  0.
        2    1    3    3  502    0  0.51713012787E+03 -0.53760567111E+03 -0.17111212308E+04  0.18666492154E+04  0.25500000920E-02 0. -1.
       -2    1    3    3    0  502 -0.51713012787E+03  0.53760567111E+03 -0.10299049641E+03  0.75302753543E+03  0.25500000920E-02 0.  1.
</event>
<event>
 5   0  0.6375750E-05  0.1898154E+04  0.7818609E-02  0.8655776E-01
       -4   -1    0    0    0  501  0.00000000000E+00  0.00000000000E+00  0.11980351954E+04  0.11980358685E+04  0.12699999809E+01 0.  1.
        4   -1    0    0  501    0  0.00000000000E+00  0.00000000000E+00 -0.75185196054E+03  0.75185303315E+03  0.12699999809E+01 0. -1.
    10030    2    1    2    0    0  0.00000000000E+00  0.00000000000E+00  0.44618323484E+03  0.19498889017E+04  0.18981536423E+04 0.  0.
        5    1    3    3  502    0 -0.94082811668E+02 -0.64018775529E+03 -0.49011734731E+03  0.81174444353E+03  0.46999998093E+01 0. -1.
       -5    1    3    3    0  502  0.94082811668E+02  0.64018775529E+03  0.93630058215E+03  0.11381444581E+04  0.46999998093E+01 0.  1.
</event>
<event>
 5   0  0.6375750E-05  0.1917259E+04  0.7818609E-02  0.8646313E-01
        3   -1    0    0  501    0  0.00000000000E+00  0.00000000000E+00  0.80615283721E+03  0.80615284353E+03  0.10100000352E+00 0. -1.
       -3   -1    0    0    0  501  0.00000000000E+00  0.00000000000E+00 -0.11399457221E+04  0.11399457265E+04  0.10100000352E+00 0.  1.
    10030    2    1    2    0    0  0.00000000000E+00  0.00000000000E+00 -0.33379288486E+03  0.19460985701E+04  0.19172589691E+04 0.  0.
        1    1    3    3  502    0  0.23303631131E+03 -0.92209173918E+03 -0.45043224614E+02  0.95214914271E+03  0.50400001928E-02 0.  1.
       -1    1    3    3    0  502 -0.23303631131E+03  0.92209173918E+03 -0.28874966025E+03  0.99394942737E+03  0.50400001928E-02 0. -1.
</event>
<event>
 5   0  0.6375750E-05  0.1915682E+04  0.7818609E-02  0.8647090E-01
        3   -1    0    0  501    0  0.00000000000E+00  0.00000000000E+00  0.68830228841E+03  0.68830229582E+03  0.10100000352E+00 0. -1.
       -3   -1    0    0    0  501  0.00000000000E+00  0.00000000000E+00 -0.13329303120E+04  0.13329303158E+04  0.10100000352E+00 0.  1.
    10030    2    1    2    0    0  0.00000000000E+00  0.00000000000E+00 -0.64462802355E+03  0.20212326116E+04  0.19156815971E+04 0.  0.
        4    1    3    3  502    0 -0.17781421514E+03 -0.91372292094E+03 -0.84156280331E+02  0.93466109568E+03  0.12699999809E+01 0. -1.
       -4    1    3    3    0  502  0.17781421514E+03  0.91372292094E+03 -0.56047174322E+03  0.10865715159E+04  0.12699999809E+01 0.  1.
</event>
<event>
 5   0  0.8567844E-05  0.1981687E+04  0.7818609E-02  0.8615231E-01
       -1   -1    0    0    0  501  0.00000000000E+00  0.00000000000E+00  0.10439045394E+04  0.10439045394E+04  0.50400001928E-02 0. -1.
        1   -1    0    0  501    0  0.00000000000E+00  0.00000000000E+00 -0.94047962932E+03  0.94047962934E+03  0.50400001928E-02 0.  1.
    10030    2    1    2    0    0  0.00000000000E+00  0.00000000000E+00  0.10342491009E+03  0.19843841688E+04  0.19816871138E+04 0.  0.
        4    1    3    3  502    0 -0.36091155028E+03 -0.86471148079E+03 -0.27088473257E+03  0.97537851287E+03  0.12699999809E+01 0.  1.
       -4    1    3    3    0  502  0.36091155028E+03  0.86471148079E+03  0.37430964265E+03  0.10090056559E+04  0.12699999809E+01 0. -1.
</event>
<event>
 5   0  0.8905646E-05  0.1907324E+04  0.7818609E-02  0.8651219E-01
       -1   -1    0    0    0  501  0.00000000000E+00  0.00000000000E+00  0.56164670127E+03  0.56164670130E+03  0.50400001928E-02 0. -1.
        1   -1    0    0  501    0  0.00000000000E+00  0.00000000000E+00 -0.16192943745E+04  0.16192943746E+04  0.50400001928E-02 0.  1.
    10030    2    1    2    0    0  0.00000000000E+00  0.00000000000E+00 -0.10576476733E+04  0.21809410759E+04  0.19073241401E+04 0.  0.
        1    1    3    3  502    0  0.63096406486E+02  0.36383632675E+02 -0.16161093786E+04  0.16177498103E+04  0.50400001928E-02 0.  1.
       -1    1    3    3    0  502 -0.63096406486E+02 -0.36383632675E+02  0.55846170531E+03  0.56319126552E+03  0.50400001928E-02 0. -1.
</event>
<event>
 5   0  0.1810569E-04  0.1943370E+04  0.7818609E-02  0.8633564E-01
        2   -1    0    0  501    0  0.00000000000E+00  0.00000000000E+00  0.12218824007E+04  0.12218824007E+04  0.25500000920E-02 0. -1.
       -2   -1    0    0    0  501  0.00000000000E+00  0.00000000000E+00 -0.77271912338E+03  0.77271912338E+03  0.25500000920E-02 0.  1.
    10030    2    1    2    0    0  0.00000000000E+00  0.00000000000E+00  0.44916327734E+03  0.19946015241E+04  0.19433701630E+04 0.  0.
        4    1    3    3  502    0 -0.80349305713E+03 -0.33135416039E+03  0.67051632957E+03  0.10977205626E+04  0.12699999809E+01 0. -1.
       -4    1    3    3    0  502  0.80349305713E+03  0.33135416039E+03 -0.22135305223E+03  0.89688096149E+03  0.12699999809E+01 0.  1.
</event>
<event>
 5   0  0.1790832E-04  0.1886653E+04  0.7818609E-02  0.8661529E-01
       -2   -1    0    0    0  501  0.00000000000E+00  0.00000000000E+00  0.36357019514E+03  0.36357019515E+03  0.25500000920E-02 0. -1.
        2   -1    0    0  501    0  0.00000000000E+00  0.00000000000E+00 -0.24475736599E+04  0.24475736599E+04  0.25500000920E-02 0.  1.
    10030    2    1    2    0    0  0.00000000000E+00  0.00000000000E+00 -0.20840034648E+04  0.28111438551E+04  0.18866529444E+04 0.  0.
        5    1    3    3  502    0  0.11157618965E+03 -0.57842068320E+03 -0.21397940248E+04  0.22194053914E+04  0.46999998093E+01 0.  1.
       -5    1    3    3    0  502 -0.11157618965E+03  0.57842068320E+03  0.55790559976E+02  0.59173846371E+03  0.46999998093E+01 0. -1.
</event>
<event>
 5   0  0.8587082E-05  0.1878693E+04  0.7818609E-02  0.8665535E-01
       -1   -1    0    0    0  501  0.00000000000E+00  0.00000000000E+00  0.82011502555E+03  0.82011502557E+03  0.50400001928E-02 0.  1.
        1   -1    0    0  501    0  0.00000000000E+00  0.00000000000E+00 -0.10759127951E+04  0.10759127951E+04  0.50400001928E-02 0. -1.
    10030    2    1    2    0    0  0.00000000000E+00  0.00000000000E+00 -0.25579776958E+03  0.18960278207E+04  0.18786934284E+04 0.  0.
        5    1    3    3  502    0  0.54905843448E+03 -0.80723132705E+02  0.63696507696E+03  0.84482423491E+03  0.46999998093E+01 0.  1.
       -5    1    3    3    0  502 -0.54905843448E+03  0.80723132705E+02 -0.89276284654E+03  0.10512035858E+04  0.46999998093E+01 0. -1.
</event>
<event>
 5   0  0.1799738E-04  0.1901329E+04  0.7818609E-02  0.8654195E-01
       -2   -1    0    0    0  501  0.00000000000E+00  0.00000000000E+00  0.98971277917E+03  0.98971277918E+03  0.25500000920E-02 0. -1.
        2   -1    0    0  501    0  0.00000000000E+00  0.00000000000E+00 -0.91315691020E+03  0.91315691020E+03  0.25500000920E-02 0.  1.
    10030    2    1    2    0    0  0.00000000000E+00  0.00000000000E+00  0.76555868974E+02  0.19028696894E+04  0.19013290756E+04 0.  0.
        1    1    3    3  502    0 -0.66274950914E+03 -0.68059990620E+03  0.74500066851E+02  0.95289212620E+03  0.50400001928E-02 0. -1.
       -1    1    3    3    0  502  0.66274950914E+03  0.68059990620E+03  0.20558021235E+01  0.94997756318E+03  0.50400001928E-02 0.  1.
</event>
<event>
 5   0  0.1658711E-04  0.1924230E+04  0.7818609E-02  0.8642889E-01
        2   -1    0    0  501    0  0.00000000000E+00  0.00000000000E+00  0.84956365462E+03  0.84956365463E+03  0.25500000920E-02 0. -1.
       -2   -1    0    0    0  501  0.00000000000E+00  0.00000000000E+00 -0.10895775346E+04  0.10895775346E+04  0.25500000920E-02 0.  1.
    10030    2    1    2    0    0  0.00000000000E+00  0.00000000000E+00 -0.24001388000E+03  0.19391411893E+04  0.19242302069E+04 0.  0.
        2    1    3    3  502    0  0.19945725243E+03 -0.60390121077E+03 -0.84753309167E+03  0.10596188982E+04  0.25500000920E-02 0.  1.
       -2    1    3    3    0  502 -0.19945725243E+03  0.60390121077E+03  0.60751921167E+03  0.87952229106E+03  0.25500000920E-02 0. -1.
</event>
<event>
 5   0  0.1658711E-04  0.1911106E+04  0.7818609E-02  0.8649348E-01
       -2   -1    0    0    0  501  0.00000000000E+00  0.00000000000E+00  0.58194407589E+03  0.58194407590E+03  0.25500000920E-02 0.  1.
        2   -1    0    0  501    0  0.00000000000E+00  0.00000000000E+00 -0.15690193121E+04  0.15690193121E+04  0.25500000920E-02 0. -1.
    10030    2    1    2    0    0  0.00000000000E+00  0.00000000000E+00 -0.98707523623E+03  0.21509633880E+04  0.19111059559E+04 0.  0.
        2    1    3    3  502    0  0.18809866589E+03 -0.69943066122E+03  0.20798578342E+03  0.75355321250E+03  0.25500000920E-02 0.  1.
       -2    1    3    3    0  502 -0.18809866589E+03  0.69943066122E+03 -0.11950610197E+04  0.13974101755E+04  0.25500000920E-02 0. -1.
</event>
<event>
 5   0  0.8567844E-05  0.1900883E+04  0.7818609E-02  0.8654417E-01
        1   -1    0    0  501    0  0.00000000000E+00  0.00000000000E+00  0.22262608882E+04  0.22262608882E+04  0.50400001928E-02 0.  1.
       -1   -1    0    0    0  501  0.00000000000E+00  0.00000000000E+00 -0.40576499484E+03  0.40576499487E+03  0.50400001928E-02 0. -1.
    10030    2    1    2    0    0  0.00000000000E+00  0.00000000000E+00  0.18204958933E+04  0.26320258831E+04  0.19008826769E+04 0.  0.
        4    1    3    3  502    0 -0.68251917663E+03  0.99413401099E+02  0.18156984148E+04  0.19422867443E+04  0.12699999809E+01 0.  1.
       -4    1    3    3    0  502  0.68251917663E+03 -0.99413401099E+02  0.47974785250E+01  0.68973913872E+03  0.12699999809E+01 0. -1.
</event>
<event>
 5   0  0.8905646E-05  0.1860558E+04  0.7818609E-02  0.8674742E-01
       -1   -1    0    0    0  501  0.00000000000E+00  0.00000000000E+00  0.64743269907E+03  0.64743269909E+03  0.50400001928E-02 0. -1.
        1   -1    0    0  501    0  0.00000000000E+00  0.00000000000E+00 -0.13366938794E+04  0.13366938794E+04  0.50400001928E-02 0.  1.
    10030    2    1    2    0    0  0.00000000000E+00  0.00000000000E+00 -0.68926118032E+03  0.19841265785E+04  0.18605583315E+04 0.  0.
        1    1    3    3  502    0  0.81435474678E+03 -0.24476056724E+03  0.57703116473E+02  0.85229750590E+03  0.50400001928E-02 0. -1.
       -1    1    3    3    0  502 -0.81435474678E+03  0.24476056724E+03 -0.74696429680E+03  0.11318290726E+04  0.50400001928E-02 0.  1.
</event>
<event>
 5   0  0.1790832E-04  0.1869940E+04  0.7818609E-02  0.8669966E-01
       -2   -1    0    0    0  501  0.00000000000E+00  0.00000000000E+00  0.81034673364E+03  0.81034673364E+03  0.25500000920E-02 0. -1.
        2   -1    0    0  501    0  0.00000000000E+00  0.00000000000E+00 -0.10787590934E+04  0.10787590934E+04  0.25500000920E-02 0.  1.
    10030    2    1    2    0    0  0.00000000000E+00  0.00000000000E+00 -0.26841235974E+03  0.18891058270E+04  0.18699400073E+04 0.  0.
        5    1    3    3  502    0 -0.89402010148E+03 -0.29624225774E+02 -0.40901868784E+03  0.98359946808E+03  0.46999998093E+01 0.  1.
       -5    1    3    3    0  502  0.89402010148E+03  0.29624225774E+02  0.14060632810E+03  0.90550635895E+03  0.46999998093E+01 0. -1.
</event>
<event>
 5   0  0.8587082E-05  0.1881874E+04  0.7818609E-02  0.8663932E-01
        1   -1    0    0  501    0  0.00000000000E+00  0.00000000000E+00  0.12343317910E+04  0.12343317910E+04  0.50400001928E-02 0. -1.
       -1   -1    0    0    0  501  0.00000000000E+00  0.00000000000E+00 -0.71728041607E+03  0.71728041609E+03  0.50400001928E-02 0.  1.
    10030    2    1    2    0    0  0.00000000000E+00  0.00000000000E+00  0.51705137494E+03  0.19516122071E+04  0.18818735565E+04 0.  0.
        5    1    3    3  502    0  0.29014458262E+03  0.16127587282E+03 -0.65452498749E+03  0.73390655755E+03  0.46999998093E+01 0.  1.
       -5    1    3    3    0  502 -0.29014458262E+03 -0.16127587282E+03  0.11715763624E+04  0.12177056496E+04  0.46999998093E+01 0. -1.
</event>
<event>
 5   0  0.1658711E-04  0.1916235E+04  0.7818609E-02  0.8646817E-01
        2   -1    0    0  501    0  0.00000000000E+00  0.00000000000E+00  0.99665950227E+03  0.99665950227E+03  0.25500000920E-02 0.  1.
       -2   -1    0    0    0  501  0.00000000000E+00  0.00000000000E+00 -0.92106614143E+03  0.92106614143E+03  0.25500000920E-02 0. -1.
    10030    2    1    2    0    0  0.00000000000E+00  0.00000000000E+00  0.75593360841E+02  0.19177256437E+04  0.19162351861E+04 0.  0.
        2    1    3    3  502    0 -0.60276478418E+03  0.23693775518E+03  0.74440848938E+03  0.98671621247E+03  0.25500000920E-02 0.  1.
       -2    1    3    3    0  502  0.60276478418E+03 -0.23693775518E+03 -0.66881512853E+03  0.93100943123E+03  0.25500000920E-02 0. -1.
</event>
<event>
 5   0  0.1810569E-04  0.1881214E+04  0.7818609E-02  0.8664264E-01
        2   -1    0    0  501    0  0.00000000000E+00  0.00000000000E+00  0.27608637069E+04  0.27608637069E+04  0.25500000920E-02 0. -1.
       -2   -1    0    0    0  501  0.00000000000E+00  0.00000000000E+00 -0.32045811953E+03  0.32045811954E+03  0.25500000920E-02 0.  1.
    10030    2    1    2    0    0  0.00000000000E+00  0.00000000000E+00  0.24404055873E+04  0.30813218264E+04  0.18812136421E+04 0.  0.
        4    1    3    3  502    0 -0.17722936774E+03 -0.85915816328E+03  0.17760827711E+04  0.19809176210E+04  0.12699999809E+01 0. -1.
       -4    1    3    3    0  502  0.17722936774E+03  0.85915816328E+03  0.66432281623E+03  0.11004042055E+04  0.12699999809E+01 0.  1.
</event>
<event>
 5   0  0.8567844E-05  0.1817645E+04  0.7818609E-02  0.8696972E-01
        1   -1    0    0  501    0  0.00000000000E+00  0.00000000000E+00  0.13147318881E+04  0.13147318882E+04  0.50400001928E-02 0.  1.
       -1   -1    0    0    0  501  0.00000000000E+00  0.00000000000E+00 -0.62823298309E+03  0.62823298311E+03  0.50400001928E-02 0. -1.
    10030    2    1    2    0    0  0.00000000000E+00  0.00000000000E+00  0.68649890506E+03  0.19429648713E+04  0.18176445594E+04 0.  0.
        4    1    3    3  502    0 -0.27680068997E+03  0.21822996846E+03 -0.55218926185E+03  0.65510116387E+03  0.12699999809E+01 0. -1.
       -4    1    3    3    0  502  0.27680068997E+03 -0.21822996846E+03  0.12386881669E+04  0.12878637074E+04  0.12699999809E+01 0.  1.
</event>
<event>
 5   0  0.1790832E-04  0.1909184E+04  0.7818609E-02  0.8650298E-01
        2   -1    0    0  501    0  0.00000000000E+00  0.00000000000E+00  0.10966772591E+04  0.10966772591E+04  0.25500000920E-02 0.  1.
       -2   -1    0    0    0  501  0.00000000000E+00  0.00000000000E+00 -0.83091537326E+03  0.83091537326E+03  0.25500000920E-02 0. -1.
    10030    2    1    2    0    0  0.00000000000E+00  0.00000000000E+00  0.26576188580E+03  0.19275926323E+04  0.19091841127E+04 0.  0.
        5    1    3    3  502    0 -0.41714887857E+02  0.26943665390E+03  0.10565173186E+04  0.10911403104E+04  0.46999998093E+01 0.  1.
       -5    1    3    3    0  502  0.41714887857E+02 -0.26943665390E+03 -0.79075543284E+03  0.83645232195E+03  0.46999998093E+01 0. -1.
</event>
<event>
 5   0  0.1765328E-04  0.1709667E+04  0.7818609E-02  0.8755870E-01
        2   -1    0    0  501    0  0.00000000000E+00  0.00000000000E+00  0.53861769026E+03  0.53861769026E+03  0.25500000920E-02 0. -1.
       -2   -1    0    0    0  501  0.00000000000E+00  0.00000000000E+00 -0.13566951199E+04  0.13566951199E+04  0.25500000920E-02 0.  1.
    10030    2    1    2    0    0  0.00000000000E+00  0.00000000000E+00 -0.81807742962E+03  0.18953128101E+04  0.17096666246E+04 0.  0.
        3    1    3    3  502    0 -0.91550287520E+02  0.77607179982E+03 -0.24899461992E+02  0.78184965756E+03  0.10100000352E+00 0. -1.
       -3    1    3    3    0  502  0.91550287520E+02 -0.77607179982E+03 -0.79317796763E+03  0.11134631526E+04  0.10100000352E+00 0.  1.
</event>
<event>
 5   0  0.1810569E-04  0.1890443E+04  0.7818609E-02  0.8659628E-01
       -2   -1    0    0    0  501  0.00000000000E+00  0.00000000000E+00  0.73819970842E+03  0.73819970843E+03  0.25500000920E-02 0.  1.
        2   -1    0    0  501    0  0.00000000000E+00  0.00000000000E+00 -0.12103003065E+04  0.12103003065E+04  0.25500000920E-02 0. -1.
    10030    2    1    2    0    0  0.00000000000E+00  0.00000000000E+00 -0.47210059805E+03  0.19485000149E+04  0.18904426290E+04 0.  0.
        4    1    3    3  502    0  0.70051584245E+02 -0.73284051583E+03  0.37501380431E+03  0.82619574703E+03  0.12699999809E+01 0.  1.
       -4    1    3    3    0  502 -0.70051584245E+02  0.73284051583E+03 -0.84711440235E+03  0.11223042679E+04  0.12699999809E+01 0. -1.
</event>
<event>
 5   0  0.8602017E-05  0.1730655E+04  0.7818609E-02  0.8744071E-01
        1   -1    0    0  501    0  0.00000000000E+00  0.00000000000E+00  0.68054053318E+03  0.68054053320E+03  0.50400001928E-02 0. -1.
       -1   -1    0    0    0  501  0.00000000000E+00  0.00000000000E+00 -0.11002892300E+04  0.11002892300E+04  0.50400001928E-02 0.  1.
    10030    2    1    2    0    0  0.00000000000E+00  0.00000000000E+00 -0.41974869681E+03  0.17808297632E+04  0.17306546961E+04 0.  0.
        2    1    3    3  502    0 -0.18304253347E+03  0.13669666039E+03 -0.10686979830E+04  0.10928430467E+04  0.25500000920E-02 0.  1.
       -2    1    3    3    0  502  0.18304253347E+03 -0.13669666039E+03  0.64894928615E+03  0.68798671646E+03  0.25500000920E-02 0. -1.
</event>
<event>
 5   0  0.1765328E-04  0.1907302E+04  0.7818609E-02  0.8651230E-01
        2   -1    0    0  501    0  0.00000000000E+00  0.00000000000E+00  0.21440529824E+04  0.21440529824E+04  0.25500000920E-02 0.  1.
       -2   -1    0    0    0  501  0.00000000000E+00  0.00000000000E+00 -0.42417352882E+03  0.42417352883E+03  0.25500000920E-02 0. -1.
    10030    2    1    2    0    0  0.00000000000E+00  0.00000000000E+00  0.17198794536E+04  0.25682265112E+04  0.19073023038E+04 0.  0.
        3    1    3    3  502    0 -0.34950084700E+03  0.22587743931E+03 -0.29546732271E+03  0.51036497591E+03  0.10100000352E+00 0. -1.
       -3    1    3    3    0  502  0.34950084700E+03 -0.22587743931E+03  0.20153467763E+04  0.20578615353E+04  0.10100000352E+00 0.  1.
</event>
<event>
 5   0  0.8587082E-05  0.1907481E+04  0.7818609E-02  0.8651141E-01
       -1   -1    0    0    0  501  0.00000000000E+00  0.00000000000E+00  0.63188694352E+03  0.63188694354E+03  0.50400001928E-02 0. -1.
        1   -1    0    0  501    0  0.00000000000E+00  0.00000000000E+00 -0.14395316138E+04  0.14395316138E+04  0.50400001928E-02 0.  1.
    10030    2    1    2    0    0  0.00000000000E+00  0.00000000000E+00 -0.80764467029E+03  0.20714185574E+04  0.19074813043E+04 0.  0.
        5    1    3    3  502    0  0.57435147365E+03  0.61751189507E+03 -0.88752319418E+03  0.12243039108E+04  0.46999998093E+01 0.  1.
       -5    1    3    3    0  502 -0.57435147365E+03 -0.61751189507E+03  0.79878523892E+02  0.84711464655E+03  0.46999998093E+01 0. -1.
</event>
<event>
 5   0  0.1810569E-04  0.1900605E+04  0.7818609E-02  0.8654555E-01
       -2   -1    0    0    0  501  0.00000000000E+00  0.00000000000E+00  0.56603074752E+03  0.56603074752E+03  0.25500000920E-02 0. -1.
        2   -1    0    0  501    0  0.00000000000E+00  0.00000000000E+00 -0.15954522884E+04  0.15954522884E+04  0.25500000920E-02 0.  1.
    10030    2    1    2    0    0  0.00000000000E+00  0.00000000000E+00 -0.10294215408E+04  0.21614830359E+04  0.19006052209E+04 0.  0.
        4    1    3    3  502    0  0.79649361593E+03 -0.66790169722E+02 -0.10992785763E+04  0.13591460585E+04  0.12699999809E+01 0.  1.
       -4    1    3    3    0  502 -0.79649361593E+03  0.66790169722E+02  0.69857035507E+02  0.80233697739E+03  0.12699999809E+01 0. -1.
</event>
<event>
 5   0  0.8905646E-05  0.1869093E+04  0.7818609E-02  0.8670396E-01
        1   -1    0    0  501    0  0.00000000000E+00  0.00000000000E+00  0.15020610933E+04  0.15020610933E+04  0.50400001928E-02 0.  1.
       -1   -1    0    0    0  501  0.00000000000E+00  0.00000000000E+00 -0.58145250943E+03  0.58145250945E+03  0.50400001928E-02 0. -1.
    10030    2    1    2    0    0  0.00000000000E+00  0.00000000000E+00  0.92060858387E+03  0.20835136028E+04  0.18690930336E+04 0.  0.
        1    1    3    3  502    0  0.17774693935E+03 -0.28086202344E+03  0.14339459679E+04  0.14719641604E+04  0.50400001928E-02 0.  1.
       -1    1    3    3    0  502 -0.17774693935E+03  0.28086202344E+03 -0.51333738399E+03  0.61154944239E+03  0.50400001928E-02 0. -1.
</event>
<event>
 5   0  0.1790832E-04  0.1940457E+04  0.7818609E-02  0.8634976E-01
       -2   -1    0    0    0  501  0.00000000000E+00  0.00000000000E+00  0.92698474473E+03  0.92698474474E+03  0.25500000920E-02 0.  1.
        2   -1    0    0  501    0  0.00000000000E+00  0.00000000000E+00 -0.10154899513E+04  0.10154899513E+04  0.25500000920E-02 0. -1.
    10030    2    1    2    0    0  0.00000000000E+00  0.00000000000E+00 -0.88505206574E+02  0.19424746960E+04  0.19404573619E+04 0.  0.
        5    1    3    3  502    0  0.21832963268E+03  0.53373192359E+03  0.73680467503E+03  0.93564994197E+03  0.46999998093E+01 0.  1.
       -5    1    3    3    0  502 -0.21832963268E+03 -0.53373192359E+03 -0.82530988160E+03  0.10068247541E+04  0.46999998093E+01 0. -1.
</event>
<event>
 5   0  0.8587082E-05  0.1883671E+04  0.7818609E-02  0.8663027E-01
        1   -1    0    0  501    0  0.00000000000E+00  0.00000000000E+00  0.13681604220E+04  0.13681604220E+04  0.50400001928E-02 0.  1.
       -1   -1    0    0    0  501  0.00000000000E+00  0.00000000000E+00 -0.64835517676E+03  0.64835517678E+03  0.50400001928E-02 0. -1.
    10030    2    1    2    0    0  0.00000000000E+00  0.00000000000E+00  0.71980524525E+03  0.20165155988E+04  0.18836707698E+04 0.  0.
        5    1    3    3  502    0  0.86361430802E+03  0.75832232943E+02 -0.34090516948E+02  0.86761999395E+03  0.46999998093E+01 0. -1.
       -5    1    3    3    0  502 -0.86361430802E+03 -0.75832232943E+02  0.75389576220E+03  0.11488956048E+04  0.46999998093E+01 0.  1.
</event>
<event>
 5   0  0.8587082E-05  0.1897817E+04  0.7818609E-02  0.8655944E-01
        1   -1    0    0  501    0  0.00000000000E+00  0.00000000000E+00  0.12168279198E+04  0.12168279198E+04  0.50400001928E-02 0. -1.
       -1   -1    0    0    0  501  0.00000000000E+00  0.00000000000E+00 -0.73997939447E+03  0.73997939449E+03  0.50400001928E-02 0.  1.
    10030    2    1    2    0    0  0.00000000000E+00  0.00000000000E+00  0.47684852530E+03  0.19568073143E+04  0.18978172591E+04 0.  0.
        5    1    3    3  502    0 -0.32333294053E+03  0.77309000755E+03  0.69745100531E+03  0.10902625120E+04  0.46999998093E+01 0. -1.
       -5    1    3    3    0  502  0.32333294053E+03 -0.77309000755E+03 -0.22060248001E+03  0.86654480230E+03  0.46999998093E+01 0.  1.
</event>
<event>
 5   0  0.1790832E-04  0.1885891E+04  0.7818609E-02  0.8661912E-01
        2   -1    0    0  501    0  0.00000000000E+00  0.00000000000E+00  0.94625450692E+03  0.94625450693E+03  0.25500000920E-02 0.  1.
       -2   -1    0    0    0  501  0.00000000000E+00  0.00000000000E+00 -0.93964764688E+03  0.93964764688E+03  0.25500000920E-02 0. -1.
    10030    2    1    2    0    0  0.00000000000E+00  0.00000000000E+00  0.66068600433E+01  0.18859021538E+04  0.18858905809E+04 0.  0.
        5    1    3    3  502    0  0.27267043644E+03  0.44381176141E+03 -0.78270755384E+03  0.94019745337E+03  0.46999998093E+01 0. -1.
       -5    1    3    3    0  502 -0.27267043644E+03 -0.44381176141E+03  0.78931441389E+03  0.94570470044E+03  0.46999998093E+01 0.  1.
</event>
<event>
 5   0  0.8567844E-05  0.1928092E+04  0.7818609E-02  0.8640998E-01
       -1   -1    0    0    0  501  0.00000000000E+00  0.00000000000E+00  0.78787747530E+03  0.78787747532E+03  0.50400001928E-02 0.  1.
        1   -1    0    0  501    0  0.00000000000E+00  0.00000000000E+00 -0.11796061341E+04  0.11796061341E+04  0.50400001928E-02 0. -1.
    10030    2    1    2    0    0  0.00000000000E+00  0.00000000000E+00 -0.39172865878E+03  0.19674836094E+04  0.19280924281E+04 0.  0.
        4    1    3    3  502    0  0.53123264077E+03 -0.31734785406E+03  0.55847149281E+03  0.83355251800E+03  0.12699999809E+01 0.  1.
       -4    1    3    3    0  502 -0.53123264077E+03  0.31734785406E+03 -0.95020015159E+03  0.11339310914E+04  0.12699999809E+01 0. -1.
</event>
<event>
 5   0  0.8567844E-05  0.1961872E+04  0.7818609E-02  0.8624657E-01
        1   -1    0    0  501    0  0.00000000000E+00  0.00000000000E+00  0.96397852224E+03  0.96397852225E+03  0.50400001928E-02 0. -1.
       -1   -1    0    0    0  501  0.00000000000E+00  0.00000000000E+00 -0.99819227426E+03  0.99819227428E+03  0.50400001928E-02 0.  1.
    10030    2    1    2    0    0  0.00000000000E+00  0.00000000000E+00 -0.34213752028E+02  0.19621707965E+04  0.19618724867E+04 0.  0.
        4    1    3    3  502    0 -0.38827461061E+03  0.87669666439E+03 -0.22421343584E+03  0.98469664989E+03  0.12699999809E+01 0. -1.
       -4    1    3    3    0  502  0.38827461061E+03 -0.87669666439E+03  0.18999968381E+03  0.97747414664E+03  0.12699999809E+01 0.  1.
</event>
<event>
 5   0  0.8587082E-05  0.1921549E+04  0.7818609E-02  0.8644204E-01
        1   -1    0    0  501    0  0.00000000000E+00  0.00000000000E+00  0.92802622702E+03  0.92802622704E+03  0.50400001928E-02 0. -1.
       -1   -1    0    0    0  501  0.00000000000E+00  0.00000000000E+00 -0.99467887767E+03  0.99467887768E+03  0.50400001928E-02 0.  1.
    10030    2    1    2    0    0  0.00000000000E+00  0.00000000000E+00 -0.66652650643E+02  0.19227051047E+04  0.19215494643E+04 0.  0.
        5    1    3    3  502    0 -0.57232938005E+03  0.61852657905E+02  0.73634322972E+03  0.93467112532E+03  0.46999998093E+01 0. -1.
       -5    1    3    3    0  502  0.57232938005E+03 -0.61852657905E+02 -0.80299588036E+03  0.98803397939E+03  0.46999998093E+01 0.  1.
</event>
<event>
 5   0  0.8567844E-05  0.1892067E+04  0.7818609E-02  0.8658815E-01
        1   -1    0    0  501    0  0.00000000000E+00  0.00000000000E+00  0.55020182426E+03  0.55020182428E+03  0.50400001928E-02 0.  1.
       -1   -1    0    0    0  501  0.00000000000E+00  0.00000000000E+00 -0.16266379615E+04  0.16266379615E+04  0.50400001928E-02 0. -1.
    10030    2    1    2    0    0  0.00000000000E+00  0.00000000000E+00 -0.10764361372E+04  0.21768397858E+04  0.18920667788E+04 0.  0.
        4    1    3    3  502    0  0.76620739367E+02  0.53130859104E+02  0.54490160572E+03  0.55282275524E+03  0.12699999809E+01 0.  1.
       -4    1    3    3    0  502 -0.76620739367E+02 -0.53130859104E+02 -0.16213377429E+04  0.16240170305E+04  0.12699999809E+01 0. -1.
</event>
<event>
 5   0  0.8567844E-05  0.1920584E+04  0.7818609E-02  0.8644678E-01
       -1   -1    0    0    0  501  0.00000000000E+00  0.00000000000E+00  0.64367542985E+03  0.64367542986E+03  0.50400001928E-02 0.  1.
        1   -1    0    0  501    0  0.00000000000E+00  0.00000000000E+00 -0.14326484296E+04  0.14326484296E+04  0.50400001928E-02 0. -1.
    10030    2    1    2    0    0  0.00000000000E+00  0.00000000000E+00 -0.78897299973E+03  0.20763238594E+04  0.19205838630E+04 0.  0.
        4    1    3    3  502    0 -0.72065268132E+03  0.62690709848E+03 -0.50154270131E+03  0.10788417360E+04  0.12699999809E+01 0. -1.
       -4    1    3    3    0  502  0.72065268132E+03 -0.62690709848E+03 -0.28743029842E+03  0.99748212343E+03  0.12699999809E+01 0.  1.
</event>
<event>
 5   0  0.8567844E-05  0.1887137E+04  0.7818609E-02  0.8661286E-01
        1   -1    0    0  501    0  0.00000000000E+00  0.00000000000E+00  0.15573161492E+04  0.15573161492E+04  0.50400001928E-02 0.  1.
       -1   -1    0    0    0  501  0.00000000000E+00  0.00000000000E+00 -0.57170241406E+03  0.57170241408E+03  0.50400001928E-02 0. -1.
    10030    2    1    2    0    0  0.00000000000E+00  0.00000000000E+00  0.98561373515E+03  0.21290185633E+04  0.18871368811E+04 0.  0.
        4    1    3    3  502    0  0.43127625451E+03 -0.27242540301E+03  0.13883417404E+04  0.14790906696E+04  0.12699999809E+01 0.  1.
       -4    1    3    3    0  502 -0.43127625451E+03  0.27242540301E+03 -0.40272800523E+03  0.64992789369E+03  0.12699999809E+01 0. -1.
</event>
<event>
 5   0  0.8905646E-05  0.1914762E+04  0.7818609E-02  0.8647543E-01
        1   -1    0    0  501    0  0.00000000000E+00  0.00000000000E+00  0.13162013867E+04  0.13162013867E+04  0.50400001928E-02 0.  1.
       -1   -1    0    0    0  501  0.00000000000E+00  0.00000000000E+00 -0.69638163043E+03  0.69638163045E+03  0.50400001928E-02 0. -1.
    10030    2    1    2    0    0  0.00000000000E+00  0.00000000000E+00  0.61981975629E+03  0.20125830172E+04  0.19147620925E+04 0.  0.
        1    1    3    3  502    0 -0.82898987020E+03  0.23875756051E+03 -0.12644866200E+03  0.87190517933E+03  0.50400001928E-02 0. -1.
       -1    1    3    3    0  502  0.82898987020E+03 -0.23875756051E+03  0.74626841828E+03  0.11406778378E+04  0.50400001928E-02 0.  1.
</event>
<event>
 5   0  0.1658711E-04  0.1899824E+04  0.7818609E-02  0.8654944E-01
       -2   -1    0    0    0  501  0.00000000000E+00  0.00000000000E+00  0.58596167002E+03  0.58596167002E+03  0.25500000920E-02 0.  1.
        2   -1    0    0  501    0  0.00000000000E+00  0.00000000000E+00 -0.15399174471E+04  0.15399174471E+04  0.25500000920E-02 0. -1.
    10030    2    1    2    0    0  0.00000000000E+00  0.00000000000E+00 -0.95395577711E+03  0.21258791172E+04  0.18998237803E+04 0.  0.
        2    1    3    3  502    0  0.43927826339E+03  0.64801689960E+03  0.12503459842E+03  0.79279565189E+03  0.25500000920E-02 0.  1.
       -2    1    3    3    0  502 -0.43927826339E+03 -0.64801689960E+03 -0.10789903755E+04  0.13330834653E+04  0.25500000920E-02 0. -1.
</event>
<event>
 5   0  0.8905646E-05  0.1895631E+04  0.7818609E-02  0.8657034E-01
        1   -1    0    0  501    0  0.00000000000E+00  0.00000000000E+00  0.69498486523E+03  0.69498486525E+03  0.50400001928E-02 0. -1.
       -1   -1    0    0    0  501  0.00000000000E+00  0.00000000000E+00 -0.12926247959E+04  0.12926247959E+04  0.50400001928E-02 0.  1.
    10030    2    1    2    0    0  0.00000000000E+00  0.00000000000E+00 -0.59763993069E+03  0.19876096612E+04  0.18956314722E+04 0.  0.
        1    1    3    3  502    0  0.78808419947E+03 -0.52534635839E+02 -0.84818708395E+03  0.11589900443E+04  0.50400001928E-02 0.  1.
       -1    1    3    3    0  502 -0.78808419947E+03  0.52534635839E+02  0.25054715326E+03  0.82861961686E+03  0.50400001928E-02 0. -1.
</event>
<event>
 5   0  0.8567844E-05  0.1924646E+04  0.7818609E-02  0.8642685E-01
        1   -1    0    0  501    0  0.00000000000E+00  0.00000000000E+00  0.11953079170E+04  0.11953079170E+04  0.50400001928E-02 0.  1.
       -1   -1    0    0    0  501  0.00000000000E+00  0.00000000000E+00 -0.77475040118E+03  0.77475040120E+03  0.50400001928E-02 0. -1.
    10030    2    1    2    0    0  0.00000000000E+00  0.00000000000E+00  0.42055751583E+03  0.19700583182E+04  0.19246457214E+04 0.  0.
        4    1    3    3  502    0  0.39717763564E+03 -0.87526373110E+03  0.25858337012E+03  0.99534096944E+03  0.12699999809E+01 0. -1.
       -4    1    3    3    0  502 -0.39717763564E+03  0.87526373110E+03  0.16197414571E+03  0.97471734878E+03  0.12699999809E+01 0.  1.
</event>
<event>
 5   0  0.1790832E-04  0.1895503E+04  0.7818609E-02  0.8657098E-01
       -2   -1    0    0    0  501  0.00000000000E+00  0.00000000000E+00  0.74900141442E+03  0.74900141442E+03  0.25500000920E-02 0. -1.
        2   -1    0    0  501    0  0.00000000000E+00  0.00000000000E+00 -0.11992407905E+04  0.11992407905E+04  0.25500000920E-02 0.  1.
    10030    2    1    2    0    0  0.00000000000E+00  0.00000000000E+00 -0.45023937608E+03  0.19482422049E+04  0.18955031504E+04 0.  0.
        5    1    3    3  502    0  0.50487105867E+03  0.80206802485E+03 -0.22332292124E+03  0.97370586910E+03  0.46999998093E+01 0. -1.
       -5    1    3    3    0  502 -0.50487105867E+03 -0.80206802485E+03 -0.22691645484E+03  0.97453633582E+03  0.46999998093E+01 0.  1.
</event>
<event>
 5   0  0.6375750E-05  0.1889921E+04  0.7818609E-02  0.8659889E-01
        4   -1    0    0  501    0  0.00000000000E+00  0.00000000000E+00  0.18383264403E+04  0.18383268790E+04  0.12699999809E+01 0. -1.
       -4   -1    0    0    0  501  0.00000000000E+00  0.00000000000E+00 -0.48573983013E+03  0.48574149037E+03  0.12699999809E+01 0.  1.
    10030    2    1    2    0    0  0.00000000000E+00  0.00000000000E+00  0.13525866102E+04  0.23240683694E+04  0.18899214924E+04 0.  0.
        4    1    3    3  502    0  0.35389456246E+01  0.66730525507E+03 -0.14646023526E+03  0.68319912250E+03  0.12699999809E+01 0.  1.
       -4    1    3    3    0  502 -0.35389456246E+01 -0.66730525507E+03  0.14990468454E+04  0.16408692468E+04  0.12699999809E+01 0. -1.
</event>
<event>
 5   0  0.8681396E-05  0.1897387E+04  0.7818609E-02  0.8656158E-01
       -1   -1    0    0    0  501  0.00000000000E+00  0.00000000000E+00  0.44769763560E+03  0.44769763563E+03  0.50400001928E-02 0. -1.
        1   -1    0    0  501    0  0.00000000000E+00  0.00000000000E+00 -0.20103276095E+04  0.20103276095E+04  0.50400001928E-02 0.  1.
    10030    2    1    2    0    0  0.00000000000E+00  0.00000000000E+00 -0.15626299739E+04  0.24580252451E+04  0.18973865369E+04 0.  0.
        3    1    3    3  502    0  0.10986536185E+03 -0.28373014744E+03  0.38277670812E+03  0.48896954178E+03  0.10100000352E+00 0. -1.
       -3    1    3    3    0  502 -0.10986536185E+03  0.28373014744E+03 -0.19454066820E+04  0.19690557033E+04  0.10100000352E+00 0.  1.
</event>
<event>
 5   0  0.8567844E-05  0.1893017E+04  0.7818609E-02  0.8658340E-01
        1   -1    0    0  501    0  0.00000000000E+00  0.00000000000E+00  0.15699644336E+04  0.15699644336E+04  0.50400001928E-02 0. -1.
       -1   -1    0    0    0  501  0.00000000000E+00  0.00000000000E+00 -0.57063625612E+03  0.57063625614E+03  0.50400001928E-02 0.  1.
    10030    2    1    2    0    0  0.00000000000E+00  0.00000000000E+00  0.99932817744E+03  0.21406006897E+04  0.18930173022E+04 0.  0.
        4    1    3    3  502    0 -0.45607437192E+03  0.40237021917E+03  0.13197552617E+04  0.14531555972E+04  0.12699999809E+01 0. -1.
       -4    1    3    3    0  502  0.45607437192E+03 -0.40237021917E+03 -0.32042708426E+03  0.68744509251E+03  0.12699999809E+01 0.  1.
</event>
<event>
 5   0  0.8567844E-05  0.1899810E+04  0.7818609E-02  0.8654951E-01
        1   -1    0    0  501    0  0.00000000000E+00  0.00000000000E+00  0.65627753753E+03  0.65627753755E+03  0.50400001928E-02 0.  1.
       -1   -1    0    0    0  501  0.00000000000E+00  0.00000000000E+00 -0.13749052882E+04  0.13749052882E+04  0.50400001928E-02 0. -1.
    10030    2    1    2    0    0  0.00000000000E+00  0.00000000000E+00 -0.71862775064E+03  0.20311828257E+04  0.18998099451E+04 0.  0.
        4    1    3    3  502    0 -0.84485872101E+03 -0.42939455006E+03 -0.29042285617E+03  0.99121793082E+03  0.12699999809E+01 0.  1.
       -4    1    3    3    0  502  0.84485872101E+03  0.42939455006E+03 -0.42820489447E+03  0.10399648949E+04  0.12699999809E+01 0. -1.
</event>
<event>
 5   0  0.1810569E-04  0.1911458E+04  0.7818609E-02  0.8649174E-01
       -2   -1    0    0    0  501  0.00000000000E+00  0.00000000000E+00  0.11991427977E+04  0.11991427977E+04  0.25500000920E-02 0.  1.
        2   -1    0    0  501    0  0.00000000000E+00  0.00000000000E+00 -0.76172548027E+03  0.76172548027E+03  0.25500000920E-02 0. -1.
    10030    2    1    2    0    0  0.00000000000E+00  0.00000000000E+00  0.43741731743E+03  0.19608682780E+04  0.19114576883E+04 0.  0.
        4    1    3    3  502    0  0.79305445005E+03 -0.24401512933E+03 -0.26782673416E+03  0.87190109331E+03  0.12699999809E+01 0. -1.
       -4    1    3    3    0  502 -0.79305445005E+03  0.24401512933E+03  0.70524405159E+03  0.10889671847E+04  0.12699999809E+01 0.  1.
</event>
<event>
 5   0  0.6375750E-05  0.1942934E+04  0.7818609E-02  0.8633776E-01
        3   -1    0    0  501    0  0.00000000000E+00  0.00000000000E+00  0.23967943992E+04  0.23967944013E+04  0.10100000352E+00 0. -1.
       -3   -1    0    0    0  501  0.00000000000E+00  0.00000000000E+00 -0.39375421634E+03  0.39375422929E+03  0.10100000352E+00 0.  1.
    10030    2    1    2    0    0  0.00000000000E+00  0.00000000000E+00  0.20030401829E+04  0.27905486306E+04  0.19429337831E+04 0.  0.
        1    1    3    3  502    0 -0.48562343919E+03  0.71661886492E+03  0.36830388549E+03  0.94075526804E+03  0.50400001928E-02 0.  1.
       -1    1    3    3    0  502  0.48562343919E+03 -0.71661886492E+03  0.16347362974E+04  0.18497933626E+04  0.50400001928E-02 0. -1.
</event>
<event>
 5   0  0.8681396E-05  0.1901730E+04  0.7818609E-02  0.8653996E-01
        1   -1    0    0  501    0  0.00000000000E+00  0.00000000000E+00  0.16047987955E+04  0.16047987955E+04  0.50400001928E-02 0.  1.
       -1   -1    0    0    0  501  0.00000000000E+00  0.00000000000E+00 -0.56340031173E+03  0.56340031175E+03  0.50400001928E-02 0. -1.
    10030    2    1    2    0    0  0.00000000000E+00  0.00000000000E+00  0.10413984837E+04  0.21681991072E+04  0.19017298879E+04 0.  0.
        3    1    3    3  502    0 -0.14816598191E+03 -0.36186143822E+03  0.15088922653E+04  0.15587343382E+04  0.10100000352E+00 0.  1.
       -3    1    3    3    0  502  0.14816598191E+03  0.36186143822E+03 -0.46749378156E+03  0.60946476901E+03  0.10100000352E+00 0. -1.
</event>
<event>
 5   0  0.1658711E-04  0.1905665E+04  0.7818609E-02  0.8652041E-01
        2   -1    0    0  501    0  0.00000000000E+00  0.00000000000E+00  0.13817253688E+04  0.13817253688E+04  0.25500000920E-02 0.  1.
       -2   -1    0    0    0  501  0.00000000000E+00  0.00000000000E+00 -0.65706987947E+03  0.65706987948E+03  0.25500000920E-02 0. -1.
    10030    2    1    2    0    0  0.00000000000E+00  0.00000000000E+00  0.72465548930E+03  0.20387952483E+04  0.19056653657E+04 0.  0.
        2    1    3    3  502    0  0.86726621186E+02 -0.42691385395E+03 -0.54428833907E+03  0.69715618163E+03  0.25500000920E-02 0. -1.
       -2    1    3    3    0  502 -0.86726621186E+02  0.42691385395E+03  0.12689438284E+04  0.13416390666E+04  0.25500000920E-02 0.  1.
</event>
<event>
 5   0  0.1790832E-04  0.1832837E+04  0.7818609E-02  0.8689029E-01
        2   -1    0    0  501    0  0.00000000000E+00  0.00000000000E+00  0.87640007877E+03  0.87640007878E+03  0.25500000920E-02 0. -1.
       -2   -1    0    0    0  501  0.00000000000E+00  0.00000000000E+00 -0.95826459829E+03  0.95826459829E+03  0.25500000920E-02 0.  1.
    10030    2    1    2    0    0  0.00000000000E+00  0.00000000000E+00 -0.81864519516E+02  0.18346646771E+04  0.18328373299E+04 0.  0.
        5    1    3    3  502    0  0.56487309016E+03  0.48380354680E+03 -0.57686646691E+03  0.94124624330E+03  0.46999998093E+01 0.  1.
       -5    1    3    3    0  502 -0.56487309016E+03 -0.48380354680E+03  0.49500194740E+03  0.89341843377E+03  0.46999998093E+01 0. -1.
</event>
<event>
 5   0  0.1765328E-04  0.1901309E+04  0.7818609E-02  0.8654205E-01
        2   -1    0    0  501    0  0.00000000000E+00  0.00000000000E+00  0.10344929343E+04  0.10344929343E+04  0.25500000920E-02 0.  1.
       -2   -1    0    0    0  501  0.00000000000E+00  0.00000000000E+00 -0.87361022519E+03  0.87361022519E+03  0.25500000920E-02 0. -1.
    10030    2    1    2    0    0  0.00000000000E+00  0.00000000000E+00  0.16088270910E+03  0.19081031595E+04  0.19013086076E+04 0.  0.
        3    1    3    3  502    0  0.50816227894E+03 -0.38885651314E+03 -0.62513963692E+03  0.89456015192E+03  0.10100000352E+00 0. -1.
       -3    1    3    3    0  502 -0.50816227894E+03  0.38885651314E+03  0.78602234603E+03  0.10135430076E+04  0.10100000352E+00 0.  1.
</event>
<event>
 5   0  0.8602017E-05  0.1913078E+04  0.7818609E-02  0.8648374E-01
        1   -1    0    0  501    0  0.00000000000E+00  0.00000000000E+00  0.12516319563E+04  0.12516319563E+04  0.50400001928E-02 0. -1.
       -1   -1    0    0    0  501  0.00000000000E+00  0.00000000000E+00 -0.73101905321E+03  0.73101905323E+03  0.50400001928E-02 0.  1.
    10030    2    1    2    0    0  0.00000000000E+00  0.00000000000E+00  0.52061290307E+03  0.19826510095E+04  0.19130779469E+04 0.  0.
        2    1    3    3  502    0  0.25369157893E+03 -0.19205286988E+03 -0.67456506663E+03  0.74584298024E+03  0.25500000920E-02 0.  1.
       -2    1    3    3    0  502 -0.25369157893E+03  0.19205286988E+03  0.11951779697E+04  0.12368080293E+04  0.25500000920E-02 0. -1.
</event>
<event>
 5   0  0.1765328E-04  0.1892226E+04  0.7818609E-02  0.8658736E-01
        2   -1    0    0  501    0  0.00000000000E+00  0.00000000000E+00  0.13807145113E+04  0.13807145113E+04  0.25500000920E-02 0. -1.
       -2   -1    0    0    0  501  0.00000000000E+00  0.00000000000E+00 -0.64830911899E+03  0.64830911899E+03  0.25500000920E-02 0.  1.
    10030    2    1    2    0    0  0.00000000000E+00  0.00000000000E+00  0.73240539232E+03  0.20290236303E+04  0.18922259996E+04 0.  0.
        3    1    3    3  502    0  0.27774743504E+03  0.12142737773E+03 -0.59482783010E+03  0.66761396285E+03  0.10100000352E+00 0.  1.
       -3    1    3    3    0  502 -0.27774743504E+03 -0.12142737773E+03  0.13272332224E+04  0.13614096674E+04  0.10100000352E+00 0. -1.
</event>
<event>
 5   0  0.8587082E-05  0.1887752E+04  0.7818609E-02  0.8660977E-01
        1   -1    0    0  501    0  0.00000000000E+00  0.00000000000E+00  0.12385644004E+04  0.12385644004E+04  0.50400001928E-02 0.  1.
       -1   -1    0    0    0  501  0.00000000000E+00  0.00000000000E+00 -0.71930184214E+03  0.71930184215E+03  0.50400001928E-02 0. -1.
    10030    2    1    2    0    0  0.00000000000E+00  0.00000000000E+00  0.51926255830E+03  0.19578662426E+04  0.18877517367E+04 0.  0.
        5    1    3    3  502    0  0.84719977522E+03 -0.30734941706E+03 -0.31265165512E+02  0.90178197136E+03  0.46999998093E+01 0. -1.
       -5    1    3    3    0  502 -0.84719977522E+03  0.30734941706E+03  0.55052772381E+03  0.10560842712E+04  0.46999998093E+01 0.  1.
</event>
<event>
 5   0  0.8681396E-05  0.1839186E+04  0.7818609E-02  0.8685734E-01
        1   -1    0    0  501    0  0.00000000000E+00  0.00000000000E+00  0.12660006861E+04  0.12660006861E+04  0.50400001928E-02 0. -1.
       -1   -1    0    0    0  501  0.00000000000E+00  0.00000000000E+00 -0.66797080587E+03  0.66797080589E+03  0.50400001928E-02 0.  1.
    10030    2    1    2    0    0  0.00000000000E+00  0.00000000000E+00  0.59802988026E+03  0.19339714920E+04  0.18391862315E+04 0.  0.
        3    1    3    3  502    0  0.72382462409E+03  0.31477845109E+03 -0.19715424573E+03  0.81355845919E+03  0.10100000352E+00 0.  1.
       -3    1    3    3    0  502 -0.72382462409E+03 -0.31477845109E+03  0.79518412599E+03  0.11204130328E+04  0.10100000352E+00 0. -1.
</event>
<event>
 5   0  0.8567844E-05  0.1893287E+04  0.7818609E-02  0.8658205E-01
        1   -1    0    0  501    0  0.00000000000E+00  0.00000000000E+00  0.71771484559E+03  0.71771484560E+03  0.50400001928E-02 0. -1.
       -1   -1    0    0    0  501  0.00000000000E+00  0.00000000000E+00 -0.12485926314E+04  0.12485926314E+04  0.50400001928E-02 0.  1.
    10030    2    1    2    0    0  0.00000000000E+00  0.00000000000E+00 -0.53087778583E+03  0.19663074770E+04  0.18932865263E+04 0.  0.
        4    1    3    3  502    0 -0.15648225110E+03 -0.64252148179E+03 -0.96891951946E+03  0.11730844802E+04  0.12699999809E+01 0.  1.
       -4    1    3    3    0  502  0.15648225110E+03  0.64252148179E+03  0.43804173363E+03  0.79322299688E+03  0.12699999809E+01 0. -1.
</event>
<event>
 5   0  0.1810569E-04  0.1891293E+04  0.7818609E-02  0.8659203E-01
       -2   -1    0    0    0  501  0.00000000000E+00  0.00000000000E+00  0.85163946585E+03  0.85163946586E+03  0.25500000920E-02 0. -1.
        2   -1    0    0  501    0  0.00000000000E+00  0.00000000000E+00 -0.10500303697E+04  0.10500303697E+04  0.25500000920E-02 0.  1.
    10030    2    1    2    0    0  0.00000000000E+00  0.00000000000E+00 -0.19839090381E+03  0.19016698355E+04  0.18912930002E+04 0.  0.
        4    1    3    3  502    0  0.73144119081E+03 -0.58897961123E+03 -0.21090176888E+03  0.96248863218E+03  0.12699999809E+01 0.  1.
       -4    1    3    3    0  502 -0.73144119081E+03  0.58897961123E+03  0.12510865068E+02  0.93918120334E+03  0.12699999809E+01 0. -1.
</event>
<event>
 5   0  0.8567844E-05  0.1898817E+04  0.7818609E-02  0.8655446E-01
       -1   -1    0    0    0  501  0.00000000000E+00  0.00000000000E+00  0.96934758822E+03  0.96934758824E+03  0.50400001928E-02 0. -1.
        1   -1    0    0  501    0  0.00000000000E+00  0.00000000000E+00 -0.92987933696E+03  0.92987933698E+03  0.50400001928E-02 0.  1.
    10030    2    1    2    0    0  0.00000000000E+00  0.00000000000E+00  0.39468251262E+02  0.18992269252E+04  0.18988167817E+04 0.  0.
        4    1    3    3  502    0  0.82477923176E+03 -0.11800519350E+03  0.47501226906E+03  0.95907469755E+03  0.12699999809E+01 0. -1.
       -4    1    3    3    0  502 -0.82477923176E+03  0.11800519350E+03 -0.43554401780E+03  0.94015222766E+03  0.12699999809E+01 0.  1.
</event>
<event>
 5   0  0.1790832E-04  0.1607193E+04  0.7818609E-02  0.8816141E-01
        2   -1    0    0  501    0  0.00000000000E+00  0.00000000000E+00  0.85450700747E+03  0.85450700747E+03  0.25500000920E-02 0. -1.
       -2   -1    0    0    0  501  0.00000000000E+00  0.00000000000E+00 -0.75571908099E+03  0.75571908099E+03  0.25500000920E-02 0.  1.
    10030    2    1    2    0    0  0.00000000000E+00  0.00000000000E+00  0.98787926483E+02  0.16102260885E+04  0.16071928949E+04 0.  0.
        5    1    3    3  502    0  0.18244867553E+03 -0.45018667274E+03 -0.59196227228E+03  0.76576561775E+03  0.46999998093E+01 0.  1.
       -5    1    3    3    0  502 -0.18244867553E+03  0.45018667274E+03  0.69075019877E+03  0.84446047072E+03  0.46999998093E+01 0. -1.
</event>
<event>
 5   0  0.8681396E-05  0.1895835E+04  0.7818609E-02  0.8656932E-01
       -1   -1    0    0    0  501  0.00000000000E+00  0.00000000000E+00  0.69743719849E+03  0.69743719851E+03  0.50400001928E-02 0.  1.
        1   -1    0    0  501    0  0.00000000000E+00  0.00000000000E+00 -0.12883568081E+04  0.12883568082E+04  0.50400001928E-02 0. -1.
    10030    2    1    2    0    0  0.00000000000E+00  0.00000000000E+00 -0.59091960965E+03  0.19857940067E+04  0.18958353968E+04 0.  0.
        3    1    3    3  502    0 -0.17217974457E+03  0.91543044366E+03 -0.11136699098E+03  0.93811586625E+03  0.10100000352E+00 0.  1.
       -3    1    3    3    0  502  0.17217974457E+03 -0.91543044366E+03 -0.47955261867E+03  0.10476781404E+04  0.10100000352E+00 0. -1.
</event>
<event>
 5   0  0.1658711E-04  0.1912434E+04  0.7818609E-02  0.8648692E-01
       -2   -1    0    0    0  501  0.00000000000E+00  0.00000000000E+00  0.14640311224E+04  0.14640311224E+04  0.25500000920E-02 0. -1.
        2   -1    0    0  501    0  0.00000000000E+00  0.00000000000E+00 -0.62454334904E+03  0.62454334904E+03  0.25500000920E-02 0.  1.
    10030    2    1    2    0    0  0.00000000000E+00  0.00000000000E+00  0.83948777339E+03  0.20885744715E+04  0.19124339469E+04 0.  0.
        2    1    3    3  502    0  0.94359816611E+03  0.40564285718E+02  0.25655602610E+03  0.97869502650E+03  0.25500000920E-02 0.  1.
       -2    1    3    3    0  502 -0.94359816611E+03 -0.40564285718E+02  0.58293174729E+03  0.11098794450E+04  0.25500000920E-02 0. -1.
</event>
<event>
 5   0  0.1810569E-04  0.1899032E+04  0.7818609E-02  0.8655339E-01
       -2   -1    0    0    0  501  0.00000000000E+00  0.00000000000E+00  0.61465249048E+03  0.61465249049E+03  0.25500000920E-02 0.  1.
        2   -1    0    0  501    0  0.00000000000E+00  0.00000000000E+00 -0.14668128916E+04  0.14668128916E+04  0.25500000920E-02 0. -1.
    10030    2    1    2    0    0  0.00000000000E+00  0.00000000000E+00 -0.85216040115E+03  0.20814653821E+04  0.18990315394E+04 0.  0.
        4    1    3    3  502    0  0.22653260565E+03 -0.46196637762E+03  0.44861173736E+03  0.68263025077E+03  0.12699999809E+01 0.  1.
       -4    1    3    3    0  502 -0.22653260565E+03  0.46196637762E+03 -0.13007721385E+04  0.13988351313E+04  0.12699999809E+01 0. -1.
</event>
<event>
 5   0  0.1658711E-04  0.1903753E+04  0.7818609E-02  0.8652990E-01
        2   -1    0    0  501    0  0.00000000000E+00  0.00000000000E+00  0.11758435909E+04  0.11758435909E+04  0.25500000920E-02 0.  1.
       -2   -1    0    0    0  501  0.00000000000E+00  0.00000000000E+00 -0.77056929419E+03  0.77056929419E+03  0.25500000920E-02 0. -1.
    10030    2    1    2    0    0  0.00000000000E+00  0.00000000000E+00  0.40527429668E+03  0.19464128851E+04  0.19037530994E+04 0.  0.
        2    1    3    3  502    0 -0.12715939264E+03 -0.93966170110E+03  0.11749231571E+03  0.95547792644E+03  0.25500000920E-02 0. -1.
       -2    1    3    3    0  502  0.12715939264E+03  0.93966170110E+03  0.28778198096E+03  0.99093495862E+03  0.25500000920E-02 0.  1.
</event>
<event>
 5   0  0.8567844E-05  0.1910062E+04  0.7818609E-02  0.8649864E-01
       -1   -1    0    0    0  501  0.00000000000E+00  0.00000000000E+00  0.74183095088E+03  0.74183095090E+03  0.50400001928E-02 0.  1.
        1   -1    0    0  501    0  0.00000000000E+00  0.00000000000E+00 -0.12295039924E+04  0.12295039924E+04  0.50400001928E-02 0. -1.
    10030    2    1    2    0    0  0.00000000000E+00  0.00000000000E+00 -0.48767304151E+03  0.19713349433E+04  0.19100619004E+04 0.  0.
        4    1    3    3  502    0 -0.65099119724E+03 -0.40084061934E+03 -0.83457875806E+03  0.11318065459E+04  0.12699999809E+01 0. -1.
       -4    1    3    3    0  502  0.65099119724E+03  0.40084061934E+03  0.34690571654E+03  0.83952839742E+03  0.12699999809E+01 0.  1.
</event>
<event>
 5   0  0.1790832E-04  0.1879867E+04  0.7818609E-02  0.8664943E-01
       -2   -1    0    0    0  501  0.00000000000E+00  0.00000000000E+00  0.76645894093E+03  0.76645894094E+03  0.25500000920E-02 0. -1.
        2   -1    0    0  501    0  0.00000000000E+00  0.00000000000E+00 -0.11526715736E+04  0.11526715736E+04  0.25500000920E-02 0.  1.
    10030    2    1    2    0    0  0.00000000000E+00  0.00000000000E+00 -0.38621263262E+03  0.19191305145E+04  0.18798674778E+04 0.  0.
        5    1    3    3  502    0 -0.29675307424E+03 -0.73818789268E+03 -0.70402852399E+03  0.10623850548E+04  0.46999998093E+01 0.  1.
       -5    1    3    3    0  502  0.29675307424E+03  0.73818789268E+03  0.31781589137E+03  0.85674545974E+03  0.46999998093E+01 0. -1.
</event>
<event>
 5   0  0.8602017E-05  0.1950870E+04  0.7818609E-02  0.8629941E-01
        1   -1    0    0  501    0  0.00000000000E+00  0.00000000000E+00  0.57826449830E+03  0.57826449832E+03  0.50400001928E-02 0.  1.
       -1   -1    0    0    0  501  0.00000000000E+00  0.00000000000E+00 -0.16453948425E+04  0.16453948425E+04  0.50400001928E-02 0. -1.
    10030    2    1    2    0    0  0.00000000000E+00  0.00000000000E+00 -0.10671303442E+04  0.22236593408E+04  0.19508699835E+04 0.  0.
        2    1    3    3  502    0  0.24367667420E+03  0.62386661782E+03 -0.13418687564E+04  0.14997331888E+04  0.25500000920E-02 0. -1.
       -2    1    3    3    0  502 -0.24367667420E+03 -0.62386661782E+03  0.27473841219E+03  0.72392615197E+03  0.25500000920E-02 0.  1.
</event>
<event>
 5   0  0.8905646E-05  0.1909673E+04  0.7818609E-02  0.8650056E-01
       -1   -1    0    0    0  501  0.00000000000E+00  0.00000000000E+00  0.49573317376E+03  0.49573317379E+03  0.50400001928E-02 0.  1.
        1   -1    0    0  501    0  0.00000000000E+00  0.00000000000E+00 -0.18391201070E+04  0.18391201070E+04  0.50400001928E-02 0. -1.
    10030    2    1    2    0    0  0.00000000000E+00  0.00000000000E+00 -0.13433869332E+04  0.23348532808E+04  0.19096731109E+04 0.  0.
        1    1    3    3  502    0  0.75057980174E+03 -0.19466188743E+03  0.95401728699E+01  0.77547037604E+03  0.50400001928E-02 0.  1.
       -1    1    3    3    0  502 -0.75057980174E+03  0.19466188743E+03 -0.13529271061E+04  0.15593829047E+04  0.50400001928E-02 0. -1.
</event>
<event>
 5   0  0.8587082E-05  0.1872787E+04  0.7818609E-02  0.8668522E-01
       -1   -1    0    0    0  501  0.00000000000E+00  0.00000000000E+00  0.12167033056E+04  0.12167033056E+04  0.50400001928E-02 0. -1.
        1   -1    0    0  501    0  0.00000000000E+00  0.00000000000E+00 -0.72066244832E+03  0.72066244833E+03  0.50400001928E-02 0.  1.
    10030    2    1    2    0    0  0.00000000000E+00  0.00000000000E+00  0.49604085725E+03  0.19373657539E+04  0.18727865688E+04 0.  0.
        5    1    3    3  502    0 -0.75357743530E+03  0.38020363982E+03 -0.17139387979E+03  0.86129652894E+03  0.46999998093E+01 0.  1.
       -5    1    3    3    0  502  0.75357743530E+03 -0.38020363982E+03  0.66743473703E+03  0.10760692250E+04  0.46999998093E+01 0. -1.
</event>
<event>
 5   0  0.8567844E-05  0.1891222E+04  0.7818609E-02  0.8659238E-01
        1   -1    0    0  501    0  0.00000000000E+00  0.00000000000E+00  0.11851089015E+04  0.11851089015E+04  0.50400001928E-02 0.  1.
       -1   -1    0    0    0  501  0.00000000000E+00  0.00000000000E+00 -0.75451292994E+03  0.75451292996E+03  0.50400001928E-02 0. -1.
    10030    2    1    2    0    0  0.00000000000E+00  0.00000000000E+00  0.43059597159E+03  0.19396218315E+04  0.18912218163E+04 0.  0.
        4    1    3    3  502    0 -0.10701248330E+03 -0.55646224326E+03 -0.56109371758E+03  0.79745198762E+03  0.12699999809E+01 0. -1.
       -4    1    3    3    0  502  0.10701248330E+03  0.55646224326E+03  0.99168968917E+03  0.11421698439E+04  0.12699999809E+01 0.  1.
</event>
<event>
 5   0  0.1799738E-04  0.1892794E+04  0.7818609E-02  0.8658451E-01
        2   -1    0    0  501    0  0.00000000000E+00  0.00000000000E+00  0.68717078020E+03  0.68717078020E+03  0.25500000920E-02 0. -1.
       -2   -1    0    0    0  501  0.00000000000E+00  0.00000000000E+00 -0.13034135668E+04  0.13034135668E+04  0.25500000920E-02 0.  1.
    10030    2    1    2    0    0  0.00000000000E+00  0.00000000000E+00 -0.61624278665E+03  0.19905843470E+04  0.18927944607E+04 0.  0.
        1    1    3    3  502    0 -0.77214718332E+03  0.51994383370E+03 -0.12867512060E+03  0.93973940515E+03  0.50400001928E-02 0.  1.
       -1    1    3    3    0  502  0.77214718332E+03 -0.51994383370E+03 -0.48756766604E+03  0.10508449419E+04  0.50400001928E-02 0. -1.
</event>
<event>
 5   0  0.8905646E-05  0.1887145E+04  0.7818609E-02  0.8661282E-01
       -1   -1    0    0    0  501  0.00000000000E+00  0.00000000000E+00  0.48808467235E+03  0.48808467238E+03  0.50400001928E-02 0.  1.
        1   -1    0    0  501    0  0.00000000000E+00  0.00000000000E+00 -0.18241287947E+04  0.18241287948E+04  0.50400001928E-02 0. -1.
    10030    2    1    2    0    0  0.00000000000E+00  0.00000000000E+00 -0.13360441224E+04  0.23122134671E+04  0.18871452569E+04 0.  0.
        1    1    3    3  502    0 -0.72778885279E+03 -0.17935697737E+03 -0.13702523405E+04  0.15618697181E+04  0.50400001928E-02 0. -1.
       -1    1    3    3    0  502  0.72778885279E+03  0.17935697737E+03  0.34208218087E+02  0.75034374908E+03  0.50400001928E-02 0.  1.
</event>
<event>
 5   0  0.1765328E-04  0.1903372E+04  0.7818609E-02  0.8653180E-01
       -2   -1    0    0    0  501  0.00000000000E+00  0.00000000000E+00  0.45203823836E+03  0.45203823837E+03  0.25500000920E-02 0.  1.
        2   -1    0    0  501    0  0.00000000000E+00  0.00000000000E+00 -0.20036062586E+04  0.20036062586E+04  0.25500000920E-02 0. -1.
    10030    2    1    2    0    0  0.00000000000E+00  0.00000000000E+00 -0.15515680202E+04  0.24556444970E+04  0.19033724213E+04 0.  0.
        3    1    3    3  502    0  0.33580135370E+03 -0.74956619745E+03 -0.15557707170E+03  0.83595231260E+03  0.10100000352E+00 0.  1.
       -3    1    3    3    0  502 -0.33580135370E+03  0.74956619745E+03 -0.13959909485E+04  0.16196921844E+04  0.10100000352E+00 0. -1.
</event>
<event>
 5   0  0.1799738E-04  0.1968350E+04  0.7818609E-02  0.8621563E-01
       -2   -1    0    0    0  501  0.00000000000E+00  0.00000000000E+00  0.62596227220E+03  0.62596227220E+03  0.25500000920E-02 0. -1.
        2   -1    0    0  501    0  0.00000000000E+00  0.00000000000E+00 -0.15473787217E+04  0.15473787217E+04  0.25500000920E-02 0.  1.
    10030    2    1    2    0    0  0.00000000000E+00  0.00000000000E+00 -0.92141644948E+03  0.21733409939E+04  0.19683502743E+04 0.  0.
        1    1    3    3  502    0 -0.47452503337E+03  0.34650130210E+03 -0.13324667147E+04  0.14562639546E+04  0.50400001928E-02 0.  1.
       -1    1    3    3    0  502  0.47452503337E+03 -0.34650130210E+03  0.41105026525E+03  0.71707703926E+03  0.50400001928E-02 0. -1.
</event>
<event>
 5   0  0.1799738E-04  0.1949381E+04  0.7818609E-02  0.8630659E-01
        2   -1    0    0  501    0  0.00000000000E+00  0.00000000000E+00  0.21603319447E+04  0.21603319447E+04  0.25500000920E-02 0.  1.
       -2   -1    0    0    0  501  0.00000000000E+00  0.00000000000E+00 -0.43975723604E+03  0.43975723605E+03  0.25500000920E-02 0. -1.
    10030    2    1    2    0    0  0.00000000000E+00  0.00000000000E+00  0.17205747086E+04  0.26000891807E+04  0.19493810350E+04 0.  0.
        1    1    3    3  502    0 -0.23733426573E+03  0.41921058343E+03  0.19904490529E+04  0.20479141825E+04  0.50400001928E-02 0.  1.
       -1    1    3    3    0  502  0.23733426573E+03 -0.41921058343E+03 -0.26987434422E+03  0.55217499820E+03  0.50400001928E-02 0. -1.
</event>
<event>
 5   0  0.1790832E-04  0.1927772E+04  0.7818609E-02  0.8641155E-01
       -2   -1    0    0    0  501  0.00000000000E+00  0.00000000000E+00  0.87030176020E+03  0.87030176021E+03  0.25500000920E-02 0.  1.
        2   -1    0    0  501    0  0.00000000000E+00  0.00000000000E+00 -0.10675331060E+04  0.10675331060E+04  0.25500000920E-02 0. -1.
    10030    2    1    2    0    0  0.00000000000E+00  0.00000000000E+00 -0.19723134584E+03  0.19378348663E+04  0.19277717098E+04 0.  0.
        5    1    3    3  502    0  0.24975689548E+03 -0.45137875814E+03 -0.91707261802E+03  0.10522193530E+04  0.46999998093E+01 0. -1.
       -5    1    3    3    0  502 -0.24975689548E+03  0.45137875814E+03  0.71984127218E+03  0.88561551323E+03  0.46999998093E+01 0.  1.
</event>
<event>
 5   0  0.8587082E-05  0.1893384E+04  0.7818609E-02  0.8658157E-01
       -1   -1    0    0    0  501  0.00000000000E+00  0.00000000000E+00  0.13239497524E+04  0.13239497524E+04  0.50400001928E-02 0.  1.
        1   -1    0    0  501    0  0.00000000000E+00  0.00000000000E+00 -0.67693323471E+03  0.67693323473E+03  0.50400001928E-02 0. -1.
    10030    2    1    2    0    0  0.00000000000E+00  0.00000000000E+00  0.64701651771E+03  0.20008829872E+04  0.18933838370E+04 0.  0.
        5    1    3    3  502    0  0.56726128173E+03 -0.74408577757E+03  0.47575187263E+03  0.10496718251E+04  0.46999998093E+01 0. -1.
       -5    1    3    3    0  502 -0.56726128173E+03  0.74408577757E+03  0.17126464508E+03  0.95121116204E+03  0.46999998093E+01 0.  1.
</event>
<event>
 5   0  0.1765328E-04  0.1909660E+04  0.7818609E-02  0.8650063E-01
       -2   -1    0    0    0  501  0.00000000000E+00  0.00000000000E+00  0.67348295063E+03  0.67348295063E+03  0.25500000920E-02 0. -1.
        2   -1    0    0  501    0  0.00000000000E+00  0.00000000000E+00 -0.13537097791E+04  0.13537097791E+04  0.25500000920E-02 0.  1.
    10030    2    1    2    0    0  0.00000000000E+00  0.00000000000E+00 -0.68022682850E+03  0.20271927298E+04  0.19096601335E+04 0.  0.
        3    1    3    3  502    0  0.31096534095E+03 -0.87067463315E+03 -0.86835740053E+02  0.92860875294E+03  0.10100000352E+00 0. -1.
       -3    1    3    3    0  502 -0.31096534095E+03  0.87067463315E+03 -0.59339108845E+03  0.10985839768E+04  0.10100000352E+00 0.  1.
</event>
<event>
 5   0  0.8602017E-05  0.1895791E+04  0.7818609E-02  0.8656954E-01
       -1   -1    0    0    0  501  0.00000000000E+00  0.00000000000E+00  0.85504732996E+03  0.85504732998E+03  0.50400001928E-02 0.  1.
        1   -1    0    0  501    0  0.00000000000E+00  0.00000000000E+00 -0.10508256227E+04  0.10508256227E+04  0.50400001928E-02 0. -1.
    10030    2    1    2    0    0  0.00000000000E+00  0.00000000000E+00 -0.19577829276E+03  0.19058729527E+04  0.18957907511E+04 0.  0.
        2    1    3    3  502    0 -0.67883021893E+03  0.52737522010E+03 -0.49947640305E+03  0.99418899919E+03  0.25500000920E-02 0. -1.
       -2    1    3    3    0  502  0.67883021893E+03 -0.52737522010E+03  0.30369811029E+03  0.91168395352E+03  0.25500000920E-02 0.  1.
</event>
<event>
 5   0  0.8905646E-05  0.1868206E+04  0.7818609E-02  0.8670846E-01
       -1   -1    0    0    0  501  0.00000000000E+00  0.00000000000E+00  0.48657223109E+03  0.48657223111E+03  0.50400001928E-02 0.  1.
        1   -1    0    0  501    0  0.00000000000E+00  0.00000000000E+00 -0.17932557557E+04  0.17932557557E+04  0.50400001928E-02 0. -1.
    10030    2    1    2    0    0  0.00000000000E+00  0.00000000000E+00 -0.13066835246E+04  0.22798279869E+04  0.18682060422E+04 0.  0.
        1    1    3    3  502    0 -0.50471653504E+03 -0.44937976744E+03  0.13362211484E+03  0.68886560789E+03  0.50400001928E-02 0.  1.
       -1    1    3    3    0  502  0.50471653504E+03  0.44937976744E+03 -0.14403056395E+04  0.15909623790E+04  0.50400001928E-02 0. -1.
</event>
<event>
 5   0  0.8681396E-05  0.1894929E+04  0.7818609E-02  0.8657385E-01
       -1   -1    0    0    0  501  0.00000000000E+00  0.00000000000E+00  0.16904535025E+04  0.16904535025E+04  0.50400001928E-02 0.  1.
        1   -1    0    0  501    0  0.00000000000E+00  0.00000000000E+00 -0.53103429599E+03  0.53103429602E+03  0.50400001928E-02 0. -1.
    10030    2    1    2    0    0  0.00000000000E+00  0.00000000000E+00  0.11594192065E+04  0.22214877985E+04  0.18949287962E+04 0.  0.
        3    1    3    3  502    0 -0.40978487079E+03 -0.36291622378E+03 -0.32690415915E+03  0.63757208634E+03  0.10100000352E+00 0. -1.
       -3    1    3    3    0  502  0.40978487079E+03  0.36291622378E+03  0.14863233657E+04  0.15839157122E+04  0.10100000352E+00 0.  1.
</event>
<event>
 5   0  0.8681396E-05  0.1919435E+04  0.7818609E-02  0.8645242E-01
        1   -1    0    0  501    0  0.00000000000E+00  0.00000000000E+00  0.12479926837E+04  0.12479926837E+04  0.50400001928E-02 0.  1.
       -1   -1    0    0    0  501  0.00000000000E+00  0.00000000000E+00 -0.73803164460E+03  0.73803164462E+03  0.50400001928E-02 0. -1.
    10030    2    1    2    0    0  0.00000000000E+00  0.00000000000E+00  0.50996103910E+03  0.19860243283E+04  0.19194354304E+04 0.  0.
        3    1    3    3  502    0  0.36706466551E+03  0.47862991366E+03 -0.51739812619E+03  0.79468477656E+03  0.10100000352E+00 0. -1.
       -3    1    3    3    0  502 -0.36706466551E+03 -0.47862991366E+03  0.10273591653E+04  0.11913395518E+04  0.10100000352E+00 0.  1.
</event>
<event>
 5   0  0.1658711E-04  0.2154342E+04  0.7818609E-02  0.8537676E-01
        2   -1    0    0  501    0  0.00000000000E+00  0.00000000000E+00  0.13181243979E+04  0.13181243979E+04  0.25500000920E-02 0.  1.
       -2   -1    0    0    0  501  0.00000000000E+00  0.00000000000E+00 -0.88026373371E+03  0.88026373372E+03  0.25500000920E-02 0. -1.
    10030    2    1    2    0    0  0.00000000000E+00  0.00000000000E+00  0.43786066419E+03  0.21983881316E+04  0.21543417593E+04 0.  0.
        2    1    3    3  502    0 -0.49246646555E+03  0.89058807424E+03 -0.14131257136E+03  0.10274432250E+04  0.25500000920E-02 0. -1.
       -2    1    3    3    0  502  0.49246646555E+03 -0.89058807424E+03  0.57917323555E+03  0.11709449067E+04  0.25500000920E-02 0.  1.
</event>
<event>
 5   0  0.8587082E-05  0.1943092E+04  0.7818609E-02  0.8633699E-01
        1   -1    0    0  501    0  0.00000000000E+00  0.00000000000E+00  0.81251526457E+03  0.81251526459E+03  0.50400001928E-02 0. -1.
       -1   -1    0    0    0  501  0.00000000000E+00  0.00000000000E+00 -0.11617035652E+04  0.11617035652E+04  0.50400001928E-02 0.  1.
    10030    2    1    2    0    0  0.00000000000E+00  0.00000000000E+00 -0.34918830064E+03  0.19742188298E+04  0.19430922569E+04 0.  0.
        5    1    3    3  502    0  0.62329910993E+03  0.70838593212E+03 -0.40974798926E+03  0.10287020531E+04  0.46999998093E+01 0.  1.
       -5    1    3    3    0  502 -0.62329910993E+03 -0.70838593212E+03  0.60559688618E+02  0.94551677676E+03  0.46999998093E+01 0. -1.
</event>
<event>
 5   0  0.1790832E-04  0.1945096E+04  0.7818609E-02  0.8632729E-01
       -2   -1    0    0    0  501  0.00000000000E+00  0.00000000000E+00  0.67580152535E+03  0.67580152535E+03  0.25500000920E-02 0. -1.
        2   -1    0    0  501    0  0.00000000000E+00  0.00000000000E+00 -0.13995964669E+04  0.13995964669E+04  0.25500000920E-02 0.  1.
    10030    2    1    2    0    0  0.00000000000E+00  0.00000000000E+00 -0.72379494151E+03  0.20753979922E+04  0.19450958097E+04 0.  0.
        5    1    3    3  502    0 -0.41480342815E+03 -0.37124456662E+03 -0.12127797207E+04  0.13344441364E+04  0.46999998093E+01 0.  1.
       -5    1    3    3    0  502  0.41480342815E+03  0.37124456662E+03  0.48898477915E+03  0.74095385584E+03  0.46999998093E+01 0. -1.
</event>
<event>
 5   0  0.8602017E-05  0.1902537E+04  0.7818609E-02  0.8653595E-01
       -1   -1    0    0    0  501  0.00000000000E+00  0.00000000000E+00  0.10193292538E+04  0.10193292538E+04  0.50400001928E-02 0. -1.
        1   -1    0    0  501    0  0.00000000000E+00  0.00000000000E+00 -0.88775190934E+03  0.88775190935E+03  0.50400001928E-02 0.  1.
    10030    2    1    2    0    0  0.00000000000E+00  0.00000000000E+00  0.13157734444E+03  0.19070811631E+04  0.19025367185E+04 0.  0.
        2    1    3    3  502    0  0.54368900409E+03 -0.15485272307E+02 -0.71650739500E+03  0.89956677013E+03  0.25500000920E-02 0.  1.
       -2    1    3    3    0  502 -0.54368900409E+03  0.15485272307E+02  0.84808473944E+03  0.10075143930E+04  0.25500000920E-02 0. -1.
</event>
<event>
 5   0  0.6375750E-05  0.1873217E+04  0.7818609E-02  0.8668304E-01
       -4   -1    0    0    0  501  0.00000000000E+00  0.00000000000E+00  0.99870350373E+03  0.99870431123E+03  0.12699999809E+01 0.  1.
        4   -1    0    0  501    0  0.00000000000E+00  0.00000000000E+00 -0.87837286861E+03  0.87837378673E+03  0.12699999809E+01 0. -1.
    10030    2    1    2    0    0  0.00000000000E+00  0.00000000000E+00  0.12033063512E+03  0.18770780980E+04  0.18732172122E+04 0.  0.
        1    1    3    3  502    0  0.39505394061E+02  0.60548738241E+03  0.77512031138E+03  0.98437144593E+03  0.50400001928E-02 0.  1.
       -1    1    3    3    0  502 -0.39505394061E+02 -0.60548738241E+03 -0.65478967626E+03  0.89270665203E+03  0.50400001928E-02 0. -1.
</event>
<event>
 5   0  0.8905646E-05  0.1905231E+04  0.7818609E-02  0.8652257E-01
       -1   -1    0    0    0  501  0.00000000000E+00  0.00000000000E+00  0.95266177508E+03  0.95266177510E+03  0.50400001928E-02 0.  1.
        1   -1    0    0  501    0  0.00000000000E+00  0.00000000000E+00 -0.95256934416E+03  0.95256934417E+03  0.50400001928E-02 0. -1.
    10030    2    1    2    0    0  0.00000000000E+00  0.00000000000E+00  0.92430923630E-01  0.19052311193E+04  0.19052311170E+04 0.  0.
        1    1    3    3  502    0  0.23262110792E+03  0.80817534349E+03 -0.44740929862E+03  0.95259385165E+03  0.50400001928E-02 0. -1.
       -1    1    3    3    0  502 -0.23262110792E+03 -0.80817534349E+03  0.44750172955E+03  0.95263726762E+03  0.50400001928E-02 0.  1.
</event>
<event>
 5   0  0.8602017E-05  0.1890731E+04  0.7818609E-02  0.8659484E-01
        1   -1    0    0  501    0  0.00000000000E+00  0.00000000000E+00  0.89885580603E+03  0.89885580605E+03  0.50400001928E-02 0. -1.
       -1   -1    0    0    0  501  0.00000000000E+00  0.00000000000E+00 -0.99428197353E+03  0.99428197354E+03  0.50400001928E-02 0.  1.
    10030    2    1    2    0    0  0.00000000000E+00  0.00000000000E+00 -0.95426167501E+02  0.18931377796E+04  0.18907312075E+04 0.  0.
        2    1    3    3  502    0 -0.15057485568E+03 -0.36601325121E+03  0.81191193625E+03  0.90323832927E+03  0.25500000920E-02 0. -1.
       -2    1    3    3    0  502  0.15057485568E+03  0.36601325121E+03 -0.90733810375E+03  0.98989945032E+03  0.25500000920E-02 0.  1.
</event>
<event>
 5   0  0.1799738E-04  0.1901412E+04  0.7818609E-02  0.8654154E-01
        2   -1    0    0  501    0  0.00000000000E+00  0.00000000000E+00  0.10432408566E+04  0.10432408566E+04  0.25500000920E-02 0.  1.
       -2   -1    0    0    0  501  0.00000000000E+00  0.00000000000E+00 -0.86637925689E+03  0.86637925690E+03  0.25500000920E-02 0. -1.
    10030    2    1    2    0    0  0.00000000000E+00  0.00000000000E+00  0.17686159966E+03  0.19096201135E+04  0.19014123572E+04 0.  0.
        1    1    3    3  502    0  0.58107649144E+02  0.85715349529E+03  0.49731674762E+03  0.99267948546E+03  0.50400001928E-02 0.  1.
       -1    1    3    3    0  502 -0.58107649144E+02 -0.85715349529E+03 -0.32045514796E+03  0.91694062799E+03  0.50400001928E-02 0. -1.
</event>
<event>
 5   0  0.1799738E-04  0.1894356E+04  0.7818609E-02  0.8657671E-01
       -2   -1    0    0    0  501  0.00000000000E+00  0.00000000000E+00  0.51192626379E+03  0.51192626380E+03  0.25500000920E-02 0.  1.
        2   -1    0    0  501    0  0.00000000000E+00  0.00000000000E+00 -0.17524907897E+04  0.17524907897E+04  0.25500000920E-02 0. -1.
    10030    2    1    2    0    0  0.00000000000E+00  0.00000000000E+00 -0.12405645259E+04  0.22644170535E+04  0.18943558930E+04 0.  0.
        1    1    3    3  502    0  0.14057237672E+03  0.28654728470E+03 -0.16862739437E+04  0.17162137841E+04  0.50400001928E-02 0. -1.
       -1    1    3    3    0  502 -0.14057237672E+03 -0.28654728470E+03  0.44570941779E+03  0.54820326941E+03  0.50400001928E-02 0.  1.
</event>
<event>
 5   0  0.6375750E-05  0.1917214E+04  0.7818609E-02  0.8646335E-01
       -3   -1    0    0    0  501  0.00000000000E+00  0.00000000000E+00  0.81990145248E+03  0.81990145870E+03  0.10100000352E+00 0.  1.
        3   -1    0    0  501    0  0.00000000000E+00  0.00000000000E+00 -0.11207777667E+04  0.11207777713E+04  0.10100000352E+00 0. -1.
    10030    2    1    2    0    0  0.00000000000E+00  0.00000000000E+00 -0.30087631427E+03  0.19406792300E+04  0.19172139466E+04 0.  0.
        1    1    3    3  502    0  0.72118716849E+03  0.17993729277E+03  0.46231280797E+03  0.87534078722E+03  0.50400001928E-02 0.  1.
       -1    1    3    3    0  502 -0.72118716849E+03 -0.17993729277E+03 -0.76318912224E+03  0.10653384428E+04  0.50400001928E-02 0. -1.
</event>
<event>
 5   0  0.8567844E-05  0.1989002E+04  0.7818609E-02  0.8611780E-01
        1   -1    0    0  501    0  0.00000000000E+00  0.00000000000E+00  0.83962700344E+03  0.83962700346E+03  0.50400001928E-02 0.  1.
       -1   -1    0    0    0  501  0.00000000000E+00  0.00000000000E+00 -0.11779421405E+04  0.11779421405E+04  0.50400001928E-02 0. -1.
    10030    2    1    2    0    0  0.00000000000E+00  0.00000000000E+00 -0.33831513703E+03  0.20175691439E+04  0.19890017895E+04 0.  0.
        4    1    3    3  502    0  0.90185369723E+03  0.30023244495E+03  0.12753406694E+03  0.95903397403E+03  0.12699999809E+01 0.  1.
       -4    1    3    3    0  502 -0.90185369723E+03 -0.30023244495E+03 -0.46584920398E+03  0.10585351699E+04  0.12699999809E+01 0. -1.
</event>
<event>
 5   0  0.1790832E-04  0.1599595E+04  0.7818609E-02  0.8820797E-01
        2   -1    0    0  501    0  0.00000000000E+00  0.00000000000E+00  0.17847314456E+04  0.17847314456E+04  0.25500000920E-02 0.  1.
       -2   -1    0    0    0  501  0.00000000000E+00  0.00000000000E+00 -0.35841602150E+03  0.35841602151E+03  0.25500000920E-02 0. -1.
    10030    2    1    2    0    0  0.00000000000E+00  0.00000000000E+00  0.14263154241E+04  0.21431474671E+04  0.15995953791E+04 0.  0.
        5    1    3    3  502    0 -0.60547220025E+03 -0.44830754655E+03  0.35345532805E+03  0.83218327338E+03  0.46999998093E+01 0.  1.
       -5    1    3    3    0  502  0.60547220025E+03  0.44830754655E+03  0.10728600960E+04  0.13109641937E+04  0.46999998093E+01 0. -1.
</event>
<event>
 5   0  0.8587082E-05  0.1904998E+04  0.7818609E-02  0.8652372E-01
       -1   -1    0    0    0  501  0.00000000000E+00  0.00000000000E+00  0.79658529080E+03  0.79658529082E+03  0.50400001928E-02 0. -1.
        1   -1    0    0  501    0  0.00000000000E+00  0.00000000000E+00 -0.11389297925E+04  0.11389297925E+04  0.50400001928E-02 0.  1.
    10030    2    1    2    0    0  0.00000000000E+00  0.00000000000E+00 -0.34234450167E+03  0.19355150833E+04  0.19049983937E+04 0.  0.
        5    1    3    3  502    0  0.64890862294E+03 -0.27301116290E+03  0.48067766440E+03  0.85246149652E+03  0.46999998093E+01 0. -1.
       -5    1    3    3    0  502 -0.64890862294E+03  0.27301116290E+03 -0.82302216606E+03  0.10830535868E+04  0.46999998093E+01 0.  1.
</event>
<event>
 5   0  0.8602017E-05  0.1901586E+04  0.7818609E-02  0.8654067E-01
        1   -1    0    0  501    0  0.00000000000E+00  0.00000000000E+00  0.17892667151E+04  0.17892667151E+04  0.50400001928E-02 0. -1.
       -1   -1    0    0    0  501  0.00000000000E+00  0.00000000000E+00 -0.50523893877E+03  0.50523893879E+03  0.50400001928E-02 0.  1.
    10030    2    1    2    0    0  0.00000000000E+00  0.00000000000E+00  0.12840277764E+04  0.22945056539E+04  0.19015858817E+04 0.  0.
        2    1    3    3  502    0  0.15193115454E+03 -0.80934926293E+03  0.12154830508E+04  0.14681717719E+04  0.25500000920E-02 0. -1.
       -2    1    3    3    0  502 -0.15193115454E+03  0.80934926293E+03  0.68544725554E+02  0.82633388199E+03  0.25500000920E-02 0.  1.
</event>
<event>
 5   0  0.1790832E-04  0.1900254E+04  0.7818609E-02  0.8654730E-01
       -2   -1    0    0    0  501  0.00000000000E+00  0.00000000000E+00  0.77144477256E+03  0.77144477256E+03  0.25500000920E-02 0. -1.
        2   -1    0    0  501    0  0.00000000000E+00  0.00000000000E+00 -0.11701954651E+04  0.11701954651E+04  0.25500000920E-02 0.  1.
    10030    2    1    2    0    0  0.00000000000E+00  0.00000000000E+00 -0.39875069253E+03  0.19416402377E+04  0.19002538509E+04 0.  0.
        5    1    3    3  502    0 -0.81228417860E+02  0.12790705849E+03 -0.11577591129E+04  0.11676414368E+04  0.46999998093E+01 0.  1.
       -5    1    3    3    0  502  0.81228417860E+02 -0.12790705849E+03  0.75900842038E+03  0.77399880083E+03  0.46999998093E+01 0. -1.
</event>
<event>
 5   0  0.1799738E-04  0.1898256E+04  0.7818609E-02  0.8655725E-01
       -2   -1    0    0    0  501  0.00000000000E+00  0.00000000000E+00  0.12870903484E+04  0.12870903484E+04  0.25500000920E-02 0. -1.
        2   -1    0    0  501    0  0.00000000000E+00  0.00000000000E+00 -0.69990767431E+03  0.69990767432E+03  0.25500000920E-02 0.  1.
    10030    2    1    2    0    0  0.00000000000E+00  0.00000000000E+00  0.58718267409E+03  0.19869980227E+04  0.18982564762E+04 0.  0.
        1    1    3    3  502    0 -0.38820365807E+03  0.34507353838E+03  0.11251255779E+04  0.12392277406E+04  0.50400001928E-02 0.  1.
       -1    1    3    3    0  502  0.38820365807E+03 -0.34507353838E+03 -0.53794290381E+03  0.74777028211E+03  0.50400001928E-02 0. -1.
</event>
<event>
 5   0  0.8602017E-05  0.1905118E+04  0.7818609E-02  0.8652313E-01
        1   -1    0    0  501    0  0.00000000000E+00  0.00000000000E+00  0.16635597692E+04  0.16635597692E+04  0.50400001928E-02 0.  1.
       -1   -1    0    0    0  501  0.00000000000E+00  0.00000000000E+00 -0.54543793896E+03  0.54543793898E+03  0.50400001928E-02 0. -1.
    10030    2    1    2    0    0  0.00000000000E+00  0.00000000000E+00  0.11181218302E+04  0.22089977082E+04  0.19051179616E+04 0.  0.
        2    1    3    3  502    0  0.24391609720E+03 -0.90754109044E+03  0.73959701380E+03  0.11958802767E+04  0.25500000920E-02 0. -1.
       -2    1    3    3    0  502 -0.24391609720E+03  0.90754109044E+03  0.37852481640E+03  0.10131174315E+04  0.25500000920E-02 0.  1.
</event>
<event>
 5   0  0.8587082E-05  0.1898363E+04  0.7818609E-02  0.8655672E-01
        1   -1    0    0  501    0  0.00000000000E+00  0.00000000000E+00  0.19380776448E+04  0.19380776448E+04  0.50400001928E-02 0. -1.
       -1   -1    0    0    0  501  0.00000000000E+00  0.00000000000E+00 -0.46486558362E+03  0.46486558365E+03  0.50400001928E-02 0.  1.
    10030    2    1    2    0    0  0.00000000000E+00  0.00000000000E+00  0.14732120612E+04  0.24029432285E+04  0.18983630796E+04 0.  0.
        5    1    3    3  502    0  0.42361387071E+03 -0.81294435386E+03  0.42501339615E+03  0.10104383756E+04  0.46999998093E+01 0.  1.
       -5    1    3    3    0  502 -0.42361387071E+03  0.81294435386E+03  0.10481986650E+04  0.13925048529E+04  0.46999998093E+01 0. -1.
</event>
<event>
 5   0  0.8681396E-05  0.1895004E+04  0.7818609E-02  0.8657347E-01
       -1   -1    0    0    0  501  0.00000000000E+00  0.00000000000E+00  0.69676490477E+03  0.69676490479E+03  0.50400001928E-02 0. -1.
        1   -1    0    0  501    0  0.00000000000E+00  0.00000000000E+00 -0.12884690514E+04  0.12884690514E+04  0.50400001928E-02 0.  1.
    10030    2    1    2    0    0  0.00000000000E+00  0.00000000000E+00 -0.59170414664E+03  0.19852339562E+04  0.18950039746E+04 0.  0.
        3    1    3    3  502    0  0.52551790886E+03  0.24265202055E+03 -0.10817103748E+04  0.12268440898E+04  0.10100000352E+00 0.  1.
       -3    1    3    3    0  502 -0.52551790886E+03 -0.24265202055E+03  0.49000622815E+03  0.75838986639E+03  0.10100000352E+00 0. -1.
</event>
<event>
 5   0  0.8681396E-05  0.1889681E+04  0.7818609E-02  0.8660010E-01
        1   -1    0    0  501    0  0.00000000000E+00  0.00000000000E+00  0.77620224964E+03  0.77620224966E+03  0.50400001928E-02 0. -1.
       -1   -1    0    0    0  501  0.00000000000E+00  0.00000000000E+00 -0.11501170925E+04  0.11501170925E+04  0.50400001928E-02 0.  1.
    10030    2    1    2    0    0  0.00000000000E+00  0.00000000000E+00 -0.37391484287E+03  0.19263193422E+04  0.18896808985E+04 0.  0.
        3    1    3    3  502    0  0.24271856530E+03 -0.19945642298E+03  0.72140216184E+03  0.78683940923E+03  0.10100000352E+00 0. -1.
       -3    1    3    3    0  502 -0.24271856530E+03  0.19945642298E+03 -0.10953170047E+04  0.11394799330E+04  0.10100000352E+00 0.  1.
</event>
<event>
 5   0  0.8587082E-05  0.1893069E+04  0.7818609E-02  0.8658314E-01
       -1   -1    0    0    0  501  0.00000000000E+00  0.00000000000E+00  0.73995870847E+03  0.73995870849E+03  0.50400001928E-02 0.  1.
        1   -1    0    0  501    0  0.00000000000E+00  0.00000000000E+00 -0.12107808457E+04  0.12107808457E+04  0.50400001928E-02 0. -1.
    10030    2    1    2    0    0  0.00000000000E+00  0.00000000000E+00 -0.47082213722E+03  0.19507395542E+04  0.18930692865E+04 0.  0.
        5    1    3    3  502    0 -0.32955267913E+03 -0.67666213293E+03 -0.82685527303E+03  0.11181182151E+04  0.46999998093E+01 0. -1.
       -5    1    3    3    0  502  0.32955267913E+03  0.67666213293E+03  0.35603313581E+03  0.83262133906E+03  0.46999998093E+01 0.  1.
</event>
<event>
 5   0  0.8567844E-05  0.1882324E+04  0.7818609E-02  0.8663705E-01
       -1   -1    0    0    0  501  0.00000000000E+00  0.00000000000E+00  0.14126450573E+04  0.14126450573E+04  0.50400001928E-02 0. -1.
        1   -1    0    0  501    0  0.00000000000E+00  0.00000000000E+00 -0.62704091559E+03  0.62704091561E+03  0.50400001928E-02 0.  1.
    10030    2    1    2    0    0  0.00000000000E+00  0.00000000000E+00  0.78560414169E+03  0.20396859729E+04  0.18823243612E+04 0.  0.
        4    1    3    3  502    0  0.89436171064E+03 -0.29015162166E+03  0.43766105683E+03  0.10371208447E+04  0.12699999809E+01 0. -1.
       -4    1    3    3    0  502 -0.89436171064E+03  0.29015162166E+03  0.34794308485E+03  0.10025651282E+04  0.12699999809E+01 0.  1.
</event>
<event>
 5   0  0.8587082E-05  0.1892605E+04  0.7818609E-02  0.8658546E-01
       -1   -1    0    0    0  501  0.00000000000E+00  0.00000000000E+00  0.77956829347E+03  0.77956829348E+03  0.50400001928E-02 0. -1.
        1   -1    0    0  501    0  0.00000000000E+00  0.00000000000E+00 -0.11486975523E+04  0.11486975523E+04  0.50400001928E-02 0.  1.
    10030    2    1    2    0    0  0.00000000000E+00  0.00000000000E+00 -0.36912925880E+03  0.19282658458E+04  0.18926047560E+04 0.  0.
        5    1    3    3  502    0  0.77118499546E+03 -0.53502702954E+03 -0.61939511394E+02  0.94065871209E+03  0.46999998093E+01 0. -1.
       -5    1    3    3    0  502 -0.77118499546E+03  0.53502702954E+03 -0.30718974741E+03  0.98760713367E+03  0.46999998093E+01 0.  1.
</event>
<event>
 5   0  0.1810569E-04  0.1904206E+04  0.7818609E-02  0.8652766E-01
       -2   -1    0    0    0  501  0.00000000000E+00  0.00000000000E+00  0.79949567097E+03  0.79949567098E+03  0.25500000920E-02 0.  1.
        2   -1    0    0  501    0  0.00000000000E+00  0.00000000000E+00 -0.11338397385E+04  0.11338397385E+04  0.25500000920E-02 0. -1.
    10030    2    1    2    0    0  0.00000000000E+00  0.00000000000E+00 -0.33434406750E+03  0.19333354094E+04  0.19042058318E+04 0.  0.
        4    1    3    3  502    0 -0.95044283491E+02  0.56050591394E+03 -0.94259485447E+03  0.11007665365E+04  0.12699999809E+01 0. -1.
       -4    1    3    3    0  502  0.95044283491E+02 -0.56050591394E+03  0.60825078697E+03  0.83256887291E+03  0.12699999809E+01 0.  1.
</event>
<event>
 5   0  0.8587082E-05  0.1897880E+04  0.7818609E-02  0.8655912E-01
        1   -1    0    0  501    0  0.00000000000E+00  0.00000000000E+00  0.15837067024E+04  0.15837067024E+04  0.50400001928E-02 0. -1.
       -1   -1    0    0    0  501  0.00000000000E+00  0.00000000000E+00 -0.56859483283E+03  0.56859483285E+03  0.50400001928E-02 0.  1.
    10030    2    1    2    0    0  0.00000000000E+00  0.00000000000E+00  0.10151118695E+04  0.21523015352E+04  0.18978803415E+04 0.  0.
        5    1    3    3  502    0  0.49057028990E+03 -0.67600035983E+02  0.14255360850E+04  0.15091070849E+04  0.46999998093E+01 0. -1.
       -5    1    3    3    0  502 -0.49057028990E+03  0.67600035983E+02 -0.41042421548E+03  0.64319445026E+03  0.46999998093E+01 0.  1.
</event>
<event>
 5   0  0.1765328E-04  0.1878380E+04  0.7818609E-02  0.8665693E-01
        2   -1    0    0  501    0  0.00000000000E+00  0.00000000000E+00  0.14233571858E+04  0.14233571858E+04  0.25500000920E-02 0. -1.
       -2   -1    0    0    0  501  0.00000000000E+00  0.00000000000E+00 -0.61971655659E+03  0.61971655659E+03  0.25500000920E-02 0.  1.
    10030    2    1    2    0    0  0.00000000000E+00  0.00000000000E+00  0.80364062918E+03  0.20430737424E+04  0.18783801681E+04 0.  0.
        3    1    3    3  502    0 -0.83815562687E+03 -0.40686971549E+03  0.27298580049E+03  0.97085996813E+03  0.10100000352E+00 0.  1.
       -3    1    3    3    0  502  0.83815562687E+03  0.40686971549E+03  0.53065482869E+03  0.10722137742E+04  0.10100000352E+00 0. -1.
</event>
<event>
 5   0  0.1765328E-04  0.1873571E+04  0.7818609E-02  0.8668125E-01
       -2   -1    0    0    0  501  0.00000000000E+00  0.00000000000E+00  0.76405990189E+03  0.76405990189E+03  0.25500000920E-02 0.  1.
        2   -1    0    0  501    0  0.00000000000E+00  0.00000000000E+00 -0.11485579295E+04  0.11485579295E+04  0.25500000920E-02 0. -1.
    10030    2    1    2    0    0  0.00000000000E+00  0.00000000000E+00 -0.38449802762E+03  0.19126178314E+04  0.18735709850E+04 0.  0.
        3    1    3    3  502    0  0.66610438788E+03  0.58731752438E+03  0.11217750708E+03  0.89510934153E+03  0.10100000352E+00 0.  1.
       -3    1    3    3    0  502 -0.66610438788E+03 -0.58731752438E+03 -0.49667553469E+03  0.10175084899E+04  0.10100000352E+00 0. -1.
</event>
<event>
 5   0  0.6375750E-05  0.1907910E+04  0.7818609E-02  0.8650929E-01
        4   -1    0    0  501    0  0.00000000000E+00  0.00000000000E+00  0.10695929227E+04  0.10695936767E+04  0.12699999809E+01 0. -1.
       -4   -1    0    0    0  501  0.00000000000E+00  0.00000000000E+00 -0.85081777386E+03  0.85081872171E+03  0.12699999809E+01 0.  1.
    10030    2    1    2    0    0  0.00000000000E+00  0.00000000000E+00  0.21877514886E+03  0.19204123984E+04  0.19079101693E+04 0.  0.
        3    1    3    3  502    0  0.80621246295E+02 -0.38065890157E+02  0.10653910376E+04  0.10691149941E+04  0.10100000352E+00 0. -1.
       -3    1    3    3    0  502 -0.80621246295E+02  0.38065890157E+02 -0.84661588875E+03  0.85129740434E+03  0.10100000352E+00 0.  1.
</event>
<event>
 5   0  0.1790832E-04  0.1875795E+04  0.7818609E-02  0.8666999E-01
        2   -1    0    0  501    0  0.00000000000E+00  0.00000000000E+00  0.10163464229E+04  0.10163464229E+04  0.25500000920E-02 0.  1.
       -2   -1    0    0    0  501  0.00000000000E+00  0.00000000000E+00 -0.86550394830E+03  0.86550394830E+03  0.25500000920E-02 0. -1.
    10030    2    1    2    0    0  0.00000000000E+00  0.00000000000E+00  0.15084247461E+03  0.18818503712E+04  0.18757951294E+04 0.  0.
        5    1    3    3  502    0 -0.45354232284E+03 -0.18041536486E+03  0.87886816037E+03  0.10053266513E+04  0.46999998093E+01 0.  1.
       -5    1    3    3    0  502  0.45354232284E+03  0.18041536486E+03 -0.72802568575E+03  0.87652371993E+03  0.46999998093E+01 0. -1.
</event>
<event>
 5   0  0.8587082E-05  0.1887900E+04  0.7818609E-02  0.8660903E-01
        1   -1    0    0  501    0  0.00000000000E+00  0.00000000000E+00  0.13511491001E+04  0.13511491001E+04  0.50400001928E-02 0.  1.
       -1   -1    0    0    0  501  0.00000000000E+00  0.00000000000E+00 -0.65946942075E+03  0.65946942077E+03  0.50400001928E-02 0. -1.
    10030    2    1    2    0    0  0.00000000000E+00  0.00000000000E+00  0.69167967934E+03  0.20106185209E+04  0.18878999067E+04 0.  0.
        5    1    3    3  502    0 -0.50930125566E+03 -0.25366575915E+03  0.11479822769E+04  0.12812569939E+04  0.46999998093E+01 0.  1.
       -5    1    3    3    0  502  0.50930125566E+03  0.25366575915E+03 -0.45630259760E+03  0.72936152692E+03  0.46999998093E+01 0. -1.
</event>
<event>
 5   0  0.8602017E-05  0.1894986E+04  0.7818609E-02  0.8657356E-01
        1   -1    0    0  501    0  0.00000000000E+00  0.00000000000E+00  0.13439281724E+04  0.13439281725E+04  0.50400001928E-02 0. -1.
       -1   -1    0    0    0  501  0.00000000000E+00  0.00000000000E+00 -0.66799917740E+03  0.66799917742E+03  0.50400001928E-02 0.  1.
    10030    2    1    2    0    0  0.00000000000E+00  0.00000000000E+00  0.67592899504E+03  0.20119273499E+04  0.18949859247E+04 0.  0.
        2    1    3    3  502    0 -0.27825112846E+02 -0.94327665021E+03  0.42804013386E+03  0.10362255700E+04  0.25500000920E-02 0. -1.
       -2    1    3    3    0  502  0.27825112846E+02  0.94327665021E+03  0.24788886118E+03  0.97570177987E+03  0.25500000920E-02 0.  1.
</event>
<event>
 5   0  0.1790832E-04  0.1876368E+04  0.7818609E-02  0.8666710E-01
       -2   -1    0    0    0  501  0.00000000000E+00  0.00000000000E+00  0.10814210958E+04  0.10814210958E+04  0.25500000920E-02 0.  1.
        2   -1    0    0  501    0  0.00000000000E+00  0.00000000000E+00 -0.81391942109E+03  0.81391942110E+03  0.25500000920E-02 0. -1.
    10030    2    1    2    0    0  0.00000000000E+00  0.00000000000E+00  0.26750167466E+03  0.18953405169E+04  0.18763684417E+04 0.  0.
        5    1    3    3  502    0 -0.23056401267E+03 -0.93051752462E+02 -0.78002242132E+03  0.81870352407E+03  0.46999998093E+01 0. -1.
       -5    1    3    3    0  502  0.23056401267E+03  0.93051752462E+02  0.10475240960E+04  0.10766369928E+04  0.46999998093E+01 0.  1.
</event>
<event>
 5   0  0.1799738E-04  0.1798141E+04  0.7818609E-02  0.8707289E-01
       -2   -1    0    0    0  501  0.00000000000E+00  0.00000000000E+00  0.90513772659E+03  0.90513772660E+03  0.25500000920E-02 0.  1.
        2   -1    0    0  501    0  0.00000000000E+00  0.00000000000E+00 -0.89304386939E+03  0.89304386940E+03  0.25500000920E-02 0. -1.
    10030    2    1    2    0    0  0.00000000000E+00  0.00000000000E+00  0.12093857200E+02  0.17981815960E+04  0.17981409263E+04 0.  0.
        1    1    3    3  502    0 -0.48427144679E+03 -0.44070734754E+03  0.62216629056E+03  0.90323457280E+03  0.50400001928E-02 0.  1.
       -1    1    3    3    0  502  0.48427144679E+03  0.44070734754E+03 -0.61007243337E+03  0.89494702320E+03  0.50400001928E-02 0. -1.
</event>
<event>
 5   0  0.8602017E-05  0.1905507E+04  0.7818609E-02  0.8652120E-01
        1   -1    0    0  501    0  0.00000000000E+00  0.00000000000E+00  0.13246853325E+04  0.13246853326E+04  0.50400001928E-02 0. -1.
       -1   -1    0    0    0  501  0.00000000000E+00  0.00000000000E+00 -0.68524915252E+03  0.68524915254E+03  0.50400001928E-02 0.  1.
    10030    2    1    2    0    0  0.00000000000E+00  0.00000000000E+00  0.63943618003E+03  0.20099344851E+04  0.19055072831E+04 0.  0.
        2    1    3    3  502    0  0.30436033582E+03  0.66997181629E+03 -0.31862681056E+03  0.80188558601E+03  0.25500000920E-02 0.  1.
       -2    1    3    3    0  502 -0.30436033582E+03 -0.66997181629E+03  0.95806299059E+03  0.12080488991E+04  0.25500000920E-02 0. -1.
</event>
<event>
 5   0  0.1799738E-04  0.1896519E+04  0.7818609E-02  0.8656591E-01
       -2   -1    0    0    0  501  0.00000000000E+00  0.00000000000E+00  0.76007706705E+03  0.76007706705E+03  0.25500000920E-02 0. -1.
        2   -1    0    0  501    0  0.00000000000E+00  0.00000000000E+00 -0.11830328692E+04  0.11830328692E+04  0.25500000920E-02 0.  1.
    10030    2    1    2    0    0  0.00000000000E+00  0.00000000000E+00 -0.42295580216E+03  0.19431099363E+04  0.18965190782E+04 0.  0.
        1    1    3    3  502    0 -0.35141115838E+03  0.47903116789E+03  0.54575611364E+03  0.80672820556E+03  0.50400001928E-02 0. -1.
       -1    1    3    3    0  502  0.35141115838E+03 -0.47903116789E+03 -0.96871191580E+03  0.11363817307E+04  0.50400001928E-02 0.  1.
</event>
<event>
 5   0  0.8567844E-05  0.1937056E+04  0.7818609E-02  0.8636628E-01
        1   -1    0    0  501    0  0.00000000000E+00  0.00000000000E+00  0.14952486308E+04  0.14952486308E+04  0.50400001928E-02 0.  1.
       -1   -1    0    0    0  501  0.00000000000E+00  0.00000000000E+00 -0.62735144711E+03  0.62735144713E+03  0.50400001928E-02 0. -1.
    10030    2    1    2    0    0  0.00000000000E+00  0.00000000000E+00  0.86789718373E+03  0.21226000780E+04  0.19370559025E+04 0.  0.
        4    1    3    3  502    0 -0.25134411240E+03 -0.92283135447E+03  0.26685205147E+03  0.99297693926E+03  0.12699999809E+01 0.  1.
       -4    1    3    3    0  502  0.25134411240E+03  0.92283135447E+03  0.60104513226E+03  0.11296231387E+04  0.12699999809E+01 0. -1.
</event>
<event>
 5   0  0.1765328E-04  0.1828785E+04  0.7818609E-02  0.8691140E-01
        2   -1    0    0  501    0  0.00000000000E+00  0.00000000000E+00  0.12400674572E+04  0.12400674572E+04  0.25500000920E-02 0.  1.
       -2   -1    0    0    0  501  0.00000000000E+00  0.00000000000E+00 -0.67424851181E+03  0.67424851182E+03  0.25500000920E-02 0. -1.
    10030    2    1    2    0    0  0.00000000000E+00  0.00000000000E+00  0.56581894537E+03  0.19143159690E+04  0.18287849929E+04 0.  0.
        3    1    3    3  502    0 -0.59913878490E+03 -0.67051330844E+03  0.45668025932E+03  0.10085198311E+04  0.10100000352E+00 0. -1.
       -3    1    3    3    0  502  0.59913878490E+03  0.67051330844E+03  0.10913868605E+03  0.90579613786E+03  0.10100000352E+00 0.  1.
</event>
<event>
 5   0  0.8567844E-05  0.1893506E+04  0.7818609E-02  0.8658096E-01
       -1   -1    0    0    0  501  0.00000000000E+00  0.00000000000E+00  0.10065091265E+04  0.10065091265E+04  0.50400001928E-02 0.  1.
        1   -1    0    0  501    0  0.00000000000E+00  0.00000000000E+00 -0.89054425658E+03  0.89054425659E+03  0.50400001928E-02 0. -1.
    10030    2    1    2    0    0  0.00000000000E+00  0.00000000000E+00  0.11596486990E+03  0.18970533831E+04  0.18935056607E+04 0.  0.
        4    1    3    3  502    0  0.81963232539E+03  0.91231743219E+02  0.52384713114E+03  0.97700450844E+03  0.12699999809E+01 0.  1.
       -4    1    3    3    0  502 -0.81963232539E+03 -0.91231743219E+02 -0.40788226124E+03  0.92004887465E+03  0.12699999809E+01 0. -1.
</event>
<event>
 5   0  0.1765328E-04  0.1856516E+04  0.7818609E-02  0.8676809E-01
        2   -1    0    0  501    0  0.00000000000E+00  0.00000000000E+00  0.12565119317E+04  0.12565119317E+04  0.25500000920E-02 0.  1.
       -2   -1    0    0    0  501  0.00000000000E+00  0.00000000000E+00 -0.68575780355E+03  0.68575780356E+03  0.25500000920E-02 0. -1.
    10030    2    1    2    0    0  0.00000000000E+00  0.00000000000E+00  0.57075412814E+03  0.19422697353E+04  0.18565159438E+04 0.  0.
        3    1    3    3  502    0 -0.43148705525E+03  0.51178933188E+03  0.95816266092E+03  0.11688392080E+04  0.10100000352E+00 0.  1.
       -3    1    3    3    0  502  0.43148705525E+03 -0.51178933188E+03 -0.38740853278E+03  0.77343052730E+03  0.10100000352E+00 0. -1.
</event>
<event>
 5   0  0.1810569E-04  0.1924991E+04  0.7818609E-02  0.8642516E-01
       -2   -1    0    0    0  501  0.00000000000E+00  0.00000000000E+00  0.61219926293E+03  0.61219926294E+03  0.25500000920E-02 0.  1.
        2   -1    0    0  501    0  0.00000000000E+00  0.00000000000E+00 -0.15132286317E+04  0.15132286317E+04  0.25500000920E-02 0. -1.
    10030    2    1    2    0    0  0.00000000000E+00  0.00000000000E+00 -0.90102936879E+03  0.21254278947E+04  0.19249908602E+04 0.  0.
        4    1    3    3  502    0 -0.92699015465E+03  0.24895997441E+03 -0.37163338136E+03  0.10292739182E+04  0.12699999809E+01 0.  1.
       -4    1    3    3    0  502  0.92699015465E+03 -0.24895997441E+03 -0.52939598743E+03  0.10961539764E+04  0.12699999809E+01 0. -1.
</event>
<event>
 5   0  0.1658711E-04  0.1904606E+04  0.7818609E-02  0.8652567E-01
        2   -1    0    0  501    0  0.00000000000E+00  0.00000000000E+00  0.86594476710E+03  0.86594476710E+03  0.25500000920E-02 0.  1.
       -2   -1    0    0    0  501  0.00000000000E+00  0.00000000000E+00 -0.10472734796E+04  0.10472734796E+04  0.25500000920E-02 0. -1.
    10030    2    1    2    0    0  0.00000000000E+00  0.00000000000E+00 -0.18132871253E+03  0.19132182467E+04  0.19046059849E+04 0.  0.
        2    1    3    3  502    0  0.92900209188E+03 -0.21585678482E+02 -0.29986108429E+03  0.97643612085E+03  0.25500000920E-02 0. -1.
       -2    1    3    3    0  502 -0.92900209188E+03  0.21585678482E+02  0.11853237175E+03  0.93678212589E+03  0.25500000920E-02 0.  1.
</event>
<event>
 5   0  0.1658711E-04  0.1877825E+04  0.7818609E-02  0.8665974E-01
       -2   -1    0    0    0  501  0.00000000000E+00  0.00000000000E+00  0.12961613269E+04  0.12961613269E+04  0.25500000920E-02 0.  1.
        2   -1    0    0  501    0  0.00000000000E+00  0.00000000000E+00 -0.68012888571E+03  0.68012888572E+03  0.25500000920E-02 0. -1.
    10030    2    1    2    0    0  0.00000000000E+00  0.00000000000E+00  0.61603244118E+03  0.19762902126E+04  0.18778250813E+04 0.  0.
        2    1    3    3  502    0  0.60113918125E+03 -0.43213808767E+03 -0.29970970722E+03  0.79870992898E+03  0.25500000920E-02 0. -1.
       -2    1    3    3    0  502 -0.60113918125E+03  0.43213808767E+03  0.91574214840E+03  0.11775802836E+04  0.25500000920E-02 0.  1.
</event>
<event>
 5   0  0.8567844E-05  0.1917046E+04  0.7818609E-02  0.8646418E-01
        1   -1    0    0  501    0  0.00000000000E+00  0.00000000000E+00  0.12572089553E+04  0.12572089553E+04  0.50400001928E-02 0. -1.
       -1   -1    0    0    0  501  0.00000000000E+00  0.00000000000E+00 -0.73079861728E+03  0.73079861730E+03  0.50400001928E-02 0.  1.
    10030    2    1    2    0    0  0.00000000000E+00  0.00000000000E+00  0.52641033802E+03  0.19880075726E+04  0.19170462344E+04 0.  0.
        4    1    3    3  502    0  0.85656266200E+03 -0.20752629320E+03  0.65398025043E+03  0.10974782627E+04  0.12699999809E+01 0.  1.
       -4    1    3    3    0  502 -0.85656266200E+03  0.20752629320E+03 -0.12756991241E+03  0.89052930988E+03  0.12699999809E+01 0. -1.
</event>
<event>
 5   0  0.1658711E-04  0.1921446E+04  0.7818609E-02  0.8644254E-01
        2   -1    0    0  501    0  0.00000000000E+00  0.00000000000E+00  0.16265915420E+04  0.16265915420E+04  0.25500000920E-02 0. -1.
       -2   -1    0    0    0  501  0.00000000000E+00  0.00000000000E+00 -0.56743750397E+03  0.56743750398E+03  0.25500000920E-02 0.  1.
    10030    2    1    2    0    0  0.00000000000E+00  0.00000000000E+00  0.10591540380E+04  0.21940290459E+04  0.19214463766E+04 0.  0.
        2    1    3    3  502    0  0.74610833877E+03  0.57816584117E+03  0.32520055356E+03  0.99835304033E+03  0.25500000920E-02 0.  1.
       -2    1    3    3    0  502 -0.74610833877E+03 -0.57816584117E+03  0.73395348443E+03  0.11956760056E+04  0.25500000920E-02 0. -1.
</event>
<event>
 5   0  0.1790832E-04  0.1812333E+04  0.7818609E-02  0.8699768E-01
        2   -1    0    0  501    0  0.00000000000E+00  0.00000000000E+00  0.11143134307E+04  0.11143134307E+04  0.25500000920E-02 0.  1.
       -2   -1    0    0    0  501  0.00000000000E+00  0.00000000000E+00 -0.73690017423E+03  0.73690017424E+03  0.25500000920E-02 0. -1.
    10030    2    1    2    0    0  0.00000000000E+00  0.00000000000E+00  0.37741325644E+03  0.18512136049E+04  0.18123330392E+04 0.  0.
        5    1    3    3  502    0  0.75363970331E+03  0.49462657072E+03  0.28281028144E+03  0.94479203646E+03  0.46999998093E+01 0.  1.
       -5    1    3    3    0  502 -0.75363970331E+03 -0.49462657072E+03  0.94602975003E+02  0.90642156845E+03  0.46999998093E+01 0. -1.
</event>
<event>
 5   0  0.1790832E-04  0.1892270E+04  0.7818609E-02  0.8658714E-01
       -2   -1    0    0    0  501  0.00000000000E+00  0.00000000000E+00  0.13118358995E+04  0.13118358995E+04  0.25500000920E-02 0. -1.
        2   -1    0    0  501    0  0.00000000000E+00  0.00000000000E+00 -0.68238071427E+03  0.68238071428E+03  0.25500000920E-02 0.  1.
    10030    2    1    2    0    0  0.00000000000E+00  0.00000000000E+00  0.62945518522E+03  0.19942166138E+04  0.18922700844E+04 0.  0.
        5    1    3    3  502    0  0.66126495460E+03  0.37615476839E+03 -0.27805796557E+03  0.81000127912E+03  0.46999998093E+01 0.  1.
       -5    1    3    3    0  502 -0.66126495460E+03 -0.37615476839E+03  0.90751315079E+03  0.11842153346E+04  0.46999998093E+01 0. -1.
</event>
<event>
 5   0  0.1765328E-04  0.1703343E+04  0.7818609E-02  0.8759460E-01
        2   -1    0    0  501    0  0.00000000000E+00  0.00000000000E+00  0.50911738084E+03  0.50911738085E+03  0.25500000920E-02 0. -1.
       -2   -1    0    0    0  501  0.00000000000E+00  0.00000000000E+00 -0.14247095211E+04  0.14247095211E+04  0.25500000920E-02 0.  1.
    10030    2    1    2    0    0  0.00000000000E+00  0.00000000000E+00 -0.91559214028E+03  0.19338269020E+04  0.17033430422E+04 0.  0.
        3    1    3    3  502    0  0.78895474139E+03 -0.30685859424E+03 -0.35170300840E+03  0.91668249528E+03  0.10100000352E+00 0. -1.
       -3    1    3    3    0  502 -0.78895474139E+03  0.30685859424E+03 -0.56388913188E+03  0.10171444067E+04  0.10100000352E+00 0.  1.
</event>
<event>
 5   0  0.8587082E-05  0.1903770E+04  0.7818609E-02  0.8652982E-01
       -1   -1    0    0    0  501  0.00000000000E+00  0.00000000000E+00  0.56285740131E+03  0.56285740133E+03  0.50400001928E-02 0.  1.
        1   -1    0    0  501    0  0.00000000000E+00  0.00000000000E+00 -0.16097945882E+04  0.16097945882E+04  0.50400001928E-02 0. -1.
    10030    2    1    2    0    0  0.00000000000E+00  0.00000000000E+00 -0.10469371869E+04  0.21726519895E+04  0.19037697325E+04 0.  0.
        5    1    3    3  502    0 -0.77018793359E+03  0.21703214658E+03 -0.11118094053E+04  0.13698301535E+04  0.46999998093E+01 0. -1.
       -5    1    3    3    0  502  0.77018793359E+03 -0.21703214658E+03  0.64872218421E+02  0.80282183604E+03  0.46999998093E+01 0.  1.
</event>
<event>
 5   0  0.8905646E-05  0.1894670E+04  0.7818609E-02  0.8657514E-01
        1   -1    0    0  501    0  0.00000000000E+00  0.00000000000E+00  0.14392481250E+04  0.14392481250E+04  0.50400001928E-02 0.  1.
       -1   -1    0    0    0  501  0.00000000000E+00  0.00000000000E+00 -0.62355015227E+03  0.62355015229E+03  0.50400001928E-02 0. -1.
    10030    2    1    2    0    0  0.00000000000E+00  0.00000000000E+00  0.81569797273E+03  0.20627982773E+04  0.18946697734E+04 0.  0.
        1    1    3    3  502    0 -0.13496545852E+03 -0.57940732715E+03 -0.39480606892E+03  0.71400305169E+03  0.50400001928E-02 0. -1.
       -1    1    3    3    0  502  0.13496545852E+03  0.57940732715E+03  0.12105040416E+04  0.13487952256E+04  0.50400001928E-02 0.  1.
</event>
<event>
 5   0  0.1765328E-04  0.1893559E+04  0.7818609E-02  0.8658069E-01
        2   -1    0    0  501    0  0.00000000000E+00  0.00000000000E+00  0.10426642582E+04  0.10426642582E+04  0.25500000920E-02 0. -1.
       -2   -1    0    0    0  501  0.00000000000E+00  0.00000000000E+00 -0.85971201410E+03  0.85971201410E+03  0.25500000920E-02 0.  1.
    10030    2    1    2    0    0  0.00000000000E+00  0.00000000000E+00  0.18295224407E+03  0.19023762723E+04  0.18935585435E+04 0.  0.
        3    1    3    3  502    0 -0.88311656379E+03 -0.15748280035E+03  0.39569851487E+03  0.98044531847E+03  0.10100000352E+00 0. -1.
       -3    1    3    3    0  502  0.88311656379E+03  0.15748280035E+03 -0.21274627080E+03  0.92193095381E+03  0.10100000352E+00 0.  1.
</event>
<event>
 5   0  0.8602017E-05  0.1704306E+04  0.7818609E-02  0.8758912E-01
       -1   -1    0    0    0  501  0.00000000000E+00  0.00000000000E+00  0.88216346376E+03  0.88216346377E+03  0.50400001928E-02 0. -1.
        1   -1    0    0  501    0  0.00000000000E+00  0.00000000000E+00 -0.82316344530E+03  0.82316344531E+03  0.50400001928E-02 0.  1.
    10030    2    1    2    0    0  0.00000000000E+00  0.00000000000E+00  0.59000018461E+02  0.17053269091E+04  0.17043059774E+04 0.  0.
        2    1    3    3  502    0 -0.43191377182E+03 -0.25519507869E+03  0.71874548144E+03  0.87650961293E+03  0.25500000920E-02 0. -1.
       -2    1    3    3    0  502  0.43191377182E+03  0.25519507869E+03 -0.65974546298E+03  0.82881729615E+03  0.25500000920E-02 0.  1.
</event>
<event>
 5   0  0.1810569E-04  0.1896162E+04  0.7818609E-02  0.8656769E-01
       -2   -1    0    0    0  501  0.00000000000E+00  0.00000000000E+00  0.50516956932E+03  0.50516956933E+03  0.25500000920E-02 0. -1.
        2   -1    0    0  501    0  0.00000000000E+00  0.00000000000E+00 -0.17793179551E+04  0.17793179551E+04  0.25500000920E-02 0.  1.
    10030    2    1    2    0    0  0.00000000000E+00  0.00000000000E+00 -0.12741483858E+04  0.22844875245E+04  0.18961616862E+04 0.  0.
        4    1    3    3  502    0  0.42444475435E+03  0.59110723519E+03  0.95075489567E+02  0.73389513870E+03  0.12699999809E+01 0. -1.
       -4    1    3    3    0  502 -0.42444475435E+03 -0.59110723519E+03 -0.13692238754E+04  0.15505923858E+04  0.12699999809E+01 0.  1.
</event>
<event>
 5   0  0.8567844E-05  0.1913783E+04  0.7818609E-02  0.8648026E-01
       -1   -1    0    0    0  501  0.00000000000E+00  0.00000000000E+00  0.66491475195E+03  0.66491475197E+03  0.50400001928E-02 0.  1.
        1   -1    0    0  501    0  0.00000000000E+00  0.00000000000E+00 -0.13770806257E+04  0.13770806257E+04  0.50400001928E-02 0. -1.
    10030    2    1    2    0    0  0.00000000000E+00  0.00000000000E+00 -0.71216587373E+03  0.20419953777E+04  0.19137828745E+04 0.  0.
        4    1    3    3  502    0  0.73761423051E+03 -0.59936747593E+03 -0.47453124728E+03  0.10623076964E+04  0.12699999809E+01 0.  1.
       -4    1    3    3    0  502 -0.73761423051E+03  0.59936747593E+03 -0.23763462646E+03  0.97968768128E+03  0.12699999809E+01 0. -1.
</event>
<event>
 5   0  0.1810569E-04  0.1880655E+04  0.7818609E-02  0.8664546E-01
       -2   -1    0    0    0  501  0.00000000000E+00  0.00000000000E+00  0.60897106219E+03  0.60897106219E+03  0.25500000920E-02 0. -1.
        2   -1    0    0  501    0  0.00000000000E+00  0.00000000000E+00 -0.14519836664E+04  0.14519836664E+04  0.25500000920E-02 0.  1.
    10030    2    1    2    0    0  0.00000000000E+00  0.00000000000E+00 -0.84301260421E+03  0.20609547286E+04  0.18806552428E+04 0.  0.
        4    1    3    3  502    0  0.31411611355E+03  0.37163739411E+03  0.46026519065E+03  0.66979768894E+03  0.12699999809E+01 0. -1.
       -4    1    3    3    0  502 -0.31411611355E+03 -0.37163739411E+03 -0.13032777949E+04  0.13911570396E+04  0.12699999809E+01 0.  1.
</event>
<event>
 5   0  0.1799738E-04  0.1895989E+04  0.7818609E-02  0.8656855E-01
       -2   -1    0    0    0  501  0.00000000000E+00  0.00000000000E+00  0.85801133358E+03  0.85801133358E+03  0.25500000920E-02 0. -1.
        2   -1    0    0  501    0  0.00000000000E+00  0.00000000000E+00 -0.10474145812E+04  0.10474145812E+04  0.25500000920E-02 0.  1.
    10030    2    1    2    0    0  0.00000000000E+00  0.00000000000E+00 -0.18940324763E+03  0.19054259148E+04  0.18959890101E+04 0.  0.
        1    1    3    3  502    0 -0.12656600747E+03  0.34351491140E+03  0.78410613712E+03  0.86535766183E+03  0.50400001928E-02 0. -1.
       -1    1    3    3    0  502  0.12656600747E+03 -0.34351491140E+03 -0.97350938475E+03  0.10400682530E+04  0.50400001928E-02 0.  1.
</event>
<event>
 5   0  0.1658711E-04  0.1888653E+04  0.7818609E-02  0.8660525E-01
        2   -1    0    0  501    0  0.00000000000E+00  0.00000000000E+00  0.12037138289E+04  0.12037138289E+04  0.25500000920E-02 0.  1.
       -2   -1    0    0    0  501  0.00000000000E+00  0.00000000000E+00 -0.74083472147E+03  0.74083472147E+03  0.25500000920E-02 0. -1.
    10030    2    1    2    0    0  0.00000000000E+00  0.00000000000E+00  0.46287910742E+03  0.19445485504E+04  0.18886534877E+04 0.  0.
        2    1    3    3  502    0  0.16426968994E+02  0.28532453408E+03 -0.69523791065E+03  0.75168855749E+03  0.25500000920E-02 0. -1.
       -2    1    3    3    0  502 -0.16426968994E+02 -0.28532453408E+03  0.11581170181E+04  0.11928599929E+04  0.25500000920E-02 0.  1.
</event>
<event>
 5   0  0.8681396E-05  0.1886462E+04  0.7818609E-02  0.8661625E-01
        1   -1    0    0  501    0  0.00000000000E+00  0.00000000000E+00  0.10809959298E+04  0.10809959298E+04  0.50400001928E-02 0. -1.
       -1   -1    0    0    0  501  0.00000000000E+00  0.00000000000E+00 -0.82302312422E+03  0.82302312424E+03  0.50400001928E-02 0.  1.
    10030    2    1    2    0    0  0.00000000000E+00  0.00000000000E+00  0.25797280560E+03  0.19040190541E+04  0.18864619238E+04 0.  0.
        3    1    3    3  502    0 -0.52246600182E+03 -0.20360153658E+03  0.89450449422E+03  0.10557284732E+04  0.10100000352E+00 0. -1.
       -3    1    3    3    0  502  0.52246600182E+03  0.20360153658E+03 -0.63653168862E+03  0.84829058086E+03  0.10100000352E+00 0.  1.
</event>
<event>
 5   0  0.8905646E-05  0.1938034E+04  0.7818609E-02  0.8636153E-01
       -1   -1    0    0    0  501  0.00000000000E+00  0.00000000000E+00  0.14843995825E+04  0.14843995825E+04  0.50400001928E-02 0. -1.
        1   -1    0    0  501    0  0.00000000000E+00  0.00000000000E+00 -0.63257475625E+03  0.63257475627E+03  0.50400001928E-02 0.  1.
    10030    2    1    2    0    0  0.00000000000E+00  0.00000000000E+00  0.85182482625E+03  0.21169743388E+04  0.19380337501E+04 0.  0.
        1    1    3    3  502    0 -0.29738830323E+03  0.70065220402E+02 -0.57858365344E+03  0.65429961184E+03  0.50400001928E-02 0.  1.
       -1    1    3    3    0  502  0.29738830323E+03 -0.70065220402E+02  0.14304084797E+04  0.14626747269E+04  0.50400001928E-02 0. -1.
</event>
<event>
 5   0  0.8602017E-05  0.1683026E+04  0.7818609E-02  0.8771105E-01
        1   -1    0    0  501    0  0.00000000000E+00  0.00000000000E+00  0.20858001873E+04  0.20858001873E+04  0.50400001928E-02 0.  1.
       -1   -1    0    0    0  501  0.00000000000E+00  0.00000000000E+00 -0.33950715232E+03  0.33950715235E+03  0.50400001928E-02 0. -1.
    10030    2    1    2    0    0  0.00000000000E+00  0.00000000000E+00  0.17462930349E+04  0.24253073396E+04  0.16830259439E+04 0.  0.
        2    1    3    3  502    0  0.17106759735E+03  0.21622523111E+02 -0.31377736151E+03  0.35803336293E+03  0.25500000920E-02 0. -1.
       -2    1    3    3    0  502 -0.17106759735E+03 -0.21622523111E+02  0.20600703964E+04  0.20672739767E+04  0.25500000920E-02 0.  1.
</event>
<event>
 5   0  0.1658711E-04  0.1633186E+04  0.7818609E-02  0.8800416E-01
        2   -1    0    0  501    0  0.00000000000E+00  0.00000000000E+00  0.89354656434E+03  0.89354656435E+03  0.25500000920E-02 0.  1.
       -2   -1    0    0    0  501  0.00000000000E+00  0.00000000000E+00 -0.74626659689E+03  0.74626659690E+03  0.25500000920E-02 0. -1.
    10030    2    1    2    0    0  0.00000000000E+00  0.00000000000E+00  0.14727996745E+03  0.16398131612E+04  0.16331857870E+04 0.  0.
        2    1    3    3  502    0 -0.75391269344E+02 -0.55546646645E+03 -0.52256850229E+03  0.76635806151E+03  0.25500000920E-02 0. -1.
       -2    1    3    3    0  502  0.75391269344E+02  0.55546646645E+03  0.66984846974E+03  0.87345509974E+03  0.25500000920E-02 0.  1.
</event>
<event>
 5   0  0.1790832E-04  0.1911381E+04  0.7818609E-02  0.8649212E-01
       -2   -1    0    0    0  501  0.00000000000E+00  0.00000000000E+00  0.68528496695E+03  0.68528496696E+03  0.25500000920E-02 0. -1.
        2   -1    0    0  501    0  0.00000000000E+00  0.00000000000E+00 -0.13327942727E+04  0.13327942727E+04  0.25500000920E-02 0.  1.
    10030    2    1    2    0    0  0.00000000000E+00  0.00000000000E+00 -0.64750930570E+03  0.20180792396E+04  0.19113805263E+04 0.  0.
        5    1    3    3  502    0 -0.22119702473E+03  0.45050733771E+03 -0.11824423410E+04  0.12845532160E+04  0.46999998093E+01 0.  1.
       -5    1    3    3    0  502  0.22119702473E+03 -0.45050733771E+03  0.53493303527E+03  0.73352602360E+03  0.46999998093E+01 0. -1.
</event>
<event>
 5   0  0.8905646E-05  0.1850489E+04  0.7818609E-02  0.8679901E-01
        1   -1    0    0  501    0  0.00000000000E+00  0.00000000000E+00  0.99501258247E+03  0.99501258248E+03  0.50400001928E-02 0.  1.
       -1   -1    0    0    0  501  0.00000000000E+00  0.00000000000E+00 -0.86036829817E+03  0.86036829818E+03  0.50400001928E-02 0. -1.
    10030    2    1    2    0    0  0.00000000000E+00  0.00000000000E+00  0.13464428430E+03  0.18553808807E+04  0.18504888892E+04 0.  0.
        1    1    3    3  502    0 -0.35359049167E+03  0.59410304221E+03 -0.54919576621E+03  0.88294997039E+03  0.50400001928E-02 0. -1.
       -1    1    3    3    0  502  0.35359049167E+03 -0.59410304221E+03  0.68384005050E+03  0.97243091028E+03  0.50400001928E-02 0.  1.
</event>
<event>
 5   0  0.1799738E-04  0.1904149E+04  0.7818609E-02  0.8652794E-01
       -2   -1    0    0    0  501  0.00000000000E+00  0.00000000000E+00  0.97724113362E+03  0.97724113363E+03  0.25500000920E-02 0.  1.
        2   -1    0    0  501    0  0.00000000000E+00  0.00000000000E+00 -0.92755583585E+03  0.92755583585E+03  0.25500000920E-02 0. -1.
    10030    2    1    2    0    0  0.00000000000E+00  0.00000000000E+00  0.49685297772E+02  0.19047969695E+04  0.19041488561E+04 0.  0.
        1    1    3    3  502    0 -0.70979877539E+03 -0.49087579200E+03  0.42706453675E+03  0.96289016159E+03  0.50400001928E-02 0.  1.
       -1    1    3    3    0  502  0.70979877539E+03  0.49087579200E+03 -0.37737923898E+03  0.94190680789E+03  0.50400001928E-02 0. -1.
</event>
<event>
 5   0  0.8905646E-05  0.1889956E+04  0.7818609E-02  0.8659872E-01
       -1   -1    0    0    0  501  0.00000000000E+00  0.00000000000E+00  0.10409464173E+04  0.10409464173E+04  0.50400001928E-02 0. -1.
        1   -1    0    0  501    0  0.00000000000E+00  0.00000000000E+00 -0.85785762815E+03  0.85785762816E+03  0.50400001928E-02 0.  1.
    10030    2    1    2    0    0  0.00000000000E+00  0.00000000000E+00  0.18308878917E+03  0.18988040455E+04  0.18899564277E+04 0.  0.
        1    1    3    3  502    0  0.12463664960E+03  0.92984447792E+03  0.20538316211E+03  0.96037872261E+03  0.50400001928E-02 0. -1.
       -1    1    3    3    0  502 -0.12463664960E+03 -0.92984447792E+03 -0.22294372943E+02  0.93842532288E+03  0.50400001928E-02 0.  1.
</event>
<event>
 5   0  0.1790832E-04  0.1925338E+04  0.7818609E-02  0.8642346E-01
        2   -1    0    0  501    0  0.00000000000E+00  0.00000000000E+00  0.17714339286E+04  0.17714339286E+04  0.25500000920E-02 0.  1.
       -2   -1    0    0    0  501  0.00000000000E+00  0.00000000000E+00 -0.52315309316E+03  0.52315309317E+03  0.25500000920E-02 0. -1.
    10030    2    1    2    0    0  0.00000000000E+00  0.00000000000E+00  0.12482808354E+04  0.22945870217E+04  0.19253375175E+04 0.  0.
        5    1    3    3  502    0 -0.84390572084E+03  0.78074830477E+02  0.80033121444E+02  0.85129309603E+03  0.46999998093E+01 0. -1.
       -5    1    3    3    0  502  0.84390572084E+03 -0.78074830477E+02  0.11682477140E+04  0.14432939257E+04  0.46999998093E+01 0.  1.
</event>
<event>
 5   0  0.1810569E-04  0.1857330E+04  0.7818609E-02  0.8676392E-01
        2   -1    0    0  501    0  0.00000000000E+00  0.00000000000E+00  0.17788756329E+04  0.17788756329E+04  0.25500000920E-02 0. -1.
       -2   -1    0    0    0  501  0.00000000000E+00  0.00000000000E+00 -0.48481116011E+03  0.48481116012E+03  0.25500000920E-02 0.  1.
    10030    2    1    2    0    0  0.00000000000E+00  0.00000000000E+00  0.12940644728E+04  0.22636867930E+04  0.18573300830E+04 0.  0.
        4    1    3    3  502    0  0.91192268468E+03  0.92250257712E+02  0.82905225019E+03  0.12358973822E+04  0.12699999809E+01 0.  1.
       -4    1    3    3    0  502 -0.91192268468E+03 -0.92250257712E+02  0.46501222256E+03  0.10277894108E+04  0.12699999809E+01 0. -1.
</event>
<event>
 5   0  0.1790832E-04  0.1871537E+04  0.7818609E-02  0.8669155E-01
        2   -1    0    0  501    0  0.00000000000E+00  0.00000000000E+00  0.20058303040E+04  0.20058303040E+04  0.25500000920E-02 0. -1.
       -2   -1    0    0    0  501  0.00000000000E+00  0.00000000000E+00 -0.43655879757E+03  0.43655879758E+03  0.25500000920E-02 0.  1.
    10030    2    1    2    0    0  0.00000000000E+00  0.00000000000E+00  0.15692715065E+04  0.24423891016E+04  0.18715371924E+04 0.  0.
        5    1    3    3  502    0 -0.62884111205E+02 -0.57008106522E+03 -0.18027805758E+03  0.60122300389E+03  0.46999998093E+01 0.  1.
       -5    1    3    3    0  502  0.62884111205E+02  0.57008106522E+03  0.17495495640E+04  0.18411660977E+04  0.46999998093E+01 0. -1.
</event>
<event>
 5   0  0.1790832E-04  0.1873930E+04  0.7818609E-02  0.8667943E-01
       -2   -1    0    0    0  501  0.00000000000E+00  0.00000000000E+00  0.84019406782E+03  0.84019406782E+03  0.25500000920E-02 0.  1.
        2   -1    0    0  501    0  0.00000000000E+00  0.00000000000E+00 -0.10448821201E+04  0.10448821201E+04  0.25500000920E-02 0. -1.
    10030    2    1    2    0    0  0.00000000000E+00  0.00000000000E+00 -0.20468805225E+03  0.18850761879E+04  0.18739303710E+04 0.  0.
        5    1    3    3  502    0 -0.29458587409E+02  0.59141744436E+03  0.62808720038E+03  0.86322536058E+03  0.46999998093E+01 0.  1.
       -5    1    3    3    0  502  0.29458587409E+02 -0.59141744436E+03 -0.83277525263E+03  0.10218508273E+04  0.46999998093E+01 0. -1.
</event>
<event>
 5   0  0.6375750E-05  0.1882085E+04  0.7818609E-02  0.8663826E-01
        4   -1    0    0  501    0  0.00000000000E+00  0.00000000000E+00  0.13284987519E+04  0.13284993589E+04  0.12699999809E+01 0. -1.
       -4   -1    0    0    0  501  0.00000000000E+00  0.00000000000E+00 -0.66658611595E+03  0.66658732577E+03  0.12699999809E+01 0.  1.
    10030    2    1    2    0    0  0.00000000000E+00  0.00000000000E+00  0.66191263595E+03  0.19950866847E+04  0.18820846266E+04 0.  0.
        3    1    3    3  502    0 -0.54505378907E+03 -0.75809596181E+03  0.45533622959E+03  0.10388090356E+04  0.10100000352E+00 0.  1.
       -3    1    3    3    0  502  0.54505378907E+03  0.75809596181E+03  0.20657640637E+03  0.95627764910E+03  0.10100000352E+00 0. -1.
</event>
<event>
 5   0  0.1799738E-04  0.1912400E+04  0.7818609E-02  0.8648709E-01
       -2   -1    0    0    0  501  0.00000000000E+00  0.00000000000E+00  0.72649030854E+03  0.72649030855E+03  0.25500000920E-02 0.  1.
        2   -1    0    0  501    0  0.00000000000E+00  0.00000000000E+00 -0.12585412089E+04  0.12585412089E+04  0.25500000920E-02 0. -1.
    10030    2    1    2    0    0  0.00000000000E+00  0.00000000000E+00 -0.53205090037E+03  0.19850315175E+04  0.19123995306E+04 0.  0.
        1    1    3    3  502    0  0.74033017272E+03  0.45761645435E+03 -0.67706586770E+03  0.11026875229E+04  0.50400001928E-02 0. -1.
       -1    1    3    3    0  502 -0.74033017272E+03 -0.45761645435E+03  0.14501496734E+03  0.88234399455E+03  0.50400001928E-02 0.  1.
</event>
<event>
 5   0  0.8602017E-05  0.1882780E+04  0.7818609E-02  0.8663475E-01
        1   -1    0    0  501    0  0.00000000000E+00  0.00000000000E+00  0.53851615408E+03  0.53851615411E+03  0.50400001928E-02 0. -1.
       -1   -1    0    0    0  501  0.00000000000E+00  0.00000000000E+00 -0.16456620154E+04  0.16456620154E+04  0.50400001928E-02 0.  1.
    10030    2    1    2    0    0  0.00000000000E+00  0.00000000000E+00 -0.11071458613E+04  0.21841781695E+04  0.18827804752E+04 0.  0.
        2    1    3    3  502    0 -0.63736696731E+03 -0.65347495353E+03 -0.82051618658E+03  0.12274009037E+04  0.25500000920E-02 0.  1.
       -2    1    3    3    0  502  0.63736696731E+03  0.65347495353E+03 -0.28662967470E+03  0.95677726579E+03  0.25500000920E-02 0. -1.
</event>
<event>
 5   0  0.1810569E-04  0.1910728E+04  0.7818609E-02  0.8649535E-01
       -2   -1    0    0    0  501  0.00000000000E+00  0.00000000000E+00  0.18898488257E+04  0.18898488257E+04  0.25500000920E-02 0. -1.
        2   -1    0    0  501    0  0.00000000000E+00  0.00000000000E+00 -0.48295929952E+03  0.48295929952E+03  0.25500000920E-02 0.  1.
    10030    2    1    2    0    0  0.00000000000E+00  0.00000000000E+00  0.14068895261E+04  0.23728081252E+04  0.19107276782E+04 0.  0.
        4    1    3    3  502    0 -0.14287348270E+03  0.77176566454E+03  0.27034116716E+02  0.78534548410E+03  0.12699999809E+01 0.  1.
       -4    1    3    3    0  502  0.14287348270E+03 -0.77176566454E+03  0.13798554094E+04  0.15874626411E+04  0.12699999809E+01 0. -1.
</event>
<event>
 5   0  0.8681396E-05  0.1877495E+04  0.7818609E-02  0.8666140E-01
        1   -1    0    0  501    0  0.00000000000E+00  0.00000000000E+00  0.10493288622E+04  0.10493288622E+04  0.50400001928E-02 0. -1.
       -1   -1    0    0    0  501  0.00000000000E+00  0.00000000000E+00 -0.83981969044E+03  0.83981969046E+03  0.50400001928E-02 0.  1.
    10030    2    1    2    0    0  0.00000000000E+00  0.00000000000E+00  0.20950917178E+03  0.18891485527E+04  0.18774951827E+04 0.  0.
        3    1    3    3  502    0 -0.50361920129E+03  0.44237301989E+03 -0.55653146038E+03  0.87123674465E+03  0.10100000352E+00 0.  1.
       -3    1    3    3    0  502  0.50361920129E+03 -0.44237301989E+03  0.76604063216E+03  0.10179118080E+04  0.10100000352E+00 0. -1.
</event>
<event>
 5   0  0.1765328E-04  0.1883447E+04  0.7818609E-02  0.8663140E-01
       -2   -1    0    0    0  501  0.00000000000E+00  0.00000000000E+00  0.63863738146E+03  0.63863738146E+03  0.25500000920E-02 0.  1.
        2   -1    0    0  501    0  0.00000000000E+00  0.00000000000E+00 -0.13886486658E+04  0.13886486658E+04  0.25500000920E-02 0. -1.
    10030    2    1    2    0    0  0.00000000000E+00  0.00000000000E+00 -0.75001128433E+03  0.20272860472E+04  0.18834467847E+04 0.  0.
        3    1    3    3  502    0 -0.31605877469E+03 -0.41890309471E+03  0.46667870268E+03  0.70225492063E+03  0.10100000352E+00 0.  1.
       -3    1    3    3    0  502  0.31605877469E+03  0.41890309471E+03 -0.12166899870E+04  0.13250311266E+04  0.10100000352E+00 0. -1.
</event>
<event>
 5   0  0.8567844E-05  0.1893465E+04  0.7818609E-02  0.8658116E-01
       -1   -1    0    0    0  501  0.00000000000E+00  0.00000000000E+00  0.12579640871E+04  0.12579640871E+04  0.50400001928E-02 0.  1.
        1   -1    0    0  501    0  0.00000000000E+00  0.00000000000E+00 -0.71250233793E+03  0.71250233794E+03  0.50400001928E-02 0. -1.
    10030    2    1    2    0    0  0.00000000000E+00  0.00000000000E+00  0.54546174915E+03  0.19704664250E+04  0.18934649224E+04 0.  0.
        4    1    3    3  502    0 -0.14266922696E+03  0.93591247981E+03  0.27663330837E+03  0.98631347876E+03  0.12699999809E+01 0.  1.
       -4    1    3    3    0  502  0.14266922696E+03 -0.93591247981E+03  0.26882844078E+03  0.98415294627E+03  0.12699999809E+01 0. -1.
</event>
<event>
 5   0  0.1799738E-04  0.1909185E+04  0.7818609E-02  0.8650298E-01
       -2   -1    0    0    0  501  0.00000000000E+00  0.00000000000E+00  0.53205595382E+03  0.53205595382E+03  0.25500000920E-02 0.  1.
        2   -1    0    0  501    0  0.00000000000E+00  0.00000000000E+00 -0.17126895189E+04  0.17126895189E+04  0.25500000920E-02 0. -1.
    10030    2    1    2    0    0  0.00000000000E+00  0.00000000000E+00 -0.11806335651E+04  0.22447454727E+04  0.19091848057E+04 0.  0.
        1    1    3    3  502    0 -0.61844610744E+03  0.72266732087E+03 -0.49535623876E+03  0.10724278287E+04  0.50400001928E-02 0.  1.
       -1    1    3    3    0  502  0.61844610744E+03 -0.72266732087E+03 -0.68527732630E+03  0.11723176440E+04  0.50400001928E-02 0. -1.
</event>
<event>
 5   0  0.8587082E-05  0.1765785E+04  0.7818609E-02  0.8724709E-01
       -1   -1    0    0    0  501  0.00000000000E+00  0.00000000000E+00  0.88638438879E+03  0.88638438881E+03  0.50400001928E-02 0. -1.
        1   -1    0    0  501    0  0.00000000000E+00  0.00000000000E+00 -0.87941461236E+03  0.87941461237E+03  0.50400001928E-02 0.  1.
    10030    2    1    2    0    0  0.00000000000E+00  0.00000000000E+00  0.69697764353E+01  0.17657990012E+04  0.17657852459E+04 0.  0.
        5    1    3    3  502    0 -0.12912736312E+02 -0.11144752474E+03  0.87921427117E+03  0.88635608767E+03  0.46999998093E+01 0. -1.
       -5    1    3    3    0  502  0.12912736312E+02  0.11144752474E+03 -0.87224449473E+03  0.87944291351E+03  0.46999998093E+01 0.  1.
</event>
<event>
 5   0  0.8567844E-05  0.1901319E+04  0.7818609E-02  0.8654200E-01
        1   -1    0    0  501    0  0.00000000000E+00  0.00000000000E+00  0.74495003728E+03  0.74495003729E+03  0.50400001928E-02 0.  1.
       -1   -1    0    0    0  501  0.00000000000E+00  0.00000000000E+00 -0.12131733665E+04  0.12131733665E+04  0.50400001928E-02 0. -1.
    10030    2    1    2    0    0  0.00000000000E+00  0.00000000000E+00 -0.46822332922E+03  0.19581234038E+04  0.19013190628E+04 0.  0.
        4    1    3    3  502    0 -0.63027370923E+02  0.87084376435E+03 -0.62139255616E+03  0.10716676878E+04  0.12699999809E+01 0.  1.
       -4    1    3    3    0  502  0.63027370923E+02 -0.87084376435E+03  0.15316922693E+03  0.88645571597E+03  0.12699999809E+01 0. -1.
</event>
<event>
 5   0  0.1765328E-04  0.1672397E+04  0.7818609E-02  0.8777266E-01
       -2   -1    0    0    0  501  0.00000000000E+00  0.00000000000E+00  0.70817233814E+03  0.70817233815E+03  0.25500000920E-02 0. -1.
        2   -1    0    0  501    0  0.00000000000E+00  0.00000000000E+00 -0.98736961885E+03  0.98736961885E+03  0.25500000920E-02 0.  1.
    10030    2    1    2    0    0  0.00000000000E+00  0.00000000000E+00 -0.27919728071E+03  0.16955419570E+04  0.16723969046E+04 0.  0.
        3    1    3    3  502    0 -0.23237655562E+03  0.28693264401E+03 -0.90024761472E+03  0.97302362963E+03  0.10100000352E+00 0.  1.
       -3    1    3    3    0  502  0.23237655562E+03 -0.28693264401E+03  0.62105033402E+03  0.72251832737E+03  0.10100000352E+00 0. -1.
</event>
<event>
 5   0  0.8587082E-05  0.1889181E+04  0.7818609E-02  0.8660261E-01
        1   -1    0    0  501    0  0.00000000000E+00  0.00000000000E+00  0.20814177418E+04  0.20814177418E+04  0.50400001928E-02 0.  1.
       -1   -1    0    0    0  501  0.00000000000E+00  0.00000000000E+00 -0.42867459372E+03  0.42867459375E+03  0.50400001928E-02 0. -1.
    10030    2    1    2    0    0  0.00000000000E+00  0.00000000000E+00  0.16527431481E+04  0.25100923356E+04  0.18891806741E+04 0.  0.
        5    1    3    3  502    0  0.47089768543E+03  0.38693400594E+03  0.17851927627E+04  0.18863716084E+04  0.46999998093E+01 0.  1.
       -5    1    3    3    0  502 -0.47089768543E+03 -0.38693400594E+03 -0.13244961458E+03  0.62372072717E+03  0.46999998093E+01 0. -1.
</event>
<event>
 5   0  0.8681396E-05  0.1852255E+04  0.7818609E-02  0.8678994E-01
       -1   -1    0    0    0  501  0.00000000000E+00  0.00000000000E+00  0.57982009516E+03  0.57982009518E+03  0.50400001928E-02 0. -1.
        1   -1    0    0  501    0  0.00000000000E+00  0.00000000000E+00 -0.14792732169E+04  0.14792732169E+04  0.50400001928E-02 0.  1.
    10030    2    1    2    0    0  0.00000000000E+00  0.00000000000E+00 -0.89945312174E+03  0.20590933121E+04  0.18522552064E+04 0.  0.
        3    1    3    3  502    0  0.47433367237E+03  0.39588922006E+03 -0.12166903452E+04  0.13645717693E+04  0.10100000352E+00 0.  1.
       -3    1    3    3    0  502 -0.47433367237E+03 -0.39588922006E+03  0.31723722342E+03  0.69452154281E+03  0.10100000352E+00 0. -1.
</event>
<event>
 5   0  0.8602017E-05  0.1875800E+04  0.7818609E-02  0.8666997E-01
       -1   -1    0    0    0  501  0.00000000000E+00  0.00000000000E+00  0.14027906609E+04  0.14027906609E+04  0.50400001928E-02 0.  1.
        1   -1    0    0  501    0  0.00000000000E+00  0.00000000000E+00 -0.62707619698E+03  0.62707619700E+03  0.50400001928E-02 0. -1.
    10030    2    1    2    0    0  0.00000000000E+00  0.00000000000E+00  0.77571446393E+03  0.20298668579E+04  0.18758002376E+04 0.  0.
        2    1    3    3  502    0 -0.35795707621E+03 -0.47600432035E+03  0.11718952907E+04  0.13145538992E+04  0.25500000920E-02 0.  1.
       -2    1    3    3    0  502  0.35795707621E+03  0.47600432035E+03 -0.39618082680E+03  0.71531295874E+03  0.25500000920E-02 0. -1.
</event>
<event>
 5   0  0.1658711E-04  0.1901111E+04  0.7818609E-02  0.8654303E-01
        2   -1    0    0  501    0  0.00000000000E+00  0.00000000000E+00  0.51409691178E+03  0.51409691178E+03  0.25500000920E-02 0. -1.
       -2   -1    0    0    0  501  0.00000000000E+00  0.00000000000E+00 -0.17575600039E+04  0.17575600039E+04  0.25500000920E-02 0.  1.
    10030    2    1    2    0    0  0.00000000000E+00  0.00000000000E+00 -0.12434630921E+04  0.22716569156E+04  0.19011114331E+04 0.  0.
        2    1    3    3  502    0 -0.61249146770E+03  0.58294834639E+03 -0.10283016924E+03  0.85179141594E+03  0.25500000920E-02 0. -1.
       -2    1    3    3    0  502  0.61249146770E+03 -0.58294834639E+03 -0.11406329228E+04  0.14198654997E+04  0.25500000920E-02 0.  1.
</event>
<event>
 5   0  0.8602017E-05  0.1910780E+04  0.7818609E-02  0.8649509E-01
        1   -1    0    0  501    0  0.00000000000E+00  0.00000000000E+00  0.13155642676E+04  0.13155642676E+04  0.50400001928E-02 0. -1.
       -1   -1    0    0    0  501  0.00000000000E+00  0.00000000000E+00 -0.69382384035E+03  0.69382384036E+03  0.50400001928E-02 0.  1.
    10030    2    1    2    0    0  0.00000000000E+00  0.00000000000E+00  0.62174042726E+03  0.20093881080E+04  0.19107797910E+04 0.  0.
        2    1    3    3  502    0 -0.71965565818E+03  0.37119175343E+03  0.84406911978E+03  0.11696752811E+04  0.25500000920E-02 0. -1.
       -2    1    3    3    0  502  0.71965565818E+03 -0.37119175343E+03 -0.22232869252E+03  0.83971282691E+03  0.25500000920E-02 0.  1.
</event>
<event>
 5   0  0.8602017E-05  0.2014181E+04  0.7818609E-02  0.8600019E-01
       -1   -1    0    0    0  501  0.00000000000E+00  0.00000000000E+00  0.83097723506E+03  0.83097723507E+03  0.50400001928E-02 0. -1.
        1   -1    0    0  501    0  0.00000000000E+00  0.00000000000E+00 -0.12205279182E+04  0.12205279182E+04  0.50400001928E-02 0.  1.
    10030    2    1    2    0    0  0.00000000000E+00  0.00000000000E+00 -0.38955068311E+03  0.20515051533E+04  0.20141806421E+04 0.  0.
        2    1    3    3  502    0 -0.71237713774E+03  0.64773225837E+03 -0.49553122561E+03  0.10828616996E+04  0.25500000920E-02 0. -1.
       -2    1    3    3    0  502  0.71237713774E+03 -0.64773225837E+03  0.10598054251E+03  0.96864345365E+03  0.25500000920E-02 0.  1.
</event>
<event>
 5   0  0.8681396E-05  0.1892141E+04  0.7818609E-02  0.8658778E-01
       -1   -1    0    0    0  501  0.00000000000E+00  0.00000000000E+00  0.78741499492E+03  0.78741499493E+03  0.50400001928E-02 0. -1.
        1   -1    0    0  501    0  0.00000000000E+00  0.00000000000E+00 -0.11366928713E+04  0.11366928713E+04  0.50400001928E-02 0.  1.
    10030    2    1    2    0    0  0.00000000000E+00  0.00000000000E+00 -0.34927787635E+03  0.19241078662E+04  0.18921405989E+04 0.  0.
        3    1    3    3  502    0 -0.52161503220E+03 -0.92924514395E+02  0.62239627123E+03  0.81737037861E+03  0.10100000352E+00 0. -1.
       -3    1    3    3    0  502  0.52161503220E+03  0.92924514395E+02 -0.97167414757E+03  0.11067374876E+04  0.10100000352E+00 0.  1.
</event>
<event>
 5   0  0.1799738E-04  0.1933108E+04  0.7818609E-02  0.8638549E-01
       -2   -1    0    0    0  501  0.00000000000E+00  0.00000000000E+00  0.94407458543E+03  0.94407458543E+03  0.25500000920E-02 0. -1.
        2   -1    0    0  501    0  0.00000000000E+00  0.00000000000E+00 -0.98956909137E+03  0.98956909138E+03  0.25500000920E-02 0.  1.
    10030    2    1    2    0    0  0.00000000000E+00  0.00000000000E+00 -0.45494505949E+02  0.19336436768E+04  0.19331084084E+04 0.  0.
        1    1    3    3  502    0 -0.28295609474E+03 -0.77846454891E+03 -0.52103759959E+03  0.97854554604E+03  0.50400001928E-02 0.  1.
       -1    1    3    3    0  502  0.28295609474E+03  0.77846454891E+03  0.47554309364E+03  0.95509813077E+03  0.50400001928E-02 0. -1.
</event>
<event>
 5   0  0.1810569E-04  0.1890501E+04  0.7818609E-02  0.8659599E-01
        2   -1    0    0  501    0  0.00000000000E+00  0.00000000000E+00  0.15322617751E+04  0.15322617751E+04  0.25500000920E-02 0.  1.
       -2   -1    0    0    0  501  0.00000000000E+00  0.00000000000E+00 -0.58312415188E+03  0.58312415189E+03  0.25500000920E-02 0. -1.
    10030    2    1    2    0    0  0.00000000000E+00  0.00000000000E+00  0.94913762319E+03  0.21153859270E+04  0.18905013600E+04 0.  0.
        4    1    3    3  502    0  0.53480413917E+03  0.56666214570E+03  0.10733673886E+04  0.13263636826E+04  0.12699999809E+01 0.  1.
       -4    1    3    3    0  502 -0.53480413917E+03 -0.56666214570E+03 -0.12422976540E+03  0.78902224440E+03  0.12699999809E+01 0. -1.
</event>
<event>
 5   0  0.8905646E-05  0.1894099E+04  0.7818609E-02  0.8657799E-01
       -1   -1    0    0    0  501  0.00000000000E+00  0.00000000000E+00  0.67005788589E+03  0.67005788591E+03  0.50400001928E-02 0. -1.
        1   -1    0    0  501    0  0.00000000000E+00  0.00000000000E+00 -0.13385456221E+04  0.13385456221E+04  0.50400001928E-02 0.  1.
    10030    2    1    2    0    0  0.00000000000E+00  0.00000000000E+00 -0.66848773617E+03  0.20086035080E+04  0.18940993107E+04 0.  0.
        1    1    3    3  502    0  0.87314990244E+03 -0.32292342594E+03 -0.51863089368E+03  0.10656680041E+04  0.50400001928E-02 0.  1.
       -1    1    3    3    0  502 -0.87314990244E+03  0.32292342594E+03 -0.14985684249E+03  0.94293550385E+03  0.50400001928E-02 0. -1.
</event>
<event>
 5   0  0.1799738E-04  0.1888330E+04  0.7818609E-02  0.8660687E-01
        2   -1    0    0  501    0  0.00000000000E+00  0.00000000000E+00  0.12179582872E+04  0.12179582872E+04  0.25500000920E-02 0. -1.
       -2   -1    0    0    0  501  0.00000000000E+00  0.00000000000E+00 -0.73191968697E+03  0.73191968697E+03  0.25500000920E-02 0.  1.
    10030    2    1    2    0    0  0.00000000000E+00  0.00000000000E+00  0.48603860020E+03  0.19498779741E+04  0.18883301070E+04 0.  0.
        1    1    3    3  502    0  0.24551364701E+03 -0.84665486856E+03  0.59219213030E+03  0.10619759586E+04  0.50400001928E-02 0. -1.
       -1    1    3    3    0  502 -0.24551364701E+03  0.84665486856E+03 -0.10615353009E+03  0.88790201560E+03  0.50400001928E-02 0.  1.
</event>
<event>
 5   0  0.1810569E-04  0.1899456E+04  0.7818609E-02  0.8655127E-01
       -2   -1    0    0    0  501  0.00000000000E+00  0.00000000000E+00  0.97675405053E+03  0.97675405053E+03  0.25500000920E-02 0. -1.
        2   -1    0    0  501    0  0.00000000000E+00  0.00000000000E+00 -0.92344957848E+03  0.92344957848E+03  0.25500000920E-02 0.  1.
    10030    2    1    2    0    0  0.00000000000E+00  0.00000000000E+00  0.53304472048E+02  0.19002036290E+04  0.18994558339E+04 0.  0.
        4    1    3    3  502    0  0.56384837767E+03  0.56384581161E+03  0.54273750104E+03  0.96457902746E+03  0.12699999809E+01 0. -1.
       -4    1    3    3    0  502 -0.56384837767E+03 -0.56384581161E+03 -0.48943302899E+03  0.93562460156E+03  0.12699999809E+01 0.  1.
</event>
<event>
 5   0  0.1790832E-04  0.1914443E+04  0.7818609E-02  0.8647701E-01
        2   -1    0    0  501    0  0.00000000000E+00  0.00000000000E+00  0.83780946095E+03  0.83780946095E+03  0.25500000920E-02 0.  1.
       -2   -1    0    0    0  501  0.00000000000E+00  0.00000000000E+00 -0.10936527538E+04  0.10936527538E+04  0.25500000920E-02 0. -1.
    10030    2    1    2    0    0  0.00000000000E+00  0.00000000000E+00 -0.25584329286E+03  0.19314622148E+04  0.19144426073E+04 0.  0.
        5    1    3    3  502    0  0.74595520605E+03 -0.45412002340E+03 -0.52329378604E+03  0.10181024711E+04  0.46999998093E+01 0. -1.
       -5    1    3    3    0  502 -0.74595520605E+03  0.45412002340E+03  0.26745049319E+03  0.91335974369E+03  0.46999998093E+01 0.  1.
</event>
<event>
 5   0  0.1799738E-04  0.1912808E+04  0.7818609E-02  0.8648507E-01
       -2   -1    0    0    0  501  0.00000000000E+00  0.00000000000E+00  0.72149916438E+03  0.72149916439E+03  0.25500000920E-02 0. -1.
        2   -1    0    0  501    0  0.00000000000E+00  0.00000000000E+00 -0.12677894237E+04  0.12677894237E+04  0.25500000920E-02 0.  1.
    10030    2    1    2    0    0  0.00000000000E+00  0.00000000000E+00 -0.54629025929E+03  0.19892885881E+04  0.19128084167E+04 0.  0.
        1    1    3    3  502    0  0.80036119649E+02  0.65454085660E+03  0.44728590713E+03  0.79680248252E+03  0.50400001928E-02 0. -1.
       -1    1    3    3    0  502 -0.80036119649E+02 -0.65454085660E+03 -0.99357616641E+03  0.11924861055E+04  0.50400001928E-02 0.  1.
</event>
<event>
 5   0  0.1790832E-04  0.1897991E+04  0.7818609E-02  0.8655857E-01
       -2   -1    0    0    0  501  0.00000000000E+00  0.00000000000E+00  0.11608699701E+04  0.11608699701E+04  0.25500000920E-02 0.  1.
        2   -1    0    0  501    0  0.00000000000E+00  0.00000000000E+00 -0.77579120814E+03  0.77579120814E+03  0.25500000920E-02 0. -1.
    10030    2    1    2    0    0  0.00000000000E+00  0.00000000000E+00  0.38507876198E+03  0.19366611783E+04  0.18979912714E+04 0.  0.
        5    1    3    3  502    0 -0.55506460824E+03  0.37879284217E+03 -0.49117972655E+03  0.83238233425E+03  0.46999998093E+01 0. -1.
       -5    1    3    3    0  502  0.55506460824E+03 -0.37879284217E+03  0.87625848852E+03  0.11042788440E+04  0.46999998093E+01 0.  1.
</event>
<event>
 5   0  0.1799738E-04  0.2131980E+04  0.7818609E-02  0.8547286E-01
        2   -1    0    0  501    0  0.00000000000E+00  0.00000000000E+00  0.11146546633E+04  0.11146546633E+04  0.25500000920E-02 0.  1.
       -2   -1    0    0    0  501  0.00000000000E+00  0.00000000000E+00 -0.10194495776E+04  0.10194495776E+04  0.25500000920E-02 0. -1.
    10030    2    1    2    0    0  0.00000000000E+00  0.00000000000E+00  0.95205085747E+02  0.21341042409E+04  0.21319795737E+04 0.  0.
        1    1    3    3  502    0  0.55765970002E+03  0.13758219713E+03  0.94650695091E+03  0.11071533815E+04  0.50400001928E-02 0.  1.
       -1    1    3    3    0  502 -0.55765970002E+03 -0.13758219713E+03 -0.85130186516E+03  0.10269508594E+04  0.50400001928E-02 0. -1.
</event>
<event>
 5   0  0.8567844E-05  0.1926973E+04  0.7818609E-02  0.8641545E-01
        1   -1    0    0  501    0  0.00000000000E+00  0.00000000000E+00  0.11797651167E+04  0.11797651167E+04  0.50400001928E-02 0.  1.
       -1   -1    0    0    0  501  0.00000000000E+00  0.00000000000E+00 -0.78685718510E+03  0.78685718512E+03  0.50400001928E-02 0. -1.
    10030    2    1    2    0    0  0.00000000000E+00  0.00000000000E+00  0.39290793162E+03  0.19666223018E+04  0.19269734392E+04 0.  0.
        4    1    3    3  502    0  0.34370568149E+03 -0.53204973178E+03  0.93740496384E+03  0.11313444178E+04  0.12699999809E+01 0.  1.
       -4    1    3    3    0  502 -0.34370568149E+03  0.53204973178E+03 -0.54449703222E+03  0.83527788404E+03  0.12699999809E+01 0. -1.
</event>
<event>
 5   0  0.8681396E-05  0.2020289E+04  0.7818609E-02  0.8597193E-01
       -1   -1    0    0    0  501  0.00000000000E+00  0.00000000000E+00  0.70320183746E+03  0.70320183748E+03  0.50400001928E-02 0.  1.
        1   -1    0    0  501    0  0.00000000000E+00  0.00000000000E+00 -0.14510650988E+04  0.14510650988E+04  0.50400001928E-02 0. -1.
    10030    2    1    2    0    0  0.00000000000E+00  0.00000000000E+00 -0.74786326138E+03  0.21542669363E+04  0.20202887356E+04 0.  0.
        3    1    3    3  502    0  0.32769899757E+03  0.56509607989E+03  0.44766593719E+03  0.79191225147E+03  0.10100000352E+00 0.  1.
       -3    1    3    3    0  502 -0.32769899757E+03 -0.56509607989E+03 -0.11955291986E+04  0.13623546848E+04  0.10100000352E+00 0. -1.
</event>
<event>
 5   0  0.1799738E-04  0.1906224E+04  0.7818609E-02  0.8651765E-01
        2   -1    0    0  501    0  0.00000000000E+00  0.00000000000E+00  0.13235881964E+04  0.13235881964E+04  0.25500000920E-02 0.  1.
       -2   -1    0    0    0  501  0.00000000000E+00  0.00000000000E+00 -0.68633304677E+03  0.68633304677E+03  0.25500000920E-02 0. -1.
    10030    2    1    2    0    0  0.00000000000E+00  0.00000000000E+00  0.63725514963E+03  0.20099212432E+04  0.19062238268E+04 0.  0.
        1    1    3    3  502    0  0.59631279140E+03  0.34674546581E+03 -0.37487628759E+03  0.78508190290E+03  0.50400001928E-02 0. -1.
       -1    1    3    3    0  502 -0.59631279140E+03 -0.34674546581E+03  0.10121314372E+04  0.12248393403E+04  0.50400001928E-02 0.  1.
</event>
<event>
 5   0  0.8602017E-05  0.1899268E+04  0.7818609E-02  0.8655221E-01
        1   -1    0    0  501    0  0.00000000000E+00  0.00000000000E+00  0.17042308174E+04  0.17042308174E+04  0.50400001928E-02 0. -1.
       -1   -1    0    0    0  501  0.00000000000E+00  0.00000000000E+00 -0.52915654440E+03  0.52915654443E+03  0.50400001928E-02 0.  1.
    10030    2    1    2    0    0  0.00000000000E+00  0.00000000000E+00  0.11750742730E+04  0.22333873619E+04  0.18992681646E+04 0.  0.
        2    1    3    3  502    0  0.38080487506E+03 -0.48780135364E+03 -0.25948641414E+03  0.67104076822E+03  0.25500000920E-02 0.  1.
       -2    1    3    3    0  502 -0.38080487506E+03  0.48780135364E+03  0.14345606872E+04  0.15623465936E+04  0.25500000920E-02 0. -1.
</event>
<event>
 5   0  0.1658711E-04  0.1898622E+04  0.7818609E-02  0.8655543E-01
       -2   -1    0    0    0  501  0.00000000000E+00  0.00000000000E+00  0.13096793553E+04  0.13096793553E+04  0.25500000920E-02 0.  1.
        2   -1    0    0  501    0  0.00000000000E+00  0.00000000000E+00 -0.68810077103E+03  0.68810077104E+03  0.25500000920E-02 0. -1.
    10030    2    1    2    0    0  0.00000000000E+00  0.00000000000E+00  0.62157858425E+03  0.19977801263E+04  0.18986219994E+04 0.  0.
        2    1    3    3  502    0 -0.37140387221E+03  0.77205191177E+03  0.74102814937E+03  0.11327522716E+04  0.25500000920E-02 0.  1.
       -2    1    3    3    0  502  0.37140387221E+03 -0.77205191177E+03 -0.11944956512E+03  0.86502785468E+03  0.25500000920E-02 0. -1.
</event>
<event>
 5   0  0.8567844E-05  0.1891710E+04  0.7818609E-02  0.8658994E-01
        1   -1    0    0  501    0  0.00000000000E+00  0.00000000000E+00  0.13369574891E+04  0.13369574891E+04  0.50400001928E-02 0.  1.
       -1   -1    0    0    0  501  0.00000000000E+00  0.00000000000E+00 -0.66916250072E+03  0.66916250074E+03  0.50400001928E-02 0. -1.
    10030    2    1    2    0    0  0.00000000000E+00  0.00000000000E+00  0.66779498837E+03  0.20061199898E+04  0.18917101435E+04 0.  0.
        4    1    3    3  502    0 -0.50091955701E+03  0.73788837254E+03  0.66797473970E+03  0.11142672564E+04  0.12699999809E+01 0. -1.
       -4    1    3    3    0  502  0.50091955701E+03 -0.73788837254E+03 -0.17975133861E+00  0.89185273343E+03  0.12699999809E+01 0.  1.
</event>
<event>
 5   0  0.1790832E-04  0.1906099E+04  0.7818609E-02  0.8651827E-01
        2   -1    0    0  501    0  0.00000000000E+00  0.00000000000E+00  0.14019026769E+04  0.14019026769E+04  0.25500000920E-02 0.  1.
       -2   -1    0    0    0  501  0.00000000000E+00  0.00000000000E+00 -0.64790740540E+03  0.64790740540E+03  0.25500000920E-02 0. -1.
    10030    2    1    2    0    0  0.00000000000E+00  0.00000000000E+00  0.75399527148E+03  0.20498100823E+04  0.19060987655E+04 0.  0.
        5    1    3    3  502    0 -0.77405173931E+03  0.18463364934E+03 -0.18698078660E+03  0.81745310823E+03  0.46999998093E+01 0. -1.
       -5    1    3    3    0  502  0.77405173931E+03 -0.18463364934E+03  0.94097605808E+03  0.12323569740E+04  0.46999998093E+01 0.  1.
</event>
<event>
 5   0  0.8567844E-05  0.1894993E+04  0.7818609E-02  0.8657353E-01
        1   -1    0    0  501    0  0.00000000000E+00  0.00000000000E+00  0.10284371040E+04  0.10284371040E+04  0.50400001928E-02 0.  1.
       -1   -1    0    0    0  501  0.00000000000E+00  0.00000000000E+00 -0.87292589267E+03  0.87292589269E+03  0.50400001928E-02 0. -1.
    10030    2    1    2    0    0  0.00000000000E+00  0.00000000000E+00  0.15551121130E+03  0.19013629967E+04  0.18949927462E+04 0.  0.
        4    1    3    3  502    0  0.67116059716E+03 -0.65179804548E+03 -0.72583075307E+02  0.93838539790E+03  0.12699999809E+01 0. -1.
       -4    1    3    3    0  502 -0.67116059716E+03  0.65179804548E+03  0.22809428661E+03  0.96297759878E+03  0.12699999809E+01 0.  1.
</event>
<event>
 5   0  0.1799738E-04  0.1873551E+04  0.7818609E-02  0.8668135E-01
        2   -1    0    0  501    0  0.00000000000E+00  0.00000000000E+00  0.16920321043E+04  0.16920321043E+04  0.25500000920E-02 0.  1.
       -2   -1    0    0    0  501  0.00000000000E+00  0.00000000000E+00 -0.51863554369E+03  0.51863554369E+03  0.25500000920E-02 0. -1.
    10030    2    1    2    0    0  0.00000000000E+00  0.00000000000E+00  0.11733965606E+04  0.22106676480E+04  0.18735506295E+04 0.  0.
        1    1    3    3  502    0  0.68002849612E+03 -0.46350451149E+03  0.11147409397E+04  0.13856126985E+04  0.50400001928E-02 0.  1.
       -1    1    3    3    0  502 -0.68002849612E+03  0.46350451149E+03  0.58655620906E+02  0.82505494944E+03  0.50400001928E-02 0. -1.
</event>
<event>
 5   0  0.8602017E-05  0.1932716E+04  0.7818609E-02  0.8638741E-01
        1   -1    0    0  501    0  0.00000000000E+00  0.00000000000E+00  0.12461999923E+04  0.12461999924E+04  0.50400001928E-02 0. -1.
       -1   -1    0    0    0  501  0.00000000000E+00  0.00000000000E+00 -0.74935606457E+03  0.74935606459E+03  0.50400001928E-02 0.  1.
    10030    2    1    2    0    0  0.00000000000E+00  0.00000000000E+00  0.49684392777E+03  0.19955560569E+04  0.19327157287E+04 0.  0.
        2    1    3    3  502    0  0.13846142068E+03 -0.31642037307E+03  0.11802932269E+04  0.12297908436E+04  0.25500000920E-02 0. -1.
       -2    1    3    3    0  502 -0.13846142068E+03  0.31642037307E+03 -0.68344929913E+03  0.76576521336E+03  0.25500000920E-02 0.  1.
</event>
<event>
 5   0  0.8602017E-05  0.1834507E+04  0.7818609E-02  0.8688161E-01
        1   -1    0    0  501    0  0.00000000000E+00  0.00000000000E+00  0.74777998180E+03  0.74777998181E+03  0.50400001928E-02 0. -1.
       -1   -1    0    0    0  501  0.00000000000E+00  0.00000000000E+00 -0.11251357993E+04  0.11251357993E+04  0.50400001928E-02 0.  1.
    10030    2    1    2    0    0  0.00000000000E+00  0.00000000000E+00 -0.37735581746E+03  0.18729157811E+04  0.18345070482E+04 0.  0.
        2    1    3    3  502    0 -0.16355567060E+03  0.14672921418E+03 -0.10978702108E+04  0.11196423177E+04  0.25500000920E-02 0.  1.
       -2    1    3    3    0  502  0.16355567060E+03 -0.14672921418E+03  0.72051439335E+03  0.75327346343E+03  0.25500000920E-02 0. -1.
</event>
<event>
 5   0  0.8681396E-05  0.1910883E+04  0.7818609E-02  0.8649458E-01
       -1   -1    0    0    0  501  0.00000000000E+00  0.00000000000E+00  0.61590137783E+03  0.61590137785E+03  0.50400001928E-02 0. -1.
        1   -1    0    0  501    0  0.00000000000E+00  0.00000000000E+00 -0.14821668615E+04  0.14821668615E+04  0.50400001928E-02 0.  1.
    10030    2    1    2    0    0  0.00000000000E+00  0.00000000000E+00 -0.86626548366E+03  0.20980682394E+04  0.19108831594E+04 0.  0.
        3    1    3    3  502    0  0.85595696944E+03 -0.39882137116E+03 -0.59280074451E+03  0.11149589914E+04  0.10100000352E+00 0.  1.
       -3    1    3    3    0  502 -0.85595696944E+03  0.39882137116E+03 -0.27346473916E+03  0.98310924795E+03  0.10100000352E+00 0. -1.
</event>
<event>
 5   0  0.8587082E-05  0.1929436E+04  0.7818609E-02  0.8640341E-01
        1   -1    0    0  501    0  0.00000000000E+00  0.00000000000E+00  0.10512492915E+04  0.10512492915E+04  0.50400001928E-02 0.  1.
       -1   -1    0    0    0  501  0.00000000000E+00  0.00000000000E+00 -0.88530969294E+03  0.88530969295E+03  0.50400001928E-02 0. -1.
    10030    2    1    2    0    0  0.00000000000E+00  0.00000000000E+00  0.16593959855E+03  0.19365589845E+04  0.19294363814E+04 0.  0.
        5    1    3    3  502    0  0.94221768830E+03  0.12716032588E+03  0.24702095444E+03  0.98233668493E+03  0.46999998093E+01 0. -1.
       -5    1    3    3    0  502 -0.94221768830E+03 -0.12716032588E+03 -0.81081355893E+02  0.95422229952E+03  0.46999998093E+01 0.  1.
</event>
<event>
 5   0  0.8567844E-05  0.1918463E+04  0.7818609E-02  0.8645720E-01
        1   -1    0    0  501    0  0.00000000000E+00  0.00000000000E+00  0.13101684940E+04  0.13101684940E+04  0.50400001928E-02 0. -1.
       -1   -1    0    0    0  501  0.00000000000E+00  0.00000000000E+00 -0.70229542265E+03  0.70229542267E+03  0.50400001928E-02 0.  1.
    10030    2    1    2    0    0  0.00000000000E+00  0.00000000000E+00  0.60787307130E+03  0.20124639166E+04  0.19184632769E+04 0.  0.
        4    1    3    3  502    0  0.44022574808E+03  0.83096303355E+03  0.50248678853E+03  0.10662048855E+04  0.12699999809E+01 0. -1.
       -4    1    3    3    0  502 -0.44022574808E+03 -0.83096303355E+03  0.10538628277E+03  0.94625903108E+03  0.12699999809E+01 0.  1.
</event>
<event>
 5   0  0.1810569E-04  0.1889950E+04  0.7818609E-02  0.8659875E-01
       -2   -1    0    0    0  501  0.00000000000E+00  0.00000000000E+00  0.90043843591E+03  0.90043843591E+03  0.25500000920E-02 0. -1.
        2   -1    0    0  501    0  0.00000000000E+00  0.00000000000E+00 -0.99171415741E+03  0.99171415741E+03  0.25500000920E-02 0.  1.
    10030    2    1    2    0    0  0.00000000000E+00  0.00000000000E+00 -0.91275721498E+02  0.18921525933E+04  0.18899497822E+04 0.  0.
        4    1    3    3  502    0  0.36428783349E+03 -0.74737305723E+03  0.40400008373E+03  0.92438617085E+03  0.12699999809E+01 0. -1.
       -4    1    3    3    0  502 -0.36428783349E+03  0.74737305723E+03 -0.49527580523E+03  0.96776642247E+03  0.12699999809E+01 0.  1.
</event>
<event>
 5   0  0.1799738E-04  0.1862925E+04  0.7818609E-02  0.8673534E-01
        2   -1    0    0  501    0  0.00000000000E+00  0.00000000000E+00  0.25273097653E+04  0.25273097653E+04  0.25500000920E-02 0. -1.
       -2   -1    0    0    0  501  0.00000000000E+00  0.00000000000E+00 -0.34329877448E+03  0.34329877449E+03  0.25500000920E-02 0.  1.
    10030    2    1    2    0    0  0.00000000000E+00  0.00000000000E+00  0.21840109908E+04  0.28706085398E+04  0.18629249531E+04 0.  0.
        1    1    3    3  502    0 -0.71229818809E+03  0.34803520140E+03  0.18455193236E+04  0.20085912436E+04  0.50400001928E-02 0.  1.
       -1    1    3    3    0  502  0.71229818809E+03 -0.34803520140E+03  0.33849166729E+03  0.86201729624E+03  0.50400001928E-02 0. -1.
</event>
<event>
 5   0  0.1790832E-04  0.1855034E+04  0.7818609E-02  0.8677568E-01
        2   -1    0    0  501    0  0.00000000000E+00  0.00000000000E+00  0.14989757422E+04  0.14989757422E+04  0.25500000920E-02 0. -1.
       -2   -1    0    0    0  501  0.00000000000E+00  0.00000000000E+00 -0.57391739094E+03  0.57391739094E+03  0.25500000920E-02 0.  1.
    10030    2    1    2    0    0  0.00000000000E+00  0.00000000000E+00  0.92505835124E+03  0.20728931331E+04  0.18550344978E+04 0.  0.
        5    1    3    3  502    0  0.22849686645E+03  0.30057308510E+03  0.14092016983E+04  0.14589127849E+04  0.46999998093E+01 0.  1.
       -5    1    3    3    0  502 -0.22849686645E+03 -0.30057308510E+03 -0.48414334707E+03  0.61398034820E+03  0.46999998093E+01 0. -1.
</event>
<event>
 5   0  0.1658711E-04  0.1923700E+04  0.7818609E-02  0.8643148E-01
        2   -1    0    0  501    0  0.00000000000E+00  0.00000000000E+00  0.26668724886E+04  0.26668724886E+04  0.25500000920E-02 0. -1.
       -2   -1    0    0    0  501  0.00000000000E+00  0.00000000000E+00 -0.34690654822E+03  0.34690654823E+03  0.25500000920E-02 0.  1.
    10030    2    1    2    0    0  0.00000000000E+00  0.00000000000E+00  0.23199659404E+04  0.30137790369E+04  0.19237001113E+04 0.  0.
        2    1    3    3  502    0  0.73319938493E+03  0.34463464439E+03  0.34773319179E+03  0.88163073270E+03  0.25500000920E-02 0.  1.
       -2    1    3    3    0  502 -0.73319938493E+03 -0.34463464439E+03  0.19722327486E+04  0.21321483042E+04  0.25500000920E-02 0. -1.
</event>
<event>
 5   0  0.8602017E-05  0.1905804E+04  0.7818609E-02  0.8651973E-01
        1   -1    0    0  501    0  0.00000000000E+00  0.00000000000E+00  0.74757802604E+03  0.74757802605E+03  0.50400001928E-02 0. -1.
       -1   -1    0    0    0  501  0.00000000000E+00  0.00000000000E+00 -0.12146183902E+04  0.12146183902E+04  0.50400001928E-02 0.  1.
    10030    2    1    2    0    0  0.00000000000E+00  0.00000000000E+00 -0.46704036414E+03  0.19621964162E+04  0.19058037869E+04 0.  0.
        2    1    3    3  502    0 -0.31490297440E+03 -0.79728812566E+03 -0.66199511828E+03  0.10830834572E+04  0.25500000920E-02 0.  1.
       -2    1    3    3    0  502  0.31490297440E+03  0.79728812566E+03  0.19495475414E+03  0.87911295905E+03  0.25500000920E-02 0. -1.
</event>
<event>
 5   0  0.8905646E-05  0.1903694E+04  0.7818609E-02  0.8653020E-01
       -1   -1    0    0    0  501  0.00000000000E+00  0.00000000000E+00  0.71011975365E+03  0.71011975367E+03  0.50400001928E-02 0.  1.
        1   -1    0    0  501    0  0.00000000000E+00  0.00000000000E+00 -0.12758593395E+04  0.12758593395E+04  0.50400001928E-02 0. -1.
    10030    2    1    2    0    0  0.00000000000E+00  0.00000000000E+00 -0.56573958583E+03  0.19859790932E+04  0.19036942190E+04 0.  0.
        1    1    3    3  502    0  0.34354051560E+03  0.35323558990E+03  0.56671250366E+03  0.75097172361E+03  0.50400001928E-02 0.  1.
       -1    1    3    3    0  502 -0.34354051560E+03 -0.35323558990E+03 -0.11324520895E+04  0.12350073696E+04  0.50400001928E-02 0. -1.
</event>
<event>
 5   0  0.1790832E-04  0.1906718E+04  0.7818609E-02  0.8651519E-01
        2   -1    0    0  501    0  0.00000000000E+00  0.00000000000E+00  0.14583654119E+04  0.14583654119E+04  0.25500000920E-02 0.  1.
       -2   -1    0    0    0  501  0.00000000000E+00  0.00000000000E+00 -0.62322777796E+03  0.62322777796E+03  0.25500000920E-02 0. -1.
    10030    2    1    2    0    0  0.00000000000E+00  0.00000000000E+00  0.83513763399E+03  0.20815931899E+04  0.19067184744E+04 0.  0.
        5    1    3    3  502    0 -0.69804680440E+03 -0.64888247123E+03  0.44326340397E+03  0.10511052934E+04  0.46999998093E+01 0. -1.
       -5    1    3    3    0  502  0.69804680440E+03  0.64888247123E+03  0.39187423002E+03  0.10304878965E+04  0.46999998093E+01 0.  1.
</event>
<event>
 5   0  0.1799738E-04  0.1923278E+04  0.7818609E-02  0.8643355E-01
       -2   -1    0    0    0  501  0.00000000000E+00  0.00000000000E+00  0.87739745552E+03  0.87739745553E+03  0.25500000920E-02 0. -1.
        2   -1    0    0  501    0  0.00000000000E+00  0.00000000000E+00 -0.10539690283E+04  0.10539690283E+04  0.25500000920E-02 0.  1.
    10030    2    1    2    0    0  0.00000000000E+00  0.00000000000E+00 -0.17657157279E+03  0.19313664838E+04  0.19232781844E+04 0.  0.
        1    1    3    3  502    0  0.43833908887E+03 -0.31194324687E+02 -0.94723991270E+03  0.10442115183E+04  0.50400001928E-02 0.  1.
       -1    1    3    3    0  502 -0.43833908887E+03  0.31194324687E+02  0.77066833990E+03  0.88715496554E+03  0.50400001928E-02 0. -1.
</event>
<event>
 5   0  0.8587082E-05  0.1864883E+04  0.7818609E-02  0.8672537E-01
       -1   -1    0    0    0  501  0.00000000000E+00  0.00000000000E+00  0.53501424421E+03  0.53501424423E+03  0.50400001928E-02 0. -1.
        1   -1    0    0  501    0  0.00000000000E+00  0.00000000000E+00 -0.16250910004E+04  0.16250910004E+04  0.50400001928E-02 0.  1.
    10030    2    1    2    0    0  0.00000000000E+00  0.00000000000E+00 -0.10900767562E+04  0.21601052447E+04  0.18648826595E+04 0.  0.
        5    1    3    3  502    0 -0.70501595569E+02  0.36216994952E+03  0.44684463260E+03  0.57950820787E+03  0.46999998093E+01 0. -1.
       -5    1    3    3    0  502  0.70501595569E+02 -0.36216994952E+03 -0.15369213888E+04  0.15805970368E+04  0.46999998093E+01 0.  1.
</event>
<event>
 5   0  0.8681396E-05  0.1855899E+04  0.7818609E-02  0.8677125E-01
        1   -1    0    0  501    0  0.00000000000E+00  0.00000000000E+00  0.24218447912E+04  0.24218447912E+04  0.50400001928E-02 0. -1.
       -1   -1    0    0    0  501  0.00000000000E+00  0.00000000000E+00 -0.35555138682E+03  0.35555138685E+03  0.50400001928E-02 0.  1.
    10030    2    1    2    0    0  0.00000000000E+00  0.00000000000E+00  0.20662934044E+04  0.27773961780E+04  0.18558989996E+04 0.  0.
        3    1    3    3  502    0 -0.11410847821E+03  0.44634480665E+03  0.22386107316E+04  0.22855245457E+04  0.10100000352E+00 0. -1.
       -3    1    3    3    0  502  0.11410847821E+03 -0.44634480665E+03 -0.17231732724E+03  0.49187163233E+03  0.10100000352E+00 0.  1.
</event>
<event>
 5   0  0.1790832E-04  0.1907880E+04  0.7818609E-02  0.8650944E-01
       -2   -1    0    0    0  501  0.00000000000E+00  0.00000000000E+00  0.57708210458E+03  0.57708210459E+03  0.25500000920E-02 0.  1.
        2   -1    0    0  501    0  0.00000000000E+00  0.00000000000E+00 -0.15769017934E+04  0.15769017934E+04  0.25500000920E-02 0. -1.
    10030    2    1    2    0    0  0.00000000000E+00  0.00000000000E+00 -0.99981968878E+03  0.21539838980E+04  0.19078802957E+04 0.  0.
        5    1    3    3  502    0  0.24609827679E+03 -0.33148887213E+03 -0.14707983719E+04  0.15276515228E+04  0.46999998093E+01 0. -1.
       -5    1    3    3    0  502 -0.24609827679E+03  0.33148887213E+03  0.47097868316E+03  0.62633237516E+03  0.46999998093E+01 0.  1.
</event>
<event>
 5   0  0.8681396E-05  0.1909580E+04  0.7818609E-02  0.8650102E-01
       -1   -1    0    0    0  501  0.00000000000E+00  0.00000000000E+00  0.44671393518E+03  0.44671393521E+03  0.50400001928E-02 0.  1.
        1   -1    0    0  501    0  0.00000000000E+00  0.00000000000E+00 -0.20407337137E+04  0.20407337137E+04  0.50400001928E-02 0. -1.
    10030    2    1    2    0    0  0.00000000000E+00  0.00000000000E+00 -0.15940197785E+04  0.24874476489E+04  0.19095802554E+04 0.  0.
        3    1    3    3  502    0 -0.55794839040E+03  0.70870522901E+03 -0.12049065730E+04  0.15051144036E+04  0.10100000352E+00 0.  1.
       -3    1    3    3    0  502  0.55794839040E+03 -0.70870522901E+03 -0.38911320548E+03  0.98233324531E+03  0.10100000352E+00 0. -1.
</event>
<event>
 5   0  0.1790832E-04  0.1906766E+04  0.7818609E-02  0.8651496E-01
        2   -1    0    0  501    0  0.00000000000E+00  0.00000000000E+00  0.99143935801E+03  0.99143935801E+03  0.25500000920E-02 0.  1.
       -2   -1    0    0    0  501  0.00000000000E+00  0.00000000000E+00 -0.91678751097E+03  0.91678751098E+03  0.25500000920E-02 0. -1.
    10030    2    1    2    0    0  0.00000000000E+00  0.00000000000E+00  0.74651847033E+02  0.19082268690E+04  0.19067660804E+04 0.  0.
        5    1    3    3  502    0  0.35442271737E+03  0.12336952277E+03 -0.83974815958E+03  0.91980137163E+03  0.46999998093E+01 0. -1.
       -5    1    3    3    0  502 -0.35442271737E+03 -0.12336952277E+03  0.91440000661E+03  0.98842549736E+03  0.46999998093E+01 0.  1.
</event>
<event>
 5   0  0.8602017E-05  0.1764316E+04  0.7818609E-02  0.8725509E-01
       -1   -1    0    0    0  501  0.00000000000E+00  0.00000000000E+00  0.43017870812E+03  0.43017870815E+03  0.50400001928E-02 0. -1.
        1   -1    0    0  501    0  0.00000000000E+00  0.00000000000E+00 -0.18090224633E+04  0.18090224633E+04  0.50400001928E-02 0.  1.
    10030    2    1    2    0    0  0.00000000000E+00  0.00000000000E+00 -0.13788437552E+04  0.22392011714E+04  0.17643162372E+04 0.  0.
        2    1    3    3  502    0  0.29740984835E+03  0.48798750486E+03  0.16348684303E+03  0.59440085014E+03  0.25500000920E-02 0. -1.
       -2    1    3    3    0  502 -0.29740984835E+03 -0.48798750486E+03 -0.15423305982E+04  0.16448003213E+04  0.25500000920E-02 0.  1.
</event>
<event>
 5   0  0.1799738E-04  0.1722116E+04  0.7818609E-02  0.8748850E-01
       -2   -1    0    0    0  501  0.00000000000E+00  0.00000000000E+00  0.42944024281E+03  0.42944024281E+03  0.25500000920E-02 0.  1.
        2   -1    0    0  501    0  0.00000000000E+00  0.00000000000E+00 -0.17264829066E+04  0.17264829066E+04  0.25500000920E-02 0. -1.
    10030    2    1    2    0    0  0.00000000000E+00  0.00000000000E+00 -0.12970426638E+04  0.21559231494E+04  0.17221164172E+04 0.  0.
        1    1    3    3  502    0  0.46940608831E+03 -0.14078201458E+03 -0.15348649356E+04  0.16112020425E+04  0.50400001928E-02 0. -1.
       -1    1    3    3    0  502 -0.46940608831E+03  0.14078201458E+03  0.23782227174E+03  0.54472110693E+03  0.50400001928E-02 0.  1.
</event>
<event>
 5   0  0.8602017E-05  0.1908238E+04  0.7818609E-02  0.8650767E-01
        1   -1    0    0  501    0  0.00000000000E+00  0.00000000000E+00  0.89909209019E+03  0.89909209021E+03  0.50400001928E-02 0. -1.
       -1   -1    0    0    0  501  0.00000000000E+00  0.00000000000E+00 -0.10125137973E+04  0.10125137973E+04  0.50400001928E-02 0.  1.
    10030    2    1    2    0    0  0.00000000000E+00  0.00000000000E+00 -0.11342170712E+03  0.19116058875E+04  0.19082380841E+04 0.  0.
        2    1    3    3  502    0  0.37610955748E+03 -0.77644624484E+03 -0.46488053437E+03  0.98002095978E+03  0.25500000920E-02 0.  1.
       -2    1    3    3    0  502 -0.37610955748E+03  0.77644624484E+03  0.35145882725E+03  0.93158492775E+03  0.25500000920E-02 0. -1.
</event>
<event>
 5   0  0.1810569E-04  0.1900569E+04  0.7818609E-02  0.8654573E-01
       -2   -1    0    0    0  501  0.00000000000E+00  0.00000000000E+00  0.31618305515E+03  0.31618305516E+03  0.25500000920E-02 0.  1.
        2   -1    0    0  501    0  0.00000000000E+00  0.00000000000E+00 -0.28560693810E+04  0.28560693810E+04  0.25500000920E-02 0. -1.
    10030    2    1    2    0    0  0.00000000000E+00  0.00000000000E+00 -0.25398863258E+04  0.31722524362E+04  0.19005691175E+04 0.  0.
        4    1    3    3  502    0 -0.26937793068E+03 -0.90083645424E+03 -0.10400644444E+04  0.14020721980E+04  0.12699999809E+01 0. -1.
       -4    1    3    3    0  502  0.26937793068E+03  0.90083645424E+03 -0.14998218814E+04  0.17701802382E+04  0.12699999809E+01 0.  1.
</event>
<event>
 5   0  0.8567844E-05  0.1928003E+04  0.7818609E-02  0.8641042E-01
       -1   -1    0    0    0  501  0.00000000000E+00  0.00000000000E+00  0.62630979288E+03  0.62630979290E+03  0.50400001928E-02 0.  1.
        1   -1    0    0  501    0  0.00000000000E+00  0.00000000000E+00 -0.14837684706E+04  0.14837684706E+04  0.50400001928E-02 0. -1.
    10030    2    1    2    0    0  0.00000000000E+00  0.00000000000E+00 -0.85745867774E+03  0.21100782635E+04  0.19280028252E+04 0.  0.
        4    1    3    3  502    0  0.38998162348E+03  0.21855453438E+03 -0.13634617045E+04  0.14348801984E+04  0.12699999809E+01 0. -1.
       -4    1    3    3    0  502 -0.38998162348E+03 -0.21855453438E+03  0.50600302678E+03  0.67519806513E+03  0.12699999809E+01 0.  1.
</event>
<event>
 5   0  0.6375750E-05  0.1600505E+04  0.7818609E-02  0.8820238E-01
        4   -1    0    0  501    0  0.00000000000E+00  0.00000000000E+00  0.13410748154E+04  0.13410754168E+04  0.12699999809E+01 0. -1.
       -4   -1    0    0    0  501  0.00000000000E+00  0.00000000000E+00 -0.47752890168E+03  0.47753059048E+03  0.12699999809E+01 0.  1.
    10030    2    1    2    0    0  0.00000000000E+00  0.00000000000E+00  0.86354591377E+03  0.18186060073E+04  0.16005050030E+04 0.  0.
        5    1    3    3  502    0 -0.23165420853E+03 -0.73763405199E+03  0.66633585095E+03  0.10206827241E+04  0.46999998093E+01 0.  1.
       -5    1    3    3    0  502  0.23165420853E+03  0.73763405199E+03  0.19721006281E+03  0.79792328319E+03  0.46999998093E+01 0. -1.
</event>
<event>
 5   0  0.8587082E-05  0.1893084E+04  0.7818609E-02  0.8658307E-01
       -1   -1    0    0    0  501  0.00000000000E+00  0.00000000000E+00  0.66668042770E+03  0.66668042772E+03  0.50400001928E-02 0.  1.
        1   -1    0    0  501    0  0.00000000000E+00  0.00000000000E+00 -0.13438850621E+04  0.13438850621E+04  0.50400001928E-02 0. -1.
    10030    2    1    2    0    0  0.00000000000E+00  0.00000000000E+00 -0.67720463438E+03  0.20105654898E+04  0.18930841165E+04 0.  0.
        5    1    3    3  502    0 -0.88145881939E+03  0.19247496114E+03 -0.64255052566E+03  0.11076594824E+04  0.46999998093E+01 0. -1.
       -5    1    3    3    0  502  0.88145881939E+03 -0.19247496114E+03 -0.34654108718E+02  0.90290600740E+03  0.46999998093E+01 0.  1.
</event>
<event>
 5   0  0.8602017E-05  0.1935211E+04  0.7818609E-02  0.8637525E-01
        1   -1    0    0  501    0  0.00000000000E+00  0.00000000000E+00  0.15267840531E+04  0.15267840531E+04  0.50400001928E-02 0. -1.
       -1   -1    0    0    0  501  0.00000000000E+00  0.00000000000E+00 -0.61322386878E+03  0.61322386881E+03  0.50400001928E-02 0.  1.
    10030    2    1    2    0    0  0.00000000000E+00  0.00000000000E+00  0.91356018436E+03  0.21400079220E+04  0.19352110209E+04 0.  0.
        2    1    3    3  502    0  0.66193370570E+03 -0.63661370817E+03  0.79369841516E+03  0.12138329450E+04  0.25500000920E-02 0.  1.
       -2    1    3    3    0  502 -0.66193370570E+03  0.63661370817E+03  0.11986176919E+03  0.92617497693E+03  0.25500000920E-02 0. -1.
</event>
<event>
 5   0  0.8681396E-05  0.1900146E+04  0.7818609E-02  0.8654784E-01
       -1   -1    0    0    0  501  0.00000000000E+00  0.00000000000E+00  0.49639097053E+03  0.49639097055E+03  0.50400001928E-02 0.  1.
        1   -1    0    0  501    0  0.00000000000E+00  0.00000000000E+00 -0.18184025226E+04  0.18184025226E+04  0.50400001928E-02 0. -1.
    10030    2    1    2    0    0  0.00000000000E+00  0.00000000000E+00 -0.13220115521E+04  0.23147934932E+04  0.19001458818E+04 0.  0.
        3    1    3    3  502    0  0.92653957012E+03  0.81027537081E+02 -0.42479208911E+03  0.10224917437E+04  0.10100000352E+00 0. -1.
       -3    1    3    3    0  502 -0.92653957012E+03 -0.81027537081E+02 -0.89721946298E+03  0.12923017495E+04  0.10100000352E+00 0.  1.
</event>
<event>
 5   0  0.8587082E-05  0.1888709E+04  0.7818609E-02  0.8660497E-01
        1   -1    0    0  501    0  0.00000000000E+00  0.00000000000E+00  0.12618998638E+04  0.12618998638E+04  0.50400001928E-02 0. -1.
       -1   -1    0    0    0  501  0.00000000000E+00  0.00000000000E+00 -0.70671681087E+03  0.70671681089E+03  0.50400001928E-02 0.  1.
    10030    2    1    2    0    0  0.00000000000E+00  0.00000000000E+00  0.55518305289E+03  0.19686166747E+04  0.18887094508E+04 0.  0.
        5    1    3    3  502    0 -0.55465144931E+03  0.23169857127E+03  0.10367332442E+04  0.11983990853E+04  0.46999998093E+01 0. -1.
       -5    1    3    3    0  502  0.55465144931E+03 -0.23169857127E+03 -0.48155019130E+03  0.77021758931E+03  0.46999998093E+01 0.  1.
</event>
<event>
 5   0  0.8587082E-05  0.1913986E+04  0.7818609E-02  0.8647926E-01
        1   -1    0    0  501    0  0.00000000000E+00  0.00000000000E+00  0.16477357816E+04  0.16477357816E+04  0.50400001928E-02 0.  1.
       -1   -1    0    0    0  501  0.00000000000E+00  0.00000000000E+00 -0.55581464070E+03  0.55581464072E+03  0.50400001928E-02 0. -1.
    10030    2    1    2    0    0  0.00000000000E+00  0.00000000000E+00  0.10919211409E+04  0.22035504223E+04  0.19139860725E+04 0.  0.
        5    1    3    3  502    0  0.68889688482E+03 -0.39660529722E+02  0.13093454256E+04  0.14800538534E+04  0.46999998093E+01 0.  1.
       -5    1    3    3    0  502 -0.68889688482E+03  0.39660529722E+02 -0.21742428475E+03  0.72349656885E+03  0.46999998093E+01 0. -1.
</event>
<event>
 5   0  0.8587082E-05  0.1898216E+04  0.7818609E-02  0.8655745E-01
        1   -1    0    0  501    0  0.00000000000E+00  0.00000000000E+00  0.91560821272E+03  0.91560821273E+03  0.50400001928E-02 0. -1.
       -1   -1    0    0    0  501  0.00000000000E+00  0.00000000000E+00 -0.98383385191E+03  0.98383385192E+03  0.50400001928E-02 0.  1.
    10030    2    1    2    0    0  0.00000000000E+00  0.00000000000E+00 -0.68225639194E+02  0.18994420647E+04  0.18982163784E+04 0.  0.
        5    1    3    3  502    0 -0.43636663415E+03  0.23443339622E+03  0.77598352195E+03  0.92062336110E+03  0.46999998093E+01 0. -1.
       -5    1    3    3    0  502  0.43636663415E+03 -0.23443339622E+03 -0.84420916115E+03  0.97881870355E+03  0.46999998093E+01 0.  1.
</event>
<event>
 5   0  0.1810569E-04  0.1890625E+04  0.7818609E-02  0.8659537E-01
        2   -1    0    0  501    0  0.00000000000E+00  0.00000000000E+00  0.45280357367E+03  0.45280357368E+03  0.25500000920E-02 0. -1.
       -2   -1    0    0    0  501  0.00000000000E+00  0.00000000000E+00 -0.19735165417E+04  0.19735165417E+04  0.25500000920E-02 0.  1.
    10030    2    1    2    0    0  0.00000000000E+00  0.00000000000E+00 -0.15207129681E+04  0.24263201154E+04  0.18906245982E+04 0.  0.
        4    1    3    3  502    0 -0.11670522591E+03 -0.48544069717E+02  0.44190872559E+03  0.45963199531E+03  0.12699999809E+01 0. -1.
       -4    1    3    3    0  502  0.11670522591E+03  0.48544069717E+02 -0.19626216936E+04  0.19666881201E+04  0.12699999809E+01 0.  1.
</event>
<event>
 5   0  0.8567844E-05  0.1908895E+04  0.7818609E-02  0.8650441E-01
       -1   -1    0    0    0  501  0.00000000000E+00  0.00000000000E+00  0.83567560678E+03  0.83567560680E+03  0.50400001928E-02 0.  1.
        1   -1    0    0  501    0  0.00000000000E+00  0.00000000000E+00 -0.10901004655E+04  0.10901004655E+04  0.50400001928E-02 0. -1.
    10030    2    1    2    0    0  0.00000000000E+00  0.00000000000E+00 -0.25442485868E+03  0.19257760723E+04  0.19088953538E+04 0.  0.
        4    1    3    3  502    0  0.72320256897E+03  0.39814616241E+03 -0.61043297517E+03  0.10267289576E+04  0.12699999809E+01 0. -1.
       -4    1    3    3    0  502 -0.72320256897E+03 -0.39814616241E+03  0.35600811649E+03  0.89904711462E+03  0.12699999809E+01 0.  1.
</event>
<event>
 5   0  0.1765328E-04  0.2259824E+04  0.7818609E-02  0.8493933E-01
        2   -1    0    0  501    0  0.00000000000E+00  0.00000000000E+00  0.11405369631E+04  0.11405369631E+04  0.25500000920E-02 0.  1.
       -2   -1    0    0    0  501  0.00000000000E+00  0.00000000000E+00 -0.11193855751E+04  0.11193855751E+04  0.25500000920E-02 0. -1.
    10030    2    1    2    0    0  0.00000000000E+00  0.00000000000E+00  0.21151387996E+02  0.22599225383E+04  0.22598235546E+04 0.  0.
        3    1    3    3  502    0  0.94234653437E+03 -0.45562870783E+03 -0.41498507492E+03  0.11259783003E+04  0.10100000352E+00 0.  1.
       -3    1    3    3    0  502 -0.94234653437E+03  0.45562870783E+03  0.43613646292E+03  0.11339442379E+04  0.10100000352E+00 0. -1.
</event>
<event>
 5   0  0.1799738E-04  0.1889917E+04  0.7818609E-02  0.8659892E-01
       -2   -1    0    0    0  501  0.00000000000E+00  0.00000000000E+00  0.61166513607E+03  0.61166513608E+03  0.25500000920E-02 0.  1.
        2   -1    0    0  501    0  0.00000000000E+00  0.00000000000E+00 -0.14598611497E+04  0.14598611497E+04  0.25500000920E-02 0. -1.
    10030    2    1    2    0    0  0.00000000000E+00  0.00000000000E+00 -0.84819601366E+03  0.20715262858E+04  0.18899165789E+04 0.  0.
        1    1    3    3  502    0  0.81976275407E+03  0.44515968138E+03 -0.25870742726E+03  0.96804320556E+03  0.50400001928E-02 0.  1.
       -1    1    3    3    0  502 -0.81976275407E+03 -0.44515968138E+03 -0.58948858640E+03  0.11034830803E+04  0.50400001928E-02 0. -1.
</event>
<event>
 5   0  0.8567844E-05  0.1885653E+04  0.7818609E-02  0.8662031E-01
       -1   -1    0    0    0  501  0.00000000000E+00  0.00000000000E+00  0.69623567803E+03  0.69623567804E+03  0.50400001928E-02 0. -1.
        1   -1    0    0  501    0  0.00000000000E+00  0.00000000000E+00 -0.12767543161E+04  0.12767543161E+04  0.50400001928E-02 0.  1.
    10030    2    1    2    0    0  0.00000000000E+00  0.00000000000E+00 -0.58051863810E+03  0.19729899942E+04  0.18856531038E+04 0.  0.
        4    1    3    3  502    0  0.23002635668E+02 -0.56616458683E+03 -0.10787189301E+04  0.12184857831E+04  0.12699999809E+01 0.  1.
       -4    1    3    3    0  502 -0.23002635668E+02  0.56616458683E+03  0.49820029201E+03  0.75450421104E+03  0.12699999809E+01 0. -1.
</event>
<event>
 5   0  0.1799738E-04  0.1911405E+04  0.7818609E-02  0.8649200E-01
        2   -1    0    0  501    0  0.00000000000E+00  0.00000000000E+00  0.10433799928E+04  0.10433799928E+04  0.25500000920E-02 0.  1.
       -2   -1    0    0    0  501  0.00000000000E+00  0.00000000000E+00 -0.87539273803E+03  0.87539273803E+03  0.25500000920E-02 0. -1.
    10030    2    1    2    0    0  0.00000000000E+00  0.00000000000E+00  0.16798725481E+03  0.19187727309E+04  0.19114050002E+04 0.  0.
        1    1    3    3  502    0  0.76644145900E+03 -0.41413630073E+03 -0.31049171100E+03  0.92484944087E+03  0.50400001928E-02 0. -1.
       -1    1    3    3    0  502 -0.76644145900E+03  0.41413630073E+03  0.47847896580E+03  0.99392328999E+03  0.50400001928E-02 0.  1.
</event>
<event>
 5   0  0.1765328E-04  0.1891944E+04  0.7818609E-02  0.8658877E-01
        2   -1    0    0  501    0  0.00000000000E+00  0.00000000000E+00  0.10692293338E+04  0.10692293338E+04  0.25500000920E-02 0. -1.
       -2   -1    0    0    0  501  0.00000000000E+00  0.00000000000E+00 -0.83692313227E+03  0.83692313227E+03  0.25500000920E-02 0.  1.
    10030    2    1    2    0    0  0.00000000000E+00  0.00000000000E+00  0.23230620149E+03  0.19061524660E+04  0.18919437234E+04 0.  0.
        3    1    3    3  502    0  0.11027298789E+03 -0.44764318721E+03  0.94838220286E+03  0.10545014783E+04  0.10100000352E+00 0. -1.
       -3    1    3    3    0  502 -0.11027298789E+03  0.44764318721E+03 -0.71607600137E+03  0.85165098770E+03  0.10100000352E+00 0.  1.
</event>
<event>
 5   0  0.8602017E-05  0.1892760E+04  0.7818609E-02  0.8658468E-01
       -1   -1    0    0    0  501  0.00000000000E+00  0.00000000000E+00  0.57391154519E+03  0.57391154522E+03  0.50400001928E-02 0. -1.
        1   -1    0    0  501    0  0.00000000000E+00  0.00000000000E+00 -0.15605810027E+04  0.15605810027E+04  0.50400001928E-02 0.  1.
    10030    2    1    2    0    0  0.00000000000E+00  0.00000000000E+00 -0.98666945747E+03  0.21344925479E+04  0.18927603701E+04 0.  0.
        2    1    3    3  502    0  0.79362459608E+03 -0.49708830338E+03 -0.33912761404E+03  0.99596401515E+03  0.25500000920E-02 0. -1.
       -2    1    3    3    0  502 -0.79362459608E+03  0.49708830338E+03 -0.64754184343E+03  0.11385285327E+04  0.25500000920E-02 0.  1.
</event>
<event>
 5   0  0.1765328E-04  0.1885208E+04  0.7818609E-02  0.8662254E-01
        2   -1    0    0  501    0  0.00000000000E+00  0.00000000000E+00  0.30693737691E+04  0.30693737691E+04  0.25500000920E-02 0.  1.
       -2   -1    0    0    0  501  0.00000000000E+00  0.00000000000E+00 -0.28947362341E+03  0.28947362343E+03  0.25500000920E-02 0. -1.
    10030    2    1    2    0    0  0.00000000000E+00  0.00000000000E+00  0.27799001457E+04  0.33588473925E+04  0.18852084729E+04 0.  0.
        3    1    3    3  502    0  0.30518607724E+03  0.17279531079E+03  0.29488031401E+04  0.29695852792E+04  0.10100000352E+00 0.  1.
       -3    1    3    3    0  502 -0.30518607724E+03 -0.17279531079E+03 -0.16890299440E+03  0.38926211335E+03  0.10100000352E+00 0. -1.
</event>
<event>
 5   0  0.8567844E-05  0.1897664E+04  0.7818609E-02  0.8656020E-01
       -1   -1    0    0    0  501  0.00000000000E+00  0.00000000000E+00  0.75307212252E+03  0.75307212254E+03  0.50400001928E-02 0. -1.
        1   -1    0    0  501    0  0.00000000000E+00  0.00000000000E+00 -0.11954795725E+04  0.11954795725E+04  0.50400001928E-02 0.  1.
    10030    2    1    2    0    0  0.00000000000E+00  0.00000000000E+00 -0.44240744998E+03  0.19485516951E+04  0.18976641843E+04 0.  0.
        4    1    3    3  502    0 -0.17334943323E+03 -0.53106555776E+03 -0.10087119681E+04  0.11530750626E+04  0.12699999809E+01 0.  1.
       -4    1    3    3    0  502  0.17334943323E+03  0.53106555776E+03  0.56630451808E+03  0.79547663243E+03  0.12699999809E+01 0. -1.
</event>
<event>
 5   0  0.8602017E-05  0.1914111E+04  0.7818609E-02  0.8647864E-01
       -1   -1    0    0    0  501  0.00000000000E+00  0.00000000000E+00  0.76243704995E+03  0.76243704997E+03  0.50400001928E-02 0. -1.
        1   -1    0    0  501    0  0.00000000000E+00  0.00000000000E+00 -0.12013516023E+04  0.12013516024E+04  0.50400001928E-02 0.  1.
    10030    2    1    2    0    0  0.00000000000E+00  0.00000000000E+00 -0.43891455239E+03  0.19637886523E+04  0.19141107300E+04 0.  0.
        2    1    3    3  502    0 -0.54276909567E+03 -0.51584259235E+03 -0.83096611552E+03  0.11185689771E+04  0.25500000920E-02 0.  1.
       -2    1    3    3    0  502  0.54276909567E+03  0.51584259235E+03  0.39205156313E+03  0.84521967526E+03  0.25500000920E-02 0. -1.
</event>
<event>
 5   0  0.8567844E-05  0.1878308E+04  0.7818609E-02  0.8665730E-01
       -1   -1    0    0    0  501  0.00000000000E+00  0.00000000000E+00  0.61361852372E+03  0.61361852374E+03  0.50400001928E-02 0. -1.
        1   -1    0    0  501    0  0.00000000000E+00  0.00000000000E+00 -0.14373919959E+04  0.14373919959E+04  0.50400001928E-02 0.  1.
    10030    2    1    2    0    0  0.00000000000E+00  0.00000000000E+00 -0.82377347221E+03  0.20510105197E+04  0.18783081266E+04 0.  0.
        4    1    3    3  502    0 -0.44951902705E+03 -0.32133332022E+03  0.41733535065E+03  0.69245423398E+03  0.12699999809E+01 0. -1.
       -4    1    3    3    0  502  0.44951902705E+03  0.32133332022E+03 -0.12411088229E+04  0.13585562857E+04  0.12699999809E+01 0.  1.
</event>
<event>
 5   0  0.1799738E-04  0.1882429E+04  0.7818609E-02  0.8663652E-01
       -2   -1    0    0    0  501  0.00000000000E+00  0.00000000000E+00  0.55189093229E+03  0.55189093230E+03  0.25500000920E-02 0.  1.
        2   -1    0    0  501    0  0.00000000000E+00  0.00000000000E+00 -0.16051809112E+04  0.16051809112E+04  0.25500000920E-02 0. -1.
    10030    2    1    2    0    0  0.00000000000E+00  0.00000000000E+00 -0.10532899789E+04  0.21570718435E+04  0.18824290580E+04 0.  0.
        1    1    3    3  502    0 -0.18829558094E+03 -0.26817482845E+03  0.48441889754E+03  0.58483727030E+03  0.50400001928E-02 0.  1.
       -1    1    3    3    0  502  0.18829558094E+03  0.26817482845E+03 -0.15377088765E+04  0.15722345732E+04  0.50400001928E-02 0. -1.
</event>
<event>
 5   0  0.8905646E-05  0.1900288E+04  0.7818609E-02  0.8654713E-01
       -1   -1    0    0    0  501  0.00000000000E+00  0.00000000000E+00  0.17980512540E+04  0.17980512540E+04  0.50400001928E-02 0.  1.
        1   -1    0    0  501    0  0.00000000000E+00  0.00000000000E+00 -0.50208461180E+03  0.50208461183E+03  0.50400001928E-02 0. -1.
    10030    2    1    2    0    0  0.00000000000E+00  0.00000000000E+00  0.12959666422E+04  0.23001358658E+04  0.19002882580E+04 0.  0.
        1    1    3    3  502    0  0.37351420919E+02  0.61298165348E+03  0.15255396413E+04  0.16445099068E+04  0.50400001928E-02 0.  1.
       -1    1    3    3    0  502 -0.37351420919E+02 -0.61298165348E+03 -0.22957299920E+03  0.65562595901E+03  0.50400001928E-02 0. -1.
</event>
<event>
 5   0  0.8567844E-05  0.1894105E+04  0.7818609E-02  0.8657796E-01
       -1   -1    0    0    0  501  0.00000000000E+00  0.00000000000E+00  0.52113250468E+03  0.52113250471E+03  0.50400001928E-02 0.  1.
        1   -1    0    0  501    0  0.00000000000E+00  0.00000000000E+00 -0.17210762033E+04  0.17210762033E+04  0.50400001928E-02 0. -1.
    10030    2    1    2    0    0  0.00000000000E+00  0.00000000000E+00 -0.11999436986E+04  0.22422087080E+04  0.18941053325E+04 0.  0.
        4    1    3    3  502    0  0.77731651277E+03  0.37695269428E+03 -0.10593539582E+04  0.13669479567E+04  0.12699999809E+01 0. -1.
       -4    1    3    3    0  502 -0.77731651277E+03 -0.37695269428E+03 -0.14058974043E+03  0.87526075130E+03  0.12699999809E+01 0.  1.
</event>
<event>
 5   0  0.1658711E-04  0.1909838E+04  0.7818609E-02  0.8649975E-01
       -2   -1    0    0    0  501  0.00000000000E+00  0.00000000000E+00  0.13355023376E+04  0.13355023376E+04  0.25500000920E-02 0.  1.
        2   -1    0    0  501    0  0.00000000000E+00  0.00000000000E+00 -0.68279170297E+03  0.68279170298E+03  0.25500000920E-02 0. -1.
    10030    2    1    2    0    0  0.00000000000E+00  0.00000000000E+00  0.65271063467E+03  0.20182940406E+04  0.19098376009E+04 0.  0.
        2    1    3    3  502    0 -0.52382253853E+03 -0.90978522384E+02  0.11646241363E+04  0.12802408064E+04  0.25500000920E-02 0.  1.
       -2    1    3    3    0  502  0.52382253853E+03  0.90978522384E+02 -0.51191350165E+03  0.73805323425E+03  0.25500000920E-02 0. -1.
</event>
<event>
 5   0  0.1658711E-04  0.1904498E+04  0.7818609E-02  0.8652621E-01
       -2   -1    0    0    0  501  0.00000000000E+00  0.00000000000E+00  0.73333792319E+03  0.73333792319E+03  0.25500000920E-02 0.  1.
        2   -1    0    0  501    0  0.00000000000E+00  0.00000000000E+00 -0.12365077129E+04  0.12365077129E+04  0.25500000920E-02 0. -1.
    10030    2    1    2    0    0  0.00000000000E+00  0.00000000000E+00 -0.50316978974E+03  0.19698456361E+04  0.19044978322E+04 0.  0.
        2    1    3    3  502    0 -0.30195450692E+03 -0.72704881761E+03 -0.80569208843E+03  0.11264618275E+04  0.25500000920E-02 0. -1.
       -2    1    3    3    0  502  0.30195450692E+03  0.72704881761E+03  0.30252229869E+03  0.84338380862E+03  0.25500000920E-02 0.  1.
</event>
<event>
 5   0  0.1790832E-04  0.1917886E+04  0.7818609E-02  0.8646004E-01
        2   -1    0    0  501    0  0.00000000000E+00  0.00000000000E+00  0.21247483950E+04  0.21247483950E+04  0.25500000920E-02 0. -1.
       -2   -1    0    0    0  501  0.00000000000E+00  0.00000000000E+00 -0.43279085509E+03  0.43279085510E+03  0.25500000920E-02 0.  1.
    10030    2    1    2    0    0  0.00000000000E+00  0.00000000000E+00  0.16919575399E+04  0.25575392501E+04  0.19178859974E+04 0.  0.
        5    1    3    3  502    0  0.15270968235E+03  0.80919551699E+03  0.19074406384E+03  0.84529463484E+03  0.46999998093E+01 0.  1.
       -5    1    3    3    0  502 -0.15270968235E+03 -0.80919551699E+03  0.15012134761E+04  0.17122446153E+04  0.46999998093E+01 0. -1.
</event>
<event>
 5   0  0.1799738E-04  0.1891414E+04  0.7818609E-02  0.8659142E-01
        2   -1    0    0  501    0  0.00000000000E+00  0.00000000000E+00  0.22225862605E+04  0.22225862605E+04  0.25500000920E-02 0. -1.
       -2   -1    0    0    0  501  0.00000000000E+00  0.00000000000E+00 -0.40239672775E+03  0.40239672776E+03  0.25500000920E-02 0.  1.
    10030    2    1    2    0    0  0.00000000000E+00  0.00000000000E+00  0.18201895327E+04  0.26249829882E+04  0.18914136918E+04 0.  0.
        1    1    3    3  502    0 -0.53882366682E+03 -0.74621819985E+03  0.60861382848E+03  0.11034415879E+04  0.50400001928E-02 0.  1.
       -1    1    3    3    0  502  0.53882366682E+03  0.74621819985E+03  0.12115757042E+04  0.15215414003E+04  0.50400001928E-02 0. -1.
</event>
<event>
 5   0  0.8681396E-05  0.1889651E+04  0.7818609E-02  0.8660025E-01
       -1   -1    0    0    0  501  0.00000000000E+00  0.00000000000E+00  0.33041216881E+03  0.33041216884E+03  0.50400001928E-02 0. -1.
        1   -1    0    0  501    0  0.00000000000E+00  0.00000000000E+00 -0.27017611484E+04  0.27017611484E+04  0.50400001928E-02 0.  1.
    10030    2    1    2    0    0  0.00000000000E+00  0.00000000000E+00 -0.23713489796E+04  0.30321733172E+04  0.18896505081E+04 0.  0.
        3    1    3    3  502    0  0.18803553451E+03  0.79348484163E+03 -0.41995032569E+03  0.91724252103E+03  0.10100000352E+00 0. -1.
       -3    1    3    3    0  502 -0.18803553451E+03 -0.79348484163E+03 -0.19513986539E+04  0.21149307962E+04  0.10100000352E+00 0.  1.
</event>
<event>
 5   0  0.1810569E-04  0.1851075E+04  0.7818609E-02  0.8679600E-01
       -2   -1    0    0    0  501  0.00000000000E+00  0.00000000000E+00  0.67223381792E+03  0.67223381793E+03  0.25500000920E-02 0.  1.
        2   -1    0    0  501    0  0.00000000000E+00  0.00000000000E+00 -0.12742888074E+04  0.12742888074E+04  0.25500000920E-02 0. -1.
    10030    2    1    2    0    0  0.00000000000E+00  0.00000000000E+00 -0.60205498947E+03  0.19465226253E+04  0.18510753957E+04 0.  0.
        4    1    3    3  502    0  0.34612170592E+03 -0.84549517857E+03 -0.45684376304E+03  0.10214549275E+04  0.12699999809E+01 0.  1.
       -4    1    3    3    0  502 -0.34612170592E+03  0.84549517857E+03 -0.14521122644E+03  0.92506769778E+03  0.12699999809E+01 0. -1.
</event>
<event>
 5   0  0.1790832E-04  0.1903913E+04  0.7818609E-02  0.8652911E-01
        2   -1    0    0  501    0  0.00000000000E+00  0.00000000000E+00  0.17688177369E+04  0.17688177369E+04  0.25500000920E-02 0.  1.
       -2   -1    0    0    0  501  0.00000000000E+00  0.00000000000E+00 -0.51233138193E+03  0.51233138194E+03  0.25500000920E-02 0. -1.
    10030    2    1    2    0    0  0.00000000000E+00  0.00000000000E+00  0.12564863550E+04  0.22811491189E+04  0.19039126404E+04 0.  0.
        5    1    3    3  502    0  0.39797499206E+02 -0.45181864906E+03 -0.37453048954E+03  0.58823389071E+03  0.46999998093E+01 0. -1.
       -5    1    3    3    0  502 -0.39797499206E+02  0.45181864906E+03  0.16310168445E+04  0.16929152282E+04  0.46999998093E+01 0.  1.
</event>
<event>
 5   0  0.1799738E-04  0.1897014E+04  0.7818609E-02  0.8656344E-01
       -2   -1    0    0    0  501  0.00000000000E+00  0.00000000000E+00  0.61897671342E+03  0.61897671343E+03  0.25500000920E-02 0. -1.
        2   -1    0    0  501    0  0.00000000000E+00  0.00000000000E+00 -0.14534715764E+04  0.14534715764E+04  0.25500000920E-02 0.  1.
    10030    2    1    2    0    0  0.00000000000E+00  0.00000000000E+00 -0.83449486299E+03  0.20724482898E+04  0.18970135049E+04 0.  0.
        1    1    3    3  502    0  0.46773097697E+03  0.64725457918E+01 -0.13186925433E+04  0.13992012666E+04  0.50400001928E-02 0.  1.
       -1    1    3    3    0  502 -0.46773097697E+03 -0.64725457918E+01  0.48419768031E+03  0.67324702324E+03  0.50400001928E-02 0. -1.
</event>
<event>
 5   0  0.8905646E-05  0.1889342E+04  0.7818609E-02  0.8660180E-01
       -1   -1    0    0    0  501  0.00000000000E+00  0.00000000000E+00  0.71731879237E+03  0.71731879239E+03  0.50400001928E-02 0.  1.
        1   -1    0    0  501    0  0.00000000000E+00  0.00000000000E+00 -0.12440819849E+04  0.12440819849E+04  0.50400001928E-02 0. -1.
    10030    2    1    2    0    0  0.00000000000E+00  0.00000000000E+00 -0.52676319256E+03  0.19614007773E+04  0.18893420940E+04 0.  0.
        1    1    3    3  502    0  0.63483837835E+02 -0.73399473446E+03 -0.87722406515E+03  0.11455568639E+04  0.50400001928E-02 0.  1.
       -1    1    3    3    0  502 -0.63483837835E+02  0.73399473446E+03  0.35046087259E+03  0.81584391345E+03  0.50400001928E-02 0. -1.
</event>
<event>
 5   0  0.8602017E-05  0.1896939E+04  0.7818609E-02  0.8656381E-01
        1   -1    0    0  501    0  0.00000000000E+00  0.00000000000E+00  0.62664007168E+03  0.62664007170E+03  0.50400001928E-02 0.  1.
       -1   -1    0    0    0  501  0.00000000000E+00  0.00000000000E+00 -0.14355844672E+04  0.14355844672E+04  0.50400001928E-02 0. -1.
    10030    2    1    2    0    0  0.00000000000E+00  0.00000000000E+00 -0.80894439549E+03  0.20622245389E+04  0.18969393806E+04 0.  0.
        2    1    3    3  502    0 -0.88100824376E+03 -0.28628137197E+03 -0.18310733350E+03  0.94427794907E+03  0.25500000920E-02 0.  1.
       -2    1    3    3    0  502  0.88100824376E+03  0.28628137197E+03 -0.62583706199E+03  0.11179465898E+04  0.25500000920E-02 0. -1.
</event>
<event>
 5   0  0.8602017E-05  0.1904201E+04  0.7818609E-02  0.8652768E-01
       -1   -1    0    0    0  501  0.00000000000E+00  0.00000000000E+00  0.63916769974E+03  0.63916769976E+03  0.50400001928E-02 0. -1.
        1   -1    0    0  501    0  0.00000000000E+00  0.00000000000E+00 -0.14182439872E+04  0.14182439872E+04  0.50400001928E-02 0.  1.
    10030    2    1    2    0    0  0.00000000000E+00  0.00000000000E+00 -0.77907628748E+03  0.20574116870E+04  0.19042014043E+04 0.  0.
        2    1    3    3  502    0 -0.42253195913E+02  0.33096840234E+03 -0.13530086069E+04  0.13935414261E+04  0.25500000920E-02 0.  1.
       -2    1    3    3    0  502  0.42253195913E+02 -0.33096840234E+03  0.57393231945E+03  0.66387026084E+03  0.25500000920E-02 0. -1.
</event>
<event>
 5   0  0.1658711E-04  0.1602647E+04  0.7818609E-02  0.8818924E-01
       -2   -1    0    0    0  501  0.00000000000E+00  0.00000000000E+00  0.56700924959E+03  0.56700924960E+03  0.25500000920E-02 0.  1.
        2   -1    0    0  501    0  0.00000000000E+00  0.00000000000E+00 -0.11324668066E+04  0.11324668066E+04  0.25500000920E-02 0. -1.
    10030    2    1    2    0    0  0.00000000000E+00  0.00000000000E+00 -0.56545755702E+03  0.16994760562E+04  0.16026467536E+04 0.  0.
        2    1    3    3  502    0  0.43216888026E+03  0.66389165387E+03 -0.15461073101E+03  0.80710999702E+03  0.25500000920E-02 0.  1.
       -2    1    3    3    0  502 -0.43216888026E+03 -0.66389165387E+03 -0.41084682602E+03  0.89236605919E+03  0.25500000920E-02 0. -1.
</event>
<event>
 5   0  0.1810569E-04  0.1889422E+04  0.7818609E-02  0.8660140E-01
        2   -1    0    0  501    0  0.00000000000E+00  0.00000000000E+00  0.17166148249E+04  0.17166148249E+04  0.25500000920E-02 0. -1.
       -2   -1    0    0    0  501  0.00000000000E+00  0.00000000000E+00 -0.51990629438E+03  0.51990629439E+03  0.25500000920E-02 0.  1.
    10030    2    1    2    0    0  0.00000000000E+00  0.00000000000E+00  0.11967085306E+04  0.22365211193E+04  0.18894219778E+04 0.  0.
        4    1    3    3  502    0 -0.15496926632E+03  0.16287288583E+03  0.16844875267E+04  0.16994242822E+04  0.12699999809E+01 0. -1.
       -4    1    3    3    0  502  0.15496926632E+03 -0.16287288583E+03 -0.48777899616E+03  0.53709683711E+03  0.12699999809E+01 0.  1.
</event>
<event>
 5   0  0.1790832E-04  0.1545797E+04  0.7818609E-02  0.8854557E-01
        2   -1    0    0  501    0  0.00000000000E+00  0.00000000000E+00  0.10355168428E+04  0.10355168428E+04  0.25500000920E-02 0.  1.
       -2   -1    0    0    0  501  0.00000000000E+00  0.00000000000E+00 -0.57688284916E+03  0.57688284916E+03  0.25500000920E-02 0. -1.
    10030    2    1    2    0    0  0.00000000000E+00  0.00000000000E+00  0.45863399363E+03  0.16123996920E+04  0.15457967611E+04 0.  0.
        5    1    3    3  502    0 -0.11557364497E+03  0.40792556754E+03 -0.44473745984E+03  0.61447053164E+03  0.46999998093E+01 0. -1.
       -5    1    3    3    0  502  0.11557364497E+03 -0.40792556754E+03  0.90337145347E+03  0.99792916032E+03  0.46999998093E+01 0.  1.
</event>
<event>
 5   0  0.8905646E-05  0.1901975E+04  0.7818609E-02  0.8653874E-01
       -1   -1    0    0    0  501  0.00000000000E+00  0.00000000000E+00  0.10683186187E+04  0.10683186187E+04  0.50400001928E-02 0.  1.
        1   -1    0    0  501    0  0.00000000000E+00  0.00000000000E+00 -0.84654241349E+03  0.84654241350E+03  0.50400001928E-02 0. -1.
    10030    2    1    2    0    0  0.00000000000E+00  0.00000000000E+00  0.22177620518E+03  0.19148610322E+04  0.19019747862E+04 0.  0.
        1    1    3    3  502    0 -0.81110932276E+03  0.35414965707E+03 -0.23940125029E+03  0.91686055196E+03  0.50400001928E-02 0. -1.
       -1    1    3    3    0  502  0.81110932276E+03 -0.35414965707E+03  0.46117745547E+03  0.99800048022E+03  0.50400001928E-02 0.  1.
</event>
<event>
 5   0  0.8567844E-05  0.1884205E+04  0.7818609E-02  0.8662759E-01
       -1   -1    0    0    0  501  0.00000000000E+00  0.00000000000E+00  0.12832063623E+04  0.12832063623E+04  0.50400001928E-02 0.  1.
        1   -1    0    0  501    0  0.00000000000E+00  0.00000000000E+00 -0.69167134306E+03  0.69167134308E+03  0.50400001928E-02 0. -1.
    10030    2    1    2    0    0  0.00000000000E+00  0.00000000000E+00  0.59153501922E+03  0.19748777054E+04  0.18842049443E+04 0.  0.
        4    1    3    3  502    0  0.31305558568E+03  0.66121167583E+03 -0.32638904883E+03  0.80108433019E+03  0.12699999809E+01 0. -1.
       -4    1    3    3    0  502 -0.31305558568E+03 -0.66121167583E+03  0.91792406805E+03  0.11737933752E+04  0.12699999809E+01 0.  1.
</event>
<event>
 5   0  0.1658711E-04  0.1913522E+04  0.7818609E-02  0.8648155E-01
       -2   -1    0    0    0  501  0.00000000000E+00  0.00000000000E+00  0.30039100847E+03  0.30039100848E+03  0.25500000920E-02 0.  1.
        2   -1    0    0  501    0  0.00000000000E+00  0.00000000000E+00 -0.30473345867E+04  0.30473345867E+04  0.25500000920E-02 0. -1.
    10030    2    1    2    0    0  0.00000000000E+00  0.00000000000E+00 -0.27469435782E+04  0.33477255952E+04  0.19135223120E+04 0.  0.
        2    1    3    3  502    0 -0.54977055505E+03 -0.47310010697E+03 -0.24650880040E+04  0.25695778334E+04  0.25500000920E-02 0. -1.
       -2    1    3    3    0  502  0.54977055505E+03  0.47310010697E+03 -0.28185557421E+03  0.77814776176E+03  0.25500000920E-02 0.  1.
</event>
<event>
 5   0  0.1799738E-04  0.1930925E+04  0.7818609E-02  0.8639614E-01
        2   -1    0    0  501    0  0.00000000000E+00  0.00000000000E+00  0.94457808758E+03  0.94457808758E+03  0.25500000920E-02 0.  1.
       -2   -1    0    0    0  501  0.00000000000E+00  0.00000000000E+00 -0.98680892909E+03  0.98680892909E+03  0.25500000920E-02 0. -1.
    10030    2    1    2    0    0  0.00000000000E+00  0.00000000000E+00 -0.42230841508E+02  0.19313870167E+04  0.19309252612E+04 0.  0.
        1    1    3    3  502    0  0.71566726023E+03  0.26457386986E+03  0.57058257467E+03  0.95275570558E+03  0.50400001928E-02 0.  1.
       -1    1    3    3    0  502 -0.71566726023E+03 -0.26457386986E+03 -0.61281341618E+03  0.97863131109E+03  0.50400001928E-02 0. -1.
</event>
<event>
 5   0  0.1799738E-04  0.1890223E+04  0.7818609E-02  0.8659738E-01
       -2   -1    0    0    0  501  0.00000000000E+00  0.00000000000E+00  0.63722183701E+03  0.63722183702E+03  0.25500000920E-02 0. -1.
        2   -1    0    0  501    0  0.00000000000E+00  0.00000000000E+00 -0.14017662271E+04  0.14017662271E+04  0.25500000920E-02 0.  1.
    10030    2    1    2    0    0  0.00000000000E+00  0.00000000000E+00 -0.76454439009E+03  0.20389880641E+04  0.18902233205E+04 0.  0.
        1    1    3    3  502    0 -0.59526600263E+03  0.67244141870E+02 -0.11708121114E+04  0.13151670573E+04  0.50400001928E-02 0.  1.
       -1    1    3    3    0  502  0.59526600263E+03 -0.67244141870E+02  0.40626772128E+03  0.72382100680E+03  0.50400001928E-02 0. -1.
</event>
<event>
 5   0  0.8602017E-05  0.1902915E+04  0.7818609E-02  0.8653407E-01
        1   -1    0    0  501    0  0.00000000000E+00  0.00000000000E+00  0.20809872306E+04  0.20809872306E+04  0.50400001928E-02 0.  1.
       -1   -1    0    0    0  501  0.00000000000E+00  0.00000000000E+00 -0.43501998388E+03  0.43501998390E+03  0.50400001928E-02 0. -1.
    10030    2    1    2    0    0  0.00000000000E+00  0.00000000000E+00  0.16459672468E+04  0.25160072145E+04  0.19029146398E+04 0.  0.
        2    1    3    3  502    0  0.47257677058E+03 -0.53461802375E+03 -0.91807854076E+01  0.71360319663E+03  0.25500000920E-02 0. -1.
       -2    1    3    3    0  502 -0.47257677058E+03  0.53461802375E+03  0.16551480322E+04  0.18024040179E+04  0.25500000920E-02 0.  1.
</event>
<event>
 5   0  0.1790832E-04  0.1903033E+04  0.7818609E-02  0.8653348E-01
        2   -1    0    0  501    0  0.00000000000E+00  0.00000000000E+00  0.21162165787E+04  0.21162165787E+04  0.25500000920E-02 0.  1.
       -2   -1    0    0    0  501  0.00000000000E+00  0.00000000000E+00 -0.42783117684E+03  0.42783117685E+03  0.25500000920E-02 0. -1.
    10030    2    1    2    0    0  0.00000000000E+00  0.00000000000E+00  0.16883854019E+04  0.25440477555E+04  0.19030327683E+04 0.  0.
        5    1    3    3  502    0 -0.55787075768E+03  0.26328925524E+03  0.18126585613E+04  0.19147569465E+04  0.46999998093E+01 0.  1.
       -5    1    3    3    0  502  0.55787075768E+03 -0.26328925524E+03 -0.12427315947E+03  0.62929080905E+03  0.46999998093E+01 0. -1.
</event>
<event>
 5   0  0.8567844E-05  0.1871979E+04  0.7818609E-02  0.8668931E-01
        1   -1    0    0  501    0  0.00000000000E+00  0.00000000000E+00  0.17851144193E+04  0.17851144193E+04  0.50400001928E-02 0. -1.
       -1   -1    0    0    0  501  0.00000000000E+00  0.00000000000E+00 -0.49076749140E+03  0.49076749143E+03  0.50400001928E-02 0.  1.
    10030    2    1    2    0    0  0.00000000000E+00  0.00000000000E+00  0.12943469279E+04  0.22758819108E+04  0.18719787664E+04 0.  0.
        4    1    3    3  502    0  0.32939387177E+03 -0.84349157031E+03  0.35922459655E+03  0.97417774334E+03  0.12699999809E+01 0.  1.
       -4    1    3    3    0  502 -0.32939387177E+03  0.84349157031E+03  0.93512233139E+03  0.13017041674E+04  0.12699999809E+01 0. -1.
</event>
<event>
 5   0  0.8905646E-05  0.1883036E+04  0.7818609E-02  0.8663347E-01
       -1   -1    0    0    0  501  0.00000000000E+00  0.00000000000E+00  0.54322388148E+03  0.54322388150E+03  0.50400001928E-02 0. -1.
        1   -1    0    0  501    0  0.00000000000E+00  0.00000000000E+00 -0.16318430776E+04  0.16318430777E+04  0.50400001928E-02 0.  1.
    10030    2    1    2    0    0  0.00000000000E+00  0.00000000000E+00 -0.10886191962E+04  0.21750669592E+04  0.18830359855E+04 0.  0.
        1    1    3    3  502    0  0.70384577443E+03 -0.12093679047E+03 -0.12530007639E+04  0.14422328161E+04  0.50400001928E-02 0.  1.
       -1    1    3    3    0  502 -0.70384577443E+03  0.12093679047E+03  0.16438156769E+03  0.73283414310E+03  0.50400001928E-02 0. -1.
</event>
<event>
 5   0  0.8905646E-05  0.1892913E+04  0.7818609E-02  0.8658392E-01
        1   -1    0    0  501    0  0.00000000000E+00  0.00000000000E+00  0.10127480860E+04  0.10127480860E+04  0.50400001928E-02 0.  1.
       -1   -1    0    0    0  501  0.00000000000E+00  0.00000000000E+00 -0.88450463444E+03  0.88450463445E+03  0.50400001928E-02 0. -1.
    10030    2    1    2    0    0  0.00000000000E+00  0.00000000000E+00  0.12824345152E+03  0.18972527204E+04  0.18929134957E+04 0.  0.
        1    1    3    3  502    0 -0.47047868186E+03  0.79681608241E+03  0.26335948672E+03  0.96209369530E+03  0.50400001928E-02 0. -1.
       -1    1    3    3    0  502  0.47047868186E+03 -0.79681608241E+03 -0.13511603520E+03  0.93515902512E+03  0.50400001928E-02 0.  1.
</event>
<event>
 5   0  0.8602017E-05  0.1906659E+04  0.7818609E-02  0.8651549E-01
       -1   -1    0    0    0  501  0.00000000000E+00  0.00000000000E+00  0.40240486826E+03  0.40240486829E+03  0.50400001928E-02 0. -1.
        1   -1    0    0  501    0  0.00000000000E+00  0.00000000000E+00 -0.22585134325E+04  0.22585134325E+04  0.50400001928E-02 0.  1.
    10030    2    1    2    0    0  0.00000000000E+00  0.00000000000E+00 -0.18561085642E+04  0.26609183008E+04  0.19066586483E+04 0.  0.
        2    1    3    3  502    0 -0.25409168351E+03 -0.47536211495E+03  0.16933319224E+03  0.56498270235E+03  0.25500000920E-02 0. -1.
       -2    1    3    3    0  502  0.25409168351E+03  0.47536211495E+03 -0.20254417565E+04  0.20959355984E+04  0.25500000920E-02 0.  1.
</event>
<event>
 5   0  0.8681396E-05  0.1884964E+04  0.7818609E-02  0.8662377E-01
        1   -1    0    0  501    0  0.00000000000E+00  0.00000000000E+00  0.19150560425E+04  0.19150560425E+04  0.50400001928E-02 0. -1.
       -1   -1    0    0    0  501  0.00000000000E+00  0.00000000000E+00 -0.46383615286E+03  0.46383615289E+03  0.50400001928E-02 0.  1.
    10030    2    1    2    0    0  0.00000000000E+00  0.00000000000E+00  0.14512198896E+04  0.23788921954E+04  0.18849639013E+04 0.  0.
        3    1    3    3  502    0  0.40573116592E+03  0.66761132743E+03  0.13909669205E+04  0.15953406055E+04  0.10100000352E+00 0. -1.
       -3    1    3    3    0  502 -0.40573116592E+03 -0.66761132743E+03  0.60252969145E+02  0.78355158988E+03  0.10100000352E+00 0.  1.
</event>
<event>
 5   0  0.1765328E-04  0.1860211E+04  0.7818609E-02  0.8674920E-01
       -2   -1    0    0    0  501  0.00000000000E+00  0.00000000000E+00  0.86432175384E+03  0.86432175385E+03  0.25500000920E-02 0.  1.
        2   -1    0    0  501    0  0.00000000000E+00  0.00000000000E+00 -0.10008957252E+04  0.10008957252E+04  0.25500000920E-02 0. -1.
    10030    2    1    2    0    0  0.00000000000E+00  0.00000000000E+00 -0.13657397132E+03  0.18652174790E+04  0.18602106855E+04 0.  0.
        3    1    3    3  502    0 -0.14168145037E+03  0.36447711661E+03  0.77789123538E+03  0.87065032372E+03  0.10100000352E+00 0.  1.
       -3    1    3    3    0  502  0.14168145037E+03 -0.36447711661E+03 -0.91446520670E+03  0.99456715529E+03  0.10100000352E+00 0. -1.
</event>
<event>
 5   0  0.8681396E-05  0.1889919E+04  0.7818609E-02  0.8659891E-01
       -1   -1    0    0    0  501  0.00000000000E+00  0.00000000000E+00  0.12743027194E+04  0.12743027194E+04  0.50400001928E-02 0. -1.
        1   -1    0    0  501    0  0.00000000000E+00  0.00000000000E+00 -0.70073499475E+03  0.70073499477E+03  0.50400001928E-02 0.  1.
    10030    2    1    2    0    0  0.00000000000E+00  0.00000000000E+00  0.57356772469E+03  0.19750377142E+04  0.18899190559E+04 0.  0.
        3    1    3    3  502    0  0.68638620609E+02  0.13456370384E+03 -0.68803566996E+03  0.70442298654E+03  0.10100000352E+00 0.  1.
       -3    1    3    3    0  502 -0.68638620609E+02 -0.13456370384E+03  0.12616033946E+04  0.12706147277E+04  0.10100000352E+00 0. -1.
</event>
<event>
 5   0  0.1810569E-04  0.1889180E+04  0.7818609E-02  0.8660261E-01
        2   -1    0    0  501    0  0.00000000000E+00  0.00000000000E+00  0.18783440314E+04  0.18783440314E+04  0.25500000920E-02 0. -1.
       -2   -1    0    0    0  501  0.00000000000E+00  0.00000000000E+00 -0.47501959467E+03  0.47501959467E+03  0.25500000920E-02 0.  1.
    10030    2    1    2    0    0  0.00000000000E+00  0.00000000000E+00  0.14033244367E+04  0.23533636261E+04  0.18891799496E+04 0.  0.
        4    1    3    3  502    0 -0.32409017002E+03  0.42823066576E+03 -0.26633478067E+03  0.59945956469E+03  0.12699999809E+01 0.  1.
       -4    1    3    3    0  502  0.32409017002E+03 -0.42823066576E+03  0.16696592174E+04  0.17539040614E+04  0.12699999809E+01 0. -1.
</event>
<event>
 5   0  0.1765328E-04  0.1924944E+04  0.7818609E-02  0.8642539E-01
       -2   -1    0    0    0  501  0.00000000000E+00  0.00000000000E+00  0.65955429547E+03  0.65955429547E+03  0.25500000920E-02 0. -1.
        2   -1    0    0  501    0  0.00000000000E+00  0.00000000000E+00 -0.14045131940E+04  0.14045131940E+04  0.25500000920E-02 0.  1.
    10030    2    1    2    0    0  0.00000000000E+00  0.00000000000E+00 -0.74495889855E+03  0.20640674895E+04  0.19249443734E+04 0.  0.
        3    1    3    3  502    0  0.69560800218E+03 -0.14080513890E+03  0.32462730489E+03  0.78043544072E+03  0.10100000352E+00 0. -1.
       -3    1    3    3    0  502 -0.69560800218E+03  0.14080513890E+03 -0.10695862034E+04  0.12836320488E+04  0.10100000352E+00 0.  1.
</event>
<event>
 5   0  0.1658711E-04  0.1904612E+04  0.7818609E-02  0.8652564E-01
       -2   -1    0    0    0  501  0.00000000000E+00  0.00000000000E+00  0.67819926486E+03  0.67819926487E+03  0.25500000920E-02 0.  1.
        2   -1    0    0  501    0  0.00000000000E+00  0.00000000000E+00 -0.13371981110E+04  0.13371981110E+04  0.25500000920E-02 0. -1.
    10030    2    1    2    0    0  0.00000000000E+00  0.00000000000E+00 -0.65899884616E+03  0.20153973759E+04  0.19046120612E+04 0.  0.
        2    1    3    3  502    0 -0.94957131797E+03  0.46027554851E+02 -0.38824962650E+03  0.10269089522E+04  0.25500000920E-02 0. -1.
       -2    1    3    3    0  502  0.94957131797E+03 -0.46027554851E+02 -0.27074921966E+03  0.98848842364E+03  0.25500000920E-02 0.  1.
</event>
<event>
 5   0  0.8587082E-05  0.1902920E+04  0.7818609E-02  0.8653404E-01
       -1   -1    0    0    0  501  0.00000000000E+00  0.00000000000E+00  0.54941290119E+03  0.54941290121E+03  0.50400001928E-02 0.  1.
        1   -1    0    0  501    0  0.00000000000E+00  0.00000000000E+00 -0.16477147472E+04  0.16477147472E+04  0.50400001928E-02 0. -1.
    10030    2    1    2    0    0  0.00000000000E+00  0.00000000000E+00 -0.10983018460E+04  0.21971276484E+04  0.19029195880E+04 0.  0.
        5    1    3    3  502    0  0.27972633704E+02 -0.51008785698E+02  0.54734406489E+03  0.55044707268E+03  0.46999998093E+01 0.  1.
       -5    1    3    3    0  502 -0.27972633704E+02  0.51008785698E+02 -0.16456459109E+04  0.16466805757E+04  0.46999998093E+01 0. -1.
</event>
<event>
 5   0  0.8905646E-05  0.1886485E+04  0.7818609E-02  0.8661613E-01
        1   -1    0    0  501    0  0.00000000000E+00  0.00000000000E+00  0.86865642994E+03  0.86865642995E+03  0.50400001928E-02 0. -1.
       -1   -1    0    0    0  501  0.00000000000E+00  0.00000000000E+00 -0.10242324910E+04  0.10242324910E+04  0.50400001928E-02 0.  1.
    10030    2    1    2    0    0  0.00000000000E+00  0.00000000000E+00 -0.15557606108E+03  0.18928889210E+04  0.18864847088E+04 0.  0.
        1    1    3    3  502    0  0.23053978308E+03 -0.19540078699E+03 -0.97434026719E+03  0.10201318618E+04  0.50400001928E-02 0.  1.
       -1    1    3    3    0  502 -0.23053978308E+03  0.19540078699E+03  0.81876420611E+03  0.87275705919E+03  0.50400001928E-02 0. -1.
</event>
<event>
 5   0  0.1810569E-04  0.1912023E+04  0.7818609E-02  0.8648895E-01
        2   -1    0    0  501    0  0.00000000000E+00  0.00000000000E+00  0.93706762370E+03  0.93706762370E+03  0.25500000920E-02 0.  1.
       -2   -1    0    0    0  501  0.00000000000E+00  0.00000000000E+00 -0.97533836488E+03  0.97533836488E+03  0.25500000920E-02 0. -1.
    10030    2    1    2    0    0  0.00000000000E+00  0.00000000000E+00 -0.38270741180E+02  0.19124059886E+04  0.19120230165E+04 0.  0.
        4    1    3    3  502    0  0.51727162209E+02  0.38516901165E+03  0.85449566013E+03  0.93872003969E+03  0.12699999809E+01 0.  1.
       -4    1    3    3    0  502 -0.51727162209E+02 -0.38516901165E+03 -0.89276640131E+03  0.97368594888E+03  0.12699999809E+01 0. -1.
</event>
<event>
 5   0  0.1810569E-04  0.1684856E+04  0.7818609E-02  0.8770049E-01
        2   -1    0    0  501    0  0.00000000000E+00  0.00000000000E+00  0.14254140595E+04  0.14254140595E+04  0.25500000920E-02 0.  1.
       -2   -1    0    0    0  501  0.00000000000E+00  0.00000000000E+00 -0.49787973513E+03  0.49787973514E+03  0.25500000920E-02 0. -1.
    10030    2    1    2    0    0  0.00000000000E+00  0.00000000000E+00  0.92753432439E+03  0.19232937947E+04  0.16848558092E+04 0.  0.
        4    1    3    3  502    0  0.20746099510E+02 -0.70612572481E+03  0.98767212374E+03  0.12143071180E+04  0.12699999809E+01 0.  1.
       -4    1    3    3    0  502 -0.20746099510E+02  0.70612572481E+03 -0.60137799353E+02  0.70898667667E+03  0.12699999809E+01 0. -1.
</event>
<event>
 5   0  0.1790832E-04  0.1898630E+04  0.7818609E-02  0.8655538E-01
       -2   -1    0    0    0  501  0.00000000000E+00  0.00000000000E+00  0.39309926795E+03  0.39309926796E+03  0.25500000920E-02 0.  1.
        2   -1    0    0  501    0  0.00000000000E+00  0.00000000000E+00 -0.22925489922E+04  0.22925489922E+04  0.25500000920E-02 0. -1.
    10030    2    1    2    0    0  0.00000000000E+00  0.00000000000E+00 -0.18994497242E+04  0.26856482601E+04  0.18986303806E+04 0.  0.
        5    1    3    3  502    0 -0.25864275982E+03 -0.49470620189E+03  0.13637035272E+03  0.57467318234E+03  0.46999998093E+01 0.  1.
       -5    1    3    3    0  502  0.25864275982E+03  0.49470620189E+03 -0.20358200769E+04  0.21109750778E+04  0.46999998093E+01 0. -1.
</event>
<event>
 5   0  0.1765328E-04  0.1883188E+04  0.7818609E-02  0.8663271E-01
       -2   -1    0    0    0  501  0.00000000000E+00  0.00000000000E+00  0.11731167857E+04  0.11731167857E+04  0.25500000920E-02 0. -1.
        2   -1    0    0  501    0  0.00000000000E+00  0.00000000000E+00 -0.75576349918E+03  0.75576349919E+03  0.25500000920E-02 0.  1.
    10030    2    1    2    0    0  0.00000000000E+00  0.00000000000E+00  0.41735328652E+03  0.19288802849E+04  0.18831875604E+04 0.  0.
        3    1    3    3  502    0 -0.25983617564E+03  0.80019956380E+03  0.64174108606E+03  0.10581426236E+04  0.10100000352E+00 0. -1.
       -3    1    3    3    0  502  0.25983617564E+03 -0.80019956380E+03 -0.22438779954E+03  0.87073766133E+03  0.10100000352E+00 0.  1.
</event>
<event>
 5   0  0.1810569E-04  0.1910248E+04  0.7818609E-02  0.8649772E-01
        2   -1    0    0  501    0  0.00000000000E+00  0.00000000000E+00  0.15548038821E+04  0.15548038821E+04  0.25500000920E-02 0.  1.
       -2   -1    0    0    0  501  0.00000000000E+00  0.00000000000E+00 -0.58673787029E+03  0.58673787029E+03  0.25500000920E-02 0. -1.
    10030    2    1    2    0    0  0.00000000000E+00  0.00000000000E+00  0.96806601178E+03  0.21415417524E+04  0.19102484849E+04 0.  0.
        4    1    3    3  502    0  0.36472546717E+03 -0.50722089372E+03  0.12939798977E+04  0.14369005846E+04  0.12699999809E+01 0.  1.
       -4    1    3    3    0  502 -0.36472546717E+03  0.50722089372E+03 -0.32591388590E+03  0.70464116779E+03  0.12699999809E+01 0. -1.
</event>
<event>
 5   0  0.8587082E-05  0.1876131E+04  0.7818609E-02  0.8666829E-01
       -1   -1    0    0    0  501  0.00000000000E+00  0.00000000000E+00  0.43281653520E+03  0.43281653523E+03  0.50400001928E-02 0.  1.
        1   -1    0    0  501    0  0.00000000000E+00  0.00000000000E+00 -0.20331179326E+04  0.20331179326E+04  0.50400001928E-02 0. -1.
    10030    2    1    2    0    0  0.00000000000E+00  0.00000000000E+00 -0.16003013974E+04  0.24659344678E+04  0.18761311887E+04 0.  0.
        5    1    3    3  502    0 -0.86170697722E+02 -0.78916675014E+03 -0.14569888948E+04  0.16592312311E+04  0.46999998093E+01 0. -1.
       -5    1    3    3    0  502  0.86170697722E+02  0.78916675014E+03 -0.14331250252E+03  0.80670323667E+03  0.46999998093E+01 0.  1.
</event>
<event>
 5   0  0.8602017E-05  0.1898677E+04  0.7818609E-02  0.8655515E-01
        1   -1    0    0  501    0  0.00000000000E+00  0.00000000000E+00  0.38816551452E+03  0.38816551455E+03  0.50400001928E-02 0.  1.
       -1   -1    0    0    0  501  0.00000000000E+00  0.00000000000E+00 -0.23218016772E+04  0.23218016772E+04  0.50400001928E-02 0. -1.
    10030    2    1    2    0    0  0.00000000000E+00  0.00000000000E+00 -0.19336361627E+04  0.27099671917E+04  0.18986767420E+04 0.  0.
        2    1    3    3  502    0 -0.86485127532E+03 -0.95285995340E+02 -0.42482979517E+03  0.96826003956E+03  0.25500000920E-02 0.  1.
       -2    1    3    3    0  502  0.86485127532E+03  0.95285995340E+02 -0.15088063675E+04  0.17417071522E+04  0.25500000920E-02 0. -1.
</event>
<event>
 5   0  0.1810569E-04  0.1891462E+04  0.7818609E-02  0.8659118E-01
        2   -1    0    0  501    0  0.00000000000E+00  0.00000000000E+00  0.21112860783E+04  0.21112860783E+04  0.25500000920E-02 0. -1.
       -2   -1    0    0    0  501  0.00000000000E+00  0.00000000000E+00 -0.42363155479E+03  0.42363155479E+03  0.25500000920E-02 0.  1.
    10030    2    1    2    0    0  0.00000000000E+00  0.00000000000E+00  0.16876545235E+04  0.25349176331E+04  0.18914622957E+04 0.  0.
        4    1    3    3  502    0 -0.11068006977E+02  0.82439371407E+03  0.14647534844E+04  0.16808485594E+04  0.12699999809E+01 0. -1.
       -4    1    3    3    0  502  0.11068006977E+02 -0.82439371407E+03  0.22290103912E+03  0.85406907374E+03  0.12699999809E+01 0.  1.
</event>
<event>
 5   0  0.1765328E-04  0.1896157E+04  0.7818609E-02  0.8656772E-01
       -2   -1    0    0    0  501  0.00000000000E+00  0.00000000000E+00  0.10303639035E+04  0.10303639035E+04  0.25500000920E-02 0.  1.
        2   -1    0    0  501    0  0.00000000000E+00  0.00000000000E+00 -0.87236450980E+03  0.87236450980E+03  0.25500000920E-02 0. -1.
    10030    2    1    2    0    0  0.00000000000E+00  0.00000000000E+00  0.15799939372E+03  0.19027284133E+04  0.18961570627E+04 0.  0.
        3    1    3    3  502    0  0.33165502989E+03  0.87504404402E+03 -0.73697813117E+02  0.93868446013E+03  0.10100000352E+00 0.  1.
       -3    1    3    3    0  502 -0.33165502989E+03 -0.87504404402E+03  0.23169720683E+03  0.96404395319E+03  0.10100000352E+00 0. -1.
</event>
<event>
 5   0  0.6375750E-05  0.1908523E+04  0.7818609E-02  0.8650626E-01
       -3   -1    0    0    0  501  0.00000000000E+00  0.00000000000E+00  0.85318691314E+03  0.85318691912E+03  0.10100000352E+00 0.  1.
        3   -1    0    0  501    0  0.00000000000E+00  0.00000000000E+00 -0.10673097598E+04  0.10673097646E+04  0.10100000352E+00 0. -1.
    10030    2    1    2    0    0  0.00000000000E+00  0.00000000000E+00 -0.21412284663E+03  0.19204966837E+04  0.19085227058E+04 0.  0.
        4    1    3    3  502    0  0.65003906350E+02 -0.94633627511E+03 -0.21180706584E+03  0.97192679738E+03  0.12699999809E+01 0. -1.
       -4    1    3    3    0  502 -0.65003906350E+02  0.94633627511E+03 -0.23157807852E+01  0.94856988629E+03  0.12699999809E+01 0.  1.
</event>
<event>
 5   0  0.1658711E-04  0.1905472E+04  0.7818609E-02  0.8652137E-01
       -2   -1    0    0    0  501  0.00000000000E+00  0.00000000000E+00  0.12621289913E+04  0.12621289913E+04  0.25500000920E-02 0. -1.
        2   -1    0    0  501    0  0.00000000000E+00  0.00000000000E+00 -0.71918621353E+03  0.71918621353E+03  0.25500000920E-02 0.  1.
    10030    2    1    2    0    0  0.00000000000E+00  0.00000000000E+00  0.54294277773E+03  0.19813152048E+04  0.19054718788E+04 0.  0.
        2    1    3    3  502    0 -0.96117135957E+02  0.90055852926E+03  0.57898174195E+03  0.10749251257E+04  0.25500000920E-02 0. -1.
       -2    1    3    3    0  502  0.96117135957E+02 -0.90055852926E+03 -0.36038964224E+02  0.90639007905E+03  0.25500000920E-02 0.  1.
</event>
<event>
 5   0  0.1810569E-04  0.1905280E+04  0.7818609E-02  0.8652233E-01
        2   -1    0    0  501    0  0.00000000000E+00  0.00000000000E+00  0.14667314738E+04  0.14667314738E+04  0.25500000920E-02 0. -1.
       -2   -1    0    0    0  501  0.00000000000E+00  0.00000000000E+00 -0.61873833753E+03  0.61873833754E+03  0.25500000920E-02 0.  1.
    10030    2    1    2    0    0  0.00000000000E+00  0.00000000000E+00  0.84799313628E+03  0.20854698113E+04  0.19052800253E+04 0.  0.
        4    1    3    3  502    0  0.31857954091E+03 -0.59939472508E+03  0.11556063817E+04  0.13402218781E+04  0.12699999809E+01 0. -1.
       -4    1    3    3    0  502 -0.31857954091E+03  0.59939472508E+03 -0.30761324539E+03  0.74524793323E+03  0.12699999809E+01 0.  1.
</event>
<event>
 5   0  0.8905646E-05  0.1946194E+04  0.7818609E-02  0.8632198E-01
        1   -1    0    0  501    0  0.00000000000E+00  0.00000000000E+00  0.77941072177E+03  0.77941072178E+03  0.50400001928E-02 0. -1.
       -1   -1    0    0    0  501  0.00000000000E+00  0.00000000000E+00 -0.12149149656E+04  0.12149149657E+04  0.50400001928E-02 0.  1.
    10030    2    1    2    0    0  0.00000000000E+00  0.00000000000E+00 -0.43550424387E+03  0.19943256874E+04  0.19461939783E+04 0.  0.
        1    1    3    3  502    0  0.16902590298E+03 -0.78054429975E+03  0.35196394962E+03  0.87275299004E+03  0.50400001928E-02 0.  1.
       -1    1    3    3    0  502 -0.16902590298E+03  0.78054429975E+03 -0.78746819350E+03  0.11215726974E+04  0.50400001928E-02 0. -1.
</event>
<event>
 5   0  0.1658711E-04  0.1637057E+04  0.7818609E-02  0.8798101E-01
        2   -1    0    0  501    0  0.00000000000E+00  0.00000000000E+00  0.65492037887E+03  0.65492037888E+03  0.25500000920E-02 0. -1.
       -2   -1    0    0    0  501  0.00000000000E+00  0.00000000000E+00 -0.10230076711E+04  0.10230076711E+04  0.25500000920E-02 0.  1.
    10030    2    1    2    0    0  0.00000000000E+00  0.00000000000E+00 -0.36808729224E+03  0.16779280500E+04  0.16370565923E+04 0.  0.
        2    1    3    3  502    0  0.17440046443E+03 -0.46580031241E+03 -0.85035312256E+03  0.98513242058E+03  0.25500000920E-02 0.  1.
       -2    1    3    3    0  502 -0.17440046443E+03  0.46580031241E+03  0.48226583031E+03  0.69279562941E+03  0.25500000920E-02 0. -1.
</event>
<event>
 5   0  0.8587082E-05  0.1906482E+04  0.7818609E-02  0.8651637E-01
       -1   -1    0    0    0  501  0.00000000000E+00  0.00000000000E+00  0.53655067521E+03  0.53655067523E+03  0.50400001928E-02 0. -1.
        1   -1    0    0  501    0  0.00000000000E+00  0.00000000000E+00 -0.16935364071E+04  0.16935364071E+04  0.50400001928E-02 0.  1.
    10030    2    1    2    0    0  0.00000000000E+00  0.00000000000E+00 -0.11569857319E+04  0.22300870824E+04  0.19064816839E+04 0.  0.
        5    1    3    3  502    0 -0.19405195107E+03 -0.49317811290E+03  0.34831093036E+03  0.63421085213E+03  0.46999998093E+01 0. -1.
       -5    1    3    3    0  502  0.19405195107E+03  0.49317811290E+03 -0.15052966623E+04  0.15958762302E+04  0.46999998093E+01 0.  1.
</event>
<event>
 5   0  0.8681396E-05  0.1903056E+04  0.7818609E-02  0.8653337E-01
       -1   -1    0    0    0  501  0.00000000000E+00  0.00000000000E+00  0.11690745338E+04  0.11690745338E+04  0.50400001928E-02 0.  1.
        1   -1    0    0  501    0  0.00000000000E+00  0.00000000000E+00 -0.77446325546E+03  0.77446325548E+03  0.50400001928E-02 0. -1.
    10030    2    1    2    0    0  0.00000000000E+00  0.00000000000E+00  0.39461127834E+03  0.19435377893E+04  0.19030557210E+04 0.  0.
        3    1    3    3  502    0  0.42144222314E+03 -0.62729955102E+03  0.78778023680E+03  0.10916574489E+04  0.10100000352E+00 0.  1.
       -3    1    3    3    0  502 -0.42144222314E+03  0.62729955102E+03 -0.39316895846E+03  0.85188034034E+03  0.10100000352E+00 0. -1.
</event>
<event>
 5   0  0.1790832E-04  0.1904758E+04  0.7818609E-02  0.8652492E-01
       -2   -1    0    0    0  501  0.00000000000E+00  0.00000000000E+00  0.60380580018E+03  0.60380580019E+03  0.25500000920E-02 0.  1.
        2   -1    0    0  501    0  0.00000000000E+00  0.00000000000E+00 -0.15021816609E+04  0.15021816609E+04  0.25500000920E-02 0. -1.
    10030    2    1    2    0    0  0.00000000000E+00  0.00000000000E+00 -0.89837586071E+03  0.21059874611E+04  0.19047582521E+04 0.  0.
        5    1    3    3  502    0 -0.20939855177E+03 -0.19167836008E+03  0.55592569607E+03  0.62423057979E+03  0.46999998093E+01 0.  1.
       -5    1    3    3    0  502  0.20939855177E+03  0.19167836008E+03 -0.14543015568E+04  0.14817568813E+04  0.46999998093E+01 0. -1.
</event>
<event>
 5   0  0.8587082E-05  0.1921963E+04  0.7818609E-02  0.8644000E-01
        1   -1    0    0  501    0  0.00000000000E+00  0.00000000000E+00  0.11732876089E+04  0.11732876090E+04  0.50400001928E-02 0.  1.
       -1   -1    0    0    0  501  0.00000000000E+00  0.00000000000E+00 -0.78709226930E+03  0.78709226931E+03  0.50400001928E-02 0. -1.
    10030    2    1    2    0    0  0.00000000000E+00  0.00000000000E+00  0.38619533964E+03  0.19603798783E+04  0.19219631700E+04 0.  0.
        5    1    3    3  502    0  0.69127714842E+03  0.33017065372E+03 -0.39865971909E+03  0.86361358149E+03  0.46999998093E+01 0. -1.
       -5    1    3    3    0  502 -0.69127714842E+03 -0.33017065372E+03  0.78485505874E+03  0.10967662968E+04  0.46999998093E+01 0.  1.
</event>
<event>
 5   0  0.1765328E-04  0.1883547E+04  0.7818609E-02  0.8663090E-01
       -2   -1    0    0    0  501  0.00000000000E+00  0.00000000000E+00  0.83765496855E+03  0.83765496855E+03  0.25500000920E-02 0.  1.
        2   -1    0    0  501    0  0.00000000000E+00  0.00000000000E+00 -0.10588334459E+04  0.10588334459E+04  0.25500000920E-02 0. -1.
    10030    2    1    2    0    0  0.00000000000E+00  0.00000000000E+00 -0.22117847735E+03  0.18964884144E+04  0.18835467574E+04 0.  0.
        3    1    3    3  502    0 -0.91815451978E+03 -0.10968559492E+02 -0.32133348747E+03  0.97282231258E+03  0.10100000352E+00 0.  1.
       -3    1    3    3    0  502  0.91815451978E+03  0.10968559492E+02  0.10015501012E+03  0.92366610187E+03  0.10100000352E+00 0. -1.
</event>
<event>
 5   0  0.8905646E-05  0.1889222E+04  0.7818609E-02  0.8660240E-01
        1   -1    0    0  501    0  0.00000000000E+00  0.00000000000E+00  0.10569774176E+04  0.10569774176E+04  0.50400001928E-02 0. -1.
       -1   -1    0    0    0  501  0.00000000000E+00  0.00000000000E+00 -0.84419003210E+03  0.84419003211E+03  0.50400001928E-02 0.  1.
    10030    2    1    2    0    0  0.00000000000E+00  0.00000000000E+00  0.21278738551E+03  0.19011674497E+04  0.18892218505E+04 0.  0.
        1    1    3    3  502    0  0.95246909448E+02 -0.59991465527E+03  0.83437658437E+03  0.10320629108E+04  0.50400001928E-02 0. -1.
       -1    1    3    3    0  502 -0.95246909448E+02  0.59991465527E+03 -0.62158919886E+03  0.86910453890E+03  0.50400001928E-02 0.  1.
</event>
<event>
 5   0  0.8587082E-05  0.1820336E+04  0.7818609E-02  0.8695559E-01
       -1   -1    0    0    0  501  0.00000000000E+00  0.00000000000E+00  0.11435861007E+04  0.11435861007E+04  0.50400001928E-02 0.  1.
        1   -1    0    0  501    0  0.00000000000E+00  0.00000000000E+00 -0.72439263158E+03  0.72439263160E+03  0.50400001928E-02 0. -1.
    10030    2    1    2    0    0  0.00000000000E+00  0.00000000000E+00  0.41919346915E+03  0.18679787323E+04  0.18203355130E+04 0.  0.
        5    1    3    3  502    0  0.41148556853E+03 -0.27128348000E+03  0.99478196985E+03  0.11101929369E+04  0.46999998093E+01 0.  1.
       -5    1    3    3    0  502 -0.41148556853E+03  0.27128348000E+03 -0.57558850070E+03  0.75778579544E+03  0.46999998093E+01 0. -1.
</event>
<event>
 5   0  0.1765328E-04  0.1913928E+04  0.7818609E-02  0.8647954E-01
       -2   -1    0    0    0  501  0.00000000000E+00  0.00000000000E+00  0.65001620086E+03  0.65001620086E+03  0.25500000920E-02 0.  1.
        2   -1    0    0  501    0  0.00000000000E+00  0.00000000000E+00 -0.14088575711E+04  0.14088575711E+04  0.25500000920E-02 0. -1.
    10030    2    1    2    0    0  0.00000000000E+00  0.00000000000E+00 -0.75884137024E+03  0.20588737720E+04  0.19139281553E+04 0.  0.
        3    1    3    3  502    0 -0.73125060780E+03 -0.55917173791E+03 -0.66071946601E+03  0.11331154870E+04  0.10100000352E+00 0. -1.
       -3    1    3    3    0  502  0.73125060780E+03  0.55917173791E+03 -0.98121904227E+02  0.92575828496E+03  0.10100000352E+00 0.  1.
</event>
<event>
 5   0  0.1790832E-04  0.2000869E+04  0.7818609E-02  0.8606215E-01
       -2   -1    0    0    0  501  0.00000000000E+00  0.00000000000E+00  0.50629728192E+03  0.50629728192E+03  0.25500000920E-02 0. -1.
        2   -1    0    0  501    0  0.00000000000E+00  0.00000000000E+00 -0.19768404773E+04  0.19768404773E+04  0.25500000920E-02 0.  1.
    10030    2    1    2    0    0  0.00000000000E+00  0.00000000000E+00 -0.14705431954E+04  0.24831377592E+04  0.20008687718E+04 0.  0.
        5    1    3    3  502    0 -0.59182128702E+03  0.51895493356E+02 -0.17342052201E+04  0.18331490429E+04  0.46999998093E+01 0.  1.
       -5    1    3    3    0  502  0.59182128702E+03 -0.51895493356E+02  0.26366202477E+03  0.64998871629E+03  0.46999998093E+01 0. -1.
</event>
<event>
 5   0  0.1790832E-04  0.1827181E+04  0.7818609E-02  0.8691977E-01
       -2   -1    0    0    0  501  0.00000000000E+00  0.00000000000E+00  0.90915705705E+03  0.90915705705E+03  0.25500000920E-02 0. -1.
        2   -1    0    0  501    0  0.00000000000E+00  0.00000000000E+00 -0.91804580976E+03  0.91804580976E+03  0.25500000920E-02 0.  1.
    10030    2    1    2    0    0  0.00000000000E+00  0.00000000000E+00 -0.88887527067E+01  0.18272028668E+04  0.18271812462E+04 0.  0.
        5    1    3    3  502    0 -0.33172865419E+03  0.75090966150E+03 -0.40534376568E+03  0.91555167965E+03  0.46999998093E+01 0.  1.
       -5    1    3    3    0  502  0.33172865419E+03 -0.75090966150E+03  0.39645501297E+03  0.91165118716E+03  0.46999998093E+01 0. -1.
</event>
<event>
 5   0  0.8567844E-05  0.1869199E+04  0.7818609E-02  0.8670342E-01
       -1   -1    0    0    0  501  0.00000000000E+00  0.00000000000E+00  0.58904201210E+03  0.58904201212E+03  0.50400001928E-02 0. -1.
        1   -1    0    0  501    0  0.00000000000E+00  0.00000000000E+00 -0.14828753896E+04  0.14828753896E+04  0.50400001928E-02 0.  1.
    10030    2    1    2    0    0  0.00000000000E+00  0.00000000000E+00 -0.89383337749E+03  0.20719174017E+04  0.18691986553E+04 0.  0.
        4    1    3    3  502    0  0.33778567697E+03  0.49088690309E+03 -0.12450062717E+04  0.13802577096E+04  0.12699999809E+01 0.  1.
       -4    1    3    3    0  502 -0.33778567697E+03 -0.49088690309E+03  0.35117289426E+03  0.69165969216E+03  0.12699999809E+01 0. -1.
</event>
<event>
 5   0  0.8587082E-05  0.1899173E+04  0.7818609E-02  0.8655268E-01
       -1   -1    0    0    0  501  0.00000000000E+00  0.00000000000E+00  0.65202939224E+03  0.65202939225E+03  0.50400001928E-02 0.  1.
        1   -1    0    0  501    0  0.00000000000E+00  0.00000000000E+00 -0.13829357125E+04  0.13829357125E+04  0.50400001928E-02 0. -1.
    10030    2    1    2    0    0  0.00000000000E+00  0.00000000000E+00 -0.73090632029E+03  0.20349651048E+04  0.18991732224E+04 0.  0.
        5    1    3    3  502    0 -0.17660140036E+03 -0.69957236462E+03  0.29602213019E+03  0.77989790326E+03  0.46999998093E+01 0.  1.
       -5    1    3    3    0  502  0.17660140036E+03  0.69957236462E+03 -0.10269284505E+04  0.12550672015E+04  0.46999998093E+01 0. -1.
</event>
<event>
 5   0  0.8567844E-05  0.1896528E+04  0.7818609E-02  0.8656586E-01
       -1   -1    0    0    0  501  0.00000000000E+00  0.00000000000E+00  0.66288130062E+03  0.66288130064E+03  0.50400001928E-02 0. -1.
        1   -1    0    0  501    0  0.00000000000E+00  0.00000000000E+00 -0.13565098945E+04  0.13565098945E+04  0.50400001928E-02 0.  1.
    10030    2    1    2    0    0  0.00000000000E+00  0.00000000000E+00 -0.69362859384E+03  0.20193911951E+04  0.18965284529E+04 0.  0.
        4    1    3    3  502    0  0.21816881712E+03 -0.59432904337E+03 -0.10985079261E+04  0.12678903427E+04  0.12699999809E+01 0.  1.
       -4    1    3    3    0  502 -0.21816881712E+03  0.59432904337E+03  0.40487933226E+03  0.75150085239E+03  0.12699999809E+01 0. -1.
</event>
<event>
 5   0  0.8681396E-05  0.1917638E+04  0.7818609E-02  0.8646127E-01
       -1   -1    0    0    0  501  0.00000000000E+00  0.00000000000E+00  0.11178578616E+04  0.11178578616E+04  0.50400001928E-02 0. -1.
        1   -1    0    0  501    0  0.00000000000E+00  0.00000000000E+00 -0.82240640852E+03  0.82240640853E+03  0.50400001928E-02 0.  1.
    10030    2    1    2    0    0  0.00000000000E+00  0.00000000000E+00  0.29545145305E+03  0.19402642701E+04  0.19176375770E+04 0.  0.
        3    1    3    3  502    0  0.56022834171E+03 -0.60593105389E+03  0.64167159603E+03  0.10453471597E+04  0.10100000352E+00 0. -1.
       -3    1    3    3    0  502 -0.56022834171E+03  0.60593105389E+03 -0.34622014298E+03  0.89491711042E+03  0.10100000352E+00 0.  1.
</event>
<event>
 5   0  0.8567844E-05  0.1895743E+04  0.7818609E-02  0.8656978E-01
       -1   -1    0    0    0  501  0.00000000000E+00  0.00000000000E+00  0.13086585997E+04  0.13086585997E+04  0.50400001928E-02 0. -1.
        1   -1    0    0  501    0  0.00000000000E+00  0.00000000000E+00 -0.68655079885E+03  0.68655079887E+03  0.50400001928E-02 0.  1.
    10030    2    1    2    0    0  0.00000000000E+00  0.00000000000E+00  0.62210780087E+03  0.19952093986E+04  0.18957432390E+04 0.  0.
        4    1    3    3  502    0  0.89722597075E+03  0.17554712292E+03  0.57443972819E+03  0.10797285998E+04  0.12699999809E+01 0. -1.
       -4    1    3    3    0  502 -0.89722597075E+03 -0.17554712292E+03  0.47668072677E+02  0.91548079882E+03  0.12699999809E+01 0.  1.
</event>
<event>
 5   0  0.1765328E-04  0.1890796E+04  0.7818609E-02  0.8659451E-01
       -2   -1    0    0    0  501  0.00000000000E+00  0.00000000000E+00  0.64658815700E+03  0.64658815701E+03  0.25500000920E-02 0. -1.
        2   -1    0    0  501    0  0.00000000000E+00  0.00000000000E+00 -0.13822982578E+04  0.13822982578E+04  0.25500000920E-02 0.  1.
    10030    2    1    2    0    0  0.00000000000E+00  0.00000000000E+00 -0.73571010080E+03  0.20288864148E+04  0.18907963221E+04 0.  0.
        3    1    3    3  502    0  0.82682498089E+03  0.44635397151E+03 -0.25579499680E+03  0.97380824986E+03  0.10100000352E+00 0.  1.
       -3    1    3    3    0  502 -0.82682498089E+03 -0.44635397151E+03 -0.47991510400E+03  0.10550781650E+04  0.10100000352E+00 0. -1.
</event>
<event>
 5   0  0.1790832E-04  0.1933233E+04  0.7818609E-02  0.8638489E-01
        2   -1    0    0  501    0  0.00000000000E+00  0.00000000000E+00  0.11629247815E+04  0.11629247815E+04  0.25500000920E-02 0.  1.
       -2   -1    0    0    0  501  0.00000000000E+00  0.00000000000E+00 -0.80344654822E+03  0.80344654822E+03  0.25500000920E-02 0. -1.
    10030    2    1    2    0    0  0.00000000000E+00  0.00000000000E+00  0.35947823327E+03  0.19663713297E+04  0.19332334588E+04 0.  0.
        5    1    3    3  502    0 -0.24547094142E+03 -0.97429039942E+02  0.11255039743E+04  0.11560837716E+04  0.46999998093E+01 0.  1.
       -5    1    3    3    0  502  0.24547094142E+03  0.97429039942E+02 -0.76602574101E+03  0.81028755809E+03  0.46999998093E+01 0. -1.
</event>
<event>
 5   0  0.1790832E-04  0.1864144E+04  0.7818609E-02  0.8672913E-01
       -2   -1    0    0    0  501  0.00000000000E+00  0.00000000000E+00  0.38951046313E+03  0.38951046314E+03  0.25500000920E-02 0. -1.
        2   -1    0    0  501    0  0.00000000000E+00  0.00000000000E+00 -0.22303851920E+04  0.22303851920E+04  0.25500000920E-02 0.  1.
    10030    2    1    2    0    0  0.00000000000E+00  0.00000000000E+00 -0.18408747289E+04  0.26198956551E+04  0.18641441673E+04 0.  0.
        5    1    3    3  502    0  0.48586978174E+03  0.55970896675E+02  0.19466343112E+03  0.52642010552E+03  0.46999998093E+01 0. -1.
       -5    1    3    3    0  502 -0.48586978174E+03 -0.55970896675E+02 -0.20355381600E+04  0.20934755496E+04  0.46999998093E+01 0.  1.
</event>
<event>
 5   0  0.8905646E-05  0.1896330E+04  0.7818609E-02  0.8656685E-01
       -1   -1    0    0    0  501  0.00000000000E+00  0.00000000000E+00  0.42399548028E+03  0.42399548031E+03  0.50400001928E-02 0.  1.
        1   -1    0    0  501    0  0.00000000000E+00  0.00000000000E+00 -0.21203453170E+04  0.21203453170E+04  0.50400001928E-02 0. -1.
    10030    2    1    2    0    0  0.00000000000E+00  0.00000000000E+00 -0.16963498367E+04  0.25443407973E+04  0.18963299619E+04 0.  0.
        1    1    3    3  502    0 -0.25423160073E+03  0.74584172553E+03 -0.15557367585E+04  0.17439123969E+04  0.50400001928E-02 0. -1.
       -1    1    3    3    0  502  0.25423160073E+03 -0.74584172553E+03 -0.14061307822E+03  0.80042840039E+03  0.50400001928E-02 0.  1.
</event>
<event>
 5   0  0.1799738E-04  0.1944570E+04  0.7818609E-02  0.8632984E-01
        2   -1    0    0  501    0  0.00000000000E+00  0.00000000000E+00  0.10639485281E+04  0.10639485281E+04  0.25500000920E-02 0.  1.
       -2   -1    0    0    0  501  0.00000000000E+00  0.00000000000E+00 -0.88851848728E+03  0.88851848728E+03  0.25500000920E-02 0. -1.
    10030    2    1    2    0    0  0.00000000000E+00  0.00000000000E+00  0.17543004083E+03  0.19524670154E+04  0.19445698103E+04 0.  0.
        1    1    3    3  502    0  0.34284926011E+03  0.87245201278E+03 -0.17144132783E+03  0.95294819307E+03  0.50400001928E-02 0. -1.
       -1    1    3    3    0  502 -0.34284926011E+03 -0.87245201278E+03  0.34687136866E+03  0.99951882233E+03  0.50400001928E-02 0.  1.
</event>
<event>
 5   0  0.1799738E-04  0.1845928E+04  0.7818609E-02  0.8682250E-01
        2   -1    0    0  501    0  0.00000000000E+00  0.00000000000E+00  0.13316441940E+04  0.13316441940E+04  0.25500000920E-02 0.  1.
       -2   -1    0    0    0  501  0.00000000000E+00  0.00000000000E+00 -0.63970705892E+03  0.63970705892E+03  0.25500000920E-02 0. -1.
    10030    2    1    2    0    0  0.00000000000E+00  0.00000000000E+00  0.69193713504E+03  0.19713512529E+04  0.18459276160E+04 0.  0.
        1    1    3    3  502    0  0.75193980136E+03 -0.91967140585E+02 -0.21710421494E+03  0.78803912339E+03  0.50400001928E-02 0. -1.
       -1    1    3    3    0  502 -0.75193980136E+03  0.91967140585E+02  0.90904134998E+03  0.11833121295E+04  0.50400001928E-02 0.  1.
</event>
<event>
 5   0  0.8681396E-05  0.1784326E+04  0.7818609E-02  0.8714679E-01
        1   -1    0    0  501    0  0.00000000000E+00  0.00000000000E+00  0.11026608717E+04  0.11026608717E+04  0.50400001928E-02 0. -1.
       -1   -1    0    0    0  501  0.00000000000E+00  0.00000000000E+00 -0.72184945932E+03  0.72184945934E+03  0.50400001928E-02 0.  1.
    10030    2    1    2    0    0  0.00000000000E+00  0.00000000000E+00  0.38081141234E+03  0.18245103310E+04  0.17843263760E+04 0.  0.
        3    1    3    3  502    0 -0.33815573470E+03  0.10654492390E+03  0.10275334703E+04  0.10869802963E+04  0.10100000352E+00 0. -1.
       -3    1    3    3    0  502  0.33815573470E+03 -0.10654492390E+03 -0.64672205794E+03  0.73753003475E+03  0.10100000352E+00 0.  1.
</event>
<event>
 5   0  0.1810569E-04  0.1816879E+04  0.7818609E-02  0.8697375E-01
        2   -1    0    0  501    0  0.00000000000E+00  0.00000000000E+00  0.78397117682E+03  0.78397117683E+03  0.25500000920E-02 0.  1.
       -2   -1    0    0    0  501  0.00000000000E+00  0.00000000000E+00 -0.10526687906E+04  0.10526687906E+04  0.25500000920E-02 0. -1.
    10030    2    1    2    0    0  0.00000000000E+00  0.00000000000E+00 -0.26869761374E+03  0.18366399674E+04  0.18168786317E+04 0.  0.
        4    1    3    3  502    0  0.87602809610E+01 -0.30187409720E+03 -0.10004379825E+04  0.10450275034E+04  0.12699999809E+01 0. -1.
       -4    1    3    3    0  502 -0.87602809610E+01  0.30187409720E+03  0.73174036874E+03  0.79161246404E+03  0.12699999809E+01 0.  1.
</event>
<event>
 5   0  0.8602017E-05  0.1768000E+04  0.7818609E-02  0.8723504E-01
        1   -1    0    0  501    0  0.00000000000E+00  0.00000000000E+00  0.74965416878E+03  0.74965416880E+03  0.50400001928E-02 0.  1.
       -1   -1    0    0    0  501  0.00000000000E+00  0.00000000000E+00 -0.10424215755E+04  0.10424215755E+04  0.50400001928E-02 0. -1.
    10030    2    1    2    0    0  0.00000000000E+00  0.00000000000E+00 -0.29276740667E+03  0.17920757443E+04  0.17679996377E+04 0.  0.
        2    1    3    3  502    0 -0.82810620056E+03 -0.28408454709E+03 -0.27049195311E+03  0.91631315935E+03  0.25500000920E-02 0. -1.
       -2    1    3    3    0  502  0.82810620056E+03  0.28408454709E+03 -0.22275453561E+02  0.87576258492E+03  0.25500000920E-02 0.  1.
</event>
<event>
 5   0  0.1658711E-04  0.1878766E+04  0.7818609E-02  0.8665499E-01
       -2   -1    0    0    0  501  0.00000000000E+00  0.00000000000E+00  0.68687631181E+03  0.68687631181E+03  0.25500000920E-02 0. -1.
        2   -1    0    0  501    0  0.00000000000E+00  0.00000000000E+00 -0.12847152698E+04  0.12847152698E+04  0.25500000920E-02 0.  1.
    10030    2    1    2    0    0  0.00000000000E+00  0.00000000000E+00 -0.59783895804E+03  0.19715915817E+04  0.18787660698E+04 0.  0.
        2    1    3    3  502    0 -0.56956278544E+02  0.79929234246E+02  0.68148108572E+03  0.68851228773E+03  0.25500000920E-02 0. -1.
       -2    1    3    3    0  502  0.56956278544E+02 -0.79929234246E+02 -0.12793200438E+04  0.12830792939E+04  0.25500000920E-02 0.  1.
</event>
<event>
 5   0  0.8905646E-05  0.1897983E+04  0.7818609E-02  0.8655861E-01
       -1   -1    0    0    0  501  0.00000000000E+00  0.00000000000E+00  0.89016632926E+03  0.89016632927E+03  0.50400001928E-02 0.  1.
        1   -1    0    0  501    0  0.00000000000E+00  0.00000000000E+00 -0.10117044273E+04  0.10117044273E+04  0.50400001928E-02 0. -1.
    10030    2    1    2    0    0  0.00000000000E+00  0.00000000000E+00 -0.12153809803E+03  0.19018707566E+04  0.18979833681E+04 0.  0.
        1    1    3    3  502    0 -0.45943645809E+03 -0.67667237121E+03  0.42148359793E+03  0.92011726445E+03  0.50400001928E-02 0.  1.
       -1    1    3    3    0  502  0.45943645809E+03  0.67667237121E+03 -0.54302169596E+03  0.98175349212E+03  0.50400001928E-02 0. -1.
</event>
<event>
 5   0  0.1658711E-04  0.1900900E+04  0.7818609E-02  0.8654408E-01
        2   -1    0    0  501    0  0.00000000000E+00  0.00000000000E+00  0.20062201415E+04  0.20062201415E+04  0.25500000920E-02 0. -1.
       -2   -1    0    0    0  501  0.00000000000E+00  0.00000000000E+00 -0.45027733858E+03  0.45027733859E+03  0.25500000920E-02 0.  1.
    10030    2    1    2    0    0  0.00000000000E+00  0.00000000000E+00  0.15559428029E+04  0.24564974801E+04  0.19009002772E+04 0.  0.
        2    1    3    3  502    0 -0.72768215222E+03  0.22128119849E+03  0.15145362337E+04  0.16947880949E+04  0.25500000920E-02 0. -1.
       -2    1    3    3    0  502  0.72768215222E+03 -0.22128119849E+03  0.41406569209E+02  0.76170938516E+03  0.25500000920E-02 0.  1.
</event>
<event>
 5   0  0.1790832E-04  0.1895628E+04  0.7818609E-02  0.8657035E-01
       -2   -1    0    0    0  501  0.00000000000E+00  0.00000000000E+00  0.10906669257E+04  0.10906669257E+04  0.25500000920E-02 0.  1.
        2   -1    0    0  501    0  0.00000000000E+00  0.00000000000E+00 -0.82367195732E+03  0.82367195733E+03  0.25500000920E-02 0. -1.
    10030    2    1    2    0    0  0.00000000000E+00  0.00000000000E+00  0.26699496842E+03  0.19143388831E+04  0.18956284040E+04 0.  0.
        5    1    3    3  502    0  0.66497017265E+02 -0.83759675767E+02 -0.81754740231E+03  0.82452615581E+03  0.46999998093E+01 0. -1.
       -5    1    3    3    0  502 -0.66497017265E+02  0.83759675767E+02  0.10845423707E+04  0.10898127273E+04  0.46999998093E+01 0.  1.
</event>
<event>
 5   0  0.1790832E-04  0.1897171E+04  0.7818609E-02  0.8656266E-01
        2   -1    0    0  501    0  0.00000000000E+00  0.00000000000E+00  0.12008316336E+04  0.12008316336E+04  0.25500000920E-02 0. -1.
       -2   -1    0    0    0  501  0.00000000000E+00  0.00000000000E+00 -0.74932608323E+03  0.74932608324E+03  0.25500000920E-02 0.  1.
    10030    2    1    2    0    0  0.00000000000E+00  0.00000000000E+00  0.45150555039E+03  0.19501577169E+04  0.18971710146E+04 0.  0.
        5    1    3    3  502    0 -0.43761127867E+02 -0.67857208962E+03  0.90559981639E+03  0.11324788009E+04  0.46999998093E+01 0. -1.
       -5    1    3    3    0  502  0.43761127867E+02  0.67857208962E+03 -0.45409426601E+03  0.81767891592E+03  0.46999998093E+01 0.  1.
</event>
<event>
 5   0  0.1790832E-04  0.1904038E+04  0.7818609E-02  0.8652849E-01
        2   -1    0    0  501    0  0.00000000000E+00  0.00000000000E+00  0.15142870854E+04  0.15142870854E+04  0.25500000920E-02 0.  1.
       -2   -1    0    0    0  501  0.00000000000E+00  0.00000000000E+00 -0.59852600417E+03  0.59852600418E+03  0.25500000920E-02 0. -1.
    10030    2    1    2    0    0  0.00000000000E+00  0.00000000000E+00  0.91576108126E+03  0.21128130896E+04  0.19040380232E+04 0.  0.
        5    1    3    3  502    0 -0.67620624915E+03  0.54020050965E+03  0.17856778020E+02  0.86568610739E+03  0.46999998093E+01 0. -1.
       -5    1    3    3    0  502  0.67620624915E+03 -0.54020050965E+03  0.89790430324E+03  0.12471269822E+04  0.46999998093E+01 0.  1.
</event>
<event>
 5   0  0.8905646E-05  0.1919194E+04  0.7818609E-02  0.8645361E-01
        1   -1    0    0  501    0  0.00000000000E+00  0.00000000000E+00  0.87402134949E+03  0.87402134950E+03  0.50400001928E-02 0. -1.
       -1   -1    0    0    0  501  0.00000000000E+00  0.00000000000E+00 -0.10535514041E+04  0.10535514041E+04  0.50400001928E-02 0.  1.
    10030    2    1    2    0    0  0.00000000000E+00  0.00000000000E+00 -0.17953005460E+03  0.19275727536E+04  0.19191940183E+04 0.  0.
        1    1    3    3  502    0 -0.39943990521E+03  0.80251933183E+03 -0.43365860730E+03  0.99581589842E+03  0.50400001928E-02 0.  1.
       -1    1    3    3    0  502  0.39943990521E+03 -0.80251933183E+03  0.25412855270E+03  0.93175685517E+03  0.50400001928E-02 0. -1.
</event>
<event>
 5   0  0.8681396E-05  0.1903036E+04  0.7818609E-02  0.8653346E-01
        1   -1    0    0  501    0  0.00000000000E+00  0.00000000000E+00  0.37824790948E+03  0.37824790952E+03  0.50400001928E-02 0. -1.
       -1   -1    0    0    0  501  0.00000000000E+00  0.00000000000E+00 -0.23936336923E+04  0.23936336923E+04  0.50400001928E-02 0.  1.
    10030    2    1    2    0    0  0.00000000000E+00  0.00000000000E+00 -0.20153857828E+04  0.27718816018E+04  0.19030364581E+04 0.  0.
        3    1    3    3  502    0  0.39559703391E+03 -0.69101435812E+03 -0.24889913856E+03  0.83423536711E+03  0.10100000352E+00 0. -1.
       -3    1    3    3    0  502 -0.39559703391E+03  0.69101435812E+03 -0.17664866443E+04  0.19376462347E+04  0.10100000352E+00 0.  1.
</event>
<event>
 5   0  0.8681396E-05  0.1815171E+04  0.7818609E-02  0.8698273E-01
        1   -1    0    0  501    0  0.00000000000E+00  0.00000000000E+00  0.12923765220E+04  0.12923765220E+04  0.50400001928E-02 0.  1.
       -1   -1    0    0    0  501  0.00000000000E+00  0.00000000000E+00 -0.63736201875E+03  0.63736201877E+03  0.50400001928E-02 0. -1.
    10030    2    1    2    0    0  0.00000000000E+00  0.00000000000E+00  0.65501450320E+03  0.19297385407E+04  0.18151712966E+04 0.  0.
        3    1    3    3  502    0 -0.58188464389E+03  0.69068216882E+03  0.42307014035E+03  0.99730634761E+03  0.10100000352E+00 0.  1.
       -3    1    3    3    0  502  0.58188464389E+03 -0.69068216882E+03  0.23194436285E+03  0.93243219312E+03  0.10100000352E+00 0. -1.
</event>
<event>
 5   0  0.1799738E-04  0.1931598E+04  0.7818609E-02  0.8639286E-01
        2   -1    0    0  501    0  0.00000000000E+00  0.00000000000E+00  0.85673066469E+03  0.85673066470E+03  0.25500000920E-02 0.  1.
       -2   -1    0    0    0  501  0.00000000000E+00  0.00000000000E+00 -0.10887525468E+04  0.10887525469E+04  0.25500000920E-02 0. -1.
    10030    2    1    2    0    0  0.00000000000E+00  0.00000000000E+00 -0.23202188216E+03  0.19454832116E+04  0.19315979842E+04 0.  0.
        1    1    3    3  502    0 -0.87354521148E+03  0.40769943825E+03 -0.17532078577E+03  0.97981500621E+03  0.50400001928E-02 0.  1.
       -1    1    3    3    0  502  0.87354521148E+03 -0.40769943825E+03 -0.56701096386E+02  0.96566820534E+03  0.50400001928E-02 0. -1.
</event>
<event>
 5   0  0.8587082E-05  0.1918412E+04  0.7818609E-02  0.8645745E-01
        1   -1    0    0  501    0  0.00000000000E+00  0.00000000000E+00  0.20720863459E+04  0.20720863459E+04  0.50400001928E-02 0. -1.
       -1   -1    0    0    0  501  0.00000000000E+00  0.00000000000E+00 -0.44403388455E+03  0.44403388457E+03  0.50400001928E-02 0.  1.
    10030    2    1    2    0    0  0.00000000000E+00  0.00000000000E+00  0.16280524613E+04  0.25161202305E+04  0.19184124158E+04 0.  0.
        5    1    3    3  502    0  0.88801527795E+03 -0.10435152667E+03  0.35856395127E+03  0.96335381462E+03  0.46999998093E+01 0.  1.
       -5    1    3    3    0  502 -0.88801527795E+03  0.10435152667E+03  0.12694885101E+04  0.15527664158E+04  0.46999998093E+01 0. -1.
</event>
<event>
 5   0  0.1799738E-04  0.1865393E+04  0.7818609E-02  0.8672277E-01
        2   -1    0    0  501    0  0.00000000000E+00  0.00000000000E+00  0.16296527802E+04  0.16296527802E+04  0.25500000920E-02 0. -1.
       -2   -1    0    0    0  501  0.00000000000E+00  0.00000000000E+00 -0.53380847602E+03  0.53380847603E+03  0.25500000920E-02 0.  1.
    10030    2    1    2    0    0  0.00000000000E+00  0.00000000000E+00  0.10958443042E+04  0.21634612563E+04  0.18653926847E+04 0.  0.
        1    1    3    3  502    0 -0.20434403685E+03  0.47650119915E+03  0.14471231175E+04  0.15371971882E+04  0.50400001928E-02 0.  1.
       -1    1    3    3    0  502  0.20434403685E+03 -0.47650119915E+03 -0.35127881333E+03  0.62626406803E+03  0.50400001928E-02 0. -1.
</event>
<event>
 5   0  0.1765328E-04  0.1897991E+04  0.7818609E-02  0.8655857E-01
       -2   -1    0    0    0  501  0.00000000000E+00  0.00000000000E+00  0.13856172994E+04  0.13856172994E+04  0.25500000920E-02 0.  1.
        2   -1    0    0  501    0  0.00000000000E+00  0.00000000000E+00 -0.64995742833E+03  0.64995742834E+03  0.25500000920E-02 0. -1.
    10030    2    1    2    0    0  0.00000000000E+00  0.00000000000E+00  0.73565987109E+03  0.20355747278E+04  0.18979907867E+04 0.  0.
        3    1    3    3  502    0 -0.55245671981E+03  0.38521150787E+03 -0.34921228231E+03  0.75864719164E+03  0.10100000352E+00 0. -1.
       -3    1    3    3    0  502  0.55245671981E+03 -0.38521150787E+03  0.10848721534E+04  0.12769275361E+04  0.10100000352E+00 0.  1.
</event>
<event>
 5   0  0.1658711E-04  0.1902396E+04  0.7818609E-02  0.8653665E-01
       -2   -1    0    0    0  501  0.00000000000E+00  0.00000000000E+00  0.50269920383E+03  0.50269920383E+03  0.25500000920E-02 0.  1.
        2   -1    0    0  501    0  0.00000000000E+00  0.00000000000E+00 -0.17998385844E+04  0.17998385844E+04  0.25500000920E-02 0. -1.
    10030    2    1    2    0    0  0.00000000000E+00  0.00000000000E+00 -0.12971393806E+04  0.23025377883E+04  0.19023957774E+04 0.  0.
        2    1    3    3  502    0 -0.57405304629E+03 -0.26177110695E+03 -0.15101353452E+04  0.16366336711E+04  0.25500000920E-02 0. -1.
       -2    1    3    3    0  502  0.57405304629E+03  0.26177110695E+03  0.21299596459E+03  0.66590411722E+03  0.25500000920E-02 0.  1.
</event>
<event>
 5   0  0.8602017E-05  0.1895571E+04  0.7818609E-02  0.8657064E-01
       -1   -1    0    0    0  501  0.00000000000E+00  0.00000000000E+00  0.10749097936E+04  0.10749097937E+04  0.50400001928E-02 0.  1.
        1   -1    0    0  501    0  0.00000000000E+00  0.00000000000E+00 -0.83569530796E+03  0.83569530797E+03  0.50400001928E-02 0. -1.
    10030    2    1    2    0    0  0.00000000000E+00  0.00000000000E+00  0.23921448569E+03  0.19106051016E+04  0.18955707015E+04 0.  0.
        2    1    3    3  502    0  0.56598821130E+02  0.60788560487E+03 -0.61110386106E+03  0.86381494788E+03  0.25500000920E-02 0. -1.
       -2    1    3    3    0  502 -0.56598821130E+02 -0.60788560487E+03  0.85031834675E+03  0.10467901537E+04  0.25500000920E-02 0.  1.
</event>
<event>
 5   0  0.1790832E-04  0.1907406E+04  0.7818609E-02  0.8651179E-01
        2   -1    0    0  501    0  0.00000000000E+00  0.00000000000E+00  0.16921872101E+04  0.16921872101E+04  0.25500000920E-02 0.  1.
       -2   -1    0    0    0  501  0.00000000000E+00  0.00000000000E+00 -0.53749928291E+03  0.53749928292E+03  0.25500000920E-02 0. -1.
    10030    2    1    2    0    0  0.00000000000E+00  0.00000000000E+00  0.11546879272E+04  0.22296864930E+04  0.19074059998E+04 0.  0.
        5    1    3    3  502    0 -0.44226251788E+03  0.84440764060E+03  0.61254748047E+03  0.11330740947E+04  0.46999998093E+01 0. -1.
       -5    1    3    3    0  502  0.44226251788E+03 -0.84440764060E+03  0.54214044673E+03  0.10966123983E+04  0.46999998093E+01 0.  1.
</event>
<event>
 5   0  0.6375750E-05  0.1942036E+04  0.7818609E-02  0.8634211E-01
        3   -1    0    0  501    0  0.00000000000E+00  0.00000000000E+00  0.99957310902E+03  0.99957311412E+03  0.10100000352E+00 0. -1.
       -3   -1    0    0    0  501  0.00000000000E+00  0.00000000000E+00 -0.94327881322E+03  0.94327881863E+03  0.10100000352E+00 0.  1.
    10030    2    1    2    0    0  0.00000000000E+00  0.00000000000E+00  0.56294295798E+02  0.19428519328E+04  0.19420361956E+04 0.  0.
        1    1    3    3  502    0 -0.42010661609E+03 -0.17238205677E+03 -0.83050877832E+03  0.94654633974E+03  0.50400001928E-02 0.  1.
       -1    1    3    3    0  502  0.42010661609E+03  0.17238205677E+03  0.88680307412E+03  0.99630559302E+03  0.50400001928E-02 0. -1.
</event>
<event>
 5   0  0.1790832E-04  0.1852631E+04  0.7818609E-02  0.8678801E-01
       -2   -1    0    0    0  501  0.00000000000E+00  0.00000000000E+00  0.14623645919E+04  0.14623645919E+04  0.25500000920E-02 0. -1.
        2   -1    0    0  501    0  0.00000000000E+00  0.00000000000E+00 -0.58676208492E+03  0.58676208493E+03  0.25500000920E-02 0.  1.
    10030    2    1    2    0    0  0.00000000000E+00  0.00000000000E+00  0.87560250695E+03  0.20491266768E+04  0.18526306668E+04 0.  0.
        5    1    3    3  502    0 -0.74944679981E+03 -0.33389559013E+03 -0.37781806119E+02  0.82134421878E+03  0.46999998093E+01 0.  1.
       -5    1    3    3    0  502  0.74944679981E+03  0.33389559013E+03  0.91338431307E+03  0.12277824580E+04  0.46999998093E+01 0. -1.
</event>
<event>
 5   0  0.1799738E-04  0.1900717E+04  0.7818609E-02  0.8654499E-01
       -2   -1    0    0    0  501  0.00000000000E+00  0.00000000000E+00  0.37992033678E+03  0.37992033679E+03  0.25500000920E-02 0.  1.
        2   -1    0    0  501    0  0.00000000000E+00  0.00000000000E+00 -0.23772924532E+04  0.23772924532E+04  0.25500000920E-02 0. -1.
    10030    2    1    2    0    0  0.00000000000E+00  0.00000000000E+00 -0.19973721164E+04  0.27572127900E+04  0.19007174955E+04 0.  0.
        1    1    3    3  502    0 -0.63065173638E+03  0.25215542676E+03 -0.19629674647E+04  0.20771483431E+04  0.50400001928E-02 0. -1.
       -1    1    3    3    0  502  0.63065173638E+03 -0.25215542676E+03 -0.34404651750E+02  0.68006444689E+03  0.50400001928E-02 0.  1.
</event>
<event>
 5   0  0.1810569E-04  0.1920187E+04  0.7818609E-02  0.8644873E-01
        2   -1    0    0  501    0  0.00000000000E+00  0.00000000000E+00  0.13753385058E+04  0.13753385058E+04  0.25500000920E-02 0.  1.
       -2   -1    0    0    0  501  0.00000000000E+00  0.00000000000E+00 -0.67021992244E+03  0.67021992245E+03  0.25500000920E-02 0. -1.
    10030    2    1    2    0    0  0.00000000000E+00  0.00000000000E+00  0.70511858340E+03  0.20455584283E+04  0.19201867271E+04 0.  0.
        4    1    3    3  502    0 -0.64983355922E+03  0.82859457417E+02 -0.39514196108E+03  0.76504125815E+03  0.12699999809E+01 0. -1.
       -4    1    3    3    0  502  0.64983355922E+03 -0.82859457417E+02  0.11002605445E+04  0.12805171701E+04  0.12699999809E+01 0.  1.
</event>
<event>
 5   0  0.8602017E-05  0.1912203E+04  0.7818609E-02  0.8648806E-01
       -1   -1    0    0    0  501  0.00000000000E+00  0.00000000000E+00  0.74741752187E+03  0.74741752189E+03  0.50400001928E-02 0.  1.
        1   -1    0    0  501    0  0.00000000000E+00  0.00000000000E+00 -0.12230508471E+04  0.12230508472E+04  0.50400001928E-02 0. -1.
    10030    2    1    2    0    0  0.00000000000E+00  0.00000000000E+00 -0.47563332527E+03  0.19704683690E+04  0.19122025346E+04 0.  0.
        2    1    3    3  502    0  0.94738992868E+03 -0.17655884072E+01 -0.10513447117E+03  0.95320724467E+03  0.25500000920E-02 0.  1.
       -2    1    3    3    0  502 -0.94738992868E+03  0.17655884072E+01 -0.37049885411E+03  0.10172611244E+04  0.25500000920E-02 0. -1.
</event>
<event>
 5   0  0.8602017E-05  0.1902468E+04  0.7818609E-02  0.8653629E-01
       -1   -1    0    0    0  501  0.00000000000E+00  0.00000000000E+00  0.13499926115E+04  0.13499926115E+04  0.50400001928E-02 0.  1.
        1   -1    0    0  501    0  0.00000000000E+00  0.00000000000E+00 -0.67026006678E+03  0.67026006680E+03  0.50400001928E-02 0. -1.
    10030    2    1    2    0    0  0.00000000000E+00  0.00000000000E+00  0.67973254468E+03  0.20202526783E+04  0.19024680160E+04 0.  0.
        2    1    3    3  502    0  0.11267302939E+03 -0.14705275978E+03 -0.65091845438E+03  0.67676772970E+03  0.25500000920E-02 0. -1.
       -2    1    3    3    0  502 -0.11267302939E+03  0.14705275978E+03  0.13306509991E+04  0.13434849486E+04  0.25500000920E-02 0.  1.
</event>
<event>
 5   0  0.1790832E-04  0.1916212E+04  0.7818609E-02  0.8646828E-01
        2   -1    0    0  501    0  0.00000000000E+00  0.00000000000E+00  0.27188650898E+04  0.27188650898E+04  0.25500000920E-02 0. -1.
       -2   -1    0    0    0  501  0.00000000000E+00  0.00000000000E+00 -0.33762883711E+03  0.33762883712E+03  0.25500000920E-02 0.  1.
    10030    2    1    2    0    0  0.00000000000E+00  0.00000000000E+00  0.23812362527E+04  0.30564939270E+04  0.19162121579E+04 0.  0.
        5    1    3    3  502    0 -0.33548957211E+02 -0.63641615653E+03  0.23317283289E+04  0.24172567399E+04  0.46999998093E+01 0. -1.
       -5    1    3    3    0  502  0.33548957211E+02  0.63641615653E+03  0.49507923854E+02  0.63923718708E+03  0.46999998093E+01 0.  1.
</event>
<event>
 5   0  0.1765328E-04  0.1900689E+04  0.7818609E-02  0.8654514E-01
        2   -1    0    0  501    0  0.00000000000E+00  0.00000000000E+00  0.10197520912E+04  0.10197520912E+04  0.25500000920E-02 0. -1.
       -2   -1    0    0    0  501  0.00000000000E+00  0.00000000000E+00 -0.88566094706E+03  0.88566094706E+03  0.25500000920E-02 0.  1.
    10030    2    1    2    0    0  0.00000000000E+00  0.00000000000E+00  0.13409114413E+03  0.19054130383E+04  0.19006889307E+04 0.  0.
        3    1    3    3  502    0  0.57797495823E+03 -0.74255409089E+03 -0.66375273235E+02  0.94331718808E+03  0.10100000352E+00 0. -1.
       -3    1    3    3    0  502 -0.57797495823E+03  0.74255409089E+03  0.20046641737E+03  0.96209585018E+03  0.10100000352E+00 0.  1.
</event>
<event>
 5   0  0.8602017E-05  0.1917243E+04  0.7818609E-02  0.8646321E-01
       -1   -1    0    0    0  501  0.00000000000E+00  0.00000000000E+00  0.12682576951E+04  0.12682576951E+04  0.50400001928E-02 0. -1.
        1   -1    0    0  501    0  0.00000000000E+00  0.00000000000E+00 -0.72458112385E+03  0.72458112387E+03  0.50400001928E-02 0.  1.
    10030    2    1    2    0    0  0.00000000000E+00  0.00000000000E+00  0.54367657125E+03  0.19928388190E+04  0.19172434233E+04 0.  0.
        2    1    3    3  502    0 -0.65317368351E+03  0.65180226043E+03  0.18395931646E+01  0.92275968249E+03  0.25500000920E-02 0.  1.
       -2    1    3    3    0  502  0.65317368351E+03 -0.65180226043E+03  0.54183697809E+03  0.10700791365E+04  0.25500000920E-02 0. -1.
</event>
<event>
 5   0  0.1658711E-04  0.1975222E+04  0.7818609E-02  0.8618294E-01
        2   -1    0    0  501    0  0.00000000000E+00  0.00000000000E+00  0.88944094018E+03  0.88944094018E+03  0.25500000920E-02 0. -1.
       -2   -1    0    0    0  501  0.00000000000E+00  0.00000000000E+00 -0.10966165319E+04  0.10966165319E+04  0.25500000920E-02 0.  1.
    10030    2    1    2    0    0  0.00000000000E+00  0.00000000000E+00 -0.20717559169E+03  0.19860574720E+04  0.19752221537E+04 0.  0.
        2    1    3    3  502    0 -0.62907374152E+03  0.75568497547E+03 -0.10440068824E+02  0.98331203058E+03  0.25500000920E-02 0.  1.
       -2    1    3    3    0  502  0.62907374152E+03 -0.75568497547E+03 -0.19673552286E+03  0.10027454415E+04  0.25500000920E-02 0. -1.
</event>
<event>
 5   0  0.8567844E-05  0.1902573E+04  0.7818609E-02  0.8653577E-01
       -1   -1    0    0    0  501  0.00000000000E+00  0.00000000000E+00  0.14093342703E+04  0.14093342703E+04  0.50400001928E-02 0.  1.
        1   -1    0    0  501    0  0.00000000000E+00  0.00000000000E+00 -0.64210878804E+03  0.64210878806E+03  0.50400001928E-02 0. -1.
    10030    2    1    2    0    0  0.00000000000E+00  0.00000000000E+00  0.76722548223E+03  0.20514430584E+04  0.19025729108E+04 0.  0.
        4    1    3    3  502    0  0.40160463550E+03 -0.76871184115E+03  0.80501293879E+03  0.11833222818E+04  0.12699999809E+01 0.  1.
       -4    1    3    3    0  502 -0.40160463550E+03  0.76871184115E+03 -0.37787456561E+02  0.86812077659E+03  0.12699999809E+01 0. -1.
</event>
<event>
 5   0  0.8681396E-05  0.1926647E+04  0.7818609E-02  0.8641705E-01
        1   -1    0    0  501    0  0.00000000000E+00  0.00000000000E+00  0.70548531521E+03  0.70548531523E+03  0.50400001928E-02 0.  1.
       -1   -1    0    0    0  501  0.00000000000E+00  0.00000000000E+00 -0.13153952539E+04  0.13153952539E+04  0.50400001928E-02 0. -1.
    10030    2    1    2    0    0  0.00000000000E+00  0.00000000000E+00 -0.60990993866E+03  0.20208805691E+04  0.19266468647E+04 0.  0.
        3    1    3    3  502    0 -0.48171808278E+03  0.68910157302E+03  0.18823247809E+03  0.86159431592E+03  0.10100000352E+00 0.  1.
       -3    1    3    3    0  502  0.48171808278E+03 -0.68910157302E+03 -0.79814241675E+03  0.11592862532E+04  0.10100000352E+00 0. -1.
</event>
<event>
 5   0  0.1799738E-04  0.1885408E+04  0.7818609E-02  0.8662154E-01
       -2   -1    0    0    0  501  0.00000000000E+00  0.00000000000E+00  0.59987953720E+03  0.59987953721E+03  0.25500000920E-02 0.  1.
        2   -1    0    0  501    0  0.00000000000E+00  0.00000000000E+00 -0.14814490288E+04  0.14814490288E+04  0.25500000920E-02 0. -1.
    10030    2    1    2    0    0  0.00000000000E+00  0.00000000000E+00 -0.88156949155E+03  0.20813285660E+04  0.18854081338E+04 0.  0.
        1    1    3    3  502    0  0.56665542944E+03 -0.28612257289E+03 -0.12101474821E+04  0.13665362896E+04  0.50400001928E-02 0. -1.
       -1    1    3    3    0  502 -0.56665542944E+03  0.28612257289E+03  0.32857799054E+03  0.71479227634E+03  0.50400001928E-02 0.  1.
</event>
<event>
 5   0  0.8602017E-05  0.1882830E+04  0.7818609E-02  0.8663450E-01
       -1   -1    0    0    0  501  0.00000000000E+00  0.00000000000E+00  0.11270045903E+04  0.11270045903E+04  0.50400001928E-02 0. -1.
        1   -1    0    0  501    0  0.00000000000E+00  0.00000000000E+00 -0.78638746047E+03  0.78638746049E+03  0.50400001928E-02 0.  1.
    10030    2    1    2    0    0  0.00000000000E+00  0.00000000000E+00  0.34061712978E+03  0.19133920508E+04  0.18828300802E+04 0.  0.
        2    1    3    3  502    0  0.73196189698E+03  0.14824249484E+03  0.75277723312E+03  0.10603855990E+04  0.25500000920E-02 0. -1.
       -2    1    3    3    0  502 -0.73196189698E+03 -0.14824249484E+03 -0.41216010333E+03  0.85300645173E+03  0.25500000920E-02 0.  1.
</event>
<event>
 5   0  0.1799738E-04  0.1887897E+04  0.7818609E-02  0.8660905E-01
        2   -1    0    0  501    0  0.00000000000E+00  0.00000000000E+00  0.12729309559E+04  0.12729309559E+04  0.25500000920E-02 0.  1.
       -2   -1    0    0    0  501  0.00000000000E+00  0.00000000000E+00 -0.69998954167E+03  0.69998954167E+03  0.25500000920E-02 0. -1.
    10030    2    1    2    0    0  0.00000000000E+00  0.00000000000E+00  0.57294141427E+03  0.19729204976E+04  0.18878965612E+04 0.  0.
        1    1    3    3  502    0 -0.74638789991E+03  0.49401215082E+03  0.59979946343E+03  0.10774517616E+04  0.50400001928E-02 0.  1.
       -1    1    3    3    0  502  0.74638789991E+03 -0.49401215082E+03 -0.26858049168E+02  0.89546873598E+03  0.50400001928E-02 0. -1.
</event>
<event>
 5   0  0.1765328E-04  0.1896317E+04  0.7818609E-02  0.8656692E-01
       -2   -1    0    0    0  501  0.00000000000E+00  0.00000000000E+00  0.85832235734E+03  0.85832235734E+03  0.25500000920E-02 0.  1.
        2   -1    0    0  501    0  0.00000000000E+00  0.00000000000E+00 -0.10473976896E+04  0.10473976897E+04  0.25500000920E-02 0. -1.
    10030    2    1    2    0    0  0.00000000000E+00  0.00000000000E+00 -0.18907533231E+03  0.19057200470E+04  0.18963173300E+04 0.  0.
        3    1    3    3  502    0 -0.27993601224E+03 -0.84397032297E+03  0.23626736003E+03  0.92003932123E+03  0.10100000352E+00 0.  1.
       -3    1    3    3    0  502  0.27993601224E+03  0.84397032297E+03 -0.42534269234E+03  0.98568072576E+03  0.10100000352E+00 0. -1.
</event>
<event>
 5   0  0.8905646E-05  0.1900218E+04  0.7818609E-02  0.8654748E-01
       -1   -1    0    0    0  501  0.00000000000E+00  0.00000000000E+00  0.44033958740E+03  0.44033958743E+03  0.50400001928E-02 0.  1.
        1   -1    0    0  501    0  0.00000000000E+00  0.00000000000E+00 -0.20500248641E+04  0.20500248641E+04  0.50400001928E-02 0. -1.
    10030    2    1    2    0    0  0.00000000000E+00  0.00000000000E+00 -0.16096852767E+04  0.24903644515E+04  0.19002179905E+04 0.  0.
        1    1    3    3  502    0  0.48468165887E+03 -0.77611437197E+03 -0.46959009405E+03  0.10284865995E+04  0.50400001928E-02 0.  1.
       -1    1    3    3    0  502 -0.48468165887E+03  0.77611437197E+03 -0.11400951827E+04  0.14618778521E+04  0.50400001928E-02 0. -1.
</event>
<event>
 5   0  0.8905646E-05  0.1908580E+04  0.7818609E-02  0.8650597E-01
       -1   -1    0    0    0  501  0.00000000000E+00  0.00000000000E+00  0.63324856475E+03  0.63324856477E+03  0.50400001928E-02 0.  1.
        1   -1    0    0  501    0  0.00000000000E+00  0.00000000000E+00 -0.14380913219E+04  0.14380913219E+04  0.50400001928E-02 0. -1.
    10030    2    1    2    0    0  0.00000000000E+00  0.00000000000E+00 -0.80484275714E+03  0.20713398867E+04  0.19085798549E+04 0.  0.
        1    1    3    3  502    0  0.65014789818E+03 -0.68132913240E+03 -0.23510687053E+03  0.97065798135E+03  0.50400001928E-02 0. -1.
       -1    1    3    3    0  502 -0.65014789818E+03  0.68132913240E+03 -0.56973588661E+03  0.11006819053E+04  0.50400001928E-02 0.  1.
</event>
<event>
 5   0  0.1799738E-04  0.1902914E+04  0.7818609E-02  0.8653407E-01
        2   -1    0    0  501    0  0.00000000000E+00  0.00000000000E+00  0.57440268417E+03  0.57440268417E+03  0.25500000920E-02 0.  1.
       -2   -1    0    0    0  501  0.00000000000E+00  0.00000000000E+00 -0.15760210069E+04  0.15760210069E+04  0.25500000920E-02 0. -1.
    10030    2    1    2    0    0  0.00000000000E+00  0.00000000000E+00 -0.10016183227E+04  0.21504236910E+04  0.19029142878E+04 0.  0.
        1    1    3    3  502    0  0.20952005315E+03 -0.29649542782E+02 -0.15490919779E+04  0.15634780792E+04  0.50400001928E-02 0. -1.
       -1    1    3    3    0  502 -0.20952005315E+03  0.29649542782E+02  0.54747365523E+03  0.58694561184E+03  0.50400001928E-02 0.  1.
</event>
<event>
 5   0  0.8602017E-05  0.1879137E+04  0.7818609E-02  0.8665311E-01
        1   -1    0    0  501    0  0.00000000000E+00  0.00000000000E+00  0.14805066428E+04  0.14805066428E+04  0.50400001928E-02 0. -1.
       -1   -1    0    0    0  501  0.00000000000E+00  0.00000000000E+00 -0.59627515282E+03  0.59627515284E+03  0.50400001928E-02 0.  1.
    10030    2    1    2    0    0  0.00000000000E+00  0.00000000000E+00  0.88423148995E+03  0.20767817956E+04  0.18791373816E+04 0.  0.
        2    1    3    3  502    0 -0.20773484959E+03 -0.69885677236E+03 -0.21286885097E+03  0.75951807334E+03  0.25500000920E-02 0.  1.
       -2    1    3    3    0  502  0.20773484959E+03  0.69885677236E+03  0.10971003409E+04  0.13172637223E+04  0.25500000920E-02 0. -1.
</event>
<event>
 5   0  0.8905646E-05  0.1903057E+04  0.7818609E-02  0.8653336E-01
       -1   -1    0    0    0  501  0.00000000000E+00  0.00000000000E+00  0.68034374208E+03  0.68034374210E+03  0.50400001928E-02 0.  1.
        1   -1    0    0  501    0  0.00000000000E+00  0.00000000000E+00 -0.13308076053E+04  0.13308076053E+04  0.50400001928E-02 0. -1.
    10030    2    1    2    0    0  0.00000000000E+00  0.00000000000E+00 -0.65046386318E+03  0.20111513474E+04  0.19030571470E+04 0.  0.
        1    1    3    3  502    0 -0.90491322778E+03  0.28023148161E+03 -0.23065572671E+03  0.97498702422E+03  0.50400001928E-02 0.  1.
       -1    1    3    3    0  502  0.90491322778E+03 -0.28023148161E+03 -0.41980813646E+03  0.10361643231E+04  0.50400001928E-02 0. -1.
</event>
<event>
 5   0  0.1765328E-04  0.1925860E+04  0.7818609E-02  0.8642090E-01
        2   -1    0    0  501    0  0.00000000000E+00  0.00000000000E+00  0.11920470266E+04  0.11920470266E+04  0.25500000920E-02 0.  1.
       -2   -1    0    0    0  501  0.00000000000E+00  0.00000000000E+00 -0.77785058036E+03  0.77785058036E+03  0.25500000920E-02 0. -1.
    10030    2    1    2    0    0  0.00000000000E+00  0.00000000000E+00  0.41419644621E+03  0.19698976069E+04  0.19258602976E+04 0.  0.
        3    1    3    3  502    0  0.33402648126E+02 -0.74355493800E+03  0.83200573167E+03  0.11163436883E+04  0.10100000352E+00 0.  1.
       -3    1    3    3    0  502 -0.33402648126E+02  0.74355493800E+03 -0.41780928547E+03  0.85355391860E+03  0.10100000352E+00 0. -1.
</event>
<event>
 5   0  0.8567844E-05  0.1872859E+04  0.7818609E-02  0.8668485E-01
        1   -1    0    0  501    0  0.00000000000E+00  0.00000000000E+00  0.25946576901E+04  0.25946576901E+04  0.50400001928E-02 0.  1.
       -1   -1    0    0    0  501  0.00000000000E+00  0.00000000000E+00 -0.33796371451E+03  0.33796371455E+03  0.50400001928E-02 0. -1.
    10030    2    1    2    0    0  0.00000000000E+00  0.00000000000E+00  0.22566939756E+04  0.29326214047E+04  0.18728589385E+04 0.  0.
        4    1    3    3  502    0 -0.58546663219E+03  0.71896387078E+03  0.13338159524E+04  0.16244219995E+04  0.12699999809E+01 0.  1.
       -4    1    3    3    0  502  0.58546663219E+03 -0.71896387078E+03  0.92287802325E+03  0.13081994051E+04  0.12699999809E+01 0. -1.
</event>
<event>
 5   0  0.8905646E-05  0.1902294E+04  0.7818609E-02  0.8653716E-01
       -1   -1    0    0    0  501  0.00000000000E+00  0.00000000000E+00  0.42473071269E+03  0.42473071272E+03  0.50400001928E-02 0. -1.
        1   -1    0    0  501    0  0.00000000000E+00  0.00000000000E+00 -0.21300089659E+04  0.21300089659E+04  0.50400001928E-02 0.  1.
    10030    2    1    2    0    0  0.00000000000E+00  0.00000000000E+00 -0.17052782532E+04  0.25547396786E+04  0.19022935906E+04 0.  0.
        1    1    3    3  502    0 -0.57903917062E+03  0.67819834222E+03 -0.12969212964E+04  0.15739263648E+04  0.50400001928E-02 0.  1.
       -1    1    3    3    0  502  0.57903917062E+03 -0.67819834222E+03 -0.40835695677E+03  0.98081331388E+03  0.50400001928E-02 0. -1.
</event>
<event>
 5   0  0.8567844E-05  0.1927855E+04  0.7818609E-02  0.8641114E-01
        1   -1    0    0  501    0  0.00000000000E+00  0.00000000000E+00  0.11363100033E+04  0.11363100033E+04  0.50400001928E-02 0.  1.
       -1   -1    0    0    0  501  0.00000000000E+00  0.00000000000E+00 -0.81769617539E+03  0.81769617541E+03  0.50400001928E-02 0. -1.
    10030    2    1    2    0    0  0.00000000000E+00  0.00000000000E+00  0.31861382786E+03  0.19540061787E+04  0.19278551229E+04 0.  0.
        4    1    3    3  502    0  0.24234915882E+03 -0.65911857540E+03 -0.50994091930E+03  0.86787773638E+03  0.12699999809E+01 0. -1.
       -4    1    3    3    0  502 -0.24234915882E+03  0.65911857540E+03  0.82855474716E+03  0.10861284423E+04  0.12699999809E+01 0.  1.
</event>
<event>
 5   0  0.1658711E-04  0.1935260E+04  0.7818609E-02  0.8637502E-01
       -2   -1    0    0    0  501  0.00000000000E+00  0.00000000000E+00  0.63765384936E+03  0.63765384937E+03  0.25500000920E-02 0.  1.
        2   -1    0    0  501    0  0.00000000000E+00  0.00000000000E+00 -0.14683639996E+04  0.14683639996E+04  0.25500000920E-02 0. -1.
    10030    2    1    2    0    0  0.00000000000E+00  0.00000000000E+00 -0.83071015025E+03  0.21060178490E+04  0.19352601444E+04 0.  0.
        2    1    3    3  502    0 -0.63003510896E+03  0.57471390990E+03 -0.91293872709E+03  0.12492787664E+04  0.25500000920E-02 0.  1.
       -2    1    3    3    0  502  0.63003510896E+03 -0.57471390990E+03  0.82228576840E+02  0.85673908258E+03  0.25500000920E-02 0. -1.
</event>
<event>
 5   0  0.1810569E-04  0.1899006E+04  0.7818609E-02  0.8655351E-01
       -2   -1    0    0    0  501  0.00000000000E+00  0.00000000000E+00  0.60559531765E+03  0.60559531766E+03  0.25500000920E-02 0. -1.
        2   -1    0    0  501    0  0.00000000000E+00  0.00000000000E+00 -0.14887101772E+04  0.14887101772E+04  0.25500000920E-02 0.  1.
    10030    2    1    2    0    0  0.00000000000E+00  0.00000000000E+00 -0.88311485958E+03  0.20943054949E+04  0.18990059638E+04 0.  0.
        4    1    3    3  502    0  0.37351454168E+03  0.44999699064E+03  0.38339856823E+03  0.69928998238E+03  0.12699999809E+01 0. -1.
       -4    1    3    3    0  502 -0.37351454168E+03 -0.44999699064E+03 -0.12665134278E+04  0.13950155125E+04  0.12699999809E+01 0.  1.
</event>
<event>
 5   0  0.1765328E-04  0.1916801E+04  0.7818609E-02  0.8646538E-01
        2   -1    0    0  501    0  0.00000000000E+00  0.00000000000E+00  0.90243807538E+03  0.90243807538E+03  0.25500000920E-02 0.  1.
       -2   -1    0    0    0  501  0.00000000000E+00  0.00000000000E+00 -0.10178334301E+04  0.10178334301E+04  0.25500000920E-02 0. -1.
    10030    2    1    2    0    0  0.00000000000E+00  0.00000000000E+00 -0.11539535475E+03  0.19202715055E+04  0.19168011287E+04 0.  0.
        3    1    3    3  502    0  0.27493678867E+03  0.39965301577E+03 -0.88576472887E+03  0.10098969927E+04  0.10100000352E+00 0. -1.
       -3    1    3    3    0  502 -0.27493678867E+03 -0.39965301577E+03  0.77036937412E+03  0.91037451280E+03  0.10100000352E+00 0.  1.
</event>
<event>
 5   0  0.8681396E-05  0.1865029E+04  0.7818609E-02  0.8672462E-01
        1   -1    0    0  501    0  0.00000000000E+00  0.00000000000E+00  0.13652154619E+04  0.13652154619E+04  0.50400001928E-02 0.  1.
       -1   -1    0    0    0  501  0.00000000000E+00  0.00000000000E+00 -0.63695667829E+03  0.63695667831E+03  0.50400001928E-02 0. -1.
    10030    2    1    2    0    0  0.00000000000E+00  0.00000000000E+00  0.72825878360E+03  0.20021721402E+04  0.18650287995E+04 0.  0.
        3    1    3    3  502    0 -0.34478035570E+03 -0.24131870365E+03  0.12574716640E+04  0.13260253415E+04  0.10100000352E+00 0.  1.
       -3    1    3    3    0  502  0.34478035570E+03  0.24131870365E+03 -0.52921288039E+03  0.67614679869E+03  0.10100000352E+00 0. -1.
</event>
<event>
 5   0  0.1790832E-04  0.1909448E+04  0.7818609E-02  0.8650168E-01
        2   -1    0    0  501    0  0.00000000000E+00  0.00000000000E+00  0.21366475558E+04  0.21366475558E+04  0.25500000920E-02 0.  1.
       -2   -1    0    0    0  501  0.00000000000E+00  0.00000000000E+00 -0.42660210189E+03  0.42660210190E+03  0.25500000920E-02 0. -1.
    10030    2    1    2    0    0  0.00000000000E+00  0.00000000000E+00  0.17100454539E+04  0.25632496577E+04  0.19094484422E+04 0.  0.
        5    1    3    3  502    0 -0.14545170520E+03  0.93574926369E+03  0.10177437289E+04  0.13901824595E+04  0.46999998093E+01 0.  1.
       -5    1    3    3    0  502  0.14545170520E+03 -0.93574926369E+03  0.69230172508E+03  0.11730671982E+04  0.46999998093E+01 0. -1.
</event>
<event>
 5   0  0.1658711E-04  0.1924288E+04  0.7818609E-02  0.8642860E-01
       -2   -1    0    0    0  501  0.00000000000E+00  0.00000000000E+00  0.61275211194E+03  0.61275211194E+03  0.25500000920E-02 0. -1.
        2   -1    0    0  501    0  0.00000000000E+00  0.00000000000E+00 -0.15107596108E+04  0.15107596108E+04  0.25500000920E-02 0.  1.
    10030    2    1    2    0    0  0.00000000000E+00  0.00000000000E+00 -0.89800749885E+03  0.21235117227E+04  0.19242880680E+04 0.  0.
        2    1    3    3  502    0  0.53723277164E+03 -0.75475348447E+03 -0.16240572052E+03  0.94055701120E+03  0.25500000920E-02 0. -1.
       -2    1    3    3    0  502 -0.53723277164E+03  0.75475348447E+03 -0.73560177833E+03  0.11829547115E+04  0.25500000920E-02 0.  1.
</event>
<event>
 5   0  0.8681396E-05  0.1913874E+04  0.7818609E-02  0.8647981E-01
       -1   -1    0    0    0  501  0.00000000000E+00  0.00000000000E+00  0.89912335499E+03  0.89912335500E+03  0.50400001928E-02 0. -1.
        1   -1    0    0  501    0  0.00000000000E+00  0.00000000000E+00 -0.10184684796E+04  0.10184684797E+04  0.50400001928E-02 0.  1.
    10030    2    1    2    0    0  0.00000000000E+00  0.00000000000E+00 -0.11934512466E+03  0.19175918347E+04  0.19138743913E+04 0.  0.
        3    1    3    3  502    0 -0.37957901109E+03  0.44055679412E+03 -0.82112125337E+03  0.10061861843E+04  0.10100000352E+00 0.  1.
       -3    1    3    3    0  502  0.37957901109E+03 -0.44055679412E+03  0.70177612871E+03  0.91140565037E+03  0.10100000352E+00 0. -1.
</event>
<event>
 5   0  0.1790832E-04  0.1892678E+04  0.7818609E-02  0.8658509E-01
        2   -1    0    0  501    0  0.00000000000E+00  0.00000000000E+00  0.88768896125E+03  0.88768896126E+03  0.25500000920E-02 0.  1.
       -2   -1    0    0    0  501  0.00000000000E+00  0.00000000000E+00 -0.10088644109E+04  0.10088644109E+04  0.25500000920E-02 0. -1.
    10030    2    1    2    0    0  0.00000000000E+00  0.00000000000E+00 -0.12117544964E+03  0.18965533722E+04  0.18926783149E+04 0.  0.
        5    1    3    3  502    0  0.80854254102E+03  0.34890221887E+03 -0.40779665790E+03  0.97046071696E+03  0.46999998093E+01 0. -1.
       -5    1    3    3    0  502 -0.80854254102E+03 -0.34890221887E+03  0.28662120826E+03  0.92609265519E+03  0.46999998093E+01 0.  1.
</event>
<event>
 5   0  0.6375750E-05  0.1886879E+04  0.7818609E-02  0.8661415E-01
       -3   -1    0    0    0  501  0.00000000000E+00  0.00000000000E+00  0.14965808758E+04  0.14965808792E+04  0.10100000352E+00 0.  1.
        3   -1    0    0  501    0  0.00000000000E+00  0.00000000000E+00 -0.59474094958E+03  0.59474095816E+03  0.10100000352E+00 0. -1.
    10030    2    1    2    0    0  0.00000000000E+00  0.00000000000E+00  0.90183992623E+03  0.20913218374E+04  0.18868788448E+04 0.  0.
        2    1    3    3  502    0 -0.32574008454E+03  0.94495817765E+01  0.14322209055E+04  0.14688269535E+04  0.25500000920E-02 0.  1.
       -2    1    3    3    0  502  0.32574008454E+03 -0.94495817765E+01 -0.53038097925E+03  0.62249488386E+03  0.25500000920E-02 0. -1.
</event>
<event>
 5   0  0.1790832E-04  0.1891120E+04  0.7818609E-02  0.8659289E-01
       -2   -1    0    0    0  501  0.00000000000E+00  0.00000000000E+00  0.50713401270E+03  0.50713401270E+03  0.25500000920E-02 0.  1.
        2   -1    0    0  501    0  0.00000000000E+00  0.00000000000E+00 -0.17630121835E+04  0.17630121835E+04  0.25500000920E-02 0. -1.
    10030    2    1    2    0    0  0.00000000000E+00  0.00000000000E+00 -0.12558781709E+04  0.22701461963E+04  0.18911197139E+04 0.  0.
        5    1    3    3  502    0  0.22601126921E+03 -0.65762346812E+03 -0.13970651674E+04  0.15605649270E+04  0.46999998093E+01 0. -1.
       -5    1    3    3    0  502 -0.22601126921E+03  0.65762346812E+03  0.14118699652E+03  0.70958126921E+03  0.46999998093E+01 0.  1.
</event>
<event>
 5   0  0.1799738E-04  0.1885160E+04  0.7818609E-02  0.8662279E-01
       -2   -1    0    0    0  501  0.00000000000E+00  0.00000000000E+00  0.16936484636E+04  0.16936484636E+04  0.25500000920E-02 0. -1.
        2   -1    0    0  501    0  0.00000000000E+00  0.00000000000E+00 -0.52458151286E+03  0.52458151286E+03  0.25500000920E-02 0.  1.
    10030    2    1    2    0    0  0.00000000000E+00  0.00000000000E+00  0.11690669508E+04  0.22182299765E+04  0.18851595936E+04 0.  0.
        1    1    3    3  502    0 -0.43082190629E+03 -0.43559967137E+02 -0.40061681621E+03  0.58991424727E+03  0.50400001928E-02 0.  1.
       -1    1    3    3    0  502  0.43082190629E+03  0.43559967137E+02  0.15696837670E+04  0.16283157292E+04  0.50400001928E-02 0. -1.
</event>
<event>
 5   0  0.1810569E-04  0.1887939E+04  0.7818609E-02  0.8660883E-01
        2   -1    0    0  501    0  0.00000000000E+00  0.00000000000E+00  0.19867930235E+04  0.19867930235E+04  0.25500000920E-02 0.  1.
       -2   -1    0    0    0  501  0.00000000000E+00  0.00000000000E+00 -0.44850100396E+03  0.44850100396E+03  0.25500000920E-02 0. -1.
    10030    2    1    2    0    0  0.00000000000E+00  0.00000000000E+00  0.15382920196E+04  0.24352940275E+04  0.18879392635E+04 0.  0.
        4    1    3    3  502    0 -0.80947249703E+03 -0.11289907481E+03  0.13784004385E+04  0.16024922172E+04  0.12699999809E+01 0.  1.
       -4    1    3    3    0  502  0.80947249703E+03  0.11289907481E+03  0.15989158106E+03  0.83280181024E+03  0.12699999809E+01 0. -1.
</event>
<event>
 5   0  0.8681396E-05  0.1894000E+04  0.7818609E-02  0.8657849E-01
        1   -1    0    0  501    0  0.00000000000E+00  0.00000000000E+00  0.51556130252E+03  0.51556130255E+03  0.50400001928E-02 0. -1.
       -1   -1    0    0    0  501  0.00000000000E+00  0.00000000000E+00 -0.17394811810E+04  0.17394811810E+04  0.50400001928E-02 0.  1.
    10030    2    1    2    0    0  0.00000000000E+00  0.00000000000E+00 -0.12239198784E+04  0.22550424835E+04  0.18940001937E+04 0.  0.
        3    1    3    3  502    0  0.72466777298E+03 -0.44972597748E+03 -0.11020176489E+04  0.13934991011E+04  0.10100000352E+00 0.  1.
       -3    1    3    3    0  502 -0.72466777298E+03  0.44972597748E+03 -0.12190222951E+03  0.86154338241E+03  0.10100000352E+00 0. -1.
</event>
<event>
 5   0  0.8567844E-05  0.1948014E+04  0.7818609E-02  0.8631319E-01
        1   -1    0    0  501    0  0.00000000000E+00  0.00000000000E+00  0.96693483061E+03  0.96693483063E+03  0.50400001928E-02 0. -1.
       -1   -1    0    0    0  501  0.00000000000E+00  0.00000000000E+00 -0.98113100121E+03  0.98113100122E+03  0.50400001928E-02 0.  1.
    10030    2    1    2    0    0  0.00000000000E+00  0.00000000000E+00 -0.14196170592E+02  0.19480658318E+04  0.19480141052E+04 0.  0.
        4    1    3    3  502    0 -0.68693927249E+03 -0.66416024078E+03 -0.19603096139E+03  0.97540972942E+03  0.12699999809E+01 0. -1.
       -4    1    3    3    0  502  0.68693927249E+03  0.66416024078E+03  0.18183479080E+03  0.97265610242E+03  0.12699999809E+01 0.  1.
</event>
<event>
 5   0  0.1799738E-04  0.1863880E+04  0.7818609E-02  0.8673047E-01
       -2   -1    0    0    0  501  0.00000000000E+00  0.00000000000E+00  0.72930487100E+03  0.72930487101E+03  0.25500000920E-02 0.  1.
        2   -1    0    0  501    0  0.00000000000E+00  0.00000000000E+00 -0.11908771256E+04  0.11908771256E+04  0.25500000920E-02 0. -1.
    10030    2    1    2    0    0  0.00000000000E+00  0.00000000000E+00 -0.46157225462E+03  0.19201819966E+04  0.18638803486E+04 0.  0.
        1    1    3    3  502    0 -0.14034043921E+03  0.72109776985E+03  0.35997705184E+03  0.81808368181E+03  0.50400001928E-02 0.  1.
       -1    1    3    3    0  502  0.14034043921E+03 -0.72109776985E+03 -0.82154930646E+03  0.11020983148E+04  0.50400001928E-02 0. -1.
</event>
<event>
 5   0  0.8905646E-05  0.1905037E+04  0.7818609E-02  0.8652353E-01
        1   -1    0    0  501    0  0.00000000000E+00  0.00000000000E+00  0.14738794484E+04  0.14738794484E+04  0.50400001928E-02 0. -1.
       -1   -1    0    0    0  501  0.00000000000E+00  0.00000000000E+00 -0.61558080129E+03  0.61558080131E+03  0.50400001928E-02 0.  1.
    10030    2    1    2    0    0  0.00000000000E+00  0.00000000000E+00  0.85829864711E+03  0.20894602497E+04  0.19050374189E+04 0.  0.
        1    1    3    3  502    0  0.38679554056E+03 -0.12770965736E+03 -0.51523441630E+03  0.65680061704E+03  0.50400001928E-02 0.  1.
       -1    1    3    3    0  502 -0.38679554056E+03  0.12770965736E+03  0.13735330634E+04  0.14326596327E+04  0.50400001928E-02 0. -1.
</event>
<event>
 5   0  0.1810569E-04  0.1908596E+04  0.7818609E-02  0.8650590E-01
       -2   -1    0    0    0  501  0.00000000000E+00  0.00000000000E+00  0.11698180342E+04  0.11698180342E+04  0.25500000920E-02 0.  1.
        2   -1    0    0  501    0  0.00000000000E+00  0.00000000000E+00 -0.77848368625E+03  0.77848368625E+03  0.25500000920E-02 0. -1.
    10030    2    1    2    0    0  0.00000000000E+00  0.00000000000E+00  0.39133434795E+03  0.19483017205E+04  0.19085955627E+04 0.  0.
        4    1    3    3  502    0  0.31326825166E+03 -0.18006604211E+03 -0.70595281101E+03  0.79305218069E+03  0.12699999809E+01 0. -1.
       -4    1    3    3    0  502 -0.31326825166E+03  0.18006604211E+03  0.10972871590E+04  0.11552495398E+04  0.12699999809E+01 0.  1.
</event>
<event>
 5   0  0.1790832E-04  0.1910474E+04  0.7818609E-02  0.8649660E-01
       -2   -1    0    0    0  501  0.00000000000E+00  0.00000000000E+00  0.84482471447E+03  0.84482471447E+03  0.25500000920E-02 0.  1.
        2   -1    0    0  501    0  0.00000000000E+00  0.00000000000E+00 -0.10800796338E+04  0.10800796338E+04  0.25500000920E-02 0. -1.
    10030    2    1    2    0    0  0.00000000000E+00  0.00000000000E+00 -0.23525491935E+03  0.19249043483E+04  0.19104742534E+04 0.  0.
        5    1    3    3  502    0  0.31466642405E+03 -0.21859806375E+03 -0.99925420062E+03  0.10702014387E+04  0.46999998093E+01 0. -1.
       -5    1    3    3    0  502 -0.31466642405E+03  0.21859806375E+03  0.76399928127E+03  0.85470290961E+03  0.46999998093E+01 0.  1.
</event>
<event>
 5   0  0.1790832E-04  0.1900366E+04  0.7818609E-02  0.8654674E-01
       -2   -1    0    0    0  501  0.00000000000E+00  0.00000000000E+00  0.80721067999E+03  0.80721068000E+03  0.25500000920E-02 0. -1.
        2   -1    0    0  501    0  0.00000000000E+00  0.00000000000E+00 -0.11184783213E+04  0.11184783213E+04  0.25500000920E-02 0.  1.
    10030    2    1    2    0    0  0.00000000000E+00  0.00000000000E+00 -0.31126764128E+03  0.19256890013E+04  0.19003659082E+04 0.  0.
        5    1    3    3  502    0 -0.29056233280E+03  0.66626448674E+02  0.75858561873E+03  0.81507041649E+03  0.46999998093E+01 0. -1.
       -5    1    3    3    0  502  0.29056233280E+03 -0.66626448674E+02 -0.10698532600E+04  0.11106185848E+04  0.46999998093E+01 0.  1.
</event>
<event>
 5   0  0.8567844E-05  0.1890372E+04  0.7818609E-02  0.8659664E-01
        1   -1    0    0  501    0  0.00000000000E+00  0.00000000000E+00  0.11574595472E+04  0.11574595472E+04  0.50400001928E-02 0. -1.
       -1   -1    0    0    0  501  0.00000000000E+00  0.00000000000E+00 -0.77184257865E+03  0.77184257867E+03  0.50400001928E-02 0.  1.
    10030    2    1    2    0    0  0.00000000000E+00  0.00000000000E+00  0.38561696857E+03  0.19293021259E+04  0.18903719863E+04 0.  0.
        4    1    3    3  502    0 -0.23683880339E+03  0.91418809365E+03  0.23289144917E+03  0.97266259790E+03  0.12699999809E+01 0.  1.
       -4    1    3    3    0  502  0.23683880339E+03 -0.91418809365E+03  0.15272551940E+03  0.95663952801E+03  0.12699999809E+01 0. -1.
</event>
<event>
 5   0  0.8567844E-05  0.1907071E+04  0.7818609E-02  0.8651344E-01
        1   -1    0    0  501    0  0.00000000000E+00  0.00000000000E+00  0.29302154929E+04  0.29302154929E+04  0.50400001928E-02 0. -1.
       -1   -1    0    0    0  501  0.00000000000E+00  0.00000000000E+00 -0.31029470741E+03  0.31029470745E+03  0.50400001928E-02 0.  1.
    10030    2    1    2    0    0  0.00000000000E+00  0.00000000000E+00  0.26199207855E+04  0.32405102003E+04  0.19070714293E+04 0.  0.
        4    1    3    3  502    0  0.49371320774E+03  0.71124226807E+03  0.19888155085E+04  0.21691028180E+04  0.12699999809E+01 0. -1.
       -4    1    3    3    0  502 -0.49371320774E+03 -0.71124226807E+03  0.63110527700E+03  0.10714073823E+04  0.12699999809E+01 0.  1.
</event>
<event>
 5   0  0.8905646E-05  0.1907532E+04  0.7818609E-02  0.8651116E-01
        1   -1    0    0  501    0  0.00000000000E+00  0.00000000000E+00  0.17436537702E+04  0.17436537702E+04  0.50400001928E-02 0. -1.
       -1   -1    0    0    0  501  0.00000000000E+00  0.00000000000E+00 -0.52170301634E+03  0.52170301636E+03  0.50400001928E-02 0.  1.
    10030    2    1    2    0    0  0.00000000000E+00  0.00000000000E+00  0.12219507538E+04  0.22653567866E+04  0.19075318413E+04 0.  0.
        1    1    3    3  502    0  0.42425453998E+03 -0.84995629260E+03  0.50984345887E+03  0.10781270642E+04  0.50400001928E-02 0.  1.
       -1    1    3    3    0  502 -0.42425453998E+03  0.84995629260E+03  0.71210729498E+03  0.11872297223E+04  0.50400001928E-02 0. -1.
</event>
<event>
 5   0  0.1790832E-04  0.1894030E+04  0.7818609E-02  0.8657834E-01
       -2   -1    0    0    0  501  0.00000000000E+00  0.00000000000E+00  0.14002103713E+04  0.14002103713E+04  0.25500000920E-02 0. -1.
        2   -1    0    0  501    0  0.00000000000E+00  0.00000000000E+00 -0.64050172471E+03  0.64050172471E+03  0.25500000920E-02 0.  1.
    10030    2    1    2    0    0  0.00000000000E+00  0.00000000000E+00  0.75970864659E+03  0.20407120960E+04  0.18940297334E+04 0.  0.
        5    1    3    3  502    0 -0.17608146247E+03  0.77433141462E+02  0.13789275650E+04  0.13922872880E+04  0.46999998093E+01 0. -1.
       -5    1    3    3    0  502  0.17608146247E+03 -0.77433141462E+02 -0.61921891837E+03  0.64842480805E+03  0.46999998093E+01 0.  1.
</event>
<event>
 5   0  0.1810569E-04  0.1853687E+04  0.7818609E-02  0.8678259E-01
        2   -1    0    0  501    0  0.00000000000E+00  0.00000000000E+00  0.21585981971E+04  0.21585981971E+04  0.25500000920E-02 0.  1.
       -2   -1    0    0    0  501  0.00000000000E+00  0.00000000000E+00 -0.39796152542E+03  0.39796152543E+03  0.25500000920E-02 0. -1.
    10030    2    1    2    0    0  0.00000000000E+00  0.00000000000E+00  0.17606366717E+04  0.25565597226E+04  0.18536871703E+04 0.  0.
        4    1    3    3  502    0 -0.17401535273E+03 -0.91030736368E+03  0.86676453931E+03  0.12689457116E+04  0.12699999809E+01 0. -1.
       -4    1    3    3    0  502  0.17401535273E+03  0.91030736368E+03  0.89387213239E+03  0.12876140110E+04  0.12699999809E+01 0.  1.
</event>
<event>
 5   0  0.1799738E-04  0.1895063E+04  0.7818609E-02  0.8657318E-01
        2   -1    0    0  501    0  0.00000000000E+00  0.00000000000E+00  0.91571539404E+03  0.91571539404E+03  0.25500000920E-02 0.  1.
       -2   -1    0    0    0  501  0.00000000000E+00  0.00000000000E+00 -0.98045284774E+03  0.98045284774E+03  0.25500000920E-02 0. -1.
    10030    2    1    2    0    0  0.00000000000E+00  0.00000000000E+00 -0.64737453701E+02  0.18961682418E+04  0.18950628125E+04 0.  0.
        1    1    3    3  502    0 -0.92259126351E+03 -0.14206980094E+03  0.13038314904E+03  0.94252757701E+03  0.50400001928E-02 0.  1.
       -1    1    3    3    0  502  0.92259126351E+03  0.14206980094E+03 -0.19512060274E+03  0.95364066476E+03  0.50400001928E-02 0. -1.
</event>
<event>
 5   0  0.1799738E-04  0.1901616E+04  0.7818609E-02  0.8654053E-01
       -2   -1    0    0    0  501  0.00000000000E+00  0.00000000000E+00  0.80599562415E+03  0.80599562415E+03  0.25500000920E-02 0. -1.
        2   -1    0    0  501    0  0.00000000000E+00  0.00000000000E+00 -0.11216382867E+04  0.11216382867E+04  0.25500000920E-02 0.  1.
    10030    2    1    2    0    0  0.00000000000E+00  0.00000000000E+00 -0.31564266254E+03  0.19276339108E+04  0.19016156825E+04 0.  0.
        1    1    3    3  502    0  0.40048823965E+02  0.94952051170E+03 -0.18724327942E+03  0.96863468663E+03  0.50400001928E-02 0. -1.
       -1    1    3    3    0  502 -0.40048823965E+02 -0.94952051170E+03 -0.12839938312E+03  0.95899922422E+03  0.50400001928E-02 0.  1.
</event>
<event>
 5   0  0.8602017E-05  0.1870561E+04  0.7818609E-02  0.8669651E-01
       -1   -1    0    0    0  501  0.00000000000E+00  0.00000000000E+00  0.75909915051E+03  0.75909915052E+03  0.50400001928E-02 0. -1.
        1   -1    0    0  501    0  0.00000000000E+00  0.00000000000E+00 -0.11523518752E+04  0.11523518752E+04  0.50400001928E-02 0.  1.
    10030    2    1    2    0    0  0.00000000000E+00  0.00000000000E+00 -0.39325272471E+03  0.19114510258E+04  0.18705606963E+04 0.  0.
        2    1    3    3  502    0 -0.32268661450E+03 -0.35445507287E+03 -0.10172914065E+04  0.11245651851E+04  0.25500000920E-02 0.  1.
       -2    1    3    3    0  502  0.32268661450E+03  0.35445507287E+03  0.62403868177E+03  0.78688584065E+03  0.25500000920E-02 0. -1.
</event>
<event>
 5   0  0.8587082E-05  0.1906977E+04  0.7818609E-02  0.8651391E-01
        1   -1    0    0  501    0  0.00000000000E+00  0.00000000000E+00  0.19594343606E+04  0.19594343606E+04  0.50400001928E-02 0. -1.
       -1   -1    0    0    0  501  0.00000000000E+00  0.00000000000E+00 -0.46398111568E+03  0.46398111571E+03  0.50400001928E-02 0.  1.
    10030    2    1    2    0    0  0.00000000000E+00  0.00000000000E+00  0.14954532449E+04  0.24234154763E+04  0.19069772319E+04 0.  0.
        5    1    3    3  502    0 -0.44241089133E+03  0.48330569660E+03  0.16279958176E+04  0.17549086202E+04  0.46999998093E+01 0.  1.
       -5    1    3    3    0  502  0.44241089133E+03 -0.48330569660E+03 -0.13254257266E+03  0.66850685614E+03  0.46999998093E+01 0. -1.
</event>
<event>
 5   0  0.1790832E-04  0.1879571E+04  0.7818609E-02  0.8665092E-01
        2   -1    0    0  501    0  0.00000000000E+00  0.00000000000E+00  0.15805861856E+04  0.15805861856E+04  0.25500000920E-02 0.  1.
       -2   -1    0    0    0  501  0.00000000000E+00  0.00000000000E+00 -0.55877826240E+03  0.55877826241E+03  0.25500000920E-02 0. -1.
    10030    2    1    2    0    0  0.00000000000E+00  0.00000000000E+00  0.10218079232E+04  0.21393644480E+04  0.18795714431E+04 0.  0.
        5    1    3    3  502    0  0.47668524087E+03 -0.33084645464E+03 -0.33052183203E+03  0.66779859753E+03  0.46999998093E+01 0. -1.
       -5    1    3    3    0  502 -0.47668524087E+03  0.33084645464E+03  0.13523297553E+04  0.14715658505E+04  0.46999998093E+01 0.  1.
</event>
<event>
 5   0  0.8567844E-05  0.1905377E+04  0.7818609E-02  0.8652184E-01
       -1   -1    0    0    0  501  0.00000000000E+00  0.00000000000E+00  0.56106437825E+03  0.56106437828E+03  0.50400001928E-02 0. -1.
        1   -1    0    0  501    0  0.00000000000E+00  0.00000000000E+00 -0.16176676901E+04  0.16176676901E+04  0.50400001928E-02 0.  1.
    10030    2    1    2    0    0  0.00000000000E+00  0.00000000000E+00 -0.10566033118E+04  0.21787320684E+04  0.19053773556E+04 0.  0.
        4    1    3    3  502    0 -0.43930854431E+03  0.28043488403E+03  0.38359159863E+03  0.64713201800E+03  0.12699999809E+01 0. -1.
       -4    1    3    3    0  502  0.43930854431E+03 -0.28043488403E+03 -0.14401949105E+04  0.15316000504E+04  0.12699999809E+01 0.  1.
</event>
<event>
 5   0  0.1658711E-04  0.1919144E+04  0.7818609E-02  0.8645386E-01
       -2   -1    0    0    0  501  0.00000000000E+00  0.00000000000E+00  0.73563362306E+03  0.73563362306E+03  0.25500000920E-02 0. -1.
        2   -1    0    0  501    0  0.00000000000E+00  0.00000000000E+00 -0.12516802837E+04  0.12516802837E+04  0.25500000920E-02 0.  1.
    10030    2    1    2    0    0  0.00000000000E+00  0.00000000000E+00 -0.51604666068E+03  0.19873139068E+04  0.19191436653E+04 0.  0.
        2    1    3    3  502    0 -0.71269315612E+03  0.34715176458E+03 -0.81790638944E+03  0.11390420292E+04  0.25500000920E-02 0.  1.
       -2    1    3    3    0  502  0.71269315612E+03 -0.34715176458E+03  0.30185972877E+03  0.84827187758E+03  0.25500000920E-02 0. -1.
</event>
<event>
 5   0  0.8905646E-05  0.1918154E+04  0.7818609E-02  0.8645872E-01
        1   -1    0    0  501    0  0.00000000000E+00  0.00000000000E+00  0.65156785664E+03  0.65156785666E+03  0.50400001928E-02 0.  1.
       -1   -1    0    0    0  501  0.00000000000E+00  0.00000000000E+00 -0.14117157280E+04  0.14117157280E+04  0.50400001928E-02 0. -1.
    10030    2    1    2    0    0  0.00000000000E+00  0.00000000000E+00 -0.76014787137E+03  0.20632835847E+04  0.19181538949E+04 0.  0.
        1    1    3    3  502    0  0.29556770769E+03 -0.90710665681E+03 -0.48560848708E+03  0.10705224703E+04  0.50400001928E-02 0. -1.
       -1    1    3    3    0  502 -0.29556770769E+03  0.90710665681E+03 -0.27453938429E+03  0.99276111437E+03  0.50400001928E-02 0.  1.
</event>
<event>
 5   0  0.1765328E-04  0.1902851E+04  0.7818609E-02  0.8653438E-01
       -2   -1    0    0    0  501  0.00000000000E+00  0.00000000000E+00  0.16918765181E+04  0.16918765181E+04  0.25500000920E-02 0.  1.
        2   -1    0    0  501    0  0.00000000000E+00  0.00000000000E+00 -0.53503357802E+03  0.53503357803E+03  0.25500000920E-02 0. -1.
    10030    2    1    2    0    0  0.00000000000E+00  0.00000000000E+00  0.11568429401E+04  0.22269100961E+04  0.19028512785E+04 0.  0.
        3    1    3    3  502    0 -0.90244538950E+03 -0.49957154880E+02  0.23064817052E+03  0.93279257454E+03  0.10100000352E+00 0. -1.
       -3    1    3    3    0  502  0.90244538950E+03  0.49957154880E+02  0.92619476957E+03  0.12941175216E+04  0.10100000352E+00 0.  1.
</event>
<event>
 5   0  0.1790832E-04  0.1928853E+04  0.7818609E-02  0.8640626E-01
        2   -1    0    0  501    0  0.00000000000E+00  0.00000000000E+00  0.16337457078E+04  0.16337457078E+04  0.25500000920E-02 0. -1.
       -2   -1    0    0    0  501  0.00000000000E+00  0.00000000000E+00 -0.56931629348E+03  0.56931629349E+03  0.25500000920E-02 0.  1.
    10030    2    1    2    0    0  0.00000000000E+00  0.00000000000E+00  0.10644294143E+04  0.22030620013E+04  0.19288525613E+04 0.  0.
        5    1    3    3  502    0  0.39326573284E+03  0.86018993333E+03  0.74744876353E+03  0.12055232897E+04  0.46999998093E+01 0.  1.
       -5    1    3    3    0  502 -0.39326573284E+03 -0.86018993333E+03  0.31698065077E+03  0.99753871152E+03  0.46999998093E+01 0. -1.
</event>
<event>
 5   0  0.8905646E-05  0.1861149E+04  0.7818609E-02  0.8674440E-01
       -1   -1    0    0    0  501  0.00000000000E+00  0.00000000000E+00  0.49760815116E+03  0.49760815119E+03  0.50400001928E-02 0. -1.
        1   -1    0    0  501    0  0.00000000000E+00  0.00000000000E+00 -0.17402630982E+04  0.17402630982E+04  0.50400001928E-02 0.  1.
    10030    2    1    2    0    0  0.00000000000E+00  0.00000000000E+00 -0.12426549470E+04  0.22378712494E+04  0.18611492179E+04 0.  0.
        1    1    3    3  502    0  0.18845205785E+03  0.65125705069E+03  0.14512911821E+03  0.69333425212E+03  0.50400001928E-02 0. -1.
       -1    1    3    3    0  502 -0.18845205785E+03 -0.65125705069E+03 -0.13877840652E+04  0.15445369973E+04  0.50400001928E-02 0.  1.
</event>
<event>
 5   0  0.8567844E-05  0.1901841E+04  0.7818609E-02  0.8653941E-01
        1   -1    0    0  501    0  0.00000000000E+00  0.00000000000E+00  0.22221736171E+04  0.22221736171E+04  0.50400001928E-02 0.  1.
       -1   -1    0    0    0  501  0.00000000000E+00  0.00000000000E+00 -0.40692124584E+03  0.40692124587E+03  0.50400001928E-02 0. -1.
    10030    2    1    2    0    0  0.00000000000E+00  0.00000000000E+00  0.18152523712E+04  0.26290948629E+04  0.19018408522E+04 0.  0.
        4    1    3    3  502    0  0.12333808719E+03 -0.34169797147E+03 -0.30721354923E+03  0.47576419074E+03  0.12699999809E+01 0. -1.
       -4    1    3    3    0  502 -0.12333808719E+03  0.34169797147E+03  0.21224659204E+04  0.21533306722E+04  0.12699999809E+01 0.  1.
</event>
<event>
 5   0  0.6375750E-05  0.1892843E+04  0.7818609E-02  0.8658427E-01
        3   -1    0    0  501    0  0.00000000000E+00  0.00000000000E+00  0.12607906439E+04  0.12607906479E+04  0.10100000352E+00 0.  1.
       -3   -1    0    0    0  501  0.00000000000E+00  0.00000000000E+00 -0.71043777217E+03  0.71043777935E+03  0.10100000352E+00 0. -1.
    10030    2    1    2    0    0  0.00000000000E+00  0.00000000000E+00  0.55035287169E+03  0.19712284273E+04  0.18928426319E+04 0.  0.
        2    1    3    3  502    0 -0.38541728347E+03  0.36957520374E+03  0.10889322140E+04  0.12128090040E+04  0.25500000920E-02 0.  1.
       -2    1    3    3    0  502  0.38541728347E+03 -0.36957520374E+03 -0.53857934228E+03  0.75841942324E+03  0.25500000920E-02 0. -1.
</event>
<event>
 5   0  0.8587082E-05  0.1920880E+04  0.7818609E-02  0.8644532E-01
       -1   -1    0    0    0  501  0.00000000000E+00  0.00000000000E+00  0.64158018485E+03  0.64158018487E+03  0.50400001928E-02 0.  1.
        1   -1    0    0  501    0  0.00000000000E+00  0.00000000000E+00 -0.14377709983E+04  0.14377709983E+04  0.50400001928E-02 0. -1.
    10030    2    1    2    0    0  0.00000000000E+00  0.00000000000E+00 -0.79619081347E+03  0.20793511832E+04  0.19208804053E+04 0.  0.
        5    1    3    3  502    0 -0.24371906322E+03  0.29843972330E+03 -0.13504226892E+04  0.14043250264E+04  0.46999998093E+01 0. -1.
       -5    1    3    3    0  502  0.24371906322E+03 -0.29843972330E+03  0.55423187576E+03  0.67502615678E+03  0.46999998093E+01 0.  1.
</event>
<event>
 5   0  0.1790832E-04  0.1898767E+04  0.7818609E-02  0.8655470E-01
        2   -1    0    0  501    0  0.00000000000E+00  0.00000000000E+00  0.16392844428E+04  0.16392844428E+04  0.25500000920E-02 0. -1.
       -2   -1    0    0    0  501  0.00000000000E+00  0.00000000000E+00 -0.54983098332E+03  0.54983098333E+03  0.25500000920E-02 0.  1.
    10030    2    1    2    0    0  0.00000000000E+00  0.00000000000E+00  0.10894534595E+04  0.21891154261E+04  0.18987673656E+04 0.  0.
        5    1    3    3  502    0 -0.30854433977E+03  0.72483971759E+03 -0.66116493119E+02  0.79056037496E+03  0.46999998093E+01 0.  1.
       -5    1    3    3    0  502  0.30854433977E+03 -0.72483971759E+03  0.11555699526E+04  0.13985550511E+04  0.46999998093E+01 0. -1.
</event>
<event>
 5   0  0.1790832E-04  0.1881871E+04  0.7818609E-02  0.8663933E-01
       -2   -1    0    0    0  501  0.00000000000E+00  0.00000000000E+00  0.41720030697E+03  0.41720030698E+03  0.25500000920E-02 0.  1.
        2   -1    0    0  501    0  0.00000000000E+00  0.00000000000E+00 -0.21221457420E+04  0.21221457420E+04  0.25500000920E-02 0. -1.
    10030    2    1    2    0    0  0.00000000000E+00  0.00000000000E+00 -0.17049454350E+04  0.25393460490E+04  0.18818712549E+04 0.  0.
        5    1    3    3  502    0 -0.12160605523E+03 -0.92775245065E+03 -0.71872050644E+03  0.11798702889E+04  0.46999998093E+01 0.  1.
       -5    1    3    3    0  502  0.12160605523E+03  0.92775245065E+03 -0.98622492860E+03  0.13594757600E+04  0.46999998093E+01 0. -1.
</event>
<event>
 5   0  0.1765328E-04  0.1888275E+04  0.7818609E-02  0.8660715E-01
        2   -1    0    0  501    0  0.00000000000E+00  0.00000000000E+00  0.70346013029E+03  0.70346013029E+03  0.25500000920E-02 0. -1.
       -2   -1    0    0    0  501  0.00000000000E+00  0.00000000000E+00 -0.12671584266E+04  0.12671584266E+04  0.25500000920E-02 0.  1.
    10030    2    1    2    0    0  0.00000000000E+00  0.00000000000E+00 -0.56369829627E+03  0.19706185568E+04  0.18882748019E+04 0.  0.
        3    1    3    3  502    0  0.92836079679E+03  0.11592020499E+01 -0.10248118089E+03  0.93400081125E+03  0.10100000352E+00 0.  1.
       -3    1    3    3    0  502 -0.92836079679E+03 -0.11592020499E+01 -0.46121711537E+03  0.10366177456E+04  0.10100000352E+00 0. -1.
</event>
<event>
 5   0  0.1790832E-04  0.1899984E+04  0.7818609E-02  0.8654864E-01
        2   -1    0    0  501    0  0.00000000000E+00  0.00000000000E+00  0.98882046304E+03  0.98882046304E+03  0.25500000920E-02 0.  1.
       -2   -1    0    0    0  501  0.00000000000E+00  0.00000000000E+00 -0.91268865402E+03  0.91268865402E+03  0.25500000920E-02 0. -1.
    10030    2    1    2    0    0  0.00000000000E+00  0.00000000000E+00  0.76131809021E+02  0.19015091171E+04  0.18999844394E+04 0.  0.
        5    1    3    3  502    0  0.19301107673E+03 -0.15019017597E+03  0.95676373842E+03  0.98753698961E+03  0.46999998093E+01 0.  1.
       -5    1    3    3    0  502 -0.19301107673E+03  0.15019017597E+03 -0.88063192940E+03  0.91397212746E+03  0.46999998093E+01 0. -1.
</event>
<event>
 5   0  0.8602017E-05  0.1894118E+04  0.7818609E-02  0.8657790E-01
       -1   -1    0    0    0  501  0.00000000000E+00  0.00000000000E+00  0.70141848790E+03  0.70141848791E+03  0.50400001928E-02 0.  1.
        1   -1    0    0  501    0  0.00000000000E+00  0.00000000000E+00 -0.12787245636E+04  0.12787245636E+04  0.50400001928E-02 0. -1.
    10030    2    1    2    0    0  0.00000000000E+00  0.00000000000E+00 -0.57730607570E+03  0.19801430515E+04  0.18941183172E+04 0.  0.
        2    1    3    3  502    0  0.49770827557E+03 -0.46207530105E+03  0.40139642338E+03  0.78888921916E+03  0.25500000920E-02 0.  1.
       -2    1    3    3    0  502 -0.49770827557E+03  0.46207530105E+03 -0.97870249908E+03  0.11912538324E+04  0.25500000920E-02 0. -1.
</event>
<event>
 5   0  0.1765328E-04  0.1899258E+04  0.7818609E-02  0.8655226E-01
        2   -1    0    0  501    0  0.00000000000E+00  0.00000000000E+00  0.75168010174E+03  0.75168010174E+03  0.25500000920E-02 0. -1.
       -2   -1    0    0    0  501  0.00000000000E+00  0.00000000000E+00 -0.11997067627E+04  0.11997067627E+04  0.25500000920E-02 0.  1.
    10030    2    1    2    0    0  0.00000000000E+00  0.00000000000E+00 -0.44802666099E+03  0.19513868645E+04  0.18992584884E+04 0.  0.
        3    1    3    3  502    0 -0.61443114779E+03  0.55202105120E+03  0.25740089064E+03  0.86516362906E+03  0.10100000352E+00 0. -1.
       -3    1    3    3    0  502  0.61443114779E+03 -0.55202105120E+03 -0.70542755163E+03  0.10862232354E+04  0.10100000352E+00 0.  1.
</event>
<event>
 5   0  0.1658711E-04  0.1926753E+04  0.7818609E-02  0.8641653E-01
        2   -1    0    0  501    0  0.00000000000E+00  0.00000000000E+00  0.15506624611E+04  0.15506624611E+04  0.25500000920E-02 0. -1.
       -2   -1    0    0    0  501  0.00000000000E+00  0.00000000000E+00 -0.59851484215E+03  0.59851484216E+03  0.25500000920E-02 0.  1.
    10030    2    1    2    0    0  0.00000000000E+00  0.00000000000E+00  0.95214761891E+03  0.21491773032E+04  0.19267532256E+04 0.  0.
        2    1    3    3  502    0 -0.58915745349E+03  0.22473326621E+03 -0.33634854834E+03  0.71466208233E+03  0.25500000920E-02 0.  1.
       -2    1    3    3    0  502  0.58915745349E+03 -0.22473326621E+03  0.12884961673E+04  0.14345152209E+04  0.25500000920E-02 0. -1.
</event>
<event>
 5   0  0.1765328E-04  0.1878506E+04  0.7818609E-02  0.8665630E-01
        2   -1    0    0  501    0  0.00000000000E+00  0.00000000000E+00  0.10595126084E+04  0.10595126084E+04  0.25500000920E-02 0.  1.
       -2   -1    0    0    0  501  0.00000000000E+00  0.00000000000E+00 -0.83264360502E+03  0.83264360502E+03  0.25500000920E-02 0. -1.
    10030    2    1    2    0    0  0.00000000000E+00  0.00000000000E+00  0.22686900342E+03  0.18921562135E+04  0.18785062128E+04 0.  0.
        3    1    3    3  502    0 -0.70647438999E+03  0.58308594385E+03  0.32255112616E+03  0.97115113181E+03  0.10100000352E+00 0. -1.
       -3    1    3    3    0  502  0.70647438999E+03 -0.58308594385E+03 -0.95682122736E+02  0.92100508166E+03  0.10100000352E+00 0.  1.
</event>
<event>
 5   0  0.8602017E-05  0.1879629E+04  0.7818609E-02  0.8665063E-01
       -1   -1    0    0    0  501  0.00000000000E+00  0.00000000000E+00  0.72218711447E+03  0.72218711449E+03  0.50400001928E-02 0. -1.
        1   -1    0    0  501    0  0.00000000000E+00  0.00000000000E+00 -0.12230227211E+04  0.12230227211E+04  0.50400001928E-02 0.  1.
    10030    2    1    2    0    0  0.00000000000E+00  0.00000000000E+00 -0.50083560661E+03  0.19452098356E+04  0.18796289526E+04 0.  0.
        2    1    3    3  502    0  0.54237791813E+03 -0.42823942540E+03 -0.90957750166E+03  0.11423195888E+04  0.25500000920E-02 0.  1.
       -2    1    3    3    0  502 -0.54237791813E+03  0.42823942540E+03  0.40874189504E+03  0.80289024674E+03  0.25500000920E-02 0. -1.
</event>
<event>
 5   0  0.1658711E-04  0.1899215E+04  0.7818609E-02  0.8655247E-01
        2   -1    0    0  501    0  0.00000000000E+00  0.00000000000E+00  0.14123966737E+04  0.14123966737E+04  0.25500000920E-02 0.  1.
       -2   -1    0    0    0  501  0.00000000000E+00  0.00000000000E+00 -0.63845718869E+03  0.63845718870E+03  0.25500000920E-02 0. -1.
    10030    2    1    2    0    0  0.00000000000E+00  0.00000000000E+00  0.77393948504E+03  0.20508538624E+04  0.18992154271E+04 0.  0.
        2    1    3    3  502    0 -0.88269452167E+03  0.34138148055E+03  0.47105805438E+03  0.10571596968E+04  0.25500000920E-02 0.  1.
       -2    1    3    3    0  502  0.88269452167E+03 -0.34138148055E+03  0.30288143067E+03  0.99369416568E+03  0.25500000920E-02 0. -1.
</event>
<event>
 5   0  0.8567844E-05  0.1874199E+04  0.7818609E-02  0.8667807E-01
       -1   -1    0    0    0  501  0.00000000000E+00  0.00000000000E+00  0.70595672721E+03  0.70595672723E+03  0.50400001928E-02 0. -1.
        1   -1    0    0  501    0  0.00000000000E+00  0.00000000000E+00 -0.12439224398E+04  0.12439224399E+04  0.50400001928E-02 0.  1.
    10030    2    1    2    0    0  0.00000000000E+00  0.00000000000E+00 -0.53796571263E+03  0.19498791671E+04  0.18741989378E+04 0.  0.
        4    1    3    3  502    0 -0.58181050156E+03 -0.70468658037E+03 -0.48488907725E+03  0.10345074511E+04  0.12699999809E+01 0.  1.
       -4    1    3    3    0  502  0.58181050156E+03  0.70468658037E+03 -0.53076635383E+02  0.91537171597E+03  0.12699999809E+01 0. -1.
</event>
<event>
 5   0  0.8567844E-05  0.1899409E+04  0.7818609E-02  0.8655150E-01
        1   -1    0    0  501    0  0.00000000000E+00  0.00000000000E+00  0.73378008437E+03  0.73378008439E+03  0.50400001928E-02 0.  1.
       -1   -1    0    0    0  501  0.00000000000E+00  0.00000000000E+00 -0.12291680294E+04  0.12291680294E+04  0.50400001928E-02 0. -1.
    10030    2    1    2    0    0  0.00000000000E+00  0.00000000000E+00 -0.49538794505E+03  0.19629481138E+04  0.18994094033E+04 0.  0.
        4    1    3    3  502    0 -0.16236848801E+03  0.27819462265E+03  0.67560234102E+03  0.74846236383E+03  0.12699999809E+01 0.  1.
       -4    1    3    3    0  502  0.16236848801E+03 -0.27819462265E+03 -0.11709902861E+04  0.12144857500E+04  0.12699999809E+01 0. -1.
</event>
<event>
 5   0  0.1810569E-04  0.1889051E+04  0.7818609E-02  0.8660326E-01
       -2   -1    0    0    0  501  0.00000000000E+00  0.00000000000E+00  0.95088009726E+03  0.95088009726E+03  0.25500000920E-02 0.  1.
        2   -1    0    0  501    0  0.00000000000E+00  0.00000000000E+00 -0.93821304598E+03  0.93821304598E+03  0.25500000920E-02 0. -1.
    10030    2    1    2    0    0  0.00000000000E+00  0.00000000000E+00  0.12667051276E+02  0.18890931432E+04  0.18890506742E+04 0.  0.
        4    1    3    3  502    0 -0.44093993056E+03  0.12219957873E+03 -0.81998145057E+03  0.93900583150E+03  0.12699999809E+01 0. -1.
       -4    1    3    3    0  502  0.44093993056E+03 -0.12219957873E+03  0.83264850185E+03  0.95008731174E+03  0.12699999809E+01 0.  1.
</event>
<event>
 5   0  0.8681396E-05  0.1922672E+04  0.7818609E-02  0.8643653E-01
       -1   -1    0    0    0  501  0.00000000000E+00  0.00000000000E+00  0.10546460304E+04  0.10546460304E+04  0.50400001928E-02 0. -1.
        1   -1    0    0  501    0  0.00000000000E+00  0.00000000000E+00 -0.87628175908E+03  0.87628175909E+03  0.50400001928E-02 0.  1.
    10030    2    1    2    0    0  0.00000000000E+00  0.00000000000E+00  0.17836427134E+03  0.19309277895E+04  0.19226721809E+04 0.  0.
        3    1    3    3  502    0 -0.26804114887E+02  0.85174388513E+03  0.53604318969E+03  0.10067414851E+04  0.10100000352E+00 0. -1.
       -3    1    3    3    0  502  0.26804114887E+02 -0.85174388513E+03 -0.35767891835E+03  0.92418630441E+03  0.10100000352E+00 0.  1.
</event>
<event>
 5   0  0.8602017E-05  0.1894099E+04  0.7818609E-02  0.8657799E-01
       -1   -1    0    0    0  501  0.00000000000E+00  0.00000000000E+00  0.10022514372E+04  0.10022514372E+04  0.50400001928E-02 0.  1.
        1   -1    0    0  501    0  0.00000000000E+00  0.00000000000E+00 -0.89488782538E+03  0.89488782540E+03  0.50400001928E-02 0. -1.
    10030    2    1    2    0    0  0.00000000000E+00  0.00000000000E+00  0.10736361181E+03  0.18971392626E+04  0.18940988455E+04 0.  0.
        2    1    3    3  502    0 -0.43280706233E+03 -0.74862368847E+03 -0.33312877335E+03  0.92667910292E+03  0.25500000920E-02 0. -1.
       -2    1    3    3    0  502  0.43280706233E+03  0.74862368847E+03  0.44049238516E+03  0.97046015968E+03  0.25500000920E-02 0.  1.
</event>
<event>
 5   0  0.1799738E-04  0.1906330E+04  0.7818609E-02  0.8651712E-01
        2   -1    0    0  501    0  0.00000000000E+00  0.00000000000E+00  0.75170504986E+03  0.75170504987E+03  0.25500000920E-02 0. -1.
       -2   -1    0    0    0  501  0.00000000000E+00  0.00000000000E+00 -0.12086164430E+04  0.12086164430E+04  0.25500000920E-02 0.  1.
    10030    2    1    2    0    0  0.00000000000E+00  0.00000000000E+00 -0.45691139311E+03  0.19603214929E+04  0.19063295450E+04 0.  0.
        1    1    3    3  502    0  0.29945720819E+02 -0.14027410202E+03  0.74054359510E+03  0.75430655981E+03  0.50400001928E-02 0. -1.
       -1    1    3    3    0  502 -0.29945720819E+02  0.14027410202E+03 -0.11974549882E+04  0.12060149330E+04  0.50400001928E-02 0.  1.
</event>
<event>
 5   0  0.1765328E-04  0.1885274E+04  0.7818609E-02  0.8662221E-01
        2   -1    0    0  501    0  0.00000000000E+00  0.00000000000E+00  0.96735569740E+03  0.96735569740E+03  0.25500000920E-02 0. -1.
       -2   -1    0    0    0  501  0.00000000000E+00  0.00000000000E+00 -0.91855026266E+03  0.91855026267E+03  0.25500000920E-02 0.  1.
    10030    2    1    2    0    0  0.00000000000E+00  0.00000000000E+00  0.48805434733E+02  0.18859059601E+04  0.18852743354E+04 0.  0.
        3    1    3    3  502    0  0.68740402128E+03 -0.51906490925E+03  0.40743066261E+03  0.95286537534E+03  0.10100000352E+00 0. -1.
       -3    1    3    3    0  502 -0.68740402128E+03  0.51906490925E+03 -0.35862522787E+03  0.93304058473E+03  0.10100000352E+00 0.  1.
</event>
<event>
 5   0  0.1658711E-04  0.1911468E+04  0.7818609E-02  0.8649169E-01
       -2   -1    0    0    0  501  0.00000000000E+00  0.00000000000E+00  0.85114677407E+03  0.85114677408E+03  0.25500000920E-02 0. -1.
        2   -1    0    0  501    0  0.00000000000E+00  0.00000000000E+00 -0.10731721375E+04  0.10731721375E+04  0.25500000920E-02 0.  1.
    10030    2    1    2    0    0  0.00000000000E+00  0.00000000000E+00 -0.22202536344E+03  0.19243189116E+04  0.19114675021E+04 0.  0.
        2    1    3    3  502    0  0.20213723760E+02 -0.65395324127E+03  0.59035171462E+03  0.88123696209E+03  0.25500000920E-02 0. -1.
       -2    1    3    3    0  502 -0.20213723760E+02  0.65395324127E+03 -0.81237707806E+03  0.10430819495E+04  0.25500000920E-02 0.  1.
</event>
<event>
 5   0  0.8905646E-05  0.1873799E+04  0.7818609E-02  0.8668009E-01
        1   -1    0    0  501    0  0.00000000000E+00  0.00000000000E+00  0.13628789148E+04  0.13628789148E+04  0.50400001928E-02 0. -1.
       -1   -1    0    0    0  501  0.00000000000E+00  0.00000000000E+00 -0.64406353347E+03  0.64406353349E+03  0.50400001928E-02 0.  1.
    10030    2    1    2    0    0  0.00000000000E+00  0.00000000000E+00  0.71881538133E+03  0.20069424483E+04  0.18737989322E+04 0.  0.
        1    1    3    3  502    0  0.68980520886E+03  0.43608498115E+03  0.85230183391E+03  0.11800083699E+04  0.50400001928E-02 0. -1.
       -1    1    3    3    0  502 -0.68980520886E+03 -0.43608498115E+03 -0.13348645258E+03  0.82693407839E+03  0.50400001928E-02 0.  1.
</event>
<event>
 5   0  0.1810569E-04  0.1904454E+04  0.7818609E-02  0.8652642E-01
       -2   -1    0    0    0  501  0.00000000000E+00  0.00000000000E+00  0.15035182224E+04  0.15035182224E+04  0.25500000920E-02 0.  1.
        2   -1    0    0  501    0  0.00000000000E+00  0.00000000000E+00 -0.60307642795E+03  0.60307642796E+03  0.25500000920E-02 0. -1.
    10030    2    1    2    0    0  0.00000000000E+00  0.00000000000E+00  0.90044179449E+03  0.21065946504E+04  0.19044541464E+04 0.  0.
        4    1    3    3  502    0  0.31554283481E+03  0.76094603351E+02 -0.53999278960E+03  0.63004086770E+03  0.12699999809E+01 0. -1.
       -4    1    3    3    0  502 -0.31554283481E+03 -0.76094603351E+02  0.14404345841E+04  0.14765537827E+04  0.12699999809E+01 0.  1.
</event>
<event>
 5   0  0.8681396E-05  0.1902329E+04  0.7818609E-02  0.8653698E-01
       -1   -1    0    0    0  501  0.00000000000E+00  0.00000000000E+00  0.53243178615E+03  0.53243178617E+03  0.50400001928E-02 0. -1.
        1   -1    0    0  501    0  0.00000000000E+00  0.00000000000E+00 -0.16992102552E+04  0.16992102552E+04  0.50400001928E-02 0.  1.
    10030    2    1    2    0    0  0.00000000000E+00  0.00000000000E+00 -0.11667784691E+04  0.22316420414E+04  0.19023286270E+04 0.  0.
        3    1    3    3  502    0 -0.15363813751E+03 -0.56981873029E+03  0.29167229710E+03  0.65830904732E+03  0.10100000352E+00 0. -1.
       -3    1    3    3    0  502  0.15363813751E+03  0.56981873029E+03 -0.14584507662E+04  0.15733329941E+04  0.10100000352E+00 0.  1.
</event>
<event>
 5   0  0.1765328E-04  0.1884543E+04  0.7818609E-02  0.8662589E-01
       -2   -1    0    0    0  501  0.00000000000E+00  0.00000000000E+00  0.10272040226E+04  0.10272040226E+04  0.25500000920E-02 0.  1.
        2   -1    0    0  501    0  0.00000000000E+00  0.00000000000E+00 -0.86436103078E+03  0.86436103078E+03  0.25500000920E-02 0. -1.
    10030    2    1    2    0    0  0.00000000000E+00  0.00000000000E+00  0.16284299186E+03  0.18915650534E+04  0.18845425204E+04 0.  0.
        3    1    3    3  502    0 -0.15863672187E+03 -0.36448535244E+03 -0.77608042859E+03  0.87196102178E+03  0.10100000352E+00 0. -1.
       -3    1    3    3    0  502  0.15863672187E+03  0.36448535244E+03  0.93892342045E+03  0.10196040316E+04  0.10100000352E+00 0.  1.
</event>
<event>
 5   0  0.1765328E-04  0.1556984E+04  0.7818609E-02  0.8847419E-01
        2   -1    0    0  501    0  0.00000000000E+00  0.00000000000E+00  0.10526443086E+04  0.10526443086E+04  0.25500000920E-02 0.  1.
       -2   -1    0    0    0  501  0.00000000000E+00  0.00000000000E+00 -0.57574018965E+03  0.57574018965E+03  0.25500000920E-02 0. -1.
    10030    2    1    2    0    0  0.00000000000E+00  0.00000000000E+00  0.47690411898E+03  0.16283844983E+04  0.15569837942E+04 0.  0.
        3    1    3    3  502    0 -0.24171837464E+03 -0.73950221664E+03  0.26725254928E+03  0.82262703357E+03  0.10100000352E+00 0.  1.
       -3    1    3    3    0  502  0.24171837464E+03  0.73950221664E+03  0.20965156970E+03  0.80575746471E+03  0.10100000352E+00 0. -1.
</event>
<event>
 5   0  0.8567844E-05  0.2036086E+04  0.7818609E-02  0.8589933E-01
       -1   -1    0    0    0  501  0.00000000000E+00  0.00000000000E+00  0.40368986048E+03  0.40368986051E+03  0.50400001928E-02 0.  1.
        1   -1    0    0  501    0  0.00000000000E+00  0.00000000000E+00 -0.25673455373E+04  0.25673455373E+04  0.50400001928E-02 0. -1.
    10030    2    1    2    0    0  0.00000000000E+00  0.00000000000E+00 -0.21636556769E+04  0.29710353979E+04  0.20360858153E+04 0.  0.
        4    1    3    3  502    0  0.32886921559E+03  0.68688326460E+03 -0.20676680550E+04  0.22034555541E+04  0.12699999809E+01 0. -1.
       -4    1    3    3    0  502 -0.32886921559E+03 -0.68688326460E+03 -0.95987621857E+02  0.76757984380E+03  0.12699999809E+01 0.  1.
</event>
<event>
 5   0  0.8905646E-05  0.1906731E+04  0.7818609E-02  0.8651513E-01
       -1   -1    0    0    0  501  0.00000000000E+00  0.00000000000E+00  0.60379987422E+03  0.60379987424E+03  0.50400001928E-02 0. -1.
        1   -1    0    0  501    0  0.00000000000E+00  0.00000000000E+00 -0.15053099982E+04  0.15053099982E+04  0.50400001928E-02 0.  1.
    10030    2    1    2    0    0  0.00000000000E+00  0.00000000000E+00 -0.90151012401E+03  0.21091098725E+04  0.19067312214E+04 0.  0.
        1    1    3    3  502    0 -0.59107047893E+03  0.53095153214E+03  0.13207856740E+03  0.80543068512E+03  0.50400001928E-02 0. -1.
       -1    1    3    3    0  502  0.59107047893E+03 -0.53095153214E+03 -0.10335886914E+04  0.13036791874E+04  0.50400001928E-02 0.  1.
</event>
<event>
 5   0  0.1799738E-04  0.1886087E+04  0.7818609E-02  0.8661813E-01
        2   -1    0    0  501    0  0.00000000000E+00  0.00000000000E+00  0.13887604227E+04  0.13887604228E+04  0.25500000920E-02 0. -1.
       -2   -1    0    0    0  501  0.00000000000E+00  0.00000000000E+00 -0.64037792035E+03  0.64037792036E+03  0.25500000920E-02 0.  1.
    10030    2    1    2    0    0  0.00000000000E+00  0.00000000000E+00  0.74838250239E+03  0.20291383431E+04  0.18860874968E+04 0.  0.
        1    1    3    3  502    0  0.70777441111E+03 -0.12913653712E+03 -0.28173093830E+03  0.77265334003E+03  0.50400001928E-02 0.  1.
       -1    1    3    3    0  502 -0.70777441111E+03  0.12913653712E+03  0.10301134407E+04  0.12564850031E+04  0.50400001928E-02 0. -1.
</event>
<event>
 5   0  0.8567844E-05  0.1903294E+04  0.7818609E-02  0.8653219E-01
       -1   -1    0    0    0  501  0.00000000000E+00  0.00000000000E+00  0.11577285633E+04  0.11577285633E+04  0.50400001928E-02 0.  1.
        1   -1    0    0  501    0  0.00000000000E+00  0.00000000000E+00 -0.78224879328E+03  0.78224879329E+03  0.50400001928E-02 0. -1.
    10030    2    1    2    0    0  0.00000000000E+00  0.00000000000E+00  0.37547977003E+03  0.19399773566E+04  0.19032937468E+04 0.  0.
        4    1    3    3  502    0 -0.64398951973E+02  0.30540228836E+03  0.11040734361E+04  0.11473436922E+04  0.12699999809E+01 0.  1.
       -4    1    3    3    0  502  0.64398951973E+02 -0.30540228836E+03 -0.72859366611E+03  0.79263366441E+03  0.12699999809E+01 0. -1.
</event>
<event>
 5   0  0.1790832E-04  0.1914362E+04  0.7818609E-02  0.8647740E-01
        2   -1    0    0  501    0  0.00000000000E+00  0.00000000000E+00  0.19063634753E+04  0.19063634753E+04  0.25500000920E-02 0. -1.
       -2   -1    0    0    0  501  0.00000000000E+00  0.00000000000E+00 -0.48059865315E+03  0.48059865315E+03  0.25500000920E-02 0.  1.
    10030    2    1    2    0    0  0.00000000000E+00  0.00000000000E+00  0.14257648221E+04  0.23869621284E+04  0.19143622631E+04 0.  0.
        5    1    3    3  502    0 -0.26332709665E+02  0.20933371506E+03  0.18769946785E+04  0.18888210950E+04  0.46999998093E+01 0. -1.
       -5    1    3    3    0  502  0.26332709665E+02 -0.20933371506E+03 -0.45122985639E+03  0.49814103340E+03  0.46999998093E+01 0.  1.
</event>
<event>
 5   0  0.8602017E-05  0.1871965E+04  0.7818609E-02  0.8668938E-01
        1   -1    0    0  501    0  0.00000000000E+00  0.00000000000E+00  0.77877201140E+03  0.77877201142E+03  0.50400001928E-02 0. -1.
       -1   -1    0    0    0  501  0.00000000000E+00  0.00000000000E+00 -0.11249289818E+04  0.11249289818E+04  0.50400001928E-02 0.  1.
    10030    2    1    2    0    0  0.00000000000E+00  0.00000000000E+00 -0.34615697041E+03  0.19037009932E+04  0.18719649632E+04 0.  0.
        2    1    3    3  502    0  0.28876055235E+03  0.34389361260E+03  0.66207348668E+03  0.79999173443E+03  0.25500000920E-02 0. -1.
       -2    1    3    3    0  502 -0.28876055235E+03 -0.34389361260E+03 -0.10082304571E+04  0.11037092588E+04  0.25500000920E-02 0.  1.
</event>
<event>
 5   0  0.8587082E-05  0.1907330E+04  0.7818609E-02  0.8651216E-01
       -1   -1    0    0    0  501  0.00000000000E+00  0.00000000000E+00  0.11377028042E+04  0.11377028042E+04  0.50400001928E-02 0. -1.
        1   -1    0    0  501    0  0.00000000000E+00  0.00000000000E+00 -0.79939795752E+03  0.79939795753E+03  0.50400001928E-02 0.  1.
    10030    2    1    2    0    0  0.00000000000E+00  0.00000000000E+00  0.33830484663E+03  0.19371007617E+04  0.19073303835E+04 0.  0.
        5    1    3    3  502    0 -0.16933175596E+03 -0.77727985338E+03  0.70330643999E+03  0.10618376771E+04  0.46999998093E+01 0. -1.
       -5    1    3    3    0  502  0.16933175596E+03  0.77727985338E+03 -0.36500159336E+03  0.87526308456E+03  0.46999998093E+01 0.  1.
</event>
<event>
 5   0  0.8905646E-05  0.1853976E+04  0.7818609E-02  0.8678111E-01
       -1   -1    0    0    0  501  0.00000000000E+00  0.00000000000E+00  0.38409281698E+03  0.38409281701E+03  0.50400001928E-02 0. -1.
        1   -1    0    0  501    0  0.00000000000E+00  0.00000000000E+00 -0.22372362810E+04  0.22372362810E+04  0.50400001928E-02 0.  1.
    10030    2    1    2    0    0  0.00000000000E+00  0.00000000000E+00 -0.18531434640E+04  0.26213290980E+04  0.18539756044E+04 0.  0.
        1    1    3    3  502    0 -0.16857673616E+03 -0.89477504589E+03 -0.68059488269E+03  0.11367716979E+04  0.50400001928E-02 0.  1.
       -1    1    3    3    0  502  0.16857673616E+03  0.89477504589E+03 -0.11725485813E+04  0.14845574001E+04  0.50400001928E-02 0. -1.
</event>
<event>
 5   0  0.1790832E-04  0.1900461E+04  0.7818609E-02  0.8654627E-01
        2   -1    0    0  501    0  0.00000000000E+00  0.00000000000E+00  0.13371117355E+04  0.13371117355E+04  0.25500000920E-02 0. -1.
       -2   -1    0    0    0  501  0.00000000000E+00  0.00000000000E+00 -0.67528994397E+03  0.67528994397E+03  0.25500000920E-02 0.  1.
    10030    2    1    2    0    0  0.00000000000E+00  0.00000000000E+00  0.66182179158E+03  0.20124016795E+04  0.19004611114E+04 0.  0.
        5    1    3    3  502    0 -0.28017880905E+03  0.13701751256E+03 -0.61953357444E+03  0.69362663130E+03  0.46999998093E+01 0.  1.
       -5    1    3    3    0  502  0.28017880905E+03 -0.13701751256E+03  0.12813553660E+04  0.13187750482E+04  0.46999998093E+01 0. -1.
</event>
<event>
 5   0  0.8602017E-05  0.1888082E+04  0.7818609E-02  0.8660812E-01
        1   -1    0    0  501    0  0.00000000000E+00  0.00000000000E+00  0.12048232088E+04  0.12048232088E+04  0.50400001928E-02 0.  1.
       -1   -1    0    0    0  501  0.00000000000E+00  0.00000000000E+00 -0.73970458325E+03  0.73970458327E+03  0.50400001928E-02 0. -1.
    10030    2    1    2    0    0  0.00000000000E+00  0.00000000000E+00  0.46511862558E+03  0.19445277921E+04  0.18880818304E+04 0.  0.
        2    1    3    3  502    0 -0.86113350530E+03  0.12208460273E+03 -0.14550885557E+03  0.88183240541E+03  0.25500000920E-02 0. -1.
       -2    1    3    3    0  502  0.86113350530E+03 -0.12208460273E+03  0.61062748115E+03  0.10626953867E+04  0.25500000920E-02 0.  1.
</event>
<event>
 5   0  0.8681396E-05  0.1902123E+04  0.7818609E-02  0.8653800E-01
       -1   -1    0    0    0  501  0.00000000000E+00  0.00000000000E+00  0.32093601680E+03  0.32093601684E+03  0.50400001928E-02 0.  1.
        1   -1    0    0  501    0  0.00000000000E+00  0.00000000000E+00 -0.28183753509E+04  0.28183753510E+04  0.50400001928E-02 0. -1.
    10030    2    1    2    0    0  0.00000000000E+00  0.00000000000E+00 -0.24974393341E+04  0.31393113678E+04  0.19021231916E+04 0.  0.
        3    1    3    3  502    0 -0.21465925110E+03  0.55598909092E+03 -0.25493530317E+02  0.59653364833E+03  0.10100000352E+00 0.  1.
       -3    1    3    3    0  502  0.21465925110E+03 -0.55598909092E+03 -0.24719458038E+04  0.25427777195E+04  0.10100000352E+00 0. -1.
</event>
<event>
 5   0  0.1765328E-04  0.1902567E+04  0.7818609E-02  0.8653580E-01
        2   -1    0    0  501    0  0.00000000000E+00  0.00000000000E+00  0.16892817432E+04  0.16892817432E+04  0.25500000920E-02 0. -1.
       -2   -1    0    0    0  501  0.00000000000E+00  0.00000000000E+00 -0.53569537838E+03  0.53569537838E+03  0.25500000920E-02 0.  1.
    10030    2    1    2    0    0  0.00000000000E+00  0.00000000000E+00  0.11535863649E+04  0.22249771216E+04  0.19025671317E+04 0.  0.
        3    1    3    3  502    0  0.56148534520E+03  0.38243533213E+02  0.14737107268E+04  0.15775143984E+04  0.10100000352E+00 0. -1.
       -3    1    3    3    0  502 -0.56148534520E+03 -0.38243533213E+02 -0.32012436190E+03  0.64746272325E+03  0.10100000352E+00 0.  1.
</event>
<event>
 5   0  0.1790832E-04  0.1931893E+04  0.7818609E-02  0.8639142E-01
        2   -1    0    0  501    0  0.00000000000E+00  0.00000000000E+00  0.24074339574E+04  0.24074339574E+04  0.25500000920E-02 0.  1.
       -2   -1    0    0    0  501  0.00000000000E+00  0.00000000000E+00 -0.38757156371E+03  0.38757156372E+03  0.25500000920E-02 0. -1.
    10030    2    1    2    0    0  0.00000000000E+00  0.00000000000E+00  0.20198623937E+04  0.27950055211E+04  0.19318933132E+04 0.  0.
        5    1    3    3  502    0  0.67377011179E+03 -0.49298491935E+03  0.30704721138E+03  0.88955065863E+03  0.46999998093E+01 0. -1.
       -5    1    3    3    0  502 -0.67377011179E+03  0.49298491935E+03  0.17128151823E+04  0.19054548625E+04  0.46999998093E+01 0.  1.
</event>
<event>
 5   0  0.1799738E-04  0.1878964E+04  0.7818609E-02  0.8665399E-01
       -2   -1    0    0    0  501  0.00000000000E+00  0.00000000000E+00  0.86437797422E+03  0.86437797422E+03  0.25500000920E-02 0. -1.
        2   -1    0    0  501    0  0.00000000000E+00  0.00000000000E+00 -0.10211112114E+04  0.10211112114E+04  0.25500000920E-02 0.  1.
    10030    2    1    2    0    0  0.00000000000E+00  0.00000000000E+00 -0.15673323720E+03  0.18854891856E+04  0.18789635871E+04 0.  0.
        1    1    3    3  502    0  0.18236854469E+03 -0.75696112285E+03  0.44917546774E+03  0.89889211168E+03  0.50400001928E-02 0. -1.
       -1    1    3    3    0  502 -0.18236854469E+03  0.75696112285E+03 -0.60590870495E+03  0.98659707396E+03  0.50400001928E-02 0.  1.
</event>
<event>
 5   0  0.8567844E-05  0.1887101E+04  0.7818609E-02  0.8661304E-01
        1   -1    0    0  501    0  0.00000000000E+00  0.00000000000E+00  0.15521796874E+04  0.15521796874E+04  0.50400001928E-02 0.  1.
       -1   -1    0    0    0  501  0.00000000000E+00  0.00000000000E+00 -0.57357236308E+03  0.57357236311E+03  0.50400001928E-02 0. -1.
    10030    2    1    2    0    0  0.00000000000E+00  0.00000000000E+00  0.97860732433E+03  0.21257520505E+04  0.18871008148E+04 0.  0.
        4    1    3    3  502    0  0.90335067760E+03 -0.24308156018E+03  0.62797627549E+03  0.11267150958E+04  0.12699999809E+01 0.  1.
       -4    1    3    3    0  502 -0.90335067760E+03  0.24308156018E+03  0.35063104884E+03  0.99903695474E+03  0.12699999809E+01 0. -1.
</event>
<event>
 5   0  0.8681396E-05  0.1909167E+04  0.7818609E-02  0.8650307E-01
        1   -1    0    0  501    0  0.00000000000E+00  0.00000000000E+00  0.12692555068E+04  0.12692555068E+04  0.50400001928E-02 0.  1.
       -1   -1    0    0    0  501  0.00000000000E+00  0.00000000000E+00 -0.71792445933E+03  0.71792445934E+03  0.50400001928E-02 0. -1.
    10030    2    1    2    0    0  0.00000000000E+00  0.00000000000E+00  0.55133104750E+03  0.19871799662E+04  0.19091669110E+04 0.  0.
        3    1    3    3  502    0 -0.25781624417E+03  0.66800933595E+03  0.93274889017E+03  0.11758937839E+04  0.10100000352E+00 0.  1.
       -3    1    3    3    0  502  0.25781624417E+03 -0.66800933595E+03 -0.38141784267E+03  0.81128618229E+03  0.10100000352E+00 0. -1.
</event>
<event>
 5   0  0.8905646E-05  0.1904645E+04  0.7818609E-02  0.8652548E-01
        1   -1    0    0  501    0  0.00000000000E+00  0.00000000000E+00  0.26754976546E+04  0.26754976546E+04  0.50400001928E-02 0.  1.
       -1   -1    0    0    0  501  0.00000000000E+00  0.00000000000E+00 -0.33897172364E+03  0.33897172367E+03  0.50400001928E-02 0. -1.
    10030    2    1    2    0    0  0.00000000000E+00  0.00000000000E+00  0.23365259310E+04  0.30144693783E+04  0.19046449030E+04 0.  0.
        1    1    3    3  502    0 -0.80229658738E+03 -0.49920067936E+03  0.98074937150E+03  0.13618922359E+04  0.50400001928E-02 0. -1.
       -1    1    3    3    0  502  0.80229658738E+03  0.49920067936E+03  0.13557765595E+04  0.16525771424E+04  0.50400001928E-02 0.  1.
</event>
<event>
 5   0  0.1658711E-04  0.1890539E+04  0.7818609E-02  0.8659580E-01
        2   -1    0    0  501    0  0.00000000000E+00  0.00000000000E+00  0.20447980761E+04  0.20447980761E+04  0.25500000920E-02 0.  1.
       -2   -1    0    0    0  501  0.00000000000E+00  0.00000000000E+00 -0.43697918188E+03  0.43697918189E+03  0.25500000920E-02 0. -1.
    10030    2    1    2    0    0  0.00000000000E+00  0.00000000000E+00  0.16078188943E+04  0.24817772580E+04  0.18905387491E+04 0.  0.
        2    1    3    3  502    0 -0.48528310865E+03  0.81118547198E+03  0.79924508880E+03  0.12378668254E+04  0.25500000920E-02 0. -1.
       -2    1    3    3    0  502  0.48528310865E+03 -0.81118547198E+03  0.80857380547E+03  0.12439104326E+04  0.25500000920E-02 0.  1.
</event>
<event>
 5   0  0.8905646E-05  0.1903891E+04  0.7818609E-02  0.8652922E-01
       -1   -1    0    0    0  501  0.00000000000E+00  0.00000000000E+00  0.57808980542E+03  0.57808980545E+03  0.50400001928E-02 0. -1.
        1   -1    0    0  501    0  0.00000000000E+00  0.00000000000E+00 -0.15675766727E+04  0.15675766727E+04  0.50400001928E-02 0.  1.
    10030    2    1    2    0    0  0.00000000000E+00  0.00000000000E+00 -0.98948686726E+03  0.21456664781E+04  0.19038908516E+04 0.  0.
        1    1    3    3  502    0 -0.27242662851E+03 -0.51145362390E+03  0.35641332725E+03  0.68031723276E+03  0.50400001928E-02 0. -1.
       -1    1    3    3    0  502  0.27242662851E+03  0.51145362390E+03 -0.13459001945E+04  0.14653492454E+04  0.50400001928E-02 0.  1.
</event>
<event>
 5   0  0.6375750E-05  0.1935399E+04  0.7818609E-02  0.8637434E-01
       -4   -1    0    0    0  501  0.00000000000E+00  0.00000000000E+00  0.12914572981E+04  0.12914579225E+04  0.12699999809E+01 0. -1.
        4   -1    0    0  501    0  0.00000000000E+00  0.00000000000E+00 -0.72510401055E+03  0.72510512273E+03  0.12699999809E+01 0.  1.
    10030    2    1    2    0    0  0.00000000000E+00  0.00000000000E+00  0.56635328754E+03  0.20165630453E+04  0.19353993049E+04 0.  0.
        5    1    3    3  502    0 -0.78817659444E+03 -0.35031452834E+03  0.74029817282E+03  0.11366644569E+04  0.46999998093E+01 0. -1.
       -5    1    3    3    0  502  0.78817659444E+03  0.35031452834E+03 -0.17394488528E+03  0.87989858842E+03  0.46999998093E+01 0.  1.
</event>
<event>
 5   0  0.8567844E-05  0.1882872E+04  0.7818609E-02  0.8663429E-01
       -1   -1    0    0    0  501  0.00000000000E+00  0.00000000000E+00  0.11827211811E+04  0.11827211811E+04  0.50400001928E-02 0. -1.
        1   -1    0    0  501    0  0.00000000000E+00  0.00000000000E+00 -0.74937499827E+03  0.74937499828E+03  0.50400001928E-02 0.  1.
    10030    2    1    2    0    0  0.00000000000E+00  0.00000000000E+00  0.43334618281E+03  0.19320961794E+04  0.18828719373E+04 0.  0.
        4    1    3    3  502    0 -0.81858005737E+02 -0.80748479119E+03  0.70618495371E+03  0.10758397756E+04  0.12699999809E+01 0. -1.
       -4    1    3    3    0  502  0.81858005737E+02  0.80748479119E+03 -0.27283877091E+03  0.85625640372E+03  0.12699999809E+01 0.  1.
</event>
<event>
 5   0  0.1799738E-04  0.1888656E+04  0.7818609E-02  0.8660524E-01
       -2   -1    0    0    0  501  0.00000000000E+00  0.00000000000E+00  0.70536081537E+03  0.70536081537E+03  0.25500000920E-02 0.  1.
        2   -1    0    0  501    0  0.00000000000E+00  0.00000000000E+00 -0.12642542176E+04  0.12642542176E+04  0.25500000920E-02 0. -1.
    10030    2    1    2    0    0  0.00000000000E+00  0.00000000000E+00 -0.55889340224E+03  0.19696150330E+04  0.18886560150E+04 0.  0.
        1    1    3    3  502    0 -0.91127943447E+03  0.24763651949E+03 -0.28065042531E+03  0.98514908248E+03  0.50400001928E-02 0. -1.
       -1    1    3    3    0  502  0.91127943447E+03 -0.24763651949E+03 -0.27824297693E+03  0.98446595050E+03  0.50400001928E-02 0.  1.
</event>
<event>
 5   0  0.1765328E-04  0.1900287E+04  0.7818609E-02  0.8654713E-01
       -2   -1    0    0    0  501  0.00000000000E+00  0.00000000000E+00  0.29276422444E+03  0.29276422445E+03  0.25500000920E-02 0.  1.
        2   -1    0    0  501    0  0.00000000000E+00  0.00000000000E+00 -0.30836174318E+04  0.30836174318E+04  0.25500000920E-02 0. -1.
    10030    2    1    2    0    0  0.00000000000E+00  0.00000000000E+00 -0.27908532073E+04  0.33763816562E+04  0.19002872056E+04 0.  0.
        3    1    3    3  502    0 -0.59283508974E+03  0.18263399864E+02 -0.27142981985E+04  0.27783451398E+04  0.10100000352E+00 0. -1.
       -3    1    3    3    0  502  0.59283508974E+03 -0.18263399864E+02 -0.76555008856E+02  0.59803651643E+03  0.10100000352E+00 0.  1.
</event>
<event>
 5   0  0.8602017E-05  0.1898019E+04  0.7818609E-02  0.8655843E-01
        1   -1    0    0  501    0  0.00000000000E+00  0.00000000000E+00  0.93131168984E+03  0.93131168986E+03  0.50400001928E-02 0.  1.
       -1   -1    0    0    0  501  0.00000000000E+00  0.00000000000E+00 -0.96704330860E+03  0.96704330862E+03  0.50400001928E-02 0. -1.
    10030    2    1    2    0    0  0.00000000000E+00  0.00000000000E+00 -0.35731618761E+02  0.18983549985E+04  0.18980186911E+04 0.  0.
        2    1    3    3  502    0 -0.21703344964E+02  0.82912701839E+03  0.44340577163E+03  0.94049525577E+03  0.25500000920E-02 0.  1.
       -2    1    3    3    0  502  0.21703344964E+02 -0.82912701839E+03 -0.47913739039E+03  0.95785974270E+03  0.25500000920E-02 0. -1.
</event>
<event>
 5   0  0.6375750E-05  0.1813417E+04  0.7818609E-02  0.8699197E-01
       -3   -1    0    0    0  501  0.00000000000E+00  0.00000000000E+00  0.17648206619E+04  0.17648206648E+04  0.10100000352E+00 0.  1.
        3   -1    0    0  501    0  0.00000000000E+00  0.00000000000E+00 -0.46583776046E+03  0.46583777141E+03  0.10100000352E+00 0. -1.
    10030    2    1    2    0    0  0.00000000000E+00  0.00000000000E+00  0.12989829014E+04  0.22306584362E+04  0.18134167973E+04 0.  0.
        5    1    3    3  502    0  0.11331416915E+03 -0.28004577702E+03  0.17010762633E+04  0.17277002870E+04  0.46999998093E+01 0.  1.
       -5    1    3    3    0  502 -0.11331416915E+03  0.28004577702E+03 -0.40209336188E+03  0.50295814917E+03  0.46999998093E+01 0. -1.
</event>
<event>
 5   0  0.8587082E-05  0.1869847E+04  0.7818609E-02  0.8670013E-01
        1   -1    0    0  501    0  0.00000000000E+00  0.00000000000E+00  0.14072556348E+04  0.14072556348E+04  0.50400001928E-02 0. -1.
       -1   -1    0    0    0  501  0.00000000000E+00  0.00000000000E+00 -0.62112548305E+03  0.62112548307E+03  0.50400001928E-02 0.  1.
    10030    2    1    2    0    0  0.00000000000E+00  0.00000000000E+00  0.78613015175E+03  0.20283811179E+04  0.18698474119E+04 0.  0.
        5    1    3    3  502    0  0.21326375115E+03 -0.65073341720E+03 -0.29739381576E+03  0.74659264627E+03  0.46999998093E+01 0.  1.
       -5    1    3    3    0  502 -0.21326375115E+03  0.65073341720E+03  0.10835239675E+04  0.12817884716E+04  0.46999998093E+01 0. -1.
</event>
<event>
 5   0  0.1790832E-04  0.1911660E+04  0.7818609E-02  0.8649074E-01
        2   -1    0    0  501    0  0.00000000000E+00  0.00000000000E+00  0.16561126021E+04  0.16561126021E+04  0.25500000920E-02 0.  1.
       -2   -1    0    0    0  501  0.00000000000E+00  0.00000000000E+00 -0.55166016062E+03  0.55166016062E+03  0.25500000920E-02 0. -1.
    10030    2    1    2    0    0  0.00000000000E+00  0.00000000000E+00  0.11044524415E+04  0.22077727628E+04  0.19116603716E+04 0.  0.
        5    1    3    3  502    0 -0.34693874066E+03 -0.95455446354E+02  0.15748889139E+04  0.16154799327E+04  0.46999998093E+01 0.  1.
       -5    1    3    3    0  502  0.34693874066E+03  0.95455446354E+02 -0.47043647234E+03  0.59229283004E+03  0.46999998093E+01 0. -1.
</event>
<event>
 5   0  0.1799738E-04  0.1866078E+04  0.7818609E-02  0.8671928E-01
       -2   -1    0    0    0  501  0.00000000000E+00  0.00000000000E+00  0.10034428294E+04  0.10034428294E+04  0.25500000920E-02 0.  1.
        2   -1    0    0  501    0  0.00000000000E+00  0.00000000000E+00 -0.86757506533E+03  0.86757506533E+03  0.25500000920E-02 0. -1.
    10030    2    1    2    0    0  0.00000000000E+00  0.00000000000E+00  0.13586776408E+03  0.18710178947E+04  0.18660782173E+04 0.  0.
        1    1    3    3  502    0  0.61366367316E+03  0.35034467963E+03  0.67883934074E+03  0.97987108788E+03  0.50400001928E-02 0.  1.
       -1    1    3    3    0  502 -0.61366367316E+03 -0.35034467963E+03 -0.54297157666E+03  0.89114680687E+03  0.50400001928E-02 0. -1.
</event>
<event>
 5   0  0.6375750E-05  0.1912077E+04  0.7818609E-02  0.8648868E-01
       -3   -1    0    0    0  501  0.00000000000E+00  0.00000000000E+00  0.17514185931E+04  0.17514185960E+04  0.10100000352E+00 0. -1.
        3   -1    0    0  501    0  0.00000000000E+00  0.00000000000E+00 -0.52186791255E+03  0.52186792233E+03  0.10100000352E+00 0.  1.
    10030    2    1    2    0    0  0.00000000000E+00  0.00000000000E+00  0.12295506805E+04  0.22732865183E+04  0.19120765462E+04 0.  0.
        2    1    3    3  502    0 -0.53721024374E+03  0.67231439584E+03  0.11968657145E+03  0.86886498849E+03  0.25500000920E-02 0.  1.
       -2    1    3    3    0  502  0.53721024374E+03 -0.67231439584E+03  0.11098641091E+04  0.14044215298E+04  0.25500000920E-02 0. -1.
</event>
<event>
 5   0  0.8567844E-05  0.1888729E+04  0.7818609E-02  0.8660487E-01
       -1   -1    0    0    0  501  0.00000000000E+00  0.00000000000E+00  0.41362177892E+03  0.41362177895E+03  0.50400001928E-02 0.  1.
        1   -1    0    0  501    0  0.00000000000E+00  0.00000000000E+00 -0.21561339882E+04  0.21561339882E+04  0.50400001928E-02 0. -1.
    10030    2    1    2    0    0  0.00000000000E+00  0.00000000000E+00 -0.17425122093E+04  0.25697557671E+04  0.18887286473E+04 0.  0.
        4    1    3    3  502    0  0.86693700687E+03  0.18755850331E+03 -0.13122677603E+04  0.15839211640E+04  0.12699999809E+01 0. -1.
       -4    1    3    3    0  502 -0.86693700687E+03 -0.18755850331E+03 -0.43024444896E+03  0.98583460317E+03  0.12699999809E+01 0.  1.
</event>
<event>
 5   0  0.1810569E-04  0.1871862E+04  0.7818609E-02  0.8668990E-01
       -2   -1    0    0    0  501  0.00000000000E+00  0.00000000000E+00  0.85782084106E+03  0.85782084106E+03  0.25500000920E-02 0. -1.
        2   -1    0    0  501    0  0.00000000000E+00  0.00000000000E+00 -0.10211541375E+04  0.10211541375E+04  0.25500000920E-02 0.  1.
    10030    2    1    2    0    0  0.00000000000E+00  0.00000000000E+00 -0.16333329644E+03  0.18789749786E+04  0.18718624961E+04 0.  0.
        4    1    3    3  502    0 -0.93157760294E+03  0.87530685854E+02 -0.10336444493E+03  0.94137360948E+03  0.12699999809E+01 0.  1.
       -4    1    3    3    0  502  0.93157760294E+03 -0.87530685854E+02 -0.59968851515E+02  0.93760136908E+03  0.12699999809E+01 0. -1.
</event>
<event>
 5   0  0.1799738E-04  0.1893718E+04  0.7818609E-02  0.8657990E-01
        2   -1    0    0  501    0  0.00000000000E+00  0.00000000000E+00  0.15391039423E+04  0.15391039423E+04  0.25500000920E-02 0. -1.
       -2   -1    0    0    0  501  0.00000000000E+00  0.00000000000E+00 -0.58250887253E+03  0.58250887254E+03  0.25500000920E-02 0.  1.
    10030    2    1    2    0    0  0.00000000000E+00  0.00000000000E+00  0.95659506975E+03  0.21216128148E+04  0.18937177214E+04 0.  0.
        1    1    3    3  502    0  0.15228560664E+03 -0.35212256279E+03 -0.49153396147E+03  0.62352773837E+03  0.50400001928E-02 0.  1.
       -1    1    3    3    0  502 -0.15228560664E+03  0.35212256279E+03  0.14481290312E+04  0.14980850765E+04  0.50400001928E-02 0. -1.
</event>
<event>
 5   0  0.1790832E-04  0.1900144E+04  0.7818609E-02  0.8654785E-01
       -2   -1    0    0    0  501  0.00000000000E+00  0.00000000000E+00  0.78221315798E+03  0.78221315798E+03  0.25500000920E-02 0.  1.
        2   -1    0    0  501    0  0.00000000000E+00  0.00000000000E+00 -0.11539522277E+04  0.11539522277E+04  0.25500000920E-02 0. -1.
    10030    2    1    2    0    0  0.00000000000E+00  0.00000000000E+00 -0.37173906975E+03  0.19361653857E+04  0.19001438011E+04 0.  0.
        5    1    3    3  502    0  0.48999605698E+03 -0.69331231125E+03  0.24863711747E+03  0.88465846684E+03  0.46999998093E+01 0.  1.
       -5    1    3    3    0  502 -0.48999605698E+03  0.69331231125E+03 -0.62037618722E+03  0.10515069189E+04  0.46999998093E+01 0. -1.
</event>
<event>
 5   0  0.1790832E-04  0.1904029E+04  0.7818609E-02  0.8652854E-01
        2   -1    0    0  501    0  0.00000000000E+00  0.00000000000E+00  0.10024674877E+04  0.10024674877E+04  0.25500000920E-02 0.  1.
       -2   -1    0    0    0  501  0.00000000000E+00  0.00000000000E+00 -0.90410066103E+03  0.90410066104E+03  0.25500000920E-02 0. -1.
    10030    2    1    2    0    0  0.00000000000E+00  0.00000000000E+00  0.98366826704E+02  0.19065681488E+04  0.19040289056E+04 0.  0.
        5    1    3    3  502    0 -0.29237793818E+03 -0.75544084675E+03 -0.45161725165E+03  0.92744593571E+03  0.46999998093E+01 0. -1.
       -5    1    3    3    0  502  0.29237793818E+03  0.75544084675E+03  0.54998407836E+03  0.97912221307E+03  0.46999998093E+01 0.  1.
</event>
<event>
 5   0  0.1790832E-04  0.1871773E+04  0.7818609E-02  0.8669036E-01
        2   -1    0    0  501    0  0.00000000000E+00  0.00000000000E+00  0.10946687127E+04  0.10946687128E+04  0.25500000920E-02 0. -1.
       -2   -1    0    0    0  501  0.00000000000E+00  0.00000000000E+00 -0.80013537905E+03  0.80013537905E+03  0.25500000920E-02 0.  1.
    10030    2    1    2    0    0  0.00000000000E+00  0.00000000000E+00  0.29453333370E+03  0.18948040918E+04  0.18717725988E+04 0.  0.
        5    1    3    3  502    0  0.41303647479E+03 -0.25063052567E+03  0.95865664618E+03  0.10735266392E+04  0.46999998093E+01 0. -1.
       -5    1    3    3    0  502 -0.41303647479E+03  0.25063052567E+03 -0.66412331248E+03  0.82127745256E+03  0.46999998093E+01 0.  1.
</event>
<event>
 5   0  0.8587082E-05  0.1921488E+04  0.7818609E-02  0.8644234E-01
       -1   -1    0    0    0  501  0.00000000000E+00  0.00000000000E+00  0.49243599310E+03  0.49243599313E+03  0.50400001928E-02 0. -1.
        1   -1    0    0  501    0  0.00000000000E+00  0.00000000000E+00 -0.18744144088E+04  0.18744144088E+04  0.50400001928E-02 0.  1.
    10030    2    1    2    0    0  0.00000000000E+00  0.00000000000E+00 -0.13819784157E+04  0.23668504019E+04  0.19214880910E+04 0.  0.
        5    1    3    3  502    0  0.78853687442E+03 -0.16839999976E+03 -0.47558902357E+02  0.80773318703E+03  0.46999998093E+01 0. -1.
       -5    1    3    3    0  502 -0.78853687442E+03  0.16839999976E+03 -0.13344195133E+04  0.15591172149E+04  0.46999998093E+01 0.  1.
</event>
<event>
 5   0  0.1799738E-04  0.1901469E+04  0.7818609E-02  0.8654125E-01
       -2   -1    0    0    0  501  0.00000000000E+00  0.00000000000E+00  0.17348553035E+04  0.17348553035E+04  0.25500000920E-02 0.  1.
        2   -1    0    0  501    0  0.00000000000E+00  0.00000000000E+00 -0.52102123337E+03  0.52102123338E+03  0.25500000920E-02 0. -1.
    10030    2    1    2    0    0  0.00000000000E+00  0.00000000000E+00  0.12138340701E+04  0.22558765369E+04  0.19014693791E+04 0.  0.
        1    1    3    3  502    0  0.70249134787E+03 -0.61317566896E+03  0.38681780513E+03  0.10095080531E+04  0.50400001928E-02 0. -1.
       -1    1    3    3    0  502 -0.70249134787E+03  0.61317566896E+03  0.82701626498E+03  0.12463684838E+04  0.50400001928E-02 0.  1.
</event>
<event>
 5   0  0.8602017E-05  0.1965619E+04  0.7818609E-02  0.8622866E-01
        1   -1    0    0  501    0  0.00000000000E+00  0.00000000000E+00  0.14834819197E+04  0.14834819197E+04  0.50400001928E-02 0. -1.
       -1   -1    0    0    0  501  0.00000000000E+00  0.00000000000E+00 -0.65111286682E+03  0.65111286684E+03  0.50400001928E-02 0.  1.
    10030    2    1    2    0    0  0.00000000000E+00  0.00000000000E+00  0.83236905288E+03  0.21345947865E+04  0.19656186463E+04 0.  0.
        2    1    3    3  502    0 -0.76340624790E+03  0.60937794541E+03  0.53406854118E+03  0.11132653710E+04  0.25500000920E-02 0.  1.
       -2    1    3    3    0  502  0.76340624790E+03 -0.60937794541E+03  0.29830051170E+03  0.10213294155E+04  0.25500000920E-02 0. -1.
</event>
<event>
 5   0  0.8602017E-05  0.1873347E+04  0.7818609E-02  0.8668238E-01
       -1   -1    0    0    0  501  0.00000000000E+00  0.00000000000E+00  0.66367142981E+03  0.66367142983E+03  0.50400001928E-02 0. -1.
        1   -1    0    0  501    0  0.00000000000E+00  0.00000000000E+00 -0.13219752134E+04  0.13219752134E+04  0.50400001928E-02 0.  1.
    10030    2    1    2    0    0  0.00000000000E+00  0.00000000000E+00 -0.65830378358E+03  0.19856466432E+04  0.18733469301E+04 0.  0.
        2    1    3    3  502    0  0.53508335730E+03  0.63400394438E+03 -0.79005413615E+03  0.11456267886E+04  0.25500000920E-02 0.  1.
       -2    1    3    3    0  502 -0.53508335730E+03 -0.63400394438E+03  0.13175035257E+03  0.84001985462E+03  0.25500000920E-02 0. -1.
</event>
<event>
 5   0  0.8681396E-05  0.1904477E+04  0.7818609E-02  0.8652631E-01
        1   -1    0    0  501    0  0.00000000000E+00  0.00000000000E+00  0.10181336969E+04  0.10181336969E+04  0.50400001928E-02 0.  1.
       -1   -1    0    0    0  501  0.00000000000E+00  0.00000000000E+00 -0.89060791543E+03  0.89060791545E+03  0.50400001928E-02 0. -1.
    10030    2    1    2    0    0  0.00000000000E+00  0.00000000000E+00  0.12752578143E+03  0.19087416123E+04  0.19044767569E+04 0.  0.
        3    1    3    3  502    0  0.28029467868E+03 -0.27162694061E+03  0.93427666764E+03  0.10125310877E+04  0.10100000352E+00 0.  1.
       -3    1    3    3    0  502 -0.28029467868E+03  0.27162694061E+03 -0.80675088621E+03  0.89621052458E+03  0.10100000352E+00 0. -1.
</event>
<event>
 5   0  0.1799738E-04  0.1905392E+04  0.7818609E-02  0.8652177E-01
       -2   -1    0    0    0  501  0.00000000000E+00  0.00000000000E+00  0.58252901722E+03  0.58252901722E+03  0.25500000920E-02 0.  1.
        2   -1    0    0  501    0  0.00000000000E+00  0.00000000000E+00 -0.15580852727E+04  0.15580852727E+04  0.25500000920E-02 0. -1.
    10030    2    1    2    0    0  0.00000000000E+00  0.00000000000E+00 -0.97555625552E+03  0.21406142900E+04  0.19053922249E+04 0.  0.
        1    1    3    3  502    0 -0.84226557133E+03  0.25011098523E+03 -0.73983473229E+02  0.88172578045E+03  0.50400001928E-02 0.  1.
       -1    1    3    3    0  502  0.84226557133E+03 -0.25011098523E+03 -0.90157278230E+03  0.12588885095E+04  0.50400001928E-02 0. -1.
</event>
<event>
 5   0  0.8567844E-05  0.1619710E+04  0.7818609E-02  0.8808530E-01
       -1   -1    0    0    0  501  0.00000000000E+00  0.00000000000E+00  0.11068038485E+04  0.11068038485E+04  0.50400001928E-02 0. -1.
        1   -1    0    0  501    0  0.00000000000E+00  0.00000000000E+00 -0.59257571893E+03  0.59257571895E+03  0.50400001928E-02 0.  1.
    10030    2    1    2    0    0  0.00000000000E+00  0.00000000000E+00  0.51422812958E+03  0.16993795675E+04  0.16197099571E+04 0.  0.
        4    1    3    3  502    0 -0.19195886381E+03 -0.40698557277E+03  0.96356721632E+03  0.10634607915E+04  0.12699999809E+01 0. -1.
       -4    1    3    3    0  502  0.19195886381E+03  0.40698557277E+03 -0.44933908674E+03  0.63591877595E+03  0.12699999809E+01 0.  1.
</event>
<event>
 5   0  0.8567844E-05  0.1884517E+04  0.7818609E-02  0.8662602E-01
        1   -1    0    0  501    0  0.00000000000E+00  0.00000000000E+00  0.14305953242E+04  0.14305953243E+04  0.50400001928E-02 0.  1.
       -1   -1    0    0    0  501  0.00000000000E+00  0.00000000000E+00 -0.62061664239E+03  0.62061664241E+03  0.50400001928E-02 0. -1.
    10030    2    1    2    0    0  0.00000000000E+00  0.00000000000E+00  0.80997868185E+03  0.20512119667E+04  0.18845171974E+04 0.  0.
        4    1    3    3  502    0 -0.19740817107E+03  0.31075376972E+03 -0.53909188772E+03  0.65280898255E+03  0.12699999809E+01 0. -1.
       -4    1    3    3    0  502  0.19740817107E+03 -0.31075376972E+03  0.13490705696E+04  0.13984029841E+04  0.12699999809E+01 0.  1.
</event>
<event>
 5   0  0.8587082E-05  0.1846965E+04  0.7818609E-02  0.8681715E-01
        1   -1    0    0  501    0  0.00000000000E+00  0.00000000000E+00  0.12043564984E+04  0.12043564984E+04  0.50400001928E-02 0.  1.
       -1   -1    0    0    0  501  0.00000000000E+00  0.00000000000E+00 -0.70811256774E+03  0.70811256776E+03  0.50400001928E-02 0. -1.
    10030    2    1    2    0    0  0.00000000000E+00  0.00000000000E+00  0.49624393061E+03  0.19124690661E+04  0.18469650485E+04 0.  0.
        5    1    3    3  502    0 -0.72339681717E+03  0.19248775229E+03  0.80808150648E+03  0.11015317975E+04  0.46999998093E+01 0.  1.
       -5    1    3    3    0  502  0.72339681717E+03 -0.19248775229E+03 -0.31183757587E+03  0.81093726859E+03  0.46999998093E+01 0. -1.
</event>
<event>
 5   0  0.1658711E-04  0.2130754E+04  0.7818609E-02  0.8547816E-01
       -2   -1    0    0    0  501  0.00000000000E+00  0.00000000000E+00  0.84881641000E+03  0.84881641000E+03  0.25500000920E-02 0.  1.
        2   -1    0    0  501    0  0.00000000000E+00  0.00000000000E+00 -0.13371891818E+04  0.13371891818E+04  0.25500000920E-02 0. -1.
    10030    2    1    2    0    0  0.00000000000E+00  0.00000000000E+00 -0.48837277175E+03  0.21860055918E+04  0.21307539705E+04 0.  0.
        2    1    3    3  502    0  0.10181761725E+04  0.83360632580E+01 -0.56580524339E+03  0.11648552621E+04  0.25500000920E-02 0. -1.
       -2    1    3    3    0  502 -0.10181761725E+04 -0.83360632580E+01  0.77432471637E+02  0.10211503297E+04  0.25500000920E-02 0.  1.
</event>
<event>
 5   0  0.1810569E-04  0.1922866E+04  0.7818609E-02  0.8643557E-01
        2   -1    0    0  501    0  0.00000000000E+00  0.00000000000E+00  0.96722681932E+03  0.96722681933E+03  0.25500000920E-02 0. -1.
       -2   -1    0    0    0  501  0.00000000000E+00  0.00000000000E+00 -0.95567422495E+03  0.95567422496E+03  0.25500000920E-02 0.  1.
    10030    2    1    2    0    0  0.00000000000E+00  0.00000000000E+00  0.11552594368E+02  0.19229010443E+04  0.19228663406E+04 0.  0.
        4    1    3    3  502    0  0.66174668112E+03  0.38108767427E+02  0.70220194735E+03  0.96563457678E+03  0.12699999809E+01 0. -1.
       -4    1    3    3    0  502 -0.66174668112E+03 -0.38108767427E+02 -0.69064935298E+03  0.95726646750E+03  0.12699999809E+01 0.  1.
</event>
<event>
 5   0  0.1790832E-04  0.1902909E+04  0.7818609E-02  0.8653410E-01
       -2   -1    0    0    0  501  0.00000000000E+00  0.00000000000E+00  0.64813110012E+03  0.64813110013E+03  0.25500000920E-02 0. -1.
        2   -1    0    0  501    0  0.00000000000E+00  0.00000000000E+00 -0.13967326089E+04  0.13967326089E+04  0.25500000920E-02 0.  1.
    10030    2    1    2    0    0  0.00000000000E+00  0.00000000000E+00 -0.74860150880E+03  0.20448637091E+04  0.19029091859E+04 0.  0.
        5    1    3    3  502    0 -0.37542400186E+03 -0.50661461924E+03  0.39134021262E+03  0.74213934380E+03  0.46999998093E+01 0. -1.
       -5    1    3    3    0  502  0.37542400186E+03  0.50661461924E+03 -0.11399417214E+04  0.13027243653E+04  0.46999998093E+01 0.  1.
</event>
<event>
 5   0  0.1765328E-04  0.1925172E+04  0.7818609E-02  0.8642427E-01
        2   -1    0    0  501    0  0.00000000000E+00  0.00000000000E+00  0.94660450869E+03  0.94660450869E+03  0.25500000920E-02 0. -1.
       -2   -1    0    0    0  501  0.00000000000E+00  0.00000000000E+00 -0.97883753971E+03  0.97883753971E+03  0.25500000920E-02 0.  1.
    10030    2    1    2    0    0  0.00000000000E+00  0.00000000000E+00 -0.32233031017E+02  0.19254420484E+04  0.19251722296E+04 0.  0.
        3    1    3    3  502    0 -0.30183041286E+03 -0.81943409795E+03 -0.42114015936E+03  0.96950135793E+03  0.10100000352E+00 0.  1.
       -3    1    3    3    0  502  0.30183041286E+03  0.81943409795E+03  0.38890712835E+03  0.95594069047E+03  0.10100000352E+00 0. -1.
</event>
<event>
 5   0  0.1790832E-04  0.1916993E+04  0.7818609E-02  0.8646444E-01
        2   -1    0    0  501    0  0.00000000000E+00  0.00000000000E+00  0.87480753751E+03  0.87480753751E+03  0.25500000920E-02 0.  1.
       -2   -1    0    0    0  501  0.00000000000E+00  0.00000000000E+00 -0.10501913575E+04  0.10501913575E+04  0.25500000920E-02 0. -1.
    10030    2    1    2    0    0  0.00000000000E+00  0.00000000000E+00 -0.17538382003E+03  0.19249988951E+04  0.19169927651E+04 0.  0.
        5    1    3    3  502    0 -0.17275915317E+03 -0.71855905722E+03 -0.70058543100E+03  0.10183392754E+04  0.46999998093E+01 0.  1.
       -5    1    3    3    0  502  0.17275915317E+03  0.71855905722E+03  0.52520161097E+03  0.90665961964E+03  0.46999998093E+01 0. -1.
</event>
<event>
 5   0  0.1658711E-04  0.1881410E+04  0.7818609E-02  0.8664166E-01
        2   -1    0    0  501    0  0.00000000000E+00  0.00000000000E+00  0.97731386018E+03  0.97731386019E+03  0.25500000920E-02 0.  1.
       -2   -1    0    0    0  501  0.00000000000E+00  0.00000000000E+00 -0.90546747478E+03  0.90546747479E+03  0.25500000920E-02 0. -1.
    10030    2    1    2    0    0  0.00000000000E+00  0.00000000000E+00  0.71846385402E+02  0.18827813350E+04  0.18814100170E+04 0.  0.
        2    1    3    3  502    0  0.69156490485E+03 -0.81433131116E+02  0.66886545133E+03  0.96554355907E+03  0.25500000920E-02 0.  1.
       -2    1    3    3    0  502 -0.69156490485E+03  0.81433131116E+02 -0.59701906593E+03  0.91723777591E+03  0.25500000920E-02 0. -1.
</event>
<event>
 5   0  0.8905646E-05  0.1891203E+04  0.7818609E-02  0.8659248E-01
       -1   -1    0    0    0  501  0.00000000000E+00  0.00000000000E+00  0.58218491652E+03  0.58218491655E+03  0.50400001928E-02 0.  1.
        1   -1    0    0  501    0  0.00000000000E+00  0.00000000000E+00 -0.15358731792E+04  0.15358731792E+04  0.50400001928E-02 0. -1.
    10030    2    1    2    0    0  0.00000000000E+00  0.00000000000E+00 -0.95368826265E+03  0.21180580957E+04  0.18912030019E+04 0.  0.
        1    1    3    3  502    0  0.74380362036E+03 -0.50443437665E+03 -0.80616421445E+03  0.12073104848E+04  0.50400001928E-02 0. -1.
       -1    1    3    3    0  502 -0.74380362036E+03  0.50443437665E+03 -0.14752404820E+03  0.91074761093E+03  0.50400001928E-02 0.  1.
</event>
<event>
 5   0  0.8567844E-05  0.1871897E+04  0.7818609E-02  0.8668973E-01
        1   -1    0    0  501    0  0.00000000000E+00  0.00000000000E+00  0.13519872909E+04  0.13519872909E+04  0.50400001928E-02 0.  1.
       -1   -1    0    0    0  501  0.00000000000E+00  0.00000000000E+00 -0.64793443935E+03  0.64793443937E+03  0.50400001928E-02 0. -1.
    10030    2    1    2    0    0  0.00000000000E+00  0.00000000000E+00  0.70405285154E+03  0.19999217303E+04  0.18718965007E+04 0.  0.
        4    1    3    3  502    0  0.30283322533E+03 -0.74131925049E+03  0.86965755805E+03  0.11821878339E+04  0.12699999809E+01 0.  1.
       -4    1    3    3    0  502 -0.30283322533E+03  0.74131925049E+03 -0.16560470651E+03  0.81773389634E+03  0.12699999809E+01 0. -1.
</event>
<event>
 5   0  0.1810569E-04  0.1900504E+04  0.7818609E-02  0.8654606E-01
        2   -1    0    0  501    0  0.00000000000E+00  0.00000000000E+00  0.10515045218E+04  0.10515045218E+04  0.25500000920E-02 0. -1.
       -2   -1    0    0    0  501  0.00000000000E+00  0.00000000000E+00 -0.85874900014E+03  0.85874900014E+03  0.25500000920E-02 0.  1.
    10030    2    1    2    0    0  0.00000000000E+00  0.00000000000E+00  0.19275552168E+03  0.19102535220E+04  0.19005035720E+04 0.  0.
        4    1    3    3  502    0  0.40988835532E+03  0.51195226233E+02 -0.76378552053E+03  0.86833135916E+03  0.12699999809E+01 0.  1.
       -4    1    3    3    0  502 -0.40988835532E+03 -0.51195226233E+02  0.95654104221E+03  0.10419221628E+04  0.12699999809E+01 0. -1.
</event>
<event>
 5   0  0.1810569E-04  0.1907824E+04  0.7818609E-02  0.8650972E-01
        2   -1    0    0  501    0  0.00000000000E+00  0.00000000000E+00  0.18589991641E+04  0.18589991641E+04  0.25500000920E-02 0. -1.
       -2   -1    0    0    0  501  0.00000000000E+00  0.00000000000E+00 -0.48948277529E+03  0.48948277530E+03  0.25500000920E-02 0.  1.
    10030    2    1    2    0    0  0.00000000000E+00  0.00000000000E+00  0.13695163888E+04  0.23484819394E+04  0.19078239647E+04 0.  0.
        4    1    3    3  502    0 -0.75885085651E+03 -0.47131556473E+03  0.27288103329E+03  0.93405495299E+03  0.12699999809E+01 0.  1.
       -4    1    3    3    0  502  0.75885085651E+03  0.47131556473E+03  0.10966353555E+04  0.14144269864E+04  0.12699999809E+01 0. -1.
</event>
<event>
 5   0  0.8602017E-05  0.1989182E+04  0.7818609E-02  0.8611695E-01
        1   -1    0    0  501    0  0.00000000000E+00  0.00000000000E+00  0.12971984156E+04  0.12971984156E+04  0.50400001928E-02 0.  1.
       -1   -1    0    0    0  501  0.00000000000E+00  0.00000000000E+00 -0.76257483588E+03  0.76257483589E+03  0.50400001928E-02 0. -1.
    10030    2    1    2    0    0  0.00000000000E+00  0.00000000000E+00  0.53462357975E+03  0.20597732515E+04  0.19891816095E+04 0.  0.
        2    1    3    3  502    0  0.81751738016E+03  0.17354655563E+03 -0.29104353471E+03  0.88496294439E+03  0.25500000920E-02 0. -1.
       -2    1    3    3    0  502 -0.81751738016E+03 -0.17354655563E+03  0.82566711446E+03  0.11748103071E+04  0.25500000920E-02 0.  1.
</event>
<event>
 5   0  0.8602017E-05  0.1923266E+04  0.7818609E-02  0.8643362E-01
        1   -1    0    0  501    0  0.00000000000E+00  0.00000000000E+00  0.15722825315E+04  0.15722825316E+04  0.50400001928E-02 0.  1.
       -1   -1    0    0    0  501  0.00000000000E+00  0.00000000000E+00 -0.58814976876E+03  0.58814976878E+03  0.50400001928E-02 0. -1.
    10030    2    1    2    0    0  0.00000000000E+00  0.00000000000E+00  0.98413276279E+03  0.21604323003E+04  0.19232655640E+04 0.  0.
        2    1    3    3  502    0  0.14627572969E+03 -0.19189847669E+03  0.15377244608E+04  0.15565404370E+04  0.25500000920E-02 0.  1.
       -2    1    3    3    0  502 -0.14627572969E+03  0.19189847669E+03 -0.55359169806E+03  0.60389186335E+03  0.25500000920E-02 0. -1.
</event>
<event>
 5   0  0.1658711E-04  0.1879551E+04  0.7818609E-02  0.8665103E-01
        2   -1    0    0  501    0  0.00000000000E+00  0.00000000000E+00  0.15081344325E+04  0.15081344325E+04  0.25500000920E-02 0. -1.
       -2   -1    0    0    0  501  0.00000000000E+00  0.00000000000E+00 -0.58560969158E+03  0.58560969159E+03  0.25500000920E-02 0.  1.
    10030    2    1    2    0    0  0.00000000000E+00  0.00000000000E+00  0.92252474088E+03  0.20937441241E+04  0.18795511590E+04 0.  0.
        2    1    3    3  502    0 -0.14143433458E+03 -0.77746001039E+03  0.10278840477E+04  0.12965312778E+04  0.25500000920E-02 0. -1.
       -2    1    3    3    0  502  0.14143433458E+03  0.77746001039E+03 -0.10535930679E+03  0.79721284629E+03  0.25500000920E-02 0.  1.
</event>
<event>
 5   0  0.1765328E-04  0.1889801E+04  0.7818609E-02  0.8659950E-01
        2   -1    0    0  501    0  0.00000000000E+00  0.00000000000E+00  0.10585321374E+04  0.10585321375E+04  0.25500000920E-02 0.  1.
       -2   -1    0    0    0  501  0.00000000000E+00  0.00000000000E+00 -0.84346681461E+03  0.84346681461E+03  0.25500000920E-02 0. -1.
    10030    2    1    2    0    0  0.00000000000E+00  0.00000000000E+00  0.21506532284E+03  0.19019989521E+04  0.18898007621E+04 0.  0.
        3    1    3    3  502    0  0.73516115025E+03 -0.54494429731E+03 -0.12938113408E+03  0.92421084828E+03  0.10100000352E+00 0. -1.
       -3    1    3    3    0  502 -0.73516115025E+03  0.54494429731E+03  0.34444645692E+03  0.97778810379E+03  0.10100000352E+00 0.  1.
</event>
<event>
 5   0  0.1658711E-04  0.1877249E+04  0.7818609E-02  0.8666264E-01
        2   -1    0    0  501    0  0.00000000000E+00  0.00000000000E+00  0.65784683793E+03  0.65784683793E+03  0.25500000920E-02 0. -1.
       -2   -1    0    0    0  501  0.00000000000E+00  0.00000000000E+00 -0.13392421267E+04  0.13392421267E+04  0.25500000920E-02 0.  1.
    10030    2    1    2    0    0  0.00000000000E+00  0.00000000000E+00 -0.68139528878E+03  0.19970889646E+04  0.18772492624E+04 0.  0.
        2    1    3    3  502    0  0.38139394587E+03  0.47534655342E+03  0.41873698519E+03  0.73942974688E+03  0.25500000920E-02 0. -1.
       -2    1    3    3    0  502 -0.38139394587E+03 -0.47534655342E+03 -0.11001322740E+04  0.12576592178E+04  0.25500000920E-02 0.  1.
</event>
<event>
 5   0  0.1799738E-04  0.1900252E+04  0.7818609E-02  0.8654731E-01
        2   -1    0    0  501    0  0.00000000000E+00  0.00000000000E+00  0.62922909373E+03  0.62922909374E+03  0.25500000920E-02 0.  1.
       -2   -1    0    0    0  501  0.00000000000E+00  0.00000000000E+00 -0.14346750271E+04  0.14346750271E+04  0.25500000920E-02 0. -1.
    10030    2    1    2    0    0  0.00000000000E+00  0.00000000000E+00 -0.80544593336E+03  0.20639041208E+04  0.19002518434E+04 0.  0.
        1    1    3    3  502    0 -0.10767591729E+03  0.74647191373E+03  0.22490562947E+03  0.78701776558E+03  0.50400001928E-02 0.  1.
       -1    1    3    3    0  502  0.10767591729E+03 -0.74647191373E+03 -0.10303515628E+04  0.12768863552E+04  0.50400001928E-02 0. -1.
</event>
<event>
 5   0  0.8587082E-05  0.1913799E+04  0.7818609E-02  0.8648018E-01
       -1   -1    0    0    0  501  0.00000000000E+00  0.00000000000E+00  0.61279866295E+03  0.61279866297E+03  0.50400001928E-02 0.  1.
        1   -1    0    0  501    0  0.00000000000E+00  0.00000000000E+00 -0.14942206455E+04  0.14942206455E+04  0.50400001928E-02 0. -1.
    10030    2    1    2    0    0  0.00000000000E+00  0.00000000000E+00 -0.88142198255E+03  0.21070193085E+04  0.19137987499E+04 0.  0.
        5    1    3    3  502    0 -0.35363116907E+03  0.14042683687E+03 -0.14073401645E+04  0.14578762392E+04  0.46999998093E+01 0. -1.
       -5    1    3    3    0  502  0.35363116907E+03 -0.14042683687E+03  0.52591818196E+03  0.64914306926E+03  0.46999998093E+01 0.  1.
</event>
<event>
 5   0  0.1790832E-04  0.1906555E+04  0.7818609E-02  0.8651601E-01
       -2   -1    0    0    0  501  0.00000000000E+00  0.00000000000E+00  0.64814474109E+03  0.64814474109E+03  0.25500000920E-02 0.  1.
        2   -1    0    0  501    0  0.00000000000E+00  0.00000000000E+00 -0.14020598165E+04  0.14020598165E+04  0.25500000920E-02 0. -1.
    10030    2    1    2    0    0  0.00000000000E+00  0.00000000000E+00 -0.75391507539E+03  0.20502045576E+04  0.19065546903E+04 0.  0.
        5    1    3    3  502    0 -0.31002489572E+03  0.80218233988E+03 -0.81916333943E+03  0.11877131847E+04  0.46999998093E+01 0. -1.
       -5    1    3    3    0  502  0.31002489572E+03 -0.80218233988E+03  0.65248264038E+02  0.86249137290E+03  0.46999998093E+01 0.  1.
</event>
<event>
 5   0  0.1810569E-04  0.1925785E+04  0.7818609E-02  0.8642127E-01
        2   -1    0    0  501    0  0.00000000000E+00  0.00000000000E+00  0.13816193100E+04  0.13816193100E+04  0.25500000920E-02 0. -1.
       -2   -1    0    0    0  501  0.00000000000E+00  0.00000000000E+00 -0.67106925467E+03  0.67106925467E+03  0.25500000920E-02 0.  1.
    10030    2    1    2    0    0  0.00000000000E+00  0.00000000000E+00  0.71055005531E+03  0.20526885647E+04  0.19257852846E+04 0.  0.
        4    1    3    3  502    0  0.68069705288E+03 -0.60373777372E+03  0.19368902887E+02  0.91006842848E+03  0.12699999809E+01 0. -1.
       -4    1    3    3    0  502 -0.68069705288E+03  0.60373777372E+03  0.69118115242E+03  0.11426201362E+04  0.12699999809E+01 0.  1.
</event>
<event>
 5   0  0.1658711E-04  0.2012824E+04  0.7818609E-02  0.8600649E-01
       -2   -1    0    0    0  501  0.00000000000E+00  0.00000000000E+00  0.11095294203E+04  0.11095294203E+04  0.25500000920E-02 0.  1.
        2   -1    0    0  501    0  0.00000000000E+00  0.00000000000E+00 -0.91287769694E+03  0.91287769694E+03  0.25500000920E-02 0. -1.
    10030    2    1    2    0    0  0.00000000000E+00  0.00000000000E+00  0.19665172335E+03  0.20224071172E+04  0.20128235510E+04 0.  0.
        2    1    3    3  502    0  0.74888762554E+03  0.47600245078E+03 -0.37875447605E+03  0.96481395200E+03  0.25500000920E-02 0. -1.
       -2    1    3    3    0  502 -0.74888762554E+03 -0.47600245078E+03  0.57540619941E+03  0.10575931652E+04  0.25500000920E-02 0.  1.
</event>
<event>
 5   0  0.8681396E-05  0.1898333E+04  0.7818609E-02  0.8655686E-01
       -1   -1    0    0    0  501  0.00000000000E+00  0.00000000000E+00  0.71008132722E+03  0.71008132724E+03  0.50400001928E-02 0.  1.
        1   -1    0    0  501    0  0.00000000000E+00  0.00000000000E+00 -0.12687524499E+04  0.12687524499E+04  0.50400001928E-02 0. -1.
    10030    2    1    2    0    0  0.00000000000E+00  0.00000000000E+00 -0.55867112266E+03  0.19788337771E+04  0.18983333991E+04 0.  0.
        3    1    3    3  502    0  0.80469308951E+03 -0.43040989688E+03 -0.72421519578E+01  0.91259854624E+03  0.10100000352E+00 0.  1.
       -3    1    3    3    0  502 -0.80469308951E+03  0.43040989688E+03 -0.55142897070E+03  0.10662352309E+04  0.10100000352E+00 0. -1.
</event>
<event>
 5   0  0.8587082E-05  0.1706965E+04  0.7818609E-02  0.8757402E-01
        1   -1    0    0  501    0  0.00000000000E+00  0.00000000000E+00  0.16206602700E+04  0.16206602700E+04  0.50400001928E-02 0.  1.
       -1   -1    0    0    0  501  0.00000000000E+00  0.00000000000E+00 -0.44946632078E+03  0.44946632081E+03  0.50400001928E-02 0. -1.
    10030    2    1    2    0    0  0.00000000000E+00  0.00000000000E+00  0.11711939492E+04  0.20701265908E+04  0.17069648020E+04 0.  0.
        5    1    3    3  502    0  0.72772142702E+03  0.44084272783E+03  0.66685443396E+03  0.10810354814E+04  0.46999998093E+01 0. -1.
       -5    1    3    3    0  502 -0.72772142702E+03 -0.44084272783E+03  0.50433951526E+03  0.98909110939E+03  0.46999998093E+01 0.  1.
</event>
<event>
 5   0  0.1799738E-04  0.1747351E+04  0.7818609E-02  0.8734810E-01
        2   -1    0    0  501    0  0.00000000000E+00  0.00000000000E+00  0.12760466932E+04  0.12760466932E+04  0.25500000920E-02 0. -1.
       -2   -1    0    0    0  501  0.00000000000E+00  0.00000000000E+00 -0.59818251736E+03  0.59818251736E+03  0.25500000920E-02 0.  1.
    10030    2    1    2    0    0  0.00000000000E+00  0.00000000000E+00  0.67786417583E+03  0.18742292106E+04  0.17473509358E+04 0.  0.
        1    1    3    3  502    0 -0.11045699849E+03 -0.75591551330E+03 -0.11575893092E+03  0.77266366672E+03  0.50400001928E-02 0.  1.
       -1    1    3    3    0  502  0.11045699849E+03  0.75591551330E+03  0.79362310676E+03  0.11015655438E+04  0.50400001928E-02 0. -1.
</event>
<event>
 5   0  0.1790832E-04  0.1923220E+04  0.7818609E-02  0.8643384E-01
       -2   -1    0    0    0  501  0.00000000000E+00  0.00000000000E+00  0.45584931778E+03  0.45584931779E+03  0.25500000920E-02 0.  1.
        2   -1    0    0  501    0  0.00000000000E+00  0.00000000000E+00 -0.20285073387E+04  0.20285073387E+04  0.25500000920E-02 0. -1.
    10030    2    1    2    0    0  0.00000000000E+00  0.00000000000E+00 -0.15726580209E+04  0.24843566564E+04  0.19232198901E+04 0.  0.
        5    1    3    3  502    0  0.71372479024E+03  0.51269514092E+03 -0.12906358821E+04  0.15614168098E+04  0.46999998093E+01 0.  1.
       -5    1    3    3    0  502 -0.71372479024E+03 -0.51269514092E+03 -0.28202213873E+03  0.92293984661E+03  0.46999998093E+01 0. -1.
</event>
<event>
 5   0  0.1790832E-04  0.1929149E+04  0.7818609E-02  0.8640482E-01
       -2   -1    0    0    0  501  0.00000000000E+00  0.00000000000E+00  0.44164402295E+03  0.44164402296E+03  0.25500000920E-02 0. -1.
        2   -1    0    0  501    0  0.00000000000E+00  0.00000000000E+00 -0.21066829418E+04  0.21066829418E+04  0.25500000920E-02 0.  1.
    10030    2    1    2    0    0  0.00000000000E+00  0.00000000000E+00 -0.16650389189E+04  0.25483269648E+04  0.19291489621E+04 0.  0.
        5    1    3    3  502    0  0.17846056524E+03 -0.12590624714E+03  0.40853644431E+03  0.46327602219E+03  0.46999998093E+01 0. -1.
       -5    1    3    3    0  502 -0.17846056524E+03  0.12590624714E+03 -0.20735753632E+04  0.20850509426E+04  0.46999998093E+01 0.  1.
</event>
<event>
 5   0  0.8567844E-05  0.1897583E+04  0.7818609E-02  0.8656060E-01
       -1   -1    0    0    0  501  0.00000000000E+00  0.00000000000E+00  0.68814458858E+03  0.68814458860E+03  0.50400001928E-02 0.  1.
        1   -1    0    0  501    0  0.00000000000E+00  0.00000000000E+00 -0.13081633414E+04  0.13081633414E+04  0.50400001928E-02 0. -1.
    10030    2    1    2    0    0  0.00000000000E+00  0.00000000000E+00 -0.62001875278E+03  0.19963079300E+04  0.18975832254E+04 0.  0.
        4    1    3    3  502    0  0.71948719983E+03  0.70662323419E+02 -0.95642718657E+03  0.11989201686E+04  0.12699999809E+01 0. -1.
       -4    1    3    3    0  502 -0.71948719983E+03 -0.70662323419E+02  0.33640843379E+03  0.79738776132E+03  0.12699999809E+01 0.  1.
</event>
<event>
 5   0  0.8567844E-05  0.1904168E+04  0.7818609E-02  0.8652785E-01
        1   -1    0    0  501    0  0.00000000000E+00  0.00000000000E+00  0.12766409133E+04  0.12766409133E+04  0.50400001928E-02 0.  1.
       -1   -1    0    0    0  501  0.00000000000E+00  0.00000000000E+00 -0.71003824864E+03  0.71003824866E+03  0.50400001928E-02 0. -1.
    10030    2    1    2    0    0  0.00000000000E+00  0.00000000000E+00  0.56660266469E+03  0.19866791620E+04  0.19041679320E+04 0.  0.
        4    1    3    3  502    0  0.48430708074E+03 -0.70331453365E+03  0.72256461425E+03  0.11186178598E+04  0.12699999809E+01 0.  1.
       -4    1    3    3    0  502 -0.48430708074E+03  0.70331453365E+03 -0.15596194956E+03  0.86806130216E+03  0.12699999809E+01 0. -1.
</event>
<event>
 5   0  0.8602017E-05  0.1908469E+04  0.7818609E-02  0.8650652E-01
       -1   -1    0    0    0  501  0.00000000000E+00  0.00000000000E+00  0.77390755173E+03  0.77390755175E+03  0.50400001928E-02 0. -1.
        1   -1    0    0  501    0  0.00000000000E+00  0.00000000000E+00 -0.11765790745E+04  0.11765790745E+04  0.50400001928E-02 0.  1.
    10030    2    1    2    0    0  0.00000000000E+00  0.00000000000E+00 -0.40267152278E+03  0.19504866263E+04  0.19084689476E+04 0.  0.
        2    1    3    3  502    0  0.19141680756E+03 -0.14682076626E+03 -0.11448992251E+04  0.11700388742E+04  0.25500000920E-02 0.  1.
       -2    1    3    3    0  502 -0.19141680756E+03  0.14682076626E+03  0.74222770229E+03  0.78044775205E+03  0.25500000920E-02 0. -1.
</event>
<event>
 5   0  0.1799738E-04  0.1882141E+04  0.7818609E-02  0.8663797E-01
        2   -1    0    0  501    0  0.00000000000E+00  0.00000000000E+00  0.16828425938E+04  0.16828425938E+04  0.25500000920E-02 0.  1.
       -2   -1    0    0    0  501  0.00000000000E+00  0.00000000000E+00 -0.52626064662E+03  0.52626064663E+03  0.25500000920E-02 0. -1.
    10030    2    1    2    0    0  0.00000000000E+00  0.00000000000E+00  0.11565819472E+04  0.22091032405E+04  0.18821411548E+04 0.  0.
        1    1    3    3  502    0 -0.52569695733E+03  0.70833738334E+03  0.19343544546E+03  0.90305947266E+03  0.50400001928E-02 0. -1.
       -1    1    3    3    0  502  0.52569695733E+03 -0.70833738334E+03  0.96314650176E+03  0.13060437678E+04  0.50400001928E-02 0.  1.
</event>
<event>
 5   0  0.1790832E-04  0.1876085E+04  0.7818609E-02  0.8666853E-01
        2   -1    0    0  501    0  0.00000000000E+00  0.00000000000E+00  0.19083876320E+04  0.19083876320E+04  0.25500000920E-02 0.  1.
       -2   -1    0    0    0  501  0.00000000000E+00  0.00000000000E+00 -0.46108249783E+03  0.46108249784E+03  0.25500000920E-02 0. -1.
    10030    2    1    2    0    0  0.00000000000E+00  0.00000000000E+00  0.14473051341E+04  0.23694701298E+04  0.18760854311E+04 0.  0.
        5    1    3    3  502    0  0.90347174526E+03  0.19456880916E+02  0.10413187997E+04  0.13787699943E+04  0.46999998093E+01 0. -1.
       -5    1    3    3    0  502 -0.90347174526E+03 -0.19456880916E+02  0.40598633447E+03  0.99070013550E+03  0.46999998093E+01 0.  1.
</event>
<event>
 5   0  0.1765328E-04  0.1884022E+04  0.7818609E-02  0.8662851E-01
       -2   -1    0    0    0  501  0.00000000000E+00  0.00000000000E+00  0.12949152020E+04  0.12949152020E+04  0.25500000920E-02 0.  1.
        2   -1    0    0  501    0  0.00000000000E+00  0.00000000000E+00 -0.68528402651E+03  0.68528402651E+03  0.25500000920E-02 0. -1.
    10030    2    1    2    0    0  0.00000000000E+00  0.00000000000E+00  0.60963117553E+03  0.19801992286E+04  0.18840219783E+04 0.  0.
        3    1    3    3  502    0  0.41230471210E+03  0.55712491223E+03 -0.36571847869E+03  0.78366661235E+03  0.10100000352E+00 0. -1.
       -3    1    3    3    0  502 -0.41230471210E+03 -0.55712491223E+03  0.97534965422E+03  0.11965326162E+04  0.10100000352E+00 0.  1.
</event>
<event>
 5   0  0.8567844E-05  0.1917761E+04  0.7818609E-02  0.8646066E-01
        1   -1    0    0  501    0  0.00000000000E+00  0.00000000000E+00  0.14919120515E+04  0.14919120515E+04  0.50400001928E-02 0.  1.
       -1   -1    0    0    0  501  0.00000000000E+00  0.00000000000E+00 -0.61629089221E+03  0.61629089223E+03  0.50400001928E-02 0. -1.
    10030    2    1    2    0    0  0.00000000000E+00  0.00000000000E+00  0.87562115932E+03  0.21082029438E+04  0.19177609959E+04 0.  0.
        4    1    3    3  502    0 -0.49390985166E+03  0.85542347404E+02 -0.46078968548E+03  0.68087677440E+03  0.12699999809E+01 0. -1.
       -4    1    3    3    0  502  0.49390985166E+03 -0.85542347404E+02  0.13364108448E+04  0.14273261694E+04  0.12699999809E+01 0.  1.
</event>
<event>
 5   0  0.1799738E-04  0.1898675E+04  0.7818609E-02  0.8655516E-01
       -2   -1    0    0    0  501  0.00000000000E+00  0.00000000000E+00  0.72953495591E+03  0.72953495592E+03  0.25500000920E-02 0. -1.
        2   -1    0    0  501    0  0.00000000000E+00  0.00000000000E+00 -0.12353642682E+04  0.12353642682E+04  0.25500000920E-02 0.  1.
    10030    2    1    2    0    0  0.00000000000E+00  0.00000000000E+00 -0.50582931232E+03  0.19648992242E+04  0.18986747136E+04 0.  0.
        1    1    3    3  502    0  0.72603711550E+03  0.50200908017E+03 -0.61452822158E+03  0.10755407685E+04  0.50400001928E-02 0.  1.
       -1    1    3    3    0  502 -0.72603711550E+03 -0.50200908017E+03  0.10869890926E+03  0.88935845561E+03  0.50400001928E-02 0. -1.
</event>
<event>
 5   0  0.8567844E-05  0.1918236E+04  0.7818609E-02  0.8645832E-01
        1   -1    0    0  501    0  0.00000000000E+00  0.00000000000E+00  0.52250339884E+03  0.52250339887E+03  0.50400001928E-02 0. -1.
       -1   -1    0    0    0  501  0.00000000000E+00  0.00000000000E+00 -0.17605768803E+04  0.17605768803E+04  0.50400001928E-02 0.  1.
    10030    2    1    2    0    0  0.00000000000E+00  0.00000000000E+00 -0.12380734814E+04  0.22830802792E+04  0.19182360688E+04 0.  0.
        4    1    3    3  502    0  0.53631382921E+03  0.31150816140E+03  0.25170980627E+03  0.66934990662E+03  0.12699999809E+01 0. -1.
       -4    1    3    3    0  502 -0.53631382921E+03 -0.31150816140E+03 -0.14897832877E+04  0.16137303725E+04  0.12699999809E+01 0.  1.
</event>
<event>
 5   0  0.1765328E-04  0.1892397E+04  0.7818609E-02  0.8658650E-01
       -2   -1    0    0    0  501  0.00000000000E+00  0.00000000000E+00  0.46286108015E+03  0.46286108016E+03  0.25500000920E-02 0. -1.
        2   -1    0    0  501    0  0.00000000000E+00  0.00000000000E+00 -0.19342555397E+04  0.19342555397E+04  0.25500000920E-02 0.  1.
    10030    2    1    2    0    0  0.00000000000E+00  0.00000000000E+00 -0.14713944595E+04  0.23971166199E+04  0.18923970074E+04 0.  0.
        3    1    3    3  502    0  0.54118182925E+03 -0.46308362336E+03 -0.15246927156E+04  0.16828583131E+04  0.10100000352E+00 0.  1.
       -3    1    3    3    0  502 -0.54118182925E+03  0.46308362336E+03  0.53298256088E+02  0.71425830680E+03  0.10100000352E+00 0. -1.
</event>
<event>
 5   0  0.1810569E-04  0.1892542E+04  0.7818609E-02  0.8658578E-01
       -2   -1    0    0    0  501  0.00000000000E+00  0.00000000000E+00  0.49865969224E+03  0.49865969224E+03  0.25500000920E-02 0.  1.
        2   -1    0    0  501    0  0.00000000000E+00  0.00000000000E+00 -0.17956714165E+04  0.17956714165E+04  0.25500000920E-02 0. -1.
    10030    2    1    2    0    0  0.00000000000E+00  0.00000000000E+00 -0.12970117242E+04  0.22943311087E+04  0.18925421590E+04 0.  0.
        4    1    3    3  502    0 -0.10729554880E+03  0.79572884279E+03 -0.41470186226E+02  0.80400131548E+03  0.12699999809E+01 0.  1.
       -4    1    3    3    0  502  0.10729554880E+03 -0.79572884279E+03 -0.12555415380E+04  0.14903297932E+04  0.12699999809E+01 0. -1.
</event>
<event>
 5   0  0.8905646E-05  0.1855485E+04  0.7818609E-02  0.8677337E-01
        1   -1    0    0  501    0  0.00000000000E+00  0.00000000000E+00  0.16854800266E+04  0.16854800266E+04  0.50400001928E-02 0. -1.
       -1   -1    0    0    0  501  0.00000000000E+00  0.00000000000E+00 -0.51065917271E+03  0.51065917274E+03  0.50400001928E-02 0.  1.
    10030    2    1    2    0    0  0.00000000000E+00  0.00000000000E+00  0.11748208539E+04  0.21961391993E+04  0.18554846656E+04 0.  0.
        1    1    3    3  502    0 -0.43099633138E+03  0.66298685263E+03  0.13158538832E+02  0.79087454858E+03  0.50400001928E-02 0.  1.
       -1    1    3    3    0  502  0.43099633138E+03 -0.66298685263E+03  0.11616623150E+04  0.14052646507E+04  0.50400001928E-02 0. -1.
</event>
<event>
 5   0  0.1799738E-04  0.1905079E+04  0.7818609E-02  0.8652332E-01
       -2   -1    0    0    0  501  0.00000000000E+00  0.00000000000E+00  0.41082057141E+03  0.41082057142E+03  0.25500000920E-02 0.  1.
        2   -1    0    0  501    0  0.00000000000E+00  0.00000000000E+00 -0.22085834834E+04  0.22085834834E+04  0.25500000920E-02 0. -1.
    10030    2    1    2    0    0  0.00000000000E+00  0.00000000000E+00 -0.17977629120E+04  0.26194040549E+04  0.19050790311E+04 0.  0.
        1    1    3    3  502    0 -0.68032364003E+03 -0.59160763444E+03 -0.47622618969E+03  0.10196230833E+04  0.50400001928E-02 0. -1.
       -1    1    3    3    0  502  0.68032364003E+03  0.59160763444E+03 -0.13215367223E+04  0.15997809715E+04  0.50400001928E-02 0.  1.
</event>
<event>
 5   0  0.8587082E-05  0.1908665E+04  0.7818609E-02  0.8650555E-01
       -1   -1    0    0    0  501  0.00000000000E+00  0.00000000000E+00  0.49956331218E+03  0.49956331220E+03  0.50400001928E-02 0. -1.
        1   -1    0    0  501    0  0.00000000000E+00  0.00000000000E+00 -0.18230925347E+04  0.18230925347E+04  0.50400001928E-02 0.  1.
    10030    2    1    2    0    0  0.00000000000E+00  0.00000000000E+00 -0.13235292225E+04  0.23226558469E+04  0.19086646065E+04 0.  0.
        5    1    3    3  502    0  0.14851089223E+03 -0.94262295865E+03 -0.67587897237E+03  0.11693707721E+04  0.46999998093E+01 0. -1.
       -5    1    3    3    0  502 -0.14851089223E+03  0.94262295865E+03 -0.64765025014E+03  0.11532850748E+04  0.46999998093E+01 0.  1.
</event>
<event>
 5   0  0.8587082E-05  0.1887801E+04  0.7818609E-02  0.8660952E-01
        1   -1    0    0  501    0  0.00000000000E+00  0.00000000000E+00  0.12104059009E+04  0.12104059009E+04  0.50400001928E-02 0.  1.
       -1   -1    0    0    0  501  0.00000000000E+00  0.00000000000E+00 -0.73607391150E+03  0.73607391151E+03  0.50400001928E-02 0. -1.
    10030    2    1    2    0    0  0.00000000000E+00  0.00000000000E+00  0.47433198943E+03  0.19464798125E+04  0.18878010552E+04 0.  0.
        5    1    3    3  502    0 -0.12872137524E+03 -0.25463188196E+03 -0.69053355174E+03  0.74717150898E+03  0.46999998093E+01 0. -1.
       -5    1    3    3    0  502  0.12872137524E+03  0.25463188196E+03  0.11648655412E+04  0.11993083035E+04  0.46999998093E+01 0.  1.
</event>
<event>
 5   0  0.8567844E-05  0.1876389E+04  0.7818609E-02  0.8666699E-01
       -1   -1    0    0    0  501  0.00000000000E+00  0.00000000000E+00  0.85999425249E+03  0.85999425251E+03  0.50400001928E-02 0. -1.
        1   -1    0    0  501    0  0.00000000000E+00  0.00000000000E+00 -0.10235050766E+04  0.10235050766E+04  0.50400001928E-02 0.  1.
    10030    2    1    2    0    0  0.00000000000E+00  0.00000000000E+00 -0.16351082411E+03  0.18834993291E+04  0.18763885347E+04 0.  0.
        4    1    3    3  502    0 -0.32650368248E+02  0.93157808850E+03 -0.18847429494E+03  0.95101417144E+03  0.12699999809E+01 0.  1.
       -4    1    3    3    0  502  0.32650368248E+02 -0.93157808850E+03  0.24963470834E+02  0.93248515768E+03  0.12699999809E+01 0. -1.
</event>
<event>
 5   0  0.8681396E-05  0.1909327E+04  0.7818609E-02  0.8650227E-01
       -1   -1    0    0    0  501  0.00000000000E+00  0.00000000000E+00  0.68719910220E+03  0.68719910222E+03  0.50400001928E-02 0.  1.
        1   -1    0    0  501    0  0.00000000000E+00  0.00000000000E+00 -0.13262281806E+04  0.13262281806E+04  0.50400001928E-02 0. -1.
    10030    2    1    2    0    0  0.00000000000E+00  0.00000000000E+00 -0.63902907840E+03  0.20134272828E+04  0.19093274366E+04 0.  0.
        3    1    3    3  502    0 -0.60591019521E+03 -0.67463520750E+03 -0.63432588674E+03  0.11066296439E+04  0.10100000352E+00 0. -1.
       -3    1    3    3    0  502  0.60591019521E+03  0.67463520750E+03 -0.47031916566E+01  0.90679763899E+03  0.10100000352E+00 0.  1.
</event>
<event>
 5   0  0.8681396E-05  0.1907657E+04  0.7818609E-02  0.8651054E-01
       -1   -1    0    0    0  501  0.00000000000E+00  0.00000000000E+00  0.83329314842E+03  0.83329314843E+03  0.50400001928E-02 0.  1.
        1   -1    0    0  501    0  0.00000000000E+00  0.00000000000E+00 -0.10917995534E+04  0.10917995534E+04  0.50400001928E-02 0. -1.
    10030    2    1    2    0    0  0.00000000000E+00  0.00000000000E+00 -0.25850640497E+03  0.19250927018E+04  0.19076572935E+04 0.  0.
        3    1    3    3  502    0 -0.44434976387E+03 -0.41774356930E+03  0.61082034573E+03  0.86316736923E+03  0.10100000352E+00 0.  1.
       -3    1    3    3    0  502  0.44434976387E+03  0.41774356930E+03 -0.86932675071E+03  0.10619253326E+04  0.10100000352E+00 0. -1.
</event>
<event>
 5   0  0.8567844E-05  0.1902421E+04  0.7818609E-02  0.8653652E-01
       -1   -1    0    0    0  501  0.00000000000E+00  0.00000000000E+00  0.82352106422E+03  0.82352106423E+03  0.50400001928E-02 0.  1.
        1   -1    0    0  501    0  0.00000000000E+00  0.00000000000E+00 -0.10986986400E+04  0.10986986400E+04  0.50400001928E-02 0. -1.
    10030    2    1    2    0    0  0.00000000000E+00  0.00000000000E+00 -0.27517757574E+03  0.19222197042E+04  0.19024210609E+04 0.  0.
        4    1    3    3  502    0  0.29240575554E+03 -0.33637337868E+03 -0.98666246929E+03  0.10826599729E+04  0.12699999809E+01 0. -1.
       -4    1    3    3    0  502 -0.29240575554E+03  0.33637337868E+03  0.71148489355E+03  0.83955973129E+03  0.12699999809E+01 0.  1.
</event>
<event>
 5   0  0.8681396E-05  0.1910419E+04  0.7818609E-02  0.8649687E-01
        1   -1    0    0  501    0  0.00000000000E+00  0.00000000000E+00  0.13374315429E+04  0.13374315429E+04  0.50400001928E-02 0. -1.
       -1   -1    0    0    0  501  0.00000000000E+00  0.00000000000E+00 -0.68222223234E+03  0.68222223236E+03  0.50400001928E-02 0.  1.
    10030    2    1    2    0    0  0.00000000000E+00  0.00000000000E+00  0.65520931051E+03  0.20196537752E+04  0.19104193600E+04 0.  0.
        3    1    3    3  502    0 -0.81893896256E+03 -0.39863566297E+03  0.23302355881E+02  0.91110615528E+03  0.10100000352E+00 0.  1.
       -3    1    3    3    0  502  0.81893896256E+03  0.39863566297E+03  0.63190695463E+03  0.11085476200E+04  0.10100000352E+00 0. -1.
</event>
<event>
 5   0  0.8905646E-05  0.1898263E+04  0.7818609E-02  0.8655722E-01
        1   -1    0    0  501    0  0.00000000000E+00  0.00000000000E+00  0.12098528603E+04  0.12098528603E+04  0.50400001928E-02 0.  1.
       -1   -1    0    0    0  501  0.00000000000E+00  0.00000000000E+00 -0.74459497955E+03  0.74459497957E+03  0.50400001928E-02 0. -1.
    10030    2    1    2    0    0  0.00000000000E+00  0.00000000000E+00  0.46525788072E+03  0.19544478399E+04  0.18982627487E+04 0.  0.
        1    1    3    3  502    0  0.69828181270E+01 -0.31407149502E+03  0.11547723149E+04  0.11967408921E+04  0.50400001928E-02 0.  1.
       -1    1    3    3    0  502 -0.69828181270E+01  0.31407149502E+03 -0.68951443413E+03  0.75770694772E+03  0.50400001928E-02 0. -1.
</event>
<event>
 5   0  0.8587082E-05  0.1924704E+04  0.7818609E-02  0.8642657E-01
        1   -1    0    0  501    0  0.00000000000E+00  0.00000000000E+00  0.20735490296E+04  0.20735490296E+04  0.50400001928E-02 0. -1.
       -1   -1    0    0    0  501  0.00000000000E+00  0.00000000000E+00 -0.44663566726E+03  0.44663566729E+03  0.50400001928E-02 0.  1.
    10030    2    1    2    0    0  0.00000000000E+00  0.00000000000E+00  0.16269133624E+04  0.25201846969E+04  0.19247035663E+04 0.  0.
        5    1    3    3  502    0 -0.66991103855E+03 -0.48755297878E+03  0.17251113849E+03  0.84632788539E+03  0.46999998093E+01 0.  1.
       -5    1    3    3    0  502  0.66991103855E+03  0.48755297878E+03  0.14544022239E+04  0.16738568115E+04  0.46999998093E+01 0. -1.
</event>
<event>
 5   0  0.1765328E-04  0.1875047E+04  0.7818609E-02  0.8667378E-01
       -2   -1    0    0    0  501  0.00000000000E+00  0.00000000000E+00  0.52376240064E+03  0.52376240064E+03  0.25500000920E-02 0. -1.
        2   -1    0    0  501    0  0.00000000000E+00  0.00000000000E+00 -0.16781468872E+04  0.16781468872E+04  0.25500000920E-02 0.  1.
    10030    2    1    2    0    0  0.00000000000E+00  0.00000000000E+00 -0.11543844865E+04  0.22019092878E+04  0.18750469245E+04 0.  0.
        3    1    3    3  502    0  0.53650432798E+03  0.46914679300E+03 -0.12924833033E+04  0.14759568784E+04  0.10100000352E+00 0.  1.
       -3    1    3    3    0  502 -0.53650432798E+03 -0.46914679300E+03  0.13809881679E+03  0.72595240941E+03  0.10100000352E+00 0. -1.
</event>
<event>
 5   0  0.1658711E-04  0.1844826E+04  0.7818609E-02  0.8682818E-01
       -2   -1    0    0    0  501  0.00000000000E+00  0.00000000000E+00  0.46432637567E+03  0.46432637568E+03  0.25500000920E-02 0.  1.
        2   -1    0    0  501    0  0.00000000000E+00  0.00000000000E+00 -0.18324303971E+04  0.18324303971E+04  0.25500000920E-02 0. -1.
    10030    2    1    2    0    0  0.00000000000E+00  0.00000000000E+00 -0.13681040215E+04  0.22967567728E+04  0.18448260243E+04 0.  0.
        2    1    3    3  502    0  0.76037252726E+03  0.34069050081E+03 -0.11767360087E+04  0.14418543726E+04  0.25500000920E-02 0. -1.
       -2    1    3    3    0  502 -0.76037252726E+03 -0.34069050081E+03 -0.19136801273E+03  0.85490240020E+03  0.25500000920E-02 0.  1.
</event>
<event>
 5   0  0.8587082E-05  0.1925066E+04  0.7818609E-02  0.8642479E-01
        1   -1    0    0  501    0  0.00000000000E+00  0.00000000000E+00  0.88592064520E+03  0.88592064522E+03  0.50400001928E-02 0. -1.
       -1   -1    0    0    0  501  0.00000000000E+00  0.00000000000E+00 -0.10457708057E+04  0.10457708057E+04  0.50400001928E-02 0.  1.
    10030    2    1    2    0    0  0.00000000000E+00  0.00000000000E+00 -0.15985016045E+03  0.19316914509E+04  0.19250661775E+04 0.  0.
        5    1    3    3  502    0  0.37020254238E+03 -0.29380125711E+03 -0.92130875612E+03  0.10354713976E+04  0.46999998093E+01 0.  1.
       -5    1    3    3    0  502 -0.37020254238E+03  0.29380125711E+03  0.76145859567E+03  0.89622005332E+03  0.46999998093E+01 0. -1.
</event>
<event>
 5   0  0.1765328E-04  0.1906389E+04  0.7818609E-02  0.8651683E-01
       -2   -1    0    0    0  501  0.00000000000E+00  0.00000000000E+00  0.10645440852E+04  0.10645440852E+04  0.25500000920E-02 0.  1.
        2   -1    0    0  501    0  0.00000000000E+00  0.00000000000E+00 -0.85349214869E+03  0.85349214870E+03  0.25500000920E-02 0. -1.
    10030    2    1    2    0    0  0.00000000000E+00  0.00000000000E+00  0.21105193655E+03  0.19180362339E+04  0.19063892768E+04 0.  0.
        3    1    3    3  502    0 -0.12128886478E+01  0.31384344334E+03  0.10110696368E+04  0.10586600015E+04  0.10100000352E+00 0.  1.
       -3    1    3    3    0  502  0.12128886478E+01 -0.31384344334E+03 -0.80001770026E+03  0.85937623248E+03  0.10100000352E+00 0. -1.
</event>
<event>
 5   0  0.1799738E-04  0.1882506E+04  0.7818609E-02  0.8663614E-01
        2   -1    0    0  501    0  0.00000000000E+00  0.00000000000E+00  0.11992198239E+04  0.11992198239E+04  0.25500000920E-02 0.  1.
       -2   -1    0    0    0  501  0.00000000000E+00  0.00000000000E+00 -0.73877780053E+03  0.73877780053E+03  0.25500000920E-02 0. -1.
    10030    2    1    2    0    0  0.00000000000E+00  0.00000000000E+00  0.46044202336E+03  0.19379976244E+04  0.18825057597E+04 0.  0.
        1    1    3    3  502    0  0.84668312016E+03 -0.34719667377E+03  0.45703142987E+03  0.10228858999E+04  0.50400001928E-02 0. -1.
       -1    1    3    3    0  502 -0.84668312016E+03  0.34719667377E+03  0.34105934928E+01  0.91511172455E+03  0.50400001928E-02 0.  1.
</event>
<event>
 5   0  0.1810569E-04  0.1902465E+04  0.7818609E-02  0.8653630E-01
       -2   -1    0    0    0  501  0.00000000000E+00  0.00000000000E+00  0.60273818805E+03  0.60273818806E+03  0.25500000920E-02 0.  1.
        2   -1    0    0  501    0  0.00000000000E+00  0.00000000000E+00 -0.15012208217E+04  0.15012208217E+04  0.25500000920E-02 0. -1.
    10030    2    1    2    0    0  0.00000000000E+00  0.00000000000E+00 -0.89848263368E+03  0.21039590098E+04  0.19024648412E+04 0.  0.
        4    1    3    3  502    0  0.32969383174E+02  0.59285921065E+03  0.37261772368E+03  0.70100970377E+03  0.12699999809E+01 0.  1.
       -4    1    3    3    0  502 -0.32969383174E+02 -0.59285921065E+03 -0.12711003574E+04  0.14029493060E+04  0.12699999809E+01 0. -1.
</event>
<event>
 5   0  0.1658711E-04  0.1908147E+04  0.7818609E-02  0.8650812E-01
       -2   -1    0    0    0  501  0.00000000000E+00  0.00000000000E+00  0.73686386876E+03  0.73686386876E+03  0.25500000920E-02 0. -1.
        2   -1    0    0  501    0  0.00000000000E+00  0.00000000000E+00 -0.12353108899E+04  0.12353108900E+04  0.25500000920E-02 0.  1.
    10030    2    1    2    0    0  0.00000000000E+00  0.00000000000E+00 -0.49844702119E+03  0.19721747587E+04  0.19081467045E+04 0.  0.
        2    1    3    3  502    0  0.37940798011E+02  0.92558198212E+03 -0.13277455273E+02  0.92645442446E+03  0.25500000920E-02 0. -1.
       -2    1    3    3    0  502 -0.37940798011E+02 -0.92558198212E+03 -0.48516956592E+03  0.10457203343E+04  0.25500000920E-02 0.  1.
</event>
<event>
 5   0  0.8587082E-05  0.1880427E+04  0.7818609E-02  0.8664661E-01
       -1   -1    0    0    0  501  0.00000000000E+00  0.00000000000E+00  0.10489281421E+04  0.10489281421E+04  0.50400001928E-02 0. -1.
        1   -1    0    0  501    0  0.00000000000E+00  0.00000000000E+00 -0.84276645639E+03  0.84276645641E+03  0.50400001928E-02 0.  1.
    10030    2    1    2    0    0  0.00000000000E+00  0.00000000000E+00  0.20616168569E+03  0.18916945985E+04  0.18804270295E+04 0.  0.
        5    1    3    3  502    0  0.98644385198E+02 -0.80589917739E+03  0.58002628256E+03  0.99782602558E+03  0.46999998093E+01 0. -1.
       -5    1    3    3    0  502 -0.98644385198E+02  0.80589917739E+03 -0.37386459688E+03  0.89386857292E+03  0.46999998093E+01 0.  1.
</event>
<event>
 5   0  0.1658711E-04  0.1903406E+04  0.7818609E-02  0.8653163E-01
       -2   -1    0    0    0  501  0.00000000000E+00  0.00000000000E+00  0.16196842094E+04  0.16196842094E+04  0.25500000920E-02 0.  1.
        2   -1    0    0  501    0  0.00000000000E+00  0.00000000000E+00 -0.55920664530E+03  0.55920664531E+03  0.25500000920E-02 0. -1.
    10030    2    1    2    0    0  0.00000000000E+00  0.00000000000E+00  0.10604775641E+04  0.21788908548E+04  0.19034055513E+04 0.  0.
        2    1    3    3  502    0 -0.19664861177E+03  0.87168139612E+03  0.15536885306E+03  0.90699427416E+03  0.25500000920E-02 0. -1.
       -2    1    3    3    0  502  0.19664861177E+03 -0.87168139612E+03  0.90510871109E+03  0.12718965806E+04  0.25500000920E-02 0.  1.
</event>
<event>
 5   0  0.8587082E-05  0.1901038E+04  0.7818609E-02  0.8654340E-01
       -1   -1    0    0    0  501  0.00000000000E+00  0.00000000000E+00  0.63128130253E+03  0.63128130255E+03  0.50400001928E-02 0. -1.
        1   -1    0    0  501    0  0.00000000000E+00  0.00000000000E+00 -0.14311940188E+04  0.14311940188E+04  0.50400001928E-02 0.  1.
    10030    2    1    2    0    0  0.00000000000E+00  0.00000000000E+00 -0.79991271624E+03  0.20624753213E+04  0.19010376371E+04 0.  0.
        5    1    3    3  502    0 -0.38453391518E+03 -0.45764604111E+03 -0.12017397893E+04  0.13422022359E+04  0.46999998093E+01 0. -1.
       -5    1    3    3    0  502  0.38453391518E+03  0.45764604111E+03  0.40182707310E+03  0.72027308539E+03  0.46999998093E+01 0.  1.
</event>
<event>
 5   0  0.8567844E-05  0.1912277E+04  0.7818609E-02  0.8648769E-01
        1   -1    0    0  501    0  0.00000000000E+00  0.00000000000E+00  0.10371460725E+04  0.10371460725E+04  0.50400001928E-02 0.  1.
       -1   -1    0    0    0  501  0.00000000000E+00  0.00000000000E+00 -0.88145827201E+03  0.88145827202E+03  0.50400001928E-02 0. -1.
    10030    2    1    2    0    0  0.00000000000E+00  0.00000000000E+00  0.15568780050E+03  0.19186043445E+04  0.19122771608E+04 0.  0.
        4    1    3    3  502    0  0.34835578176E+03 -0.32437332104E+03  0.90982192940E+03  0.10268141790E+04  0.12699999809E+01 0.  1.
       -4    1    3    3    0  502 -0.34835578176E+03  0.32437332104E+03 -0.75413412890E+03  0.89179016554E+03  0.12699999809E+01 0. -1.
</event>
<event>
 5   0  0.8602017E-05  0.1711425E+04  0.7818609E-02  0.8754875E-01
       -1   -1    0    0    0  501  0.00000000000E+00  0.00000000000E+00  0.71156671270E+03  0.71156671272E+03  0.50400001928E-02 0.  1.
        1   -1    0    0  501    0  0.00000000000E+00  0.00000000000E+00 -0.10290585640E+04  0.10290585640E+04  0.50400001928E-02 0. -1.
    10030    2    1    2    0    0  0.00000000000E+00  0.00000000000E+00 -0.31749185128E+03  0.17406252767E+04  0.17114249263E+04 0.  0.
        2    1    3    3  502    0 -0.80986622419E+03  0.25389688079E+03 -0.47812046449E+02  0.85007818403E+03  0.25500000920E-02 0.  1.
       -2    1    3    3    0  502  0.80986622419E+03 -0.25389688079E+03 -0.26967980483E+03  0.89054709269E+03  0.25500000920E-02 0. -1.
</event>
<event>
 5   0  0.8567844E-05  0.1899886E+04  0.7818609E-02  0.8654913E-01
        1   -1    0    0  501    0  0.00000000000E+00  0.00000000000E+00  0.12652753301E+04  0.12652753301E+04  0.50400001928E-02 0. -1.
       -1   -1    0    0    0  501  0.00000000000E+00  0.00000000000E+00 -0.71319770911E+03  0.71319770913E+03  0.50400001928E-02 0.  1.
    10030    2    1    2    0    0  0.00000000000E+00  0.00000000000E+00  0.55207762098E+03  0.19784730392E+04  0.18998857511E+04 0.  0.
        4    1    3    3  502    0  0.22134548131E+03 -0.26643040004E+03  0.11971670346E+04  0.12462702363E+04  0.12699999809E+01 0. -1.
       -4    1    3    3    0  502 -0.22134548131E+03  0.26643040004E+03 -0.64508941364E+03  0.73220280295E+03  0.12699999809E+01 0.  1.
</event>
<event>
 5   0  0.1799738E-04  0.1816092E+04  0.7818609E-02  0.8697788E-01
       -2   -1    0    0    0  501  0.00000000000E+00  0.00000000000E+00  0.69306112645E+03  0.69306112645E+03  0.25500000920E-02 0. -1.
        2   -1    0    0  501    0  0.00000000000E+00  0.00000000000E+00 -0.11897186724E+04  0.11897186724E+04  0.25500000920E-02 0.  1.
    10030    2    1    2    0    0  0.00000000000E+00  0.00000000000E+00 -0.49665754597E+03  0.18827797989E+04  0.18160922479E+04 0.  0.
        1    1    3    3  502    0  0.64368521006E+03 -0.11393952672E+03  0.40508054407E+03  0.76902738093E+03  0.50400001928E-02 0. -1.
       -1    1    3    3    0  502 -0.64368521006E+03  0.11393952672E+03 -0.90173809004E+03  0.11137524179E+04  0.50400001928E-02 0.  1.
</event>
<event>
 5   0  0.1810569E-04  0.1892951E+04  0.7818609E-02  0.8658373E-01
       -2   -1    0    0    0  501  0.00000000000E+00  0.00000000000E+00  0.76199356914E+03  0.76199356914E+03  0.25500000920E-02 0.  1.
        2   -1    0    0  501    0  0.00000000000E+00  0.00000000000E+00 -0.11756206973E+04  0.11756206973E+04  0.25500000920E-02 0. -1.
    10030    2    1    2    0    0  0.00000000000E+00  0.00000000000E+00 -0.41362712813E+03  0.19376142664E+04  0.18929505129E+04 0.  0.
        4    1    3    3  502    0  0.79219943935E+03  0.61528057404E+02 -0.73319228593E+03  0.10811744515E+04  0.12699999809E+01 0. -1.
       -4    1    3    3    0  502 -0.79219943935E+03 -0.61528057404E+02  0.31956515781E+03  0.85643981490E+03  0.12699999809E+01 0.  1.
</event>
<event>
 5   0  0.8681396E-05  0.1944253E+04  0.7818609E-02  0.8633137E-01
       -1   -1    0    0    0  501  0.00000000000E+00  0.00000000000E+00  0.35636352125E+03  0.35636352128E+03  0.50400001928E-02 0.  1.
        1   -1    0    0  501    0  0.00000000000E+00  0.00000000000E+00 -0.26518693333E+04  0.26518693333E+04  0.50400001928E-02 0. -1.
    10030    2    1    2    0    0  0.00000000000E+00  0.00000000000E+00 -0.22955058120E+04  0.30082328546E+04  0.19442525490E+04 0.  0.
        3    1    3    3  502    0 -0.71565427247E+03  0.17595166190E+02 -0.21653629315E+04  0.22806286990E+04  0.10100000352E+00 0. -1.
       -3    1    3    3    0  502  0.71565427247E+03 -0.17595166190E+02 -0.13014288053E+03  0.72760415553E+03  0.10100000352E+00 0.  1.
</event>
<event>
 5   0  0.1765328E-04  0.1906278E+04  0.7818609E-02  0.8651738E-01
        2   -1    0    0  501    0  0.00000000000E+00  0.00000000000E+00  0.11517931837E+04  0.11517931837E+04  0.25500000920E-02 0. -1.
       -2   -1    0    0    0  501  0.00000000000E+00  0.00000000000E+00 -0.78874769335E+03  0.78874769335E+03  0.25500000920E-02 0.  1.
    10030    2    1    2    0    0  0.00000000000E+00  0.00000000000E+00  0.36304549032E+03  0.19405408770E+04  0.19062782765E+04 0.  0.
        3    1    3    3  502    0  0.63735344661E+03 -0.57498100557E+03  0.60327796628E+03  0.10491743837E+04  0.10100000352E+00 0. -1.
       -3    1    3    3    0  502 -0.63735344661E+03  0.57498100557E+03 -0.24023247595E+03  0.89136649330E+03  0.10100000352E+00 0.  1.
</event>
<event>
 5   0  0.8681396E-05  0.1899138E+04  0.7818609E-02  0.8655286E-01
        1   -1    0    0  501    0  0.00000000000E+00  0.00000000000E+00  0.20756021911E+04  0.20756021911E+04  0.50400001928E-02 0. -1.
       -1   -1    0    0    0  501  0.00000000000E+00  0.00000000000E+00 -0.43441914053E+03  0.43441914056E+03  0.50400001928E-02 0.  1.
    10030    2    1    2    0    0  0.00000000000E+00  0.00000000000E+00  0.16411830506E+04  0.25100213317E+04  0.18991380361E+04 0.  0.
        3    1    3    3  502    0  0.49838431991E+02  0.52283401024E+03 -0.22497879373E+03  0.57136217883E+03  0.10100000352E+00 0.  1.
       -3    1    3    3    0  502 -0.49838431991E+02 -0.52283401024E+03  0.18661618443E+04  0.19386591529E+04  0.10100000352E+00 0. -1.
</event>
<event>
 5   0  0.8602017E-05  0.1898257E+04  0.7818609E-02  0.8655724E-01
       -1   -1    0    0    0  501  0.00000000000E+00  0.00000000000E+00  0.93248811084E+03  0.93248811085E+03  0.50400001928E-02 0.  1.
        1   -1    0    0  501    0  0.00000000000E+00  0.00000000000E+00 -0.96606577869E+03  0.96606577870E+03  0.50400001928E-02 0. -1.
    10030    2    1    2    0    0  0.00000000000E+00  0.00000000000E+00 -0.33577667854E+02  0.18985538896E+04  0.18982569404E+04 0.  0.
        2    1    3    3  502    0  0.62096918308E+03  0.48586455271E+03 -0.54524423869E+03  0.95862316358E+03  0.25500000920E-02 0. -1.
       -2    1    3    3    0  502 -0.62096918308E+03 -0.48586455271E+03  0.51166657083E+03  0.93993072598E+03  0.25500000920E-02 0.  1.
</event>
<event>
 5   0  0.1658711E-04  0.1892619E+04  0.7818609E-02  0.8658539E-01
       -2   -1    0    0    0  501  0.00000000000E+00  0.00000000000E+00  0.10367914043E+04  0.10367914043E+04  0.25500000920E-02 0.  1.
        2   -1    0    0  501    0  0.00000000000E+00  0.00000000000E+00 -0.86372412380E+03  0.86372412380E+03  0.25500000920E-02 0. -1.
    10030    2    1    2    0    0  0.00000000000E+00  0.00000000000E+00  0.17306728048E+03  0.19005155281E+04  0.18926190818E+04 0.  0.
        2    1    3    3  502    0 -0.64278407669E+03 -0.23034538052E+03 -0.57138800856E+03  0.89034522513E+03  0.25500000920E-02 0. -1.
       -2    1    3    3    0  502  0.64278407669E+03  0.23034538052E+03  0.74445528904E+03  0.10101703030E+04  0.25500000920E-02 0.  1.
</event>
<event>
 5   0  0.8587082E-05  0.1638929E+04  0.7818609E-02  0.8796983E-01
        1   -1    0    0  501    0  0.00000000000E+00  0.00000000000E+00  0.18953325757E+04  0.18953325757E+04  0.50400001928E-02 0. -1.
       -1   -1    0    0    0  501  0.00000000000E+00  0.00000000000E+00 -0.35430309680E+03  0.35430309684E+03  0.50400001928E-02 0.  1.
    10030    2    1    2    0    0  0.00000000000E+00  0.00000000000E+00  0.15410294789E+04  0.22496356725E+04  0.16389291639E+04 0.  0.
        5    1    3    3  502    0  0.62738237900E+02 -0.97492149086E+01  0.18919328082E+04  0.18930036911E+04  0.46999998093E+01 0. -1.
       -5    1    3    3    0  502 -0.62738237900E+02  0.97492149086E+01 -0.35090332930E+03  0.35663198146E+03  0.46999998093E+01 0.  1.
</event>
<event>
 5   0  0.8905646E-05  0.1737837E+04  0.7818609E-02  0.8740074E-01
        1   -1    0    0  501    0  0.00000000000E+00  0.00000000000E+00  0.16333200972E+04  0.16333200972E+04  0.50400001928E-02 0. -1.
       -1   -1    0    0    0  501  0.00000000000E+00  0.00000000000E+00 -0.46226026663E+03  0.46226026665E+03  0.50400001928E-02 0.  1.
    10030    2    1    2    0    0  0.00000000000E+00  0.00000000000E+00  0.11710598305E+04  0.20955803638E+04  0.17378365673E+04 0.  0.
        1    1    3    3  502    0  0.19761242753E+03  0.17851742693E+03 -0.41183740389E+03  0.49043775395E+03  0.50400001928E-02 0.  1.
       -1    1    3    3    0  502 -0.19761242753E+03 -0.17851742693E+03  0.15828972344E+04  0.16051426099E+04  0.50400001928E-02 0. -1.
</event>
<event>
 5   0  0.1810569E-04  0.1893772E+04  0.7818609E-02  0.8657963E-01
        2   -1    0    0  501    0  0.00000000000E+00  0.00000000000E+00  0.73948966203E+03  0.73948966203E+03  0.25500000920E-02 0.  1.
       -2   -1    0    0    0  501  0.00000000000E+00  0.00000000000E+00 -0.12124478449E+04  0.12124478449E+04  0.25500000920E-02 0. -1.
    10030    2    1    2    0    0  0.00000000000E+00  0.00000000000E+00 -0.47295818289E+03  0.19519375070E+04  0.18937715248E+04 0.  0.
        4    1    3    3  502    0  0.67661563888E+03 -0.13670516495E+03 -0.90453309541E+03  0.11378395135E+04  0.12699999809E+01 0. -1.
       -4    1    3    3    0  502 -0.67661563888E+03  0.13670516495E+03  0.43157491253E+03  0.81409799344E+03  0.12699999809E+01 0.  1.
</event>
<event>
 5   0  0.8905646E-05  0.1965302E+04  0.7818609E-02  0.8623017E-01
        1   -1    0    0  501    0  0.00000000000E+00  0.00000000000E+00  0.15742956515E+04  0.15742956515E+04  0.50400001928E-02 0.  1.
       -1   -1    0    0    0  501  0.00000000000E+00  0.00000000000E+00 -0.61335571304E+03  0.61335571306E+03  0.50400001928E-02 0. -1.
    10030    2    1    2    0    0  0.00000000000E+00  0.00000000000E+00  0.96093993843E+03  0.21876513645E+04  0.19653022484E+04 0.  0.
        1    1    3    3  502    0 -0.39057268997E+03 -0.11674002738E+03 -0.51479434108E+03  0.65664942989E+03  0.50400001928E-02 0. -1.
       -1    1    3    3    0  502  0.39057268997E+03  0.11674002738E+03  0.14757342795E+04  0.15310019347E+04  0.50400001928E-02 0.  1.
</event>
<event>
 5   0  0.1810569E-04  0.1930828E+04  0.7818609E-02  0.8639662E-01
        2   -1    0    0  501    0  0.00000000000E+00  0.00000000000E+00  0.10272878900E+04  0.10272878900E+04  0.25500000920E-02 0.  1.
       -2   -1    0    0    0  501  0.00000000000E+00  0.00000000000E+00 -0.90726657912E+03  0.90726657912E+03  0.25500000920E-02 0. -1.
    10030    2    1    2    0    0  0.00000000000E+00  0.00000000000E+00  0.12002131084E+03  0.19345544691E+04  0.19308277704E+04 0.  0.
        4    1    3    3  502    0 -0.57386459929E+03 -0.60322829843E+03 -0.42962203653E+03  0.93690002963E+03  0.12699999809E+01 0. -1.
       -4    1    3    3    0  502  0.57386459929E+03  0.60322829843E+03  0.54964334737E+03  0.99765443945E+03  0.12699999809E+01 0.  1.
</event>
<event>
 5   0  0.1790832E-04  0.1978646E+04  0.7818609E-02  0.8616670E-01
        2   -1    0    0  501    0  0.00000000000E+00  0.00000000000E+00  0.13509236487E+04  0.13509236487E+04  0.25500000920E-02 0.  1.
       -2   -1    0    0    0  501  0.00000000000E+00  0.00000000000E+00 -0.72451167977E+03  0.72451167977E+03  0.25500000920E-02 0. -1.
    10030    2    1    2    0    0  0.00000000000E+00  0.00000000000E+00  0.62641196895E+03  0.20754353285E+04  0.19786459633E+04 0.  0.
        5    1    3    3  502    0 -0.53174976112E+03  0.35741197359E+03 -0.47748314589E+03  0.79907031726E+03  0.46999998093E+01 0. -1.
       -5    1    3    3    0  502  0.53174976112E+03 -0.35741197359E+03  0.11038951148E+04  0.12763650112E+04  0.46999998093E+01 0.  1.
</event>
<event>
 5   0  0.8567844E-05  0.1877642E+04  0.7818609E-02  0.8666066E-01
       -1   -1    0    0    0  501  0.00000000000E+00  0.00000000000E+00  0.60893418064E+03  0.60893418066E+03  0.50400001928E-02 0.  1.
        1   -1    0    0  501    0  0.00000000000E+00  0.00000000000E+00 -0.14474221525E+04  0.14474221525E+04  0.50400001928E-02 0. -1.
    10030    2    1    2    0    0  0.00000000000E+00  0.00000000000E+00 -0.83848797186E+03  0.20563563332E+04  0.18776419494E+04 0.  0.
        4    1    3    3  502    0 -0.10630916287E+03  0.28039433020E+03  0.55507292618E+03  0.63089633443E+03  0.12699999809E+01 0.  1.
       -4    1    3    3    0  502  0.10630916287E+03 -0.28039433020E+03 -0.13935608980E+04  0.14254599987E+04  0.12699999809E+01 0. -1.
</event>
<event>
 5   0  0.1790832E-04  0.1900234E+04  0.7818609E-02  0.8654740E-01
        2   -1    0    0  501    0  0.00000000000E+00  0.00000000000E+00  0.58083427650E+03  0.58083427651E+03  0.25500000920E-02 0. -1.
       -2   -1    0    0    0  501  0.00000000000E+00  0.00000000000E+00 -0.15541815040E+04  0.15541815040E+04  0.25500000920E-02 0.  1.
    10030    2    1    2    0    0  0.00000000000E+00  0.00000000000E+00 -0.97334722749E+03  0.21350157805E+04  0.19002335535E+04 0.  0.
        5    1    3    3  502    0  0.13809104740E+03 -0.53662599828E+03  0.38047691275E+03  0.67217659178E+03  0.46999998093E+01 0. -1.
       -5    1    3    3    0  502 -0.13809104740E+03  0.53662599828E+03 -0.13538241402E+04  0.14628391887E+04  0.46999998093E+01 0.  1.
</event>
<event>
 5   0  0.8602017E-05  0.1900986E+04  0.7818609E-02  0.8654366E-01
        1   -1    0    0  501    0  0.00000000000E+00  0.00000000000E+00  0.27113521267E+04  0.27113521267E+04  0.50400001928E-02 0. -1.
       -1   -1    0    0    0  501  0.00000000000E+00  0.00000000000E+00 -0.33320532009E+03  0.33320532013E+03  0.50400001928E-02 0.  1.
    10030    2    1    2    0    0  0.00000000000E+00  0.00000000000E+00  0.23781468066E+04  0.30445574469E+04  0.19009860108E+04 0.  0.
        2    1    3    3  502    0 -0.55406968200E+03  0.68436077671E+03  0.17622781279E+04  0.19700170266E+04  0.25500000920E-02 0. -1.
       -2    1    3    3    0  502  0.55406968200E+03 -0.68436077671E+03  0.61586867874E+03  0.10745404202E+04  0.25500000920E-02 0.  1.
</event>
<event>
 5   0  0.1658711E-04  0.1789657E+04  0.7818609E-02  0.8711819E-01
        2   -1    0    0  501    0  0.00000000000E+00  0.00000000000E+00  0.10636036734E+04  0.10636036734E+04  0.25500000920E-02 0.  1.
       -2   -1    0    0    0  501  0.00000000000E+00  0.00000000000E+00 -0.75283485432E+03  0.75283485432E+03  0.25500000920E-02 0. -1.
    10030    2    1    2    0    0  0.00000000000E+00  0.00000000000E+00  0.31076881909E+03  0.18164385277E+04  0.17896568571E+04 0.  0.
        2    1    3    3  502    0 -0.68933743337E+03 -0.50076460616E+03 -0.12214233116E+03  0.86073807683E+03  0.25500000920E-02 0.  1.
       -2    1    3    3    0  502  0.68933743337E+03  0.50076460616E+03  0.43291115025E+03  0.95570045090E+03  0.25500000920E-02 0. -1.
</event>
<event>
 5   0  0.8587082E-05  0.1917878E+04  0.7818609E-02  0.8646008E-01
        1   -1    0    0  501    0  0.00000000000E+00  0.00000000000E+00  0.68364538937E+03  0.68364538939E+03  0.50400001928E-02 0. -1.
       -1   -1    0    0    0  501  0.00000000000E+00  0.00000000000E+00 -0.13450897798E+04  0.13450897798E+04  0.50400001928E-02 0.  1.
    10030    2    1    2    0    0  0.00000000000E+00  0.00000000000E+00 -0.66144439039E+03  0.20287351692E+04  0.19178784385E+04 0.  0.
        5    1    3    3  502    0 -0.54253150905E+03 -0.67540293143E+03  0.10417814362E+03  0.87257362653E+03  0.46999998093E+01 0. -1.
       -5    1    3    3    0  502  0.54253150905E+03  0.67540293143E+03 -0.76562253401E+03  0.11561615426E+04  0.46999998093E+01 0.  1.
</event>
</LesHouchesEvents>
