<LesHouchesEvents version="3.0">
<header>
<!--
#*********************************************************************
#                                                                    *
#                        MadGraph5_aMC@NLO                           *
#                                                                    *
#                           Going Beyond                             *
#                                                                    *
#                   http://madgraph.hep.uiuc.edu                     *
#                   http://madgraph.phys.ucl.ac.be                   *
#                   http://amcatnlo.cern.ch                          *
#                                                                    *
#                     The MadGraph5_aMC@NLO team                     *
#                                                                    *
#....................................................................*
#                                                                    *
# This file contains all the information necessary to reproduce      *
# the events generated:                                              *
#                                                                    *
# 1. software version                                                *
# 2. proc_card          : code generation info including model       *
# 3. param_card         : model primary parameters in the LH format  *
# 4. run_card           : running parameters (collider and cuts)     *
# 5. pythia_card        : present only if pythia has been run        *
# 6. pgs_card           : present only if pgs has been run           *
# 7. delphes_cards      : present only if delphes has been run       *
#                                                                    *
#                                                                    *
#*********************************************************************
-->
<MGVersion>
#5.2.2.3
</MGVersion>
<MG5ProcCard>
#************************************************************
#*                     MadGraph5_aMC@NLO                    *
#*                                                          *
#*                *                       *                 *
#*                  *        * *        *                   *
#*                    * * * * 5 * * * *                     *
#*                  *        * *        *                   *
#*                *                       *                 *
#*                                                          *
#*                                                          *
#*         VERSION 2.2.3                 2015-02-10         *
#*                                                          *
#*    The MadGraph5_aMC@NLO Development Team - Find us at   *
#*    https://server06.fynu.ucl.ac.be/projects/madgraph     *
#*                                                          *
#************************************************************
#*                                                          *
#*               Command File for MadGraph5_aMC@NLO         *
#*                                                          *
#*     run as ./bin/mg5_aMC  filename                       *
#*                                                          *
#************************************************************
set group_subprocesses Auto
set ignore_six_quark_processes False
set loop_optimized_output True
set gauge unitary
set complex_mass_scheme False
import model sm
define p = g u c d s u~ c~ d~ s~
define j = g u c d s u~ c~ d~ s~
define l+ = e+ mu+
define l- = e- mu-
define vl = ve vm vt
define vl~ = ve~ vm~ vt~
import model Zprime_UFO
generate p p > zph, zph > j j
add process p p > zph, zph > b b~
output Dijet_signal
</MG5ProcCard>
<MGProcCard>
#*********************************************************************
#                        MadGraph/MadEvent                           *
#                   http://madgraph.hep.uiuc.edu                     *
#                                                                    *
#                          proc_card.dat                             *
#*********************************************************************
#                                                                    *
#            This Files is generated by MADGRAPH 5                   *
#                                                                    *
# WARNING: This Files is generated for MADEVENT (compatibility issue)*
#          This files is NOT a valid MG4 proc_card.dat               *
#          Running this in MG4 will NEVER reproduce the result of MG5*
#                                                                    *
#*********************************************************************
#*********************************************************************
# Process(es) requested : mg2 input                                  *
#*********************************************************************
# Begin PROCESS # This is TAG. Do not modify this line
p p > zph , zph > j j           #Process
# Be carefull the coupling are here in MG5 convention
          
end_coup           # End the couplings input

done               # this tells MG there are no more procs
# End PROCESS  # This is TAG. Do not modify this line
#*********************************************************************
# Model information                                                  *
#*********************************************************************
# Begin MODEL  # This is TAG. Do not modify this line
Zprime_UFO
# End   MODEL  # This is TAG. Do not modify this line
#*********************************************************************
# Start multiparticle definitions                                    *
#*********************************************************************
# Begin MULTIPARTICLES # This is TAG. Do not modify this line

# End  MULTIPARTICLES # This is TAG. Do not modify this line
</MGProcCard>
<MGRunCard>
#*********************************************************************
#                       MadGraph5_aMC@NLO                            *
#                                                                    *
#                     run_card.dat MadEvent                          *
#                                                                    *
#  This file is used to set the parameters of the run.               *
#                                                                    *
#  Some notation/conventions:                                        *
#                                                                    *
#   Lines starting with a '# ' are info or comments                  *
#                                                                    *
#   mind the format:   value    = variable     ! comment             *
#*********************************************************************
#
#*******************                                                 
# Running parameters
#*******************                                                 
#                                                                    
#*********************************************************************
# Tag name for the run (one word)                                    *
#*********************************************************************
  tag_1     = run_tag ! name of the run 
#*********************************************************************
# Run to generate the grid pack                                      *
#*********************************************************************
  .false.     = gridpack  !True = setting up the grid pack
#*********************************************************************
# Number of events and rnd seed                                      *
# Warning: Do not generate more than 1M events in a single run       *
# If you want to run Pythia, avoid more than 50k events in a run.    *
#*********************************************************************
  2000 = nevents ! Number of unweighted events requested 
 1884 = iseed   ! rnd seed (0=assigned automatically=default))
#*********************************************************************
# Collider type and energy                                           *
# lpp: 0=No PDF, 1=proton, -1=antiproton, 2=photon from proton,      *
#                                         3=photon from electron     *
#*********************************************************************
        1     = lpp1    ! beam 1 type 
        1     = lpp2    ! beam 2 type
     4000     = ebeam1  ! beam 1 total energy in GeV
     4000     = ebeam2  ! beam 2 total energy in GeV
#*********************************************************************
# Beam polarization from -100 (left-handed) to 100 (right-handed)    *
#*********************************************************************
        0     = polbeam1 ! beam polarization for beam 1
        0     = polbeam2 ! beam polarization for beam 2
#*********************************************************************
# PDF CHOICE: this automatically fixes also alpha_s and its evol.    *
#*********************************************************************
 'nn23lo1'    = pdlabel     ! PDF set                                     
 230000    = lhaid     ! if pdlabel=lhapdf, this is the lhapdf number
#*********************************************************************
# Renormalization and factorization scales                           *
#*********************************************************************
 F        = fixed_ren_scale  ! if .true. use fixed ren scale
 F        = fixed_fac_scale  ! if .true. use fixed fac scale
 91.1880  = scale            ! fixed ren scale
 91.1880  = dsqrt_q2fact1    ! fixed fact scale for pdf1
 91.1880  = dsqrt_q2fact2    ! fixed fact scale for pdf2
 1        = scalefact        ! scale factor for event-by-event scales
#*********************************************************************
# Matching - Warning! ickkw > 1 is still beta
#*********************************************************************
 0        = ickkw            ! 0 no matching, 1 MLM, 2 CKKW matching
 1        = highestmult      ! for ickkw=2, highest mult group
 1        = ktscheme         ! for ickkw=1, 1 Durham kT, 2 Pythia pTE
 1        = alpsfact         ! scale factor for QCD emission vx
 F        = chcluster        ! cluster only according to channel diag
 T        = pdfwgt           ! for ickkw=1, perform pdf reweighting
 5        = asrwgtflavor     ! highest quark flavor for a_s reweight
 T        = clusinfo         ! include clustering tag in output
 3.0      = lhe_version       ! Change the way clustering information pass to shower.        
#*********************************************************************
#**********************************************************
#
#**********************************************************
# Automatic ptj and mjj cuts if xqcut > 0
# (turn off for VBF and single top processes)
#**********************************************************
   T  = auto_ptj_mjj  ! Automatic setting of ptj and mjj
#**********************************************************
#                                                                    
#**********************************
# BW cutoff (M+/-bwcutoff*Gamma)
#**********************************
  15  = bwcutoff      ! (M+/-bwcutoff*Gamma)
#**********************************************************
# Apply pt/E/eta/dr/mij cuts on decay products or not
# (note that etmiss/ptll/ptheavy/ht/sorted cuts always apply)
#**********************************************************
   T  = cut_decays    ! Cut decay products 
#*************************************************************
# Number of helicities to sum per event (0 = all helicities)
# 0 gives more stable result, but longer run time (needed for
# long decay chains e.g.).
# Use >=2 if most helicities contribute, e.g. pure QCD.
#*************************************************************
   0  = nhel          ! Number of helicities used per event
#*******************                                                 
# Standard Cuts
#*******************                                                 
#                                                                    
#*********************************************************************
# Minimum and maximum pt's (for max, -1 means no cut)                *
#*********************************************************************
 20  = ptj       ! minimum pt for the jets 
  0  = ptb       ! minimum pt for the b 
 10  = pta       ! minimum pt for the photons 
 10  = ptl       ! minimum pt for the charged leptons 
  0  = misset    ! minimum missing Et (sum of neutrino's momenta)
  0  = ptheavy   ! minimum pt for one heavy final state
 1.0 = ptonium   ! minimum pt for the quarkonium states
 -1  = ptjmax    ! maximum pt for the jets
 -1  = ptbmax    ! maximum pt for the b
 -1  = ptamax    ! maximum pt for the photons
 -1  = ptlmax    ! maximum pt for the charged leptons
 -1  = missetmax ! maximum missing Et (sum of neutrino's momenta)
#*********************************************************************
# Minimum and maximum E's (in the center of mass frame)              *
#*********************************************************************
  0  = ej     ! minimum E for the jets 
  0  = eb     ! minimum E for the b 
  0  = ea     ! minimum E for the photons 
  0  = el     ! minimum E for the charged leptons 
 -1   = ejmax ! maximum E for the jets
 -1   = ebmax ! maximum E for the b
 -1   = eamax ! maximum E for the photons
 -1   = elmax ! maximum E for the charged leptons
#*********************************************************************
# Maximum and minimum absolute rapidity (for max, -1 means no cut)   *
#*********************************************************************
   5  = etaj    ! max rap for the jets 
  -1  = etab    ! max rap for the b
 2.5  = etaa    ! max rap for the photons 
 2.5  = etal    ! max rap for the charged leptons 
 0.6  = etaonium ! max rap for the quarkonium states
   0  = etajmin ! min rap for the jets
   0  = etabmin ! min rap for the b
   0  = etaamin ! min rap for the photons
   0  = etalmin ! main rap for the charged leptons
#*********************************************************************
# Minimum and maximum DeltaR distance                                *
#*********************************************************************
 0.4 = drjj    ! min distance between jets 
 0   = drbb    ! min distance between b's 
 0.4 = drll    ! min distance between leptons 
 0.4 = draa    ! min distance between gammas 
 0   = drbj    ! min distance between b and jet 
 0.4 = draj    ! min distance between gamma and jet 
 0.4 = drjl    ! min distance between jet and lepton 
 0   = drab    ! min distance between gamma and b 
 0   = drbl    ! min distance between b and lepton 
 0.4 = dral    ! min distance between gamma and lepton 
 -1  = drjjmax ! max distance between jets
 -1  = drbbmax ! max distance between b's
 -1  = drllmax ! max distance between leptons
 -1  = draamax ! max distance between gammas
 -1  = drbjmax ! max distance between b and jet
 -1  = drajmax ! max distance between gamma and jet
 -1  = drjlmax ! max distance between jet and lepton
 -1  = drabmax ! max distance between gamma and b
 -1  = drblmax ! max distance between b and lepton
 -1  = dralmax ! maxdistance between gamma and lepton
#*********************************************************************
# Minimum and maximum invariant mass for pairs                       *
# WARNING: for four lepton final state mmll cut require to have      *
#          different lepton masses for each flavor!                  *           
#*********************************************************************
 0   = mmjj    ! min invariant mass of a jet pair 
 0   = mmbb    ! min invariant mass of a b pair 
 0   = mmaa    ! min invariant mass of gamma gamma pair
 0   = mmll    ! min invariant mass of l+l- (same flavour) lepton pair
 -1  = mmjjmax ! max invariant mass of a jet pair
 -1  = mmbbmax ! max invariant mass of a b pair
 -1  = mmaamax ! max invariant mass of gamma gamma pair
 -1  = mmllmax ! max invariant mass of l+l- (same flavour) lepton pair
#*********************************************************************
# Minimum and maximum invariant mass for all letpons                 *
#*********************************************************************
 0   = mmnl    ! min invariant mass for all letpons (l+- and vl) 
 -1  = mmnlmax ! max invariant mass for all letpons (l+- and vl) 
#*********************************************************************
# Minimum and maximum pt for 4-momenta sum of leptons                *
#*********************************************************************
 0   = ptllmin  ! Minimum pt for 4-momenta sum of leptons(l and vl)
 -1  = ptllmax  ! Maximum pt for 4-momenta sum of leptons(l and vl)
#*********************************************************************
# Inclusive cuts                                                     *
#*********************************************************************
 0  = xptj ! minimum pt for at least one jet  
 0  = xptb ! minimum pt for at least one b 
 0  = xpta ! minimum pt for at least one photon 
 0  = xptl ! minimum pt for at least one charged lepton 
#*********************************************************************
# Control the pt's of the jets sorted by pt                          *
#*********************************************************************
 0   = ptj1min ! minimum pt for the leading jet in pt
 0   = ptj2min ! minimum pt for the second jet in pt
 0   = ptj3min ! minimum pt for the third jet in pt
 0   = ptj4min ! minimum pt for the fourth jet in pt
 -1  = ptj1max ! maximum pt for the leading jet in pt 
 -1  = ptj2max ! maximum pt for the second jet in pt
 -1  = ptj3max ! maximum pt for the third jet in pt
 -1  = ptj4max ! maximum pt for the fourth jet in pt
 0   = cutuse  ! reject event if fails any (0) / all (1) jet pt cuts
#*********************************************************************
# Control the pt's of leptons sorted by pt                           *
#*********************************************************************
 0   = ptl1min ! minimum pt for the leading lepton in pt
 0   = ptl2min ! minimum pt for the second lepton in pt
 0   = ptl3min ! minimum pt for the third lepton in pt
 0   = ptl4min ! minimum pt for the fourth lepton in pt
 -1  = ptl1max ! maximum pt for the leading lepton in pt 
 -1  = ptl2max ! maximum pt for the second lepton in pt
 -1  = ptl3max ! maximum pt for the third lepton in pt
 -1  = ptl4max ! maximum pt for the fourth lepton in pt
#*********************************************************************
# Control the Ht(k)=Sum of k leading jets                            *
#*********************************************************************
 0   = htjmin ! minimum jet HT=Sum(jet pt)
 -1  = htjmax ! maximum jet HT=Sum(jet pt)
 0   = ihtmin  !inclusive Ht for all partons (including b)
 -1  = ihtmax  !inclusive Ht for all partons (including b)
 0   = ht2min ! minimum Ht for the two leading jets
 0   = ht3min ! minimum Ht for the three leading jets
 0   = ht4min ! minimum Ht for the four leading jets
 -1  = ht2max ! maximum Ht for the two leading jets
 -1  = ht3max ! maximum Ht for the three leading jets
 -1  = ht4max ! maximum Ht for the four leading jets
#***********************************************************************
# Photon-isolation cuts, according to hep-ph/9801442                   *
# When ptgmin=0, all the other parameters are ignored                  *
# When ptgmin>0, pta and draj are not going to be used                 *
#***********************************************************************
   0 = ptgmin ! Min photon transverse momentum
 0.4 = R0gamma ! Radius of isolation code
 1.0 = xn ! n parameter of eq.(3.4) in hep-ph/9801442
 1.0 = epsgamma ! epsilon_gamma parameter of eq.(3.4) in hep-ph/9801442
 .true. = isoEM ! isolate photons from EM energy (photons and leptons)
#*********************************************************************
# WBF cuts                                                           *
#*********************************************************************
 0   = xetamin ! minimum rapidity for two jets in the WBF case  
 0   = deltaeta ! minimum rapidity for two jets in the WBF case 
#*********************************************************************
# KT DURHAM CUT                                                      *
#*********************************************************************
 -1    =  ktdurham        
 0.4  =  dparameter 
#*********************************************************************
# maximal pdg code for quark to be considered as a light jet         *
# (otherwise b cuts are applied)                                     *
#*********************************************************************
 4 = maxjetflavor    ! Maximum jet pdg code
#*********************************************************************
# Jet measure cuts                                                   *
#*********************************************************************
 0   = xqcut   ! minimum kt jet measure between partons
#*********************************************************************
#
#*********************************************************************
# Store info for systematics studies                                 *
# WARNING: If use_syst is T, matched Pythia output is                *
#          meaningful ONLY if plotted taking matchscale              *
#          reweighting into account!                                 *
#*********************************************************************
   F  = use_syst      ! Enable systematics studies
#
#**************************************
# Parameter of the systematics study
#  will be used by SysCalc (if installed)
#**************************************                                  
#
0.5 1 2 = sys_scalefact  # factorization/renormalization scale factor
0.5 1 2 = sys_alpsfact  # \alpha_s emission scale factors
30 50 = sys_matchscale # variation of merging scale
# PDF sets and number of members (0 or none for all members).
CT10nlo.LHgrid = sys_pdf # matching scales
# MSTW2008nlo68cl.LHgrid 1  = sys_pdf
</MGRunCard>
<slha>
######################################################################
## PARAM_CARD AUTOMATICALY GENERATED BY MG5 FOLLOWING UFO MODEL   ####
######################################################################
##                                                                  ##
##  Width set on Auto will be computed following the information    ##
##        present in the decay.py files of the model.               ##
##        See  arXiv:1402.1178 for more details.                    ##
##                                                                  ##
######################################################################

###################################
## INFORMATION FOR CKMBLOCK
###################################
Block ckmblock 
    1 2.277360e-01 # cabi 

###################################
## INFORMATION FOR FRBLOCK
###################################
Block frblock 
    1 1.000000e+00 # gz 

###################################
## INFORMATION FOR MASS
###################################
Block mass 
    1 5.040000e-03 # MD 
    2 2.550000e-03 # MU 
    3 1.010000e-01 # MS 
    4 1.270000e+00 # MC 
    5 4.700000e+00 # MB 
    6 1.720000e+02 # MT 
   11 5.110000e-04 # Me 
   13 1.056600e-01 # MM 
   15 1.777000e+00 # MTA 
   23 9.118760e+01 # MZ 
   25 1.200000e+02 # MH 
  10030 1.500000e+03 # MZph 
  10031 3.000000e+02 # MZpl 
## Dependent parameters, given by model restrictions.
## Those values should be edited following the 
## analytical expression. MG5 ignores those values 
## but they are important for interfacing the output of MG5
## to external program such as Pythia.
  12 0.000000 # ve : 0.0 
  14 0.000000 # vm : 0.0 
  16 0.000000 # vt : 0.0 
  21 0.000000 # g : 0.0 
  22 0.000000 # a : 0.0 
  24 79.824360 # w+ : cmath.sqrt(MZ__exp__2/2. + cmath.sqrt(MZ__exp__4/4. - (aEW*cmath.pi*MZ__exp__2)/(Gf*sqrt__2))) 

###################################
## INFORMATION FOR SMINPUTS
###################################
Block sminputs 
    1 1.279000e+02 # aEWM1 
    2 1.166370e-05 # Gf 
    3 1.184000e-01 # aS 

###################################
## INFORMATION FOR YUKAWA
###################################
Block yukawa 
    1 5.040000e-03 # ymdo 
    2 2.550000e-03 # ymup 
    3 1.010000e-01 # yms 
    4 1.270000e+00 # ymc 
    5 4.700000e+00 # ymb 
    6 1.720000e+02 # ymt 
   11 5.110000e-04 # yme 
   13 1.056600e-01 # ymm 
   15 1.777000e+00 # ymtau 

###################################
## INFORMATION FOR DECAY
###################################
DECAY   6 1.508336e+00 # WT 
DECAY  23 2.495200e+00 # WZ 
DECAY  24 2.085000e+00 # WW 
DECAY  25 5.753088e-03 # WH 
## Dependent parameters, given by model restrictions.
## Those values should be edited following the 
## analytical expression. MG5 ignores those values 
## but they are important for interfacing the output of MG5
## to external program such as Pythia.
DECAY  1 0.000000 # d : 0.0 
DECAY  2 0.000000 # u : 0.0 
DECAY  3 0.000000 # s : 0.0 
DECAY  4 0.000000 # c : 0.0 
DECAY  5 0.000000 # b : 0.0 
DECAY  11 0.000000 # e- : 0.0 
DECAY  12 0.000000 # ve : 0.0 
DECAY  13 0.000000 # mu- : 0.0 
DECAY  14 0.000000 # vm : 0.0 
DECAY  15 0.000000 # ta- : 0.0 
DECAY  16 0.000000 # vt : 0.0 
DECAY  21 0.000000 # g : 0.0 
DECAY  22 0.000000 # a : 0.0 
DECAY  10030 0.308725 # zph : (gz__exp__2*MZph*(5 + cmath.sqrt(1 - (4*MT__exp__2)/MZph__exp__2)))/(144.*cmath.pi) 
DECAY  10031 0.132629 # zpl : (5*gz__exp__2*MZpl)/(144.*cmath.pi) 
#===========================================================
# QUANTUM NUMBERS OF NEW STATE(S) (NON SM PDG CODE)
#===========================================================

Block QNUMBERS 10030  # zph 
        1 0  # 3 times electric charge
        2 3  # number of spin states (2S+1)
        3 1  # colour rep (1: singlet, 3: triplet, 8: octet)
        4 0  # Particle/Antiparticle distinction (0=own anti)
Block QNUMBERS 10031  # zpl 
        1 0  # 3 times electric charge
        2 3  # number of spin states (2S+1)
        3 1  # colour rep (1: singlet, 3: triplet, 8: octet)
        4 0  # Particle/Antiparticle distinction (0=own anti)
</slha>
## END BANNER##
<MGGenerationInfo>
#  Number of Events        :         3975
#  Integrated weight (pb)  :  0.22403E+00
#  Max wgt                 :  0.76723E-04
#  Average wgt             :  0.56360E-04
</MGGenerationInfo>
</header>
<init>
     2212     2212  0.40000000000E+04  0.40000000000E+04 0 0  247000  247000 2   1
  0.22418349869E+00  0.42078811409E-03  0.76722510000E-04   0
</init>
<event>
 5   0  0.7359897E-04  0.1501314E+04  0.7818609E-02  0.8883580E-01
       -2   -1    0    0    0  501  0.00000000000E+00  0.00000000000E+00  0.29646310953E+03  0.29646310954E+03  0.25500000920E-02 0. -1.
        2   -1    0    0  501    0  0.00000000000E+00  0.00000000000E+00 -0.19006938879E+04  0.19006938879E+04  0.25500000920E-02 0.  1.
    10030    2    1    2    0    0  0.00000000000E+00  0.00000000000E+00 -0.16042307784E+04  0.21971569975E+04  0.15013135852E+04 0.  0.
        1    1    3    3  502    0  0.45750122317E+03 -0.59304457783E+03 -0.72928740336E+03  0.10454039206E+04  0.50400001928E-02 0.  1.
       -1    1    3    3    0  502 -0.45750122317E+03  0.59304457783E+03 -0.87494337502E+03  0.11517530768E+04  0.50400001928E-02 0. -1.
</event>
<event>
 5   0  0.7359897E-04  0.1491766E+04  0.7818609E-02  0.8889947E-01
        2   -1    0    0  501    0  0.00000000000E+00  0.00000000000E+00  0.15175136658E+04  0.15175136658E+04  0.25500000920E-02 0. -1.
       -2   -1    0    0    0  501  0.00000000000E+00  0.00000000000E+00 -0.36661385705E+03  0.36661385706E+03  0.25500000920E-02 0.  1.
    10030    2    1    2    0    0  0.00000000000E+00  0.00000000000E+00  0.11508998088E+04  0.18841275229E+04  0.14917661186E+04 0.  0.
        1    1    3    3  502    0 -0.12318766681E+03  0.73453625832E+03  0.52457014941E+03  0.91098438939E+03  0.50400001928E-02 0. -1.
       -1    1    3    3    0  502  0.12318766681E+03 -0.73453625832E+03  0.62632965939E+03  0.97314313351E+03  0.50400001928E-02 0.  1.
</event>
<event>
 5   0  0.7454828E-04  0.1407083E+04  0.7818609E-02  0.8948708E-01
        2   -1    0    0  501    0  0.00000000000E+00  0.00000000000E+00  0.88852053192E+03  0.88852053192E+03  0.25500000920E-02 0.  1.
       -2   -1    0    0    0  501  0.00000000000E+00  0.00000000000E+00 -0.55707248351E+03  0.55707248351E+03  0.25500000920E-02 0. -1.
    10030    2    1    2    0    0  0.00000000000E+00  0.00000000000E+00  0.33144804841E+03  0.14455930154E+04  0.14070825695E+04 0.  0.
        3    1    3    3  502    0  0.13748020200E+03 -0.66993965808E+03  0.33531889821E+03  0.76168151159E+03  0.10100000352E+00 0. -1.
       -3    1    3    3    0  502 -0.13748020200E+03  0.66993965808E+03 -0.38708497970E+01  0.68391150384E+03  0.10100000352E+00 0.  1.
</event>
<event>
 5   0  0.7359897E-04  0.1214379E+04  0.7818609E-02  0.9100363E-01
        2   -1    0    0  501    0  0.00000000000E+00  0.00000000000E+00  0.94083635335E+03  0.94083635335E+03  0.25500000920E-02 0.  1.
       -2   -1    0    0    0  501  0.00000000000E+00  0.00000000000E+00 -0.39186322360E+03  0.39186322361E+03  0.25500000920E-02 0. -1.
    10030    2    1    2    0    0  0.00000000000E+00  0.00000000000E+00  0.54897312974E+03  0.13326995770E+04  0.12143791275E+04 0.  0.
        1    1    3    3  502    0 -0.38609809211E+03 -0.36402119794E+03 -0.49388164656E+02  0.53293748237E+03  0.50400001928E-02 0. -1.
       -1    1    3    3    0  502  0.38609809211E+03  0.36402119794E+03  0.59836129440E+03  0.79976209459E+03  0.50400001928E-02 0.  1.
</event>
<event>
 5   0  0.7454828E-04  0.1510820E+04  0.7818609E-02  0.8877289E-01
       -2   -1    0    0    0  501  0.00000000000E+00  0.00000000000E+00  0.73186869489E+03  0.73186869489E+03  0.25500000920E-02 0.  1.
        2   -1    0    0  501    0  0.00000000000E+00  0.00000000000E+00 -0.77970849274E+03  0.77970849275E+03  0.25500000920E-02 0. -1.
    10030    2    1    2    0    0  0.00000000000E+00  0.00000000000E+00 -0.47839797856E+02  0.15115771876E+04  0.15108199588E+04 0.  0.
        3    1    3    3  502    0  0.21018260525E+03  0.14332838809E+03 -0.73556007634E+03  0.77831124269E+03  0.10100000352E+00 0. -1.
       -3    1    3    3    0  502 -0.21018260525E+03 -0.14332838809E+03  0.68772027849E+03  0.73326594495E+03  0.10100000352E+00 0.  1.
</event>
<event>
 5   0  0.4084462E-04  0.1497579E+04  0.7818609E-02  0.8886065E-01
       -1   -1    0    0    0  501  0.00000000000E+00  0.00000000000E+00  0.33572166411E+03  0.33572166414E+03  0.50400001928E-02 0. -1.
        1   -1    0    0  501    0  0.00000000000E+00  0.00000000000E+00 -0.16700907178E+04  0.16700907178E+04  0.50400001928E-02 0.  1.
    10030    2    1    2    0    0  0.00000000000E+00  0.00000000000E+00 -0.13343690537E+04  0.20058123820E+04  0.14975788928E+04 0.  0.
        1    1    3    3  502    0 -0.32966375261E+03 -0.58352948922E+03 -0.11144234067E+04  0.13004323835E+04  0.50400001928E-02 0.  1.
       -1    1    3    3    0  502  0.32966375261E+03  0.58352948922E+03 -0.21994564697E+03  0.70537999846E+03  0.50400001928E-02 0. -1.
</event>
<event>
 5   0  0.4086710E-04  0.1284301E+04  0.7818609E-02  0.9042108E-01
       -1   -1    0    0    0  501  0.00000000000E+00  0.00000000000E+00  0.52582467362E+03  0.52582467365E+03  0.50400001928E-02 0. -1.
        1   -1    0    0  501    0  0.00000000000E+00  0.00000000000E+00 -0.78421004423E+03  0.78421004424E+03  0.50400001928E-02 0.  1.
    10030    2    1    2    0    0  0.00000000000E+00  0.00000000000E+00 -0.25838537061E+03  0.13100347179E+04  0.12843005732E+04 0.  0.
        3    1    3    3  502    0  0.24350759487E+03 -0.30236929722E+03  0.39255806989E+03  0.55210958070E+03  0.10100000352E+00 0. -1.
       -3    1    3    3    0  502 -0.24350759487E+03  0.30236929722E+03 -0.65094344050E+03  0.75792513719E+03  0.10100000352E+00 0.  1.
</event>
<event>
 5   0  0.7359897E-04  0.1419285E+04  0.7818609E-02  0.8939976E-01
        2   -1    0    0  501    0  0.00000000000E+00  0.00000000000E+00  0.96533694986E+03  0.96533694986E+03  0.25500000920E-02 0.  1.
       -2   -1    0    0    0  501  0.00000000000E+00  0.00000000000E+00 -0.52167509883E+03  0.52167509884E+03  0.25500000920E-02 0. -1.
    10030    2    1    2    0    0  0.00000000000E+00  0.00000000000E+00  0.44366185103E+03  0.14870120487E+04  0.14192846772E+04 0.  0.
        1    1    3    3  502    0 -0.56052374064E+02 -0.19736436895E+03  0.93358463167E+03  0.95586339363E+03  0.50400001928E-02 0.  1.
       -1    1    3    3    0  502  0.56052374064E+02  0.19736436895E+03 -0.48992278064E+03  0.53114865507E+03  0.50400001928E-02 0. -1.
</event>
<event>
 5   0  0.4015204E-04  0.1503154E+04  0.7818609E-02  0.8882358E-01
        1   -1    0    0  501    0  0.00000000000E+00  0.00000000000E+00  0.10345610877E+04  0.10345610877E+04  0.50400001928E-02 0.  1.
       -1   -1    0    0    0  501  0.00000000000E+00  0.00000000000E+00 -0.54599784008E+03  0.54599784010E+03  0.50400001928E-02 0. -1.
    10030    2    1    2    0    0  0.00000000000E+00  0.00000000000E+00  0.48856324759E+03  0.15805589278E+04  0.15031541762E+04 0.  0.
        2    1    3    3  502    0  0.59381235199E+03  0.45097278536E+03  0.14520336779E+03  0.75965359246E+03  0.25500000920E-02 0. -1.
       -2    1    3    3    0  502 -0.59381235199E+03 -0.45097278536E+03  0.34335987980E+03  0.82090533533E+03  0.25500000920E-02 0.  1.
</event>
<event>
 5   0  0.7359897E-04  0.1509004E+04  0.7818609E-02  0.8878488E-01
       -2   -1    0    0    0  501  0.00000000000E+00  0.00000000000E+00  0.21985695541E+03  0.21985695542E+03  0.25500000920E-02 0.  1.
        2   -1    0    0  501    0  0.00000000000E+00  0.00000000000E+00 -0.25892877151E+04  0.25892877151E+04  0.25500000920E-02 0. -1.
    10030    2    1    2    0    0  0.00000000000E+00  0.00000000000E+00 -0.23694307597E+04  0.28091446705E+04  0.15090035305E+04 0.  0.
        1    1    3    3  502    0  0.48892123683E+03  0.24548914763E+03 -0.21746971856E+03  0.58872911933E+03  0.50400001928E-02 0.  1.
       -1    1    3    3    0  502 -0.48892123683E+03 -0.24548914763E+03 -0.21519610411E+04  0.22204155512E+04  0.50400001928E-02 0. -1.
</event>
<event>
 5   0  0.2800375E-04  0.1499117E+04  0.7818609E-02  0.8885041E-01
       -4   -1    0    0    0  501  0.00000000000E+00  0.00000000000E+00  0.49661333659E+03  0.49661496049E+03  0.12699999809E+01 0.  1.
        4   -1    0    0  501    0  0.00000000000E+00  0.00000000000E+00 -0.11313344301E+04  0.11313351429E+04  0.12699999809E+01 0. -1.
    10030    2    1    2    0    0  0.00000000000E+00  0.00000000000E+00 -0.63472109347E+03  0.16279501034E+04  0.14991166307E+04 0.  0.
        3    1    3    3  502    0 -0.67848048462E+03 -0.30716418739E+03 -0.40919824635E+03  0.84978163138E+03  0.10100000352E+00 0. -1.
       -3    1    3    3    0  502  0.67848048462E+03  0.30716418739E+03 -0.22552284712E+03  0.77816847199E+03  0.10100000352E+00 0.  1.
</event>
<event>
 5   0  0.7672251E-04  0.1473213E+04  0.7818609E-02  0.8902464E-01
       -2   -1    0    0    0  501  0.00000000000E+00  0.00000000000E+00  0.55931470586E+03  0.55931470586E+03  0.25500000920E-02 0.  1.
        2   -1    0    0  501    0  0.00000000000E+00  0.00000000000E+00 -0.97009601388E+03  0.97009601388E+03  0.25500000920E-02 0. -1.
    10030    2    1    2    0    0  0.00000000000E+00  0.00000000000E+00 -0.41078130802E+03  0.15294107197E+04  0.14732127703E+04 0.  0.
        5    1    3    3  502    0 -0.51707472433E+03 -0.51792118352E+03 -0.11879246949E+03  0.74144612999E+03  0.46999998093E+01 0.  1.
       -5    1    3    3    0  502  0.51707472433E+03  0.51792118352E+03 -0.29198883853E+03  0.78796458975E+03  0.46999998093E+01 0. -1.
</event>
<event>
 5   0  0.3907345E-04  0.1500745E+04  0.7818609E-02  0.8883958E-01
       -1   -1    0    0    0  501  0.00000000000E+00  0.00000000000E+00  0.29539169959E+03  0.29539169964E+03  0.50400001928E-02 0.  1.
        1   -1    0    0  501    0  0.00000000000E+00  0.00000000000E+00 -0.19061432772E+04  0.19061432772E+04  0.50400001928E-02 0. -1.
    10030    2    1    2    0    0  0.00000000000E+00  0.00000000000E+00 -0.16107515776E+04  0.22015349768E+04  0.15007450181E+04 0.  0.
        5    1    3    3  502    0 -0.23445596383E+03  0.13391340526E+03  0.22163800696E+03  0.34935353900E+03  0.46999998093E+01 0.  1.
       -5    1    3    3    0  502  0.23445596383E+03 -0.13391340526E+03 -0.18323895845E+04  0.18521814378E+04  0.46999998093E+01 0. -1.
</event>
<event>
 5   0  0.2800375E-04  0.1492890E+04  0.7818609E-02  0.8889195E-01
       -3   -1    0    0    0  501  0.00000000000E+00  0.00000000000E+00  0.13820375641E+04  0.13820375678E+04  0.10100000352E+00 0. -1.
        3   -1    0    0  501    0  0.00000000000E+00  0.00000000000E+00 -0.40315838530E+03  0.40315839795E+03  0.10100000352E+00 0.  1.
    10030    2    1    2    0    0  0.00000000000E+00  0.00000000000E+00  0.97887917876E+03  0.17851959657E+04  0.14928898785E+04 0.  0.
        5    1    3    3  502    0  0.31090417070E+02  0.74577075412E+03  0.48446219121E+03  0.88986871865E+03  0.46999998093E+01 0.  1.
       -5    1    3    3    0  502 -0.31090417070E+02 -0.74577075412E+03  0.49441698756E+03  0.89532724705E+03  0.46999998093E+01 0. -1.
</event>
<event>
 5   0  0.4084462E-04  0.1507676E+04  0.7818609E-02  0.8879365E-01
        1   -1    0    0  501    0  0.00000000000E+00  0.00000000000E+00  0.60183998642E+03  0.60183998644E+03  0.50400001928E-02 0.  1.
       -1   -1    0    0    0  501  0.00000000000E+00  0.00000000000E+00 -0.94422350229E+03  0.94422350231E+03  0.50400001928E-02 0. -1.
    10030    2    1    2    0    0  0.00000000000E+00  0.00000000000E+00 -0.34238351587E+03  0.15460634888E+04  0.15076756413E+04 0.  0.
        1    1    3    3  502    0  0.38000652142E+03  0.51738002747E+03 -0.57645596403E+03  0.86277953594E+03  0.50400001928E-02 0. -1.
       -1    1    3    3    0  502 -0.38000652142E+03 -0.51738002747E+03  0.23407244815E+03  0.68328395281E+03  0.50400001928E-02 0.  1.
</event>
<event>
 5   0  0.4086710E-04  0.1511241E+04  0.7818609E-02  0.8877012E-01
        1   -1    0    0  501    0  0.00000000000E+00  0.00000000000E+00  0.50506683488E+03  0.50506683490E+03  0.50400001928E-02 0.  1.
       -1   -1    0    0    0  501  0.00000000000E+00  0.00000000000E+00 -0.11304688901E+04  0.11304688901E+04  0.50400001928E-02 0. -1.
    10030    2    1    2    0    0  0.00000000000E+00  0.00000000000E+00 -0.62540205525E+03  0.16355357250E+04  0.15112410057E+04 0.  0.
        3    1    3    3  502    0 -0.29183879357E+03 -0.53215559447E+03 -0.79983577470E+03  0.10040402058E+04  0.10100000352E+00 0. -1.
       -3    1    3    3    0  502  0.29183879357E+03  0.53215559447E+03  0.17443371944E+03  0.63149551925E+03  0.10100000352E+00 0.  1.
</event>
<event>
 5   0  0.4086710E-04  0.1512930E+04  0.7818609E-02  0.8875900E-01
        1   -1    0    0  501    0  0.00000000000E+00  0.00000000000E+00  0.96203242235E+03  0.96203242236E+03  0.50400001928E-02 0. -1.
       -1   -1    0    0    0  501  0.00000000000E+00  0.00000000000E+00 -0.59482324913E+03  0.59482324916E+03  0.50400001928E-02 0.  1.
    10030    2    1    2    0    0  0.00000000000E+00  0.00000000000E+00  0.36720917322E+03  0.15568556715E+04  0.15129299406E+04 0.  0.
        3    1    3    3  502    0 -0.31427552389E+03  0.47471268628E+03 -0.32897189167E+03  0.65752852040E+03  0.10100000352E+00 0.  1.
       -3    1    3    3    0  502  0.31427552389E+03 -0.47471268628E+03  0.69618106489E+03  0.89932715112E+03  0.10100000352E+00 0. -1.
</event>
<event>
 5   0  0.7359897E-04  0.1496400E+04  0.7818609E-02  0.8886850E-01
        2   -1    0    0  501    0  0.00000000000E+00  0.00000000000E+00  0.34442016989E+03  0.34442016990E+03  0.25500000920E-02 0. -1.
       -2   -1    0    0    0  501  0.00000000000E+00  0.00000000000E+00 -0.16253497134E+04  0.16253497134E+04  0.25500000920E-02 0.  1.
    10030    2    1    2    0    0  0.00000000000E+00  0.00000000000E+00 -0.12809295436E+04  0.19697698833E+04  0.14963999792E+04 0.  0.
        1    1    3    3  502    0 -0.36553159641E+03 -0.55507258160E+03 -0.10928036218E+04  0.12790381834E+04  0.50400001928E-02 0.  1.
       -1    1    3    3    0  502  0.36553159641E+03  0.55507258160E+03 -0.18812592177E+03  0.69073169993E+03  0.50400001928E-02 0. -1.
</event>
<event>
 5   0  0.4058874E-04  0.1516233E+04  0.7818609E-02  0.8873729E-01
       -1   -1    0    0    0  501  0.00000000000E+00  0.00000000000E+00  0.43485715764E+03  0.43485715767E+03  0.50400001928E-02 0. -1.
        1   -1    0    0  501    0  0.00000000000E+00  0.00000000000E+00 -0.13216769259E+04  0.13216769259E+04  0.50400001928E-02 0.  1.
    10030    2    1    2    0    0  0.00000000000E+00  0.00000000000E+00 -0.88681976830E+03  0.17565340836E+04  0.15162330578E+04 0.  0.
        4    1    3    3  502    0 -0.15650959922E+03 -0.62146825589E+03 -0.91259082518E+03  0.11151419976E+04  0.12699999809E+01 0.  1.
       -4    1    3    3    0  502  0.15650959922E+03  0.62146825589E+03  0.25771056883E+02  0.64139208601E+03  0.12699999809E+01 0. -1.
</event>
<event>
 5   0  0.4084462E-04  0.1362306E+04  0.7818609E-02  0.8981564E-01
        1   -1    0    0  501    0  0.00000000000E+00  0.00000000000E+00  0.38971489691E+03  0.38971489695E+03  0.50400001928E-02 0.  1.
       -1   -1    0    0    0  501  0.00000000000E+00  0.00000000000E+00 -0.11905361550E+04  0.11905361550E+04  0.50400001928E-02 0. -1.
    10030    2    1    2    0    0  0.00000000000E+00  0.00000000000E+00 -0.80082125809E+03  0.15802510520E+04  0.13623063898E+04 0.  0.
        1    1    3    3  502    0 -0.20213985294E+03  0.29484451493E+03  0.27215483251E+03  0.44929061978E+03  0.50400001928E-02 0.  1.
       -1    1    3    3    0  502  0.20213985294E+03 -0.29484451493E+03 -0.10729760906E+04  0.11309604322E+04  0.50400001928E-02 0. -1.
</event>
<event>
 5   0  0.7634227E-04  0.1504279E+04  0.7818609E-02  0.8881612E-01
       -2   -1    0    0    0  501  0.00000000000E+00  0.00000000000E+00  0.74412595851E+03  0.74412595851E+03  0.25500000920E-02 0. -1.
        2   -1    0    0  501    0  0.00000000000E+00  0.00000000000E+00 -0.76023940829E+03  0.76023940830E+03  0.25500000920E-02 0.  1.
    10030    2    1    2    0    0  0.00000000000E+00  0.00000000000E+00 -0.16113449785E+02  0.15043653668E+04  0.15042790677E+04 0.  0.
        2    1    3    3  502    0 -0.63962164158E+02 -0.25796908033E+03  0.69559907101E+03  0.74464573621E+03  0.25500000920E-02 0. -1.
       -2    1    3    3    0  502  0.63962164158E+02  0.25796908033E+03 -0.71171252080E+03  0.75971963060E+03  0.25500000920E-02 0.  1.
</event>
<event>
 5   0  0.4086710E-04  0.1508759E+04  0.7818609E-02  0.8878649E-01
       -1   -1    0    0    0  501  0.00000000000E+00  0.00000000000E+00  0.41445593618E+03  0.41445593621E+03  0.50400001928E-02 0.  1.
        1   -1    0    0  501    0  0.00000000000E+00  0.00000000000E+00 -0.13730974500E+04  0.13730974500E+04  0.50400001928E-02 0. -1.
    10030    2    1    2    0    0  0.00000000000E+00  0.00000000000E+00 -0.95864151378E+03  0.17875533862E+04  0.15087589458E+04 0.  0.
        3    1    3    3  502    0 -0.18825315287E+03 -0.17005926663E+03  0.36240047386E+03  0.44237260018E+03  0.10100000352E+00 0.  1.
       -3    1    3    3    0  502  0.18825315287E+03  0.17005926663E+03 -0.13210419876E+04  0.13451807860E+04  0.10100000352E+00 0. -1.
</event>
<event>
 5   0  0.7454828E-04  0.1556882E+04  0.7818609E-02  0.8847484E-01
        2   -1    0    0  501    0  0.00000000000E+00  0.00000000000E+00  0.18277079464E+04  0.18277079464E+04  0.25500000920E-02 0. -1.
       -2   -1    0    0    0  501  0.00000000000E+00  0.00000000000E+00 -0.33154659369E+03  0.33154659370E+03  0.25500000920E-02 0.  1.
    10030    2    1    2    0    0  0.00000000000E+00  0.00000000000E+00  0.14961613528E+04  0.21592545402E+04  0.15568819402E+04 0.  0.
        3    1    3    3  502    0  0.77372676417E+03 -0.34250322434E+02  0.85679301473E+03  0.11549547482E+04  0.10100000352E+00 0.  1.
       -3    1    3    3    0  502 -0.77372676417E+03  0.34250322434E+02  0.63936833803E+03  0.10042997919E+04  0.10100000352E+00 0. -1.
</event>
<event>
 5   0  0.4084462E-04  0.1497698E+04  0.7818609E-02  0.8885985E-01
        1   -1    0    0  501    0  0.00000000000E+00  0.00000000000E+00  0.17016315514E+04  0.17016315514E+04  0.50400001928E-02 0. -1.
       -1   -1    0    0    0  501  0.00000000000E+00  0.00000000000E+00 -0.32955131876E+03  0.32955131880E+03  0.50400001928E-02 0.  1.
    10030    2    1    2    0    0  0.00000000000E+00  0.00000000000E+00  0.13720802326E+04  0.20311828702E+04  0.14976981296E+04 0.  0.
        1    1    3    3  502    0  0.31443349348E+03 -0.23276946230E+03  0.15520210760E+04  0.16005684817E+04  0.50400001928E-02 0. -1.
       -1    1    3    3    0  502 -0.31443349348E+03  0.23276946230E+03 -0.17994084337E+03  0.43061438845E+03  0.50400001928E-02 0.  1.
</event>
<event>
 5   0  0.7634227E-04  0.1493529E+04  0.7818609E-02  0.8888767E-01
        2   -1    0    0  501    0  0.00000000000E+00  0.00000000000E+00  0.17502090922E+04  0.17502090922E+04  0.25500000920E-02 0. -1.
       -2   -1    0    0    0  501  0.00000000000E+00  0.00000000000E+00 -0.31862325188E+03  0.31862325189E+03  0.25500000920E-02 0.  1.
    10030    2    1    2    0    0  0.00000000000E+00  0.00000000000E+00  0.14315858404E+04  0.20688323441E+04  0.14935291259E+04 0.  0.
        2    1    3    3  502    0 -0.71264599615E+03 -0.25698214338E+02  0.40875185271E+03  0.82195060140E+03  0.25500000920E-02 0. -1.
       -2    1    3    3    0  502  0.71264599615E+03  0.25698214338E+02  0.10228339876E+04  0.12468817427E+04  0.25500000920E-02 0.  1.
</event>
<event>
 5   0  0.4015204E-04  0.1500915E+04  0.7818609E-02  0.8883845E-01
       -1   -1    0    0    0  501  0.00000000000E+00  0.00000000000E+00  0.60775149583E+03  0.60775149585E+03  0.50400001928E-02 0.  1.
        1   -1    0    0  501    0  0.00000000000E+00  0.00000000000E+00 -0.92667219405E+03  0.92667219406E+03  0.50400001928E-02 0. -1.
    10030    2    1    2    0    0  0.00000000000E+00  0.00000000000E+00 -0.31892069821E+03  0.15344236899E+04  0.15009149371E+04 0.  0.
        2    1    3    3  502    0  0.68563624442E+03  0.12592398661E+03  0.12465144818E+03  0.70816092352E+03  0.25500000920E-02 0.  1.
       -2    1    3    3    0  502 -0.68563624442E+03 -0.12592398661E+03 -0.44357214639E+03  0.82626276639E+03  0.25500000920E-02 0. -1.
</event>
<event>
 5   0  0.7454828E-04  0.1505355E+04  0.7818609E-02  0.8880900E-01
        2   -1    0    0  501    0  0.00000000000E+00  0.00000000000E+00  0.88425505169E+03  0.88425505169E+03  0.25500000920E-02 0.  1.
       -2   -1    0    0    0  501  0.00000000000E+00  0.00000000000E+00 -0.64067847205E+03  0.64067847205E+03  0.25500000920E-02 0. -1.
    10030    2    1    2    0    0  0.00000000000E+00  0.00000000000E+00  0.24357657964E+03  0.15249335237E+04  0.15053546764E+04 0.  0.
        3    1    3    3  502    0  0.18350937103E+03 -0.19579959013E+03 -0.59057185499E+03  0.64868196742E+03  0.10100000352E+00 0. -1.
       -3    1    3    3    0  502 -0.18350937103E+03  0.19579959013E+03  0.83414843463E+03  0.87625155632E+03  0.10100000352E+00 0.  1.
</event>
<event>
 5   0  0.7672251E-04  0.1526670E+04  0.7818609E-02  0.8866909E-01
       -2   -1    0    0    0  501  0.00000000000E+00  0.00000000000E+00  0.15454999275E+04  0.15454999275E+04  0.25500000920E-02 0.  1.
        2   -1    0    0  501    0  0.00000000000E+00  0.00000000000E+00 -0.37701716143E+03  0.37701716144E+03  0.25500000920E-02 0. -1.
    10030    2    1    2    0    0  0.00000000000E+00  0.00000000000E+00  0.11684827661E+04  0.19225170890E+04  0.15266695722E+04 0.  0.
        5    1    3    3  502    0  0.78540208620E+02 -0.37045075895E+02 -0.37075837821E+03  0.38082117461E+03  0.46999998093E+01 0. -1.
       -5    1    3    3    0  502 -0.78540208620E+02  0.37045075895E+02  0.15392411443E+04  0.15416959144E+04  0.46999998093E+01 0.  1.
</event>
<event>
 5   0  0.4015204E-04  0.1494865E+04  0.7818609E-02  0.8887875E-01
        1   -1    0    0  501    0  0.00000000000E+00  0.00000000000E+00  0.18703784104E+04  0.18703784104E+04  0.50400001928E-02 0. -1.
       -1   -1    0    0    0  501  0.00000000000E+00  0.00000000000E+00 -0.29868562832E+03  0.29868562836E+03  0.50400001928E-02 0.  1.
    10030    2    1    2    0    0  0.00000000000E+00  0.00000000000E+00  0.15716927821E+04  0.21690640388E+04  0.14948647441E+04 0.  0.
        2    1    3    3  502    0 -0.34049767687E+03  0.10919277376E+03  0.17382148548E+04  0.17746133695E+04  0.25500000920E-02 0. -1.
       -2    1    3    3    0  502  0.34049767687E+03 -0.10919277376E+03 -0.16652207269E+03  0.39445066928E+03  0.25500000920E-02 0.  1.
</event>
<event>
 5   0  0.7454828E-04  0.1493827E+04  0.7818609E-02  0.8888568E-01
        2   -1    0    0  501    0  0.00000000000E+00  0.00000000000E+00  0.73158646490E+03  0.73158646490E+03  0.25500000920E-02 0. -1.
       -2   -1    0    0    0  501  0.00000000000E+00  0.00000000000E+00 -0.76256183927E+03  0.76256183927E+03  0.25500000920E-02 0.  1.
    10030    2    1    2    0    0  0.00000000000E+00  0.00000000000E+00 -0.30975374374E+02  0.14941483042E+04  0.14938271925E+04 0.  0.
        3    1    3    3  502    0 -0.91362765040E+02  0.14459560310E+03  0.71173453237E+03  0.73199801778E+03  0.10100000352E+00 0. -1.
       -3    1    3    3    0  502  0.91362765040E+02 -0.14459560310E+03 -0.74270990674E+03  0.76215028639E+03  0.10100000352E+00 0.  1.
</event>
<event>
 5   0  0.7359897E-04  0.1503258E+04  0.7818609E-02  0.8882290E-01
        2   -1    0    0  501    0  0.00000000000E+00  0.00000000000E+00  0.12482741611E+04  0.12482741611E+04  0.25500000920E-02 0. -1.
       -2   -1    0    0    0  501  0.00000000000E+00  0.00000000000E+00 -0.45258150687E+03  0.45258150688E+03  0.25500000920E-02 0.  1.
    10030    2    1    2    0    0  0.00000000000E+00  0.00000000000E+00  0.79569265425E+03  0.17008556680E+04  0.15032575306E+04 0.  0.
        1    1    3    3  502    0  0.42504187218E+03  0.52191512091E+03  0.77631448814E+03  0.10274824432E+04  0.50400001928E-02 0. -1.
       -1    1    3    3    0  502 -0.42504187218E+03 -0.52191512091E+03  0.19378166113E+02  0.67337322481E+03  0.50400001928E-02 0.  1.
</event>
<event>
 5   0  0.3907345E-04  0.1476457E+04  0.7818609E-02  0.8900262E-01
        1   -1    0    0  501    0  0.00000000000E+00  0.00000000000E+00  0.89176928372E+03  0.89176928373E+03  0.50400001928E-02 0. -1.
       -1   -1    0    0    0  501  0.00000000000E+00  0.00000000000E+00 -0.61112348001E+03  0.61112348003E+03  0.50400001928E-02 0.  1.
    10030    2    1    2    0    0  0.00000000000E+00  0.00000000000E+00  0.28064580371E+03  0.15028927638E+04  0.14764567695E+04 0.  0.
        5    1    3    3  502    0  0.31409983448E+03  0.44598629305E+03 -0.36597263908E+03  0.65690223181E+03  0.46999998093E+01 0.  1.
       -5    1    3    3    0  502 -0.31409983448E+03 -0.44598629305E+03  0.64661844279E+03  0.84599053195E+03  0.46999998093E+01 0. -1.
</event>
<event>
 5   0  0.7454828E-04  0.1520902E+04  0.7818609E-02  0.8870671E-01
       -2   -1    0    0    0  501  0.00000000000E+00  0.00000000000E+00  0.27813375101E+03  0.27813375102E+03  0.25500000920E-02 0. -1.
        2   -1    0    0  501    0  0.00000000000E+00  0.00000000000E+00 -0.20791654227E+04  0.20791654227E+04  0.25500000920E-02 0.  1.
    10030    2    1    2    0    0  0.00000000000E+00  0.00000000000E+00 -0.18010316717E+04  0.23572991737E+04  0.15209024663E+04 0.  0.
        3    1    3    3  502    0 -0.68898182827E+03  0.16951652254E+03 -0.13245702525E+04  0.15026370736E+04  0.10100000352E+00 0. -1.
       -3    1    3    3    0  502  0.68898182827E+03 -0.16951652254E+03 -0.47646141917E+03  0.85466210005E+03  0.10100000352E+00 0.  1.
</event>
<event>
 5   0  0.4058874E-04  0.1533988E+04  0.7818609E-02  0.8862160E-01
       -1   -1    0    0    0  501  0.00000000000E+00  0.00000000000E+00  0.31612340516E+03  0.31612340520E+03  0.50400001928E-02 0. -1.
        1   -1    0    0  501    0  0.00000000000E+00  0.00000000000E+00 -0.18609187560E+04  0.18609187560E+04  0.50400001928E-02 0.  1.
    10030    2    1    2    0    0  0.00000000000E+00  0.00000000000E+00 -0.15447953508E+04  0.21770421612E+04  0.15339882319E+04 0.  0.
        4    1    3    3  502    0 -0.54281771511E+03  0.47824602033E+03 -0.11339690470E+04  0.13450865178E+04  0.12699999809E+01 0.  1.
       -4    1    3    3    0  502  0.54281771511E+03 -0.47824602033E+03 -0.41082630378E+03  0.83195564340E+03  0.12699999809E+01 0. -1.
</event>
<event>
 5   0  0.4084462E-04  0.1514388E+04  0.7818609E-02  0.8874941E-01
        1   -1    0    0  501    0  0.00000000000E+00  0.00000000000E+00  0.38817365091E+03  0.38817365094E+03  0.50400001928E-02 0.  1.
       -1   -1    0    0    0  501  0.00000000000E+00  0.00000000000E+00 -0.14770256283E+04  0.14770256284E+04  0.50400001928E-02 0. -1.
    10030    2    1    2    0    0  0.00000000000E+00  0.00000000000E+00 -0.10888519774E+04  0.18651992793E+04  0.15143875735E+04 0.  0.
        1    1    3    3  502    0  0.27954907189E+03  0.44438141715E+03 -0.12164613666E+04  0.13249153875E+04  0.50400001928E-02 0. -1.
       -1    1    3    3    0  502 -0.27954907189E+03 -0.44438141715E+03  0.12760938919E+03  0.54028389180E+03  0.50400001928E-02 0.  1.
</event>
<event>
 5   0  0.4086710E-04  0.1445606E+04  0.7818609E-02  0.8921453E-01
       -1   -1    0    0    0  501  0.00000000000E+00  0.00000000000E+00  0.59806247098E+03  0.59806247100E+03  0.50400001928E-02 0.  1.
        1   -1    0    0  501    0  0.00000000000E+00  0.00000000000E+00 -0.87356106485E+03  0.87356106487E+03  0.50400001928E-02 0. -1.
    10030    2    1    2    0    0  0.00000000000E+00  0.00000000000E+00 -0.27549859388E+03  0.14716235359E+04  0.14456058785E+04 0.  0.
        3    1    3    3  502    0 -0.43070733065E+03  0.38939646973E+03 -0.57596825889E+03  0.81784953431E+03  0.10100000352E+00 0. -1.
       -3    1    3    3    0  502  0.43070733065E+03 -0.38939646973E+03  0.30046966502E+03  0.65377400156E+03  0.10100000352E+00 0.  1.
</event>
<event>
 5   0  0.7547580E-04  0.1514161E+04  0.7818609E-02  0.8875090E-01
       -2   -1    0    0    0  501  0.00000000000E+00  0.00000000000E+00  0.86120722109E+03  0.86120722109E+03  0.25500000920E-02 0. -1.
        2   -1    0    0  501    0  0.00000000000E+00  0.00000000000E+00 -0.66554384362E+03  0.66554384363E+03  0.25500000920E-02 0.  1.
    10030    2    1    2    0    0  0.00000000000E+00  0.00000000000E+00  0.19566337746E+03  0.15267510647E+04  0.15141613706E+04 0.  0.
        4    1    3    3  502    0  0.23057926721E+03 -0.33162058795E+03 -0.54782874125E+03  0.68062982264E+03  0.12699999809E+01 0.  1.
       -4    1    3    3    0  502 -0.23057926721E+03  0.33162058795E+03  0.74349211871E+03  0.84612124209E+03  0.12699999809E+01 0. -1.
</event>
<event>
 5   0  0.7547580E-04  0.1501126E+04  0.7818609E-02  0.8883705E-01
       -2   -1    0    0    0  501  0.00000000000E+00  0.00000000000E+00  0.37306834828E+03  0.37306834829E+03  0.25500000920E-02 0.  1.
        2   -1    0    0  501    0  0.00000000000E+00  0.00000000000E+00 -0.15100308673E+04  0.15100308673E+04  0.25500000920E-02 0. -1.
    10030    2    1    2    0    0  0.00000000000E+00  0.00000000000E+00 -0.11369625190E+04  0.18830992156E+04  0.15011258728E+04 0.  0.
        4    1    3    3  502    0 -0.11894101721E+02  0.14505392237E+03 -0.14921584696E+04  0.14992400146E+04  0.12699999809E+01 0. -1.
       -4    1    3    3    0  502  0.11894101721E+02 -0.14505392237E+03  0.35519595054E+03  0.38385920105E+03  0.12699999809E+01 0.  1.
</event>
<event>
 5   0  0.4015204E-04  0.1496030E+04  0.7818609E-02  0.8887097E-01
       -1   -1    0    0    0  501  0.00000000000E+00  0.00000000000E+00  0.43285946762E+03  0.43285946765E+03  0.50400001928E-02 0.  1.
        1   -1    0    0  501    0  0.00000000000E+00  0.00000000000E+00 -0.12926291980E+04  0.12926291980E+04  0.50400001928E-02 0. -1.
    10030    2    1    2    0    0  0.00000000000E+00  0.00000000000E+00 -0.85976973037E+03  0.17254886656E+04  0.14960304629E+04 0.  0.
        2    1    3    3  502    0 -0.17597086639E+03  0.17025583797E+02  0.40841641427E+03  0.44503885648E+03  0.25500000920E-02 0.  1.
       -2    1    3    3    0  502  0.17597086639E+03 -0.17025583797E+02 -0.12681861446E+04  0.12804498092E+04  0.25500000920E-02 0. -1.
</event>
<event>
 5   0  0.4086710E-04  0.1501723E+04  0.7818609E-02  0.8883308E-01
       -1   -1    0    0    0  501  0.00000000000E+00  0.00000000000E+00  0.37300696055E+03  0.37300696059E+03  0.50400001928E-02 0.  1.
        1   -1    0    0  501    0  0.00000000000E+00  0.00000000000E+00 -0.15114818597E+04  0.15114818597E+04  0.50400001928E-02 0. -1.
    10030    2    1    2    0    0  0.00000000000E+00  0.00000000000E+00 -0.11384748992E+04  0.18844888203E+04  0.15017233493E+04 0.  0.
        3    1    3    3  502    0  0.25891272265E+03 -0.31320724467E+03  0.22308915307E+03  0.46357669967E+03  0.10100000352E+00 0.  1.
       -3    1    3    3    0  502 -0.25891272265E+03  0.31320724467E+03 -0.13615640522E+04  0.14209121206E+04  0.10100000352E+00 0. -1.
</event>
<event>
 5   0  0.3907345E-04  0.1504571E+04  0.7818609E-02  0.8881419E-01
        1   -1    0    0  501    0  0.00000000000E+00  0.00000000000E+00  0.12817075553E+04  0.12817075553E+04  0.50400001928E-02 0. -1.
       -1   -1    0    0    0  501  0.00000000000E+00  0.00000000000E+00 -0.44154668067E+03  0.44154668070E+03  0.50400001928E-02 0.  1.
    10030    2    1    2    0    0  0.00000000000E+00  0.00000000000E+00  0.84016087462E+03  0.17232542360E+04  0.15045713232E+04 0.  0.
        5    1    3    3  502    0 -0.33953316334E+03  0.40623975928E+03 -0.19200809588E+03  0.56320751941E+03  0.46999998093E+01 0.  1.
       -5    1    3    3    0  502  0.33953316334E+03 -0.40623975928E+03  0.10321689705E+04  0.11600467166E+04  0.46999998093E+01 0. -1.
</event>
<event>
 5   0  0.7634227E-04  0.1452166E+04  0.7818609E-02  0.8916900E-01
       -2   -1    0    0    0  501  0.00000000000E+00  0.00000000000E+00  0.57952773756E+03  0.57952773756E+03  0.25500000920E-02 0.  1.
        2   -1    0    0  501    0  0.00000000000E+00  0.00000000000E+00 -0.90970063184E+03  0.90970063184E+03  0.25500000920E-02 0. -1.
    10030    2    1    2    0    0  0.00000000000E+00  0.00000000000E+00 -0.33017289428E+03  0.14892283694E+04  0.14521663115E+04 0.  0.
        2    1    3    3  502    0 -0.19577730670E+03  0.68442555053E+03 -0.18506175125E+02  0.71211625917E+03  0.25500000920E-02 0.  1.
       -2    1    3    3    0  502  0.19577730670E+03 -0.68442555053E+03 -0.31166671916E+03  0.77711211024E+03  0.25500000920E-02 0. -1.
</event>
<event>
 5   0  0.7454828E-04  0.1501009E+04  0.7818609E-02  0.8883782E-01
       -2   -1    0    0    0  501  0.00000000000E+00  0.00000000000E+00  0.57268017769E+03  0.57268017769E+03  0.25500000920E-02 0. -1.
        2   -1    0    0  501    0  0.00000000000E+00  0.00000000000E+00 -0.98354498111E+03  0.98354498112E+03  0.25500000920E-02 0.  1.
    10030    2    1    2    0    0  0.00000000000E+00  0.00000000000E+00 -0.41086480342E+03  0.15562251588E+04  0.15010086136E+04 0.  0.
        3    1    3    3  502    0 -0.53984319279E+03  0.42940726014E+03 -0.51200475587E+03  0.85905188906E+03  0.10100000352E+00 0.  1.
       -3    1    3    3    0  502  0.53984319279E+03 -0.42940726014E+03  0.10113995245E+03  0.69717326975E+03  0.10100000352E+00 0. -1.
</event>
<event>
 5   0  0.7359897E-04  0.1561539E+04  0.7818609E-02  0.8844531E-01
       -2   -1    0    0    0  501  0.00000000000E+00  0.00000000000E+00  0.38249907549E+03  0.38249907550E+03  0.25500000920E-02 0.  1.
        2   -1    0    0  501    0  0.00000000000E+00  0.00000000000E+00 -0.15937312411E+04  0.15937312411E+04  0.25500000920E-02 0. -1.
    10030    2    1    2    0    0  0.00000000000E+00  0.00000000000E+00 -0.12112321656E+04  0.19762303166E+04  0.15615386339E+04 0.  0.
        1    1    3    3  502    0  0.72431455819E+03 -0.23107916066E+02 -0.23787130162E+03  0.76272426941E+03  0.50400001928E-02 0.  1.
       -1    1    3    3    0  502 -0.72431455819E+03  0.23107916066E+02 -0.97336086398E+03  0.12135060472E+04  0.50400001928E-02 0. -1.
</event>
<event>
 5   0  0.7634227E-04  0.1503337E+04  0.7818609E-02  0.8882237E-01
       -2   -1    0    0    0  501  0.00000000000E+00  0.00000000000E+00  0.38971279326E+03  0.38971279327E+03  0.25500000920E-02 0. -1.
        2   -1    0    0  501    0  0.00000000000E+00  0.00000000000E+00 -0.14497999928E+04  0.14497999928E+04  0.25500000920E-02 0.  1.
    10030    2    1    2    0    0  0.00000000000E+00  0.00000000000E+00 -0.10600871995E+04  0.18395127861E+04  0.15033370944E+04 0.  0.
        2    1    3    3  502    0 -0.31004182088E+03  0.56933127448E+03 -0.99556867912E+03  0.11880324178E+04  0.25500000920E-02 0.  1.
       -2    1    3    3    0  502  0.31004182088E+03 -0.56933127448E+03 -0.64518520397E+02  0.65148036830E+03  0.25500000920E-02 0. -1.
</event>
<event>
 5   0  0.7454828E-04  0.1491679E+04  0.7818609E-02  0.8890005E-01
       -2   -1    0    0    0  501  0.00000000000E+00  0.00000000000E+00  0.21636098591E+03  0.21636098592E+03  0.25500000920E-02 0. -1.
        2   -1    0    0  501    0  0.00000000000E+00  0.00000000000E+00 -0.25710580471E+04  0.25710580471E+04  0.25500000920E-02 0.  1.
    10030    2    1    2    0    0  0.00000000000E+00  0.00000000000E+00 -0.23546970612E+04  0.27874190330E+04  0.14916791263E+04 0.  0.
        3    1    3    3  502    0  0.58844460289E+03  0.35229011954E+03 -0.62966885106E+03  0.93105222797E+03  0.10100000352E+00 0.  1.
       -3    1    3    3    0  502 -0.58844460289E+03 -0.35229011954E+03 -0.17250282102E+04  0.18563668051E+04  0.10100000352E+00 0. -1.
</event>
<event>
 5   0  0.4086710E-04  0.1507617E+04  0.7818609E-02  0.8879403E-01
       -1   -1    0    0    0  501  0.00000000000E+00  0.00000000000E+00  0.31330687749E+03  0.31330687753E+03  0.50400001928E-02 0. -1.
        1   -1    0    0  501    0  0.00000000000E+00  0.00000000000E+00 -0.18136455209E+04  0.18136455209E+04  0.50400001928E-02 0.  1.
    10030    2    1    2    0    0  0.00000000000E+00  0.00000000000E+00 -0.15003386434E+04  0.21269523984E+04  0.15076174781E+04 0.  0.
        3    1    3    3  502    0 -0.14665148270E+03 -0.41842977302E+03 -0.16102245805E+04  0.16701536882E+04  0.10100000352E+00 0.  1.
       -3    1    3    3    0  502  0.14665148270E+03  0.41842977302E+03  0.10988593707E+03  0.45679871026E+03  0.10100000352E+00 0. -1.
</event>
<event>
 5   0  0.7672251E-04  0.1505728E+04  0.7818609E-02  0.8880653E-01
       -2   -1    0    0    0  501  0.00000000000E+00  0.00000000000E+00  0.38294277178E+03  0.38294277179E+03  0.25500000920E-02 0.  1.
        2   -1    0    0  501    0  0.00000000000E+00  0.00000000000E+00 -0.14801273037E+04  0.14801273037E+04  0.25500000920E-02 0. -1.
    10030    2    1    2    0    0  0.00000000000E+00  0.00000000000E+00 -0.10971845319E+04  0.18630700755E+04  0.15057278005E+04 0.  0.
        5    1    3    3  502    0 -0.38234316358E+03  0.39395153092E+03 -0.11860206947E+04  0.13069243596E+04  0.46999998093E+01 0. -1.
       -5    1    3    3    0  502  0.38234316358E+03 -0.39395153092E+03  0.88836162824E+02  0.55614571586E+03  0.46999998093E+01 0.  1.
</event>
<event>
 5   0  0.3907345E-04  0.1492442E+04  0.7818609E-02  0.8889495E-01
        1   -1    0    0  501    0  0.00000000000E+00  0.00000000000E+00  0.13379348124E+04  0.13379348124E+04  0.50400001928E-02 0.  1.
       -1   -1    0    0    0  501  0.00000000000E+00  0.00000000000E+00 -0.41619777883E+03  0.41619777886E+03  0.50400001928E-02 0. -1.
    10030    2    1    2    0    0  0.00000000000E+00  0.00000000000E+00  0.92173703353E+03  0.17541325912E+04  0.14924416198E+04 0.  0.
        5    1    3    3  502    0 -0.42741670034E+03  0.49045112953E+03  0.89046616241E+03  0.11028052514E+04  0.46999998093E+01 0.  1.
       -5    1    3    3    0  502  0.42741670034E+03 -0.49045112953E+03  0.31270871117E+02  0.65132733979E+03  0.46999998093E+01 0. -1.
</event>
<event>
 5   0  0.4086710E-04  0.1500944E+04  0.7818609E-02  0.8883826E-01
       -1   -1    0    0    0  501  0.00000000000E+00  0.00000000000E+00  0.52010473777E+03  0.52010473779E+03  0.50400001928E-02 0. -1.
        1   -1    0    0  501    0  0.00000000000E+00  0.00000000000E+00 -0.10828742176E+04  0.10828742176E+04  0.50400001928E-02 0.  1.
    10030    2    1    2    0    0  0.00000000000E+00  0.00000000000E+00 -0.56276947985E+03  0.16029789554E+04  0.15009437178E+04 0.  0.
        3    1    3    3  502    0 -0.42234648225E+03  0.41973364866E+03  0.20645584755E+03  0.63021973476E+03  0.10100000352E+00 0. -1.
       -3    1    3    3    0  502  0.42234648225E+03 -0.41973364866E+03 -0.76922532740E+03  0.97275922067E+03  0.10100000352E+00 0.  1.
</event>
<event>
 5   0  0.7454828E-04  0.1510641E+04  0.7818609E-02  0.8877408E-01
       -2   -1    0    0    0  501  0.00000000000E+00  0.00000000000E+00  0.53948718313E+03  0.53948718314E+03  0.25500000920E-02 0.  1.
        2   -1    0    0  501    0  0.00000000000E+00  0.00000000000E+00 -0.10575023665E+04  0.10575023665E+04  0.25500000920E-02 0. -1.
    10030    2    1    2    0    0  0.00000000000E+00  0.00000000000E+00 -0.51801518339E+03  0.15969895497E+04  0.15106408877E+04 0.  0.
        3    1    3    3  502    0  0.45838923372E+02 -0.10003619490E+03  0.53096812969E+03  0.54225050681E+03  0.10100000352E+00 0.  1.
       -3    1    3    3    0  502 -0.45838923372E+02  0.10003619490E+03 -0.10489833131E+04  0.10547390429E+04  0.10100000352E+00 0. -1.
</event>
<event>
 5   0  0.4084462E-04  0.1520129E+04  0.7818609E-02  0.8871176E-01
        1   -1    0    0  501    0  0.00000000000E+00  0.00000000000E+00  0.12154272230E+04  0.12154272230E+04  0.50400001928E-02 0.  1.
       -1   -1    0    0    0  501  0.00000000000E+00  0.00000000000E+00 -0.47530473235E+03  0.47530473238E+03  0.50400001928E-02 0. -1.
    10030    2    1    2    0    0  0.00000000000E+00  0.00000000000E+00  0.74012249062E+03  0.16907319554E+04  0.15201293510E+04 0.  0.
        1    1    3    3  502    0  0.37947596679E+03 -0.65235149319E+03  0.47037068061E+03  0.88927670454E+03  0.50400001928E-02 0.  1.
       -1    1    3    3    0  502 -0.37947596679E+03  0.65235149319E+03  0.26975181001E+03  0.80145525082E+03  0.50400001928E-02 0. -1.
</event>
<event>
 5   0  0.4086710E-04  0.1500022E+04  0.7818609E-02  0.8884438E-01
        1   -1    0    0  501    0  0.00000000000E+00  0.00000000000E+00  0.52056172582E+03  0.52056172585E+03  0.50400001928E-02 0.  1.
       -1   -1    0    0    0  501  0.00000000000E+00  0.00000000000E+00 -0.10805957206E+04  0.10805957206E+04  0.50400001928E-02 0. -1.
    10030    2    1    2    0    0  0.00000000000E+00  0.00000000000E+00 -0.56003399479E+03  0.16011574465E+04  0.15000223642E+04 0.  0.
        3    1    3    3  502    0  0.26338944448E+03 -0.35146603763E+03  0.36893225985E+03  0.57359689471E+03  0.10100000352E+00 0.  1.
       -3    1    3    3    0  502 -0.26338944448E+03  0.35146603763E+03 -0.92896625464E+03  0.10275605518E+04  0.10100000352E+00 0. -1.
</event>
<event>
 5   0  0.4015204E-04  0.1491654E+04  0.7818609E-02  0.8890022E-01
       -1   -1    0    0    0  501  0.00000000000E+00  0.00000000000E+00  0.10512156796E+04  0.10512156796E+04  0.50400001928E-02 0.  1.
        1   -1    0    0  501    0  0.00000000000E+00  0.00000000000E+00 -0.52915707369E+03  0.52915707372E+03  0.50400001928E-02 0. -1.
    10030    2    1    2    0    0  0.00000000000E+00  0.00000000000E+00  0.52205860594E+03  0.15803727534E+04  0.14916544008E+04 0.  0.
        2    1    3    3  502    0 -0.36006361532E+03  0.28121746939E+03 -0.36354905714E+03  0.58386384468E+03  0.25500000920E-02 0. -1.
       -2    1    3    3    0  502  0.36006361532E+03 -0.28121746939E+03  0.88560766308E+03  0.99650890868E+03  0.25500000920E-02 0.  1.
</event>
<event>
 5   0  0.3907345E-04  0.1500758E+04  0.7818609E-02  0.8883949E-01
        1   -1    0    0  501    0  0.00000000000E+00  0.00000000000E+00  0.40001770628E+03  0.40001770631E+03  0.50400001928E-02 0. -1.
       -1   -1    0    0    0  501  0.00000000000E+00  0.00000000000E+00 -0.14076085852E+04  0.14076085852E+04  0.50400001928E-02 0.  1.
    10030    2    1    2    0    0  0.00000000000E+00  0.00000000000E+00 -0.10075908789E+04  0.18076262915E+04  0.15007576188E+04 0.  0.
        5    1    3    3  502    0  0.36243027837E+03 -0.50776313306E+03 -0.15605550344E+01  0.62386186877E+03  0.46999998093E+01 0.  1.
       -5    1    3    3    0  502 -0.36243027837E+03  0.50776313306E+03 -0.10060303239E+04  0.11837644227E+04  0.46999998093E+01 0. -1.
</event>
<event>
 5   0  0.7547580E-04  0.1507268E+04  0.7818609E-02  0.8879634E-01
        2   -1    0    0  501    0  0.00000000000E+00  0.00000000000E+00  0.83758384661E+03  0.83758384662E+03  0.25500000920E-02 0. -1.
       -2   -1    0    0    0  501  0.00000000000E+00  0.00000000000E+00 -0.67809865532E+03  0.67809865533E+03  0.25500000920E-02 0.  1.
    10030    2    1    2    0    0  0.00000000000E+00  0.00000000000E+00  0.15948519129E+03  0.15156825019E+04  0.15072683638E+04 0.  0.
        4    1    3    3  502    0 -0.53114855125E+02 -0.11705551679E+03  0.82647786115E+03  0.83641523761E+03  0.12699999809E+01 0. -1.
       -4    1    3    3    0  502  0.53114855125E+02  0.11705551679E+03 -0.66699266986E+03  0.67926726433E+03  0.12699999809E+01 0.  1.
</event>
<event>
 5   0  0.7359897E-04  0.1496050E+04  0.7818609E-02  0.8887084E-01
        2   -1    0    0  501    0  0.00000000000E+00  0.00000000000E+00  0.94030048711E+03  0.94030048711E+03  0.25500000920E-02 0. -1.
       -2   -1    0    0    0  501  0.00000000000E+00  0.00000000000E+00 -0.59506627315E+03  0.59506627316E+03  0.25500000920E-02 0.  1.
    10030    2    1    2    0    0  0.00000000000E+00  0.00000000000E+00  0.34523421396E+03  0.15353667603E+04  0.14960496068E+04 0.  0.
        1    1    3    3  502    0 -0.22475364224E+03  0.61127844269E+03 -0.20497269101E+03  0.68278059308E+03  0.50400001928E-02 0.  1.
       -1    1    3    3    0  502  0.22475364224E+03 -0.61127844269E+03  0.55020690497E+03  0.85258616720E+03  0.50400001928E-02 0. -1.
</event>
<event>
 5   0  0.4058874E-04  0.1497513E+04  0.7818609E-02  0.8886108E-01
       -1   -1    0    0    0  501  0.00000000000E+00  0.00000000000E+00  0.38681908692E+03  0.38681908695E+03  0.50400001928E-02 0. -1.
        1   -1    0    0  501    0  0.00000000000E+00  0.00000000000E+00 -0.14493508422E+04  0.14493508422E+04  0.50400001928E-02 0.  1.
    10030    2    1    2    0    0  0.00000000000E+00  0.00000000000E+00 -0.10625317552E+04  0.18361699291E+04  0.14975133648E+04 0.  0.
        4    1    3    3  502    0 -0.22692721362E+03 -0.49536069788E+02 -0.14040588929E+04  0.14231418658E+04  0.12699999809E+01 0.  1.
       -4    1    3    3    0  502  0.22692721362E+03  0.49536069788E+02  0.34152713763E+03  0.41302806337E+03  0.12699999809E+01 0. -1.
</event>
<event>
 5   0  0.7634227E-04  0.1501810E+04  0.7818609E-02  0.8883250E-01
        2   -1    0    0  501    0  0.00000000000E+00  0.00000000000E+00  0.13769169776E+04  0.13769169776E+04  0.25500000920E-02 0.  1.
       -2   -1    0    0    0  501  0.00000000000E+00  0.00000000000E+00 -0.40950807570E+03  0.40950807570E+03  0.25500000920E-02 0. -1.
    10030    2    1    2    0    0  0.00000000000E+00  0.00000000000E+00  0.96740890190E+03  0.17864250533E+04  0.15018104033E+04 0.  0.
        2    1    3    3  502    0  0.33747719251E+03 -0.51922783635E+03 -0.21482483879E+02  0.61963690870E+03  0.25500000920E-02 0. -1.
       -2    1    3    3    0  502 -0.33747719251E+03  0.51922783635E+03  0.98889138578E+03  0.11667881446E+04  0.25500000920E-02 0.  1.
</event>
<event>
 5   0  0.3907345E-04  0.1572838E+04  0.7818609E-02  0.8837411E-01
       -1   -1    0    0    0  501  0.00000000000E+00  0.00000000000E+00  0.75904689365E+03  0.75904689367E+03  0.50400001928E-02 0.  1.
        1   -1    0    0  501    0  0.00000000000E+00  0.00000000000E+00 -0.81477821421E+03  0.81477821423E+03  0.50400001928E-02 0. -1.
    10030    2    1    2    0    0  0.00000000000E+00  0.00000000000E+00 -0.55731320562E+02  0.15738251079E+04  0.15728380369E+04 0.  0.
        5    1    3    3  502    0 -0.53340280957E+03  0.34342726452E+03  0.43715380249E+03  0.77044557257E+03  0.46999998093E+01 0.  1.
       -5    1    3    3    0  502  0.53340280957E+03 -0.34342726452E+03 -0.49288512305E+03  0.80337953533E+03  0.46999998093E+01 0. -1.
</event>
<event>
 5   0  0.7634227E-04  0.1479648E+04  0.7818609E-02  0.8898101E-01
       -2   -1    0    0    0  501  0.00000000000E+00  0.00000000000E+00  0.50962783329E+03  0.50962783330E+03  0.25500000920E-02 0. -1.
        2   -1    0    0  501    0  0.00000000000E+00  0.00000000000E+00 -0.10739986038E+04  0.10739986038E+04  0.25500000920E-02 0.  1.
    10030    2    1    2    0    0  0.00000000000E+00  0.00000000000E+00 -0.56437077047E+03  0.15836264371E+04  0.14796480411E+04 0.  0.
        2    1    3    3  502    0 -0.39883646128E+03 -0.61335197995E+03 -0.39976155227E+03  0.83371486303E+03  0.25500000920E-02 0.  1.
       -2    1    3    3    0  502  0.39883646128E+03  0.61335197995E+03 -0.16460921819E+03  0.74991157404E+03  0.25500000920E-02 0. -1.
</event>
<event>
 5   0  0.4058874E-04  0.1445380E+04  0.7818609E-02  0.8921609E-01
        1   -1    0    0  501    0  0.00000000000E+00  0.00000000000E+00  0.14328033581E+04  0.14328033581E+04  0.50400001928E-02 0. -1.
       -1   -1    0    0    0  501  0.00000000000E+00  0.00000000000E+00 -0.36451700867E+03  0.36451700870E+03  0.50400001928E-02 0.  1.
    10030    2    1    2    0    0  0.00000000000E+00  0.00000000000E+00  0.10682863494E+04  0.17973203668E+04  0.14453804954E+04 0.  0.
        4    1    3    3  502    0  0.64747792080E+03 -0.29189415719E+03  0.36800896793E+03  0.79991378929E+03  0.12699999809E+01 0.  1.
       -4    1    3    3    0  502 -0.64747792080E+03  0.29189415719E+03  0.70027738147E+03  0.99740657749E+03  0.12699999809E+01 0. -1.
</event>
<event>
 5   0  0.4015204E-04  0.1456403E+04  0.7818609E-02  0.8913973E-01
       -1   -1    0    0    0  501  0.00000000000E+00  0.00000000000E+00  0.41137308088E+03  0.41137308092E+03  0.50400001928E-02 0. -1.
        1   -1    0    0  501    0  0.00000000000E+00  0.00000000000E+00 -0.12890428141E+04  0.12890428142E+04  0.50400001928E-02 0.  1.
    10030    2    1    2    0    0  0.00000000000E+00  0.00000000000E+00 -0.87766973326E+03  0.17004158951E+04  0.14564031226E+04 0.  0.
        2    1    3    3  502    0 -0.41495934444E+03  0.29024711750E+03 -0.10498110359E+04  0.11655633221E+04  0.25500000920E-02 0.  1.
       -2    1    3    3    0  502  0.41495934444E+03 -0.29024711750E+03  0.17214130261E+03  0.53485257298E+03  0.25500000920E-02 0. -1.
</event>
<event>
 5   0  0.4015204E-04  0.1501070E+04  0.7818609E-02  0.8883741E-01
        1   -1    0    0  501    0  0.00000000000E+00  0.00000000000E+00  0.77520184195E+03  0.77520184196E+03  0.50400001928E-02 0.  1.
       -1   -1    0    0    0  501  0.00000000000E+00  0.00000000000E+00 -0.72665335528E+03  0.72665335530E+03  0.50400001928E-02 0. -1.
    10030    2    1    2    0    0  0.00000000000E+00  0.00000000000E+00  0.48548486667E+02  0.15018551973E+04  0.15010703108E+04 0.  0.
        2    1    3    3  502    0  0.24214719540E+03  0.42066590286E+03  0.59703139070E+03  0.76944236143E+03  0.25500000920E-02 0.  1.
       -2    1    3    3    0  502 -0.24214719540E+03 -0.42066590286E+03 -0.54848290403E+03  0.73241283583E+03  0.25500000920E-02 0. -1.
</event>
<event>
 5   0  0.7547580E-04  0.1507255E+04  0.7818609E-02  0.8879643E-01
       -2   -1    0    0    0  501  0.00000000000E+00  0.00000000000E+00  0.84457404653E+03  0.84457404653E+03  0.25500000920E-02 0.  1.
        2   -1    0    0  501    0  0.00000000000E+00  0.00000000000E+00 -0.67247441260E+03  0.67247441260E+03  0.25500000920E-02 0. -1.
    10030    2    1    2    0    0  0.00000000000E+00  0.00000000000E+00  0.17209963393E+03  0.15170484591E+04  0.15072550359E+04 0.  0.
        4    1    3    3  502    0  0.26968793334E+03  0.56931610435E+03  0.50238032976E+03  0.80575431534E+03  0.12699999809E+01 0.  1.
       -4    1    3    3    0  502 -0.26968793334E+03 -0.56931610435E+03 -0.33028069583E+03  0.71129414380E+03  0.12699999809E+01 0. -1.
</event>
<event>
 5   0  0.2800375E-04  0.1307305E+04  0.7818609E-02  0.9023792E-01
       -3   -1    0    0    0  501  0.00000000000E+00  0.00000000000E+00  0.47853903691E+03  0.47853904757E+03  0.10100000352E+00 0. -1.
        3   -1    0    0  501    0  0.00000000000E+00  0.00000000000E+00 -0.89284565846E+03  0.89284566417E+03  0.10100000352E+00 0.  1.
    10030    2    1    2    0    0  0.00000000000E+00  0.00000000000E+00 -0.41430662155E+03  0.13713847117E+04  0.13073048806E+04 0.  0.
        2    1    3    3  502    0  0.20862871004E+02 -0.70731345361E+01 -0.89245614731E+03  0.89272798964E+03  0.25500000920E-02 0.  1.
       -2    1    3    3    0  502 -0.20862871004E+02  0.70731345361E+01  0.47814952576E+03  0.47865672210E+03  0.25500000920E-02 0. -1.
</event>
<event>
 5   0  0.7672251E-04  0.1532688E+04  0.7818609E-02  0.8863002E-01
       -2   -1    0    0    0  501  0.00000000000E+00  0.00000000000E+00  0.82032592491E+03  0.82032592491E+03  0.25500000920E-02 0. -1.
        2   -1    0    0  501    0  0.00000000000E+00  0.00000000000E+00 -0.71591447255E+03  0.71591447255E+03  0.25500000920E-02 0.  1.
    10030    2    1    2    0    0  0.00000000000E+00  0.00000000000E+00  0.10441145236E+03  0.15362403975E+04  0.15326880985E+04 0.  0.
        5    1    3    3  502    0 -0.47931438816E+03  0.43483155100E+03  0.46357179422E+03  0.79607892751E+03  0.46999998093E+01 0. -1.
       -5    1    3    3    0  502  0.47931438816E+03 -0.43483155100E+03 -0.35916034185E+03  0.74016146995E+03  0.46999998093E+01 0.  1.
</event>
<event>
 5   0  0.7672251E-04  0.1538780E+04  0.7818609E-02  0.8859067E-01
       -2   -1    0    0    0  501  0.00000000000E+00  0.00000000000E+00  0.68083649619E+03  0.68083649620E+03  0.25500000920E-02 0.  1.
        2   -1    0    0  501    0  0.00000000000E+00  0.00000000000E+00 -0.86946085769E+03  0.86946085769E+03  0.25500000920E-02 0. -1.
    10030    2    1    2    0    0  0.00000000000E+00  0.00000000000E+00 -0.18862436150E+03  0.15502973539E+04  0.15387796255E+04 0.  0.
        5    1    3    3  502    0  0.38080350574E+02  0.78191044342E+02  0.67585367227E+03  0.68144275536E+03  0.46999998093E+01 0.  1.
       -5    1    3    3    0  502 -0.38080350574E+02 -0.78191044342E+02 -0.86447803377E+03  0.86885459853E+03  0.46999998093E+01 0. -1.
</event>
<event>
 5   0  0.7547580E-04  0.1372784E+04  0.7818609E-02  0.8973758E-01
        2   -1    0    0  501    0  0.00000000000E+00  0.00000000000E+00  0.16038029839E+04  0.16038029839E+04  0.25500000920E-02 0. -1.
       -2   -1    0    0    0  501  0.00000000000E+00  0.00000000000E+00 -0.29376057978E+03  0.29376057979E+03  0.25500000920E-02 0.  1.
    10030    2    1    2    0    0  0.00000000000E+00  0.00000000000E+00  0.13100424041E+04  0.18975635637E+04  0.13727841701E+04 0.  0.
        4    1    3    3  502    0  0.37577974918E+03 -0.34138086188E+03  0.12935376879E+04  0.13896016248E+04  0.12699999809E+01 0. -1.
       -4    1    3    3    0  502 -0.37577974918E+03  0.34138086188E+03  0.16504716182E+02  0.50796193884E+03  0.12699999809E+01 0.  1.
</event>
<event>
 5   0  0.4058874E-04  0.1501454E+04  0.7818609E-02  0.8883486E-01
        1   -1    0    0  501    0  0.00000000000E+00  0.00000000000E+00  0.91799672075E+03  0.91799672076E+03  0.50400001928E-02 0.  1.
       -1   -1    0    0    0  501  0.00000000000E+00  0.00000000000E+00 -0.61393611547E+03  0.61393611549E+03  0.50400001928E-02 0. -1.
    10030    2    1    2    0    0  0.00000000000E+00  0.00000000000E+00  0.30406060528E+03  0.15319328363E+04  0.15014544159E+04 0.  0.
        4    1    3    3  502    0  0.81510832259E+02  0.47718575850E+03 -0.43341121312E+03  0.64976700166E+03  0.12699999809E+01 0. -1.
       -4    1    3    3    0  502 -0.81510832259E+02 -0.47718575850E+03  0.73747181840E+03  0.88216583459E+03  0.12699999809E+01 0.  1.
</event>
<event>
 5   0  0.4015204E-04  0.1491765E+04  0.7818609E-02  0.8889947E-01
        1   -1    0    0  501    0  0.00000000000E+00  0.00000000000E+00  0.84374161408E+03  0.84374161410E+03  0.50400001928E-02 0. -1.
       -1   -1    0    0    0  501  0.00000000000E+00  0.00000000000E+00 -0.65937353127E+03  0.65937353129E+03  0.50400001928E-02 0.  1.
    10030    2    1    2    0    0  0.00000000000E+00  0.00000000000E+00  0.18436808282E+03  0.15031151454E+04  0.14917652464E+04 0.  0.
        2    1    3    3  502    0 -0.21905247786E+03 -0.21654846484E+03  0.77666365798E+03  0.83551401144E+03  0.25500000920E-02 0. -1.
       -2    1    3    3    0  502  0.21905247786E+03  0.21654846484E+03 -0.59229557516E+03  0.66760113394E+03  0.25500000920E-02 0.  1.
</event>
<event>
 5   0  0.7634227E-04  0.1490494E+04  0.7818609E-02  0.8890799E-01
        2   -1    0    0  501    0  0.00000000000E+00  0.00000000000E+00  0.26462755646E+04  0.26462755646E+04  0.25500000920E-02 0. -1.
       -2   -1    0    0    0  501  0.00000000000E+00  0.00000000000E+00 -0.20987739202E+03  0.20987739204E+03  0.25500000920E-02 0.  1.
    10030    2    1    2    0    0  0.00000000000E+00  0.00000000000E+00  0.24363981726E+04  0.28561529567E+04  0.14904944335E+04 0.  0.
        2    1    3    3  502    0  0.73246918874E+03 -0.90982065133E+02  0.10208670753E+04  0.12597453846E+04  0.25500000920E-02 0.  1.
       -2    1    3    3    0  502 -0.73246918874E+03  0.90982065133E+02  0.14155310973E+04  0.15964075721E+04  0.25500000920E-02 0. -1.
</event>
<event>
 5   0  0.4015204E-04  0.1518856E+04  0.7818609E-02  0.8872010E-01
       -1   -1    0    0    0  501  0.00000000000E+00  0.00000000000E+00  0.45215920685E+03  0.45215920688E+03  0.50400001928E-02 0.  1.
        1   -1    0    0  501    0  0.00000000000E+00  0.00000000000E+00 -0.12755033254E+04  0.12755033255E+04  0.50400001928E-02 0. -1.
    10030    2    1    2    0    0  0.00000000000E+00  0.00000000000E+00 -0.82334411860E+03  0.17276625323E+04  0.15188555850E+04 0.  0.
        2    1    3    3  502    0 -0.71183994262E+02 -0.62890454430E+03  0.65719231789E+02  0.63632311314E+03  0.25500000920E-02 0.  1.
       -2    1    3    3    0  502  0.71183994262E+02  0.62890454430E+03 -0.88906335039E+03  0.10913394192E+04  0.25500000920E-02 0. -1.
</event>
<event>
 5   0  0.7454828E-04  0.1475152E+04  0.7818609E-02  0.8901147E-01
       -2   -1    0    0    0  501  0.00000000000E+00  0.00000000000E+00  0.99141937010E+03  0.99141937010E+03  0.25500000920E-02 0. -1.
        2   -1    0    0  501    0  0.00000000000E+00  0.00000000000E+00 -0.54872641520E+03  0.54872641520E+03  0.25500000920E-02 0.  1.
    10030    2    1    2    0    0  0.00000000000E+00  0.00000000000E+00  0.44269295490E+03  0.15401457853E+04  0.14751515135E+04 0.  0.
        3    1    3    3  502    0  0.24963696195E+03 -0.51568780700E+03 -0.26362496280E+03  0.63067476426E+03  0.10100000352E+00 0.  1.
       -3    1    3    3    0  502 -0.24963696195E+03  0.51568780700E+03  0.70631791771E+03  0.90947102105E+03  0.10100000352E+00 0. -1.
</event>
<event>
 5   0  0.7672251E-04  0.1503832E+04  0.7818609E-02  0.8881908E-01
       -2   -1    0    0    0  501  0.00000000000E+00  0.00000000000E+00  0.34323157756E+03  0.34323157757E+03  0.25500000920E-02 0. -1.
        2   -1    0    0  501    0  0.00000000000E+00  0.00000000000E+00 -0.16472201768E+04  0.16472201768E+04  0.25500000920E-02 0.  1.
    10030    2    1    2    0    0  0.00000000000E+00  0.00000000000E+00 -0.13039885993E+04  0.19904517544E+04  0.15038324107E+04 0.  0.
        5    1    3    3  502    0 -0.63369809489E+02  0.11565154280E+03 -0.16317743138E+04  0.16371012532E+04  0.46999998093E+01 0.  1.
       -5    1    3    3    0  502  0.63369809489E+02 -0.11565154280E+03  0.32778571448E+03  0.35335050124E+03  0.46999998093E+01 0. -1.
</event>
<event>
 5   0  0.3907345E-04  0.1492174E+04  0.7818609E-02  0.8889674E-01
        1   -1    0    0  501    0  0.00000000000E+00  0.00000000000E+00  0.13203601098E+04  0.13203601098E+04  0.50400001928E-02 0.  1.
       -1   -1    0    0    0  501  0.00000000000E+00  0.00000000000E+00 -0.42158645351E+03  0.42158645354E+03  0.50400001928E-02 0. -1.
    10030    2    1    2    0    0  0.00000000000E+00  0.00000000000E+00  0.89877365630E+03  0.17419465634E+04  0.14921741669E+04 0.  0.
        5    1    3    3  502    0  0.44067402374E+01 -0.68126842643E+03  0.80439140903E+03  0.10541412226E+04  0.46999998093E+01 0.  1.
       -5    1    3    3    0  502 -0.44067402374E+01  0.68126842643E+03  0.94382247265E+02  0.68780534078E+03  0.46999998093E+01 0. -1.
</event>
<event>
 5   0  0.4086710E-04  0.1391537E+04  0.7818609E-02  0.8959967E-01
       -1   -1    0    0    0  501  0.00000000000E+00  0.00000000000E+00  0.34993940757E+03  0.34993940760E+03  0.50400001928E-02 0.  1.
        1   -1    0    0  501    0  0.00000000000E+00  0.00000000000E+00 -0.13833642932E+04  0.13833642932E+04  0.50400001928E-02 0. -1.
    10030    2    1    2    0    0  0.00000000000E+00  0.00000000000E+00 -0.10334248856E+04  0.17333037008E+04  0.13915368213E+04 0.  0.
        3    1    3    3  502    0  0.45751795130E+03 -0.12206226794E+03  0.11826681266E+03  0.48806651411E+03  0.10100000352E+00 0. -1.
       -3    1    3    3    0  502 -0.45751795130E+03  0.12206226794E+03 -0.11516916983E+04  0.12452371867E+04  0.10100000352E+00 0.  1.
</event>
<event>
 5   0  0.7454828E-04  0.1479547E+04  0.7818609E-02  0.8898169E-01
        2   -1    0    0  501    0  0.00000000000E+00  0.00000000000E+00  0.14345680774E+04  0.14345680774E+04  0.25500000920E-02 0. -1.
       -2   -1    0    0    0  501  0.00000000000E+00  0.00000000000E+00 -0.38148427556E+03  0.38148427557E+03  0.25500000920E-02 0.  1.
    10030    2    1    2    0    0  0.00000000000E+00  0.00000000000E+00  0.10530838018E+04  0.18160523530E+04  0.14795474494E+04 0.  0.
        3    1    3    3  502    0  0.51952006529E+02 -0.66163179965E+03  0.92768970225E+03  0.11406418558E+04  0.10100000352E+00 0. -1.
       -3    1    3    3    0  502 -0.51952006529E+02  0.66163179965E+03  0.12539409959E+03  0.67541049719E+03  0.10100000352E+00 0.  1.
</event>
<event>
 5   0  0.7359897E-04  0.1509021E+04  0.7818609E-02  0.8878476E-01
        2   -1    0    0  501    0  0.00000000000E+00  0.00000000000E+00  0.75201384618E+03  0.75201384619E+03  0.25500000920E-02 0.  1.
       -2   -1    0    0    0  501  0.00000000000E+00  0.00000000000E+00 -0.75701534594E+03  0.75701534595E+03  0.25500000920E-02 0. -1.
    10030    2    1    2    0    0  0.00000000000E+00  0.00000000000E+00 -0.50014997625E+01  0.15090291921E+04  0.15090209037E+04 0.  0.
        1    1    3    3  502    0  0.29578071934E+03 -0.64910763001E+03 -0.24838636717E+03  0.75532955502E+03  0.50400001928E-02 0. -1.
       -1    1    3    3    0  502 -0.29578071934E+03  0.64910763001E+03  0.24338486741E+03  0.75369963711E+03  0.50400001928E-02 0.  1.
</event>
<event>
 5   0  0.7359897E-04  0.1486158E+04  0.7818609E-02  0.8893710E-01
       -2   -1    0    0    0  501  0.00000000000E+00  0.00000000000E+00  0.39534439672E+03  0.39534439673E+03  0.25500000920E-02 0. -1.
        2   -1    0    0  501    0  0.00000000000E+00  0.00000000000E+00 -0.13966726749E+04  0.13966726749E+04  0.25500000920E-02 0.  1.
    10030    2    1    2    0    0  0.00000000000E+00  0.00000000000E+00 -0.10013282782E+04  0.17920170716E+04  0.14861584250E+04 0.  0.
        1    1    3    3  502    0 -0.25312460205E+03  0.56681127083E+03 -0.81705083227E+01  0.62081707301E+03  0.50400001928E-02 0. -1.
       -1    1    3    3    0  502  0.25312460205E+03 -0.56681127083E+03 -0.99315776984E+03  0.11711999986E+04  0.50400001928E-02 0.  1.
</event>
<event>
 5   0  0.7634227E-04  0.1473022E+04  0.7818609E-02  0.8902594E-01
       -2   -1    0    0    0  501  0.00000000000E+00  0.00000000000E+00  0.46792941471E+03  0.46792941472E+03  0.25500000920E-02 0.  1.
        2   -1    0    0  501    0  0.00000000000E+00  0.00000000000E+00 -0.11592524146E+04  0.11592524146E+04  0.25500000920E-02 0. -1.
    10030    2    1    2    0    0  0.00000000000E+00  0.00000000000E+00 -0.69132299989E+03  0.16271818293E+04  0.14730217974E+04 0.  0.
        2    1    3    3  502    0 -0.17020954312E+03  0.43656106413E+03  0.28204292008E+03  0.54690498266E+03  0.25500000920E-02 0.  1.
       -2    1    3    3    0  502  0.17020954312E+03 -0.43656106413E+03 -0.97336591997E+03  0.10802768467E+04  0.25500000920E-02 0. -1.
</event>
<event>
 5   0  0.4084462E-04  0.1546490E+04  0.7818609E-02  0.8854113E-01
       -1   -1    0    0    0  501  0.00000000000E+00  0.00000000000E+00  0.55440093013E+03  0.55440093016E+03  0.50400001928E-02 0.  1.
        1   -1    0    0  501    0  0.00000000000E+00  0.00000000000E+00 -0.10784752357E+04  0.10784752357E+04  0.50400001928E-02 0. -1.
    10030    2    1    2    0    0  0.00000000000E+00  0.00000000000E+00 -0.52407430557E+03  0.16328761659E+04  0.15464897980E+04 0.  0.
        1    1    3    3  502    0 -0.24037473557E+03  0.69125506638E+03 -0.52556688809E+03  0.90101838726E+03  0.50400001928E-02 0. -1.
       -1    1    3    3    0  502  0.24037473557E+03 -0.69125506638E+03  0.14925825190E+01  0.73185777862E+03  0.50400001928E-02 0.  1.
</event>
<event>
 5   0  0.7359897E-04  0.1500370E+04  0.7818609E-02  0.8884207E-01
        2   -1    0    0  501    0  0.00000000000E+00  0.00000000000E+00  0.18367082393E+04  0.18367082393E+04  0.25500000920E-02 0.  1.
       -2   -1    0    0    0  501  0.00000000000E+00  0.00000000000E+00 -0.30640561461E+03  0.30640561462E+03  0.25500000920E-02 0. -1.
    10030    2    1    2    0    0  0.00000000000E+00  0.00000000000E+00  0.15303026247E+04  0.21431138539E+04  0.15003702436E+04 0.  0.
        1    1    3    3  502    0 -0.65031694139E+03  0.34574297317E+03  0.56149981750E+03  0.92613841991E+03  0.50400001928E-02 0. -1.
       -1    1    3    3    0  502  0.65031694139E+03 -0.34574297317E+03  0.96880280722E+03  0.12169754340E+04  0.50400001928E-02 0.  1.
</event>
<event>
 5   0  0.7547580E-04  0.1516546E+04  0.7818609E-02  0.8873524E-01
        2   -1    0    0  501    0  0.00000000000E+00  0.00000000000E+00  0.16290753017E+04  0.16290753017E+04  0.25500000920E-02 0. -1.
       -2   -1    0    0    0  501  0.00000000000E+00  0.00000000000E+00 -0.35294733584E+03  0.35294733585E+03  0.25500000920E-02 0.  1.
    10030    2    1    2    0    0  0.00000000000E+00  0.00000000000E+00  0.12761279659E+04  0.19820226376E+04  0.15165457957E+04 0.  0.
        4    1    3    3  502    0  0.47920449496E+03  0.11485968001E+03 -0.11514919316E+03  0.50605399284E+03  0.12699999809E+01 0.  1.
       -4    1    3    3    0  502 -0.47920449496E+03 -0.11485968001E+03  0.13912771590E+04  0.14759686447E+04  0.12699999809E+01 0. -1.
</event>
<event>
 5   0  0.7454828E-04  0.1485237E+04  0.7818609E-02  0.8894330E-01
       -2   -1    0    0    0  501  0.00000000000E+00  0.00000000000E+00  0.10078435083E+04  0.10078435083E+04  0.25500000920E-02 0.  1.
        2   -1    0    0  501    0  0.00000000000E+00  0.00000000000E+00 -0.54719064699E+03  0.54719064699E+03  0.25500000920E-02 0. -1.
    10030    2    1    2    0    0  0.00000000000E+00  0.00000000000E+00  0.46065286133E+03  0.15550341553E+04  0.14852374105E+04 0.  0.
        3    1    3    3  502    0 -0.21622821679E+03  0.13253757415E+03  0.96109626689E+03  0.99399541988E+03  0.10100000352E+00 0.  1.
       -3    1    3    3    0  502  0.21622821679E+03 -0.13253757415E+03 -0.50044340556E+03  0.56103873544E+03  0.10100000352E+00 0. -1.
</event>
<event>
 5   0  0.3907345E-04  0.1506103E+04  0.7818609E-02  0.8880405E-01
       -1   -1    0    0    0  501  0.00000000000E+00  0.00000000000E+00  0.35340632624E+03  0.35340632627E+03  0.50400001928E-02 0. -1.
        1   -1    0    0  501    0  0.00000000000E+00  0.00000000000E+00 -0.16046295758E+04  0.16046295758E+04  0.50400001928E-02 0.  1.
    10030    2    1    2    0    0  0.00000000000E+00  0.00000000000E+00 -0.12512232496E+04  0.19580359021E+04  0.15061025774E+04 0.  0.
        5    1    3    3  502    0  0.15230575932E+03 -0.72929773600E+03 -0.76797900222E+03  0.10699934906E+04  0.46999998093E+01 0.  1.
       -5    1    3    3    0  502 -0.15230575932E+03  0.72929773600E+03 -0.48324424739E+03  0.88804241154E+03  0.46999998093E+01 0. -1.
</event>
<event>
 5   0  0.4015204E-04  0.1483028E+04  0.7818609E-02  0.8895818E-01
       -1   -1    0    0    0  501  0.00000000000E+00  0.00000000000E+00  0.75300604925E+03  0.75300604927E+03  0.50400001928E-02 0. -1.
        1   -1    0    0  501    0  0.00000000000E+00  0.00000000000E+00 -0.73019745702E+03  0.73019745704E+03  0.50400001928E-02 0.  1.
    10030    2    1    2    0    0  0.00000000000E+00  0.00000000000E+00  0.22808592226E+02  0.14832035063E+04  0.14830281215E+04 0.  0.
        2    1    3    3  502    0 -0.75527662725E+02  0.35691078869E+03  0.65704501724E+03  0.75153036772E+03  0.25500000920E-02 0. -1.
       -2    1    3    3    0  502  0.75527662725E+02 -0.35691078869E+03 -0.63423642501E+03  0.73167313859E+03  0.25500000920E-02 0.  1.
</event>
<event>
 5   0  0.7359897E-04  0.1510276E+04  0.7818609E-02  0.8877648E-01
        2   -1    0    0  501    0  0.00000000000E+00  0.00000000000E+00  0.13865687396E+04  0.13865687396E+04  0.25500000920E-02 0. -1.
       -2   -1    0    0    0  501  0.00000000000E+00  0.00000000000E+00 -0.41125507018E+03  0.41125507019E+03  0.25500000920E-02 0.  1.
    10030    2    1    2    0    0  0.00000000000E+00  0.00000000000E+00  0.97531366938E+03  0.17978238098E+04  0.15102760335E+04 0.  0.
        1    1    3    3  502    0 -0.35623645611E+03 -0.50595281151E+03  0.10028937136E+04  0.11784262646E+04  0.50400001928E-02 0. -1.
       -1    1    3    3    0  502  0.35623645611E+03  0.50595281151E+03 -0.27580044243E+02  0.61939754520E+03  0.50400001928E-02 0.  1.
</event>
<event>
 5   0  0.7547580E-04  0.1506261E+04  0.7818609E-02  0.8880300E-01
       -2   -1    0    0    0  501  0.00000000000E+00  0.00000000000E+00  0.29473303722E+03  0.29473303723E+03  0.25500000920E-02 0.  1.
        2   -1    0    0  501    0  0.00000000000E+00  0.00000000000E+00 -0.19244714892E+04  0.19244714892E+04  0.25500000920E-02 0. -1.
    10030    2    1    2    0    0  0.00000000000E+00  0.00000000000E+00 -0.16297384520E+04  0.22192045265E+04  0.15062607040E+04 0.  0.
        4    1    3    3  502    0  0.23339123270E+03  0.68734651403E+03 -0.51914988096E+03  0.89243201962E+03  0.12699999809E+01 0. -1.
       -4    1    3    3    0  502 -0.23339123270E+03 -0.68734651403E+03 -0.11105885711E+04  0.13267725069E+04  0.12699999809E+01 0.  1.
</event>
<event>
 5   0  0.7454828E-04  0.1503187E+04  0.7818609E-02  0.8882337E-01
        2   -1    0    0  501    0  0.00000000000E+00  0.00000000000E+00  0.60878716129E+03  0.60878716130E+03  0.25500000920E-02 0.  1.
       -2   -1    0    0    0  501  0.00000000000E+00  0.00000000000E+00 -0.92789822198E+03  0.92789822199E+03  0.25500000920E-02 0. -1.
    10030    2    1    2    0    0  0.00000000000E+00  0.00000000000E+00 -0.31911106069E+03  0.15366853833E+04  0.15031866478E+04 0.  0.
        3    1    3    3  502    0  0.18573948829E+03  0.25153554792E+03  0.53913970424E+03  0.62325028702E+03  0.10100000352E+00 0.  1.
       -3    1    3    3    0  502 -0.18573948829E+03 -0.25153554792E+03 -0.85825076493E+03  0.91343509627E+03  0.10100000352E+00 0. -1.
</event>
<event>
 5   0  0.4084462E-04  0.1506597E+04  0.7818609E-02  0.8880078E-01
       -1   -1    0    0    0  501  0.00000000000E+00  0.00000000000E+00  0.10370473862E+04  0.10370473862E+04  0.50400001928E-02 0.  1.
        1   -1    0    0  501    0  0.00000000000E+00  0.00000000000E+00 -0.54718679964E+03  0.54718679967E+03  0.50400001928E-02 0. -1.
    10030    2    1    2    0    0  0.00000000000E+00  0.00000000000E+00  0.48986058657E+03  0.15842341859E+04  0.15065970136E+04 0.  0.
        1    1    3    3  502    0  0.50724650344E+03  0.18309832579E+03 -0.30813390969E+03  0.62110427344E+03  0.50400001928E-02 0. -1.
       -1    1    3    3    0  502 -0.50724650344E+03 -0.18309832579E+03  0.79799449627E+03  0.96312991245E+03  0.50400001928E-02 0.  1.
</event>
<event>
 5   0  0.7634227E-04  0.1492993E+04  0.7818609E-02  0.8889126E-01
       -2   -1    0    0    0  501  0.00000000000E+00  0.00000000000E+00  0.50864178177E+03  0.50864178178E+03  0.25500000920E-02 0.  1.
        2   -1    0    0  501    0  0.00000000000E+00  0.00000000000E+00 -0.10955791120E+04  0.10955791120E+04  0.25500000920E-02 0. -1.
    10030    2    1    2    0    0  0.00000000000E+00  0.00000000000E+00 -0.58693733020E+03  0.16042208938E+04  0.14929933846E+04 0.  0.
        2    1    3    3  502    0  0.47751374299E+03 -0.55674001365E+03 -0.44265973824E+03  0.85669508076E+03  0.25500000920E-02 0. -1.
       -2    1    3    3    0  502 -0.47751374299E+03  0.55674001365E+03 -0.14427759195E+03  0.74752581299E+03  0.25500000920E-02 0.  1.
</event>
<event>
 5   0  0.4084462E-04  0.1498797E+04  0.7818609E-02  0.8885253E-01
        1   -1    0    0  501    0  0.00000000000E+00  0.00000000000E+00  0.97799750984E+03  0.97799750985E+03  0.50400001928E-02 0. -1.
       -1   -1    0    0    0  501  0.00000000000E+00  0.00000000000E+00 -0.57423271283E+03  0.57423271286E+03  0.50400001928E-02 0.  1.
    10030    2    1    2    0    0  0.00000000000E+00  0.00000000000E+00  0.40376479701E+03  0.15522302227E+04  0.14987970686E+04 0.  0.
        1    1    3    3  502    0 -0.74673488345E+02 -0.22791245099E+03  0.93717830712E+03  0.96737965378E+03  0.50400001928E-02 0. -1.
       -1    1    3    3    0  502  0.74673488345E+02  0.22791245099E+03 -0.53341351012E+03  0.58485056893E+03  0.50400001928E-02 0.  1.
</event>
<event>
 5   0  0.4015204E-04  0.1496320E+04  0.7818609E-02  0.8886904E-01
       -1   -1    0    0    0  501  0.00000000000E+00  0.00000000000E+00  0.59888449802E+03  0.59888449804E+03  0.50400001928E-02 0.  1.
        1   -1    0    0  501    0  0.00000000000E+00  0.00000000000E+00 -0.93464376358E+03  0.93464376360E+03  0.50400001928E-02 0. -1.
    10030    2    1    2    0    0  0.00000000000E+00  0.00000000000E+00 -0.33575926557E+03  0.15335282616E+04  0.14963203684E+04 0.  0.
        2    1    3    3  502    0  0.52020473745E+01 -0.61662685796E+03  0.26631535547E+03  0.67169904854E+03  0.25500000920E-02 0.  1.
       -2    1    3    3    0  502 -0.52020473745E+01  0.61662685796E+03 -0.60207462103E+03  0.86182921310E+03  0.25500000920E-02 0. -1.
</event>
<event>
 5   0  0.7672251E-04  0.1470530E+04  0.7818609E-02  0.8904290E-01
        2   -1    0    0  501    0  0.00000000000E+00  0.00000000000E+00  0.12636304361E+04  0.12636304361E+04  0.25500000920E-02 0.  1.
       -2   -1    0    0    0  501  0.00000000000E+00  0.00000000000E+00 -0.42782675955E+03  0.42782675956E+03  0.25500000920E-02 0. -1.
    10030    2    1    2    0    0  0.00000000000E+00  0.00000000000E+00  0.83580367655E+03  0.16914571957E+04  0.14705304006E+04 0.  0.
        5    1    3    3  502    0 -0.59788987227E+03 -0.37661817137E+03  0.65159879293E+03  0.96120581735E+03  0.46999998093E+01 0.  1.
       -5    1    3    3    0  502  0.59788987227E+03  0.37661817137E+03  0.18420488362E+03  0.73025137831E+03  0.46999998093E+01 0. -1.
</event>
<event>
 5   0  0.4084462E-04  0.1514412E+04  0.7818609E-02  0.8874925E-01
       -1   -1    0    0    0  501  0.00000000000E+00  0.00000000000E+00  0.48862719541E+03  0.48862719543E+03  0.50400001928E-02 0. -1.
        1   -1    0    0  501    0  0.00000000000E+00  0.00000000000E+00 -0.11734122324E+04  0.11734122324E+04  0.50400001928E-02 0.  1.
    10030    2    1    2    0    0  0.00000000000E+00  0.00000000000E+00 -0.68478503702E+03  0.16620394279E+04  0.15144122665E+04 0.  0.
        1    1    3    3  502    0  0.14056940903E+02 -0.34480759688E+03  0.39730613866E+03  0.52625283305E+03  0.50400001928E-02 0. -1.
       -1    1    3    3    0  502 -0.14056940903E+02  0.34480759688E+03 -0.10820911757E+04  0.11357865948E+04  0.50400001928E-02 0.  1.
</event>
<event>
 5   0  0.7547580E-04  0.1564980E+04  0.7818609E-02  0.8842356E-01
        2   -1    0    0  501    0  0.00000000000E+00  0.00000000000E+00  0.92954376714E+03  0.92954376714E+03  0.25500000920E-02 0. -1.
       -2   -1    0    0    0  501  0.00000000000E+00  0.00000000000E+00 -0.65869992277E+03  0.65869992278E+03  0.25500000920E-02 0.  1.
    10030    2    1    2    0    0  0.00000000000E+00  0.00000000000E+00  0.27084384436E+03  0.15882436899E+04  0.15649797540E+04 0.  0.
        4    1    3    3  502    0 -0.27114500656E+03 -0.41510777241E+03 -0.47893191259E+03  0.68935583489E+03  0.12699999809E+01 0.  1.
       -4    1    3    3    0  502  0.27114500656E+03  0.41510777241E+03  0.74977575696E+03  0.89888785503E+03  0.12699999809E+01 0. -1.
</event>
<event>
 5   0  0.2800375E-04  0.1507086E+04  0.7818609E-02  0.8879754E-01
        3   -1    0    0  501    0  0.00000000000E+00  0.00000000000E+00  0.45892286561E+03  0.45892287672E+03  0.10100000352E+00 0. -1.
       -3   -1    0    0    0  501  0.00000000000E+00  0.00000000000E+00 -0.12373045460E+04  0.12373045501E+04  0.10100000352E+00 0.  1.
    10030    2    1    2    0    0  0.00000000000E+00  0.00000000000E+00 -0.77838168041E+03  0.16962274269E+04  0.15070864087E+04 0.  0.
        2    1    3    3  502    0 -0.18528506864E+03  0.46323327941E+03  0.24640519095E+03  0.55644509697E+03  0.25500000920E-02 0. -1.
       -2    1    3    3    0  502  0.18528506864E+03 -0.46323327941E+03 -0.10247868714E+04  0.11397823299E+04  0.25500000920E-02 0.  1.
</event>
<event>
 5   0  0.7454828E-04  0.1501914E+04  0.7818609E-02  0.8883181E-01
       -2   -1    0    0    0  501  0.00000000000E+00  0.00000000000E+00  0.91269788329E+03  0.91269788329E+03  0.25500000920E-02 0. -1.
        2   -1    0    0  501    0  0.00000000000E+00  0.00000000000E+00 -0.61787862888E+03  0.61787862888E+03  0.25500000920E-02 0.  1.
    10030    2    1    2    0    0  0.00000000000E+00  0.00000000000E+00  0.29481925441E+03  0.15305765122E+04  0.15019141343E+04 0.  0.
        3    1    3    3  502    0  0.68694686313E+03  0.11024657651E+02 -0.16155767179E+03  0.70577505436E+03  0.10100000352E+00 0.  1.
       -3    1    3    3    0  502 -0.68694686313E+03 -0.11024657651E+02  0.45637692620E+03  0.82480145781E+03  0.10100000352E+00 0. -1.
</event>
<event>
 5   0  0.7454828E-04  0.1497484E+04  0.7818609E-02  0.8886128E-01
       -2   -1    0    0    0  501  0.00000000000E+00  0.00000000000E+00  0.98393836755E+03  0.98393836755E+03  0.25500000920E-02 0.  1.
        2   -1    0    0  501    0  0.00000000000E+00  0.00000000000E+00 -0.56976583664E+03  0.56976583664E+03  0.25500000920E-02 0. -1.
    10030    2    1    2    0    0  0.00000000000E+00  0.00000000000E+00  0.41417253091E+03  0.15537042042E+04  0.14974838459E+04 0.  0.
        3    1    3    3  502    0  0.34074708171E+03 -0.32695267396E+03  0.80994068832E+03  0.93755562689E+03  0.10100000352E+00 0. -1.
       -3    1    3    3    0  502 -0.34074708171E+03  0.32695267396E+03 -0.39576815741E+03  0.61614857731E+03  0.10100000352E+00 0.  1.
</event>
<event>
 5   0  0.4086710E-04  0.1506956E+04  0.7818609E-02  0.8879841E-01
       -1   -1    0    0    0  501  0.00000000000E+00  0.00000000000E+00  0.87132115309E+03  0.87132115311E+03  0.50400001928E-02 0. -1.
        1   -1    0    0  501    0  0.00000000000E+00  0.00000000000E+00 -0.65157240496E+03  0.65157240498E+03  0.50400001928E-02 0.  1.
    10030    2    1    2    0    0  0.00000000000E+00  0.00000000000E+00  0.21974874814E+03  0.15228935581E+04  0.15069556320E+04 0.  0.
        3    1    3    3  502    0 -0.70617871851E+03 -0.17770382086E+03  0.30547186530E+03  0.78967088151E+03  0.10100000352E+00 0.  1.
       -3    1    3    3    0  502  0.70617871851E+03  0.17770382086E+03 -0.85723117157E+02  0.73322267657E+03  0.10100000352E+00 0. -1.
</event>
<event>
 5   0  0.7634227E-04  0.1476991E+04  0.7818609E-02  0.8899900E-01
        2   -1    0    0  501    0  0.00000000000E+00  0.00000000000E+00  0.64362749089E+03  0.64362749089E+03  0.25500000920E-02 0. -1.
       -2   -1    0    0    0  501  0.00000000000E+00  0.00000000000E+00 -0.84734643131E+03  0.84734643132E+03  0.25500000920E-02 0.  1.
    10030    2    1    2    0    0  0.00000000000E+00  0.00000000000E+00 -0.20371894043E+03  0.14909739222E+04  0.14769908023E+04 0.  0.
        2    1    3    3  502    0 -0.61572937018E+03  0.17555538961E+03  0.26963698576E+03  0.69472761296E+03  0.25500000920E-02 0. -1.
       -2    1    3    3    0  502  0.61572937018E+03 -0.17555538961E+03 -0.47335592618E+03  0.79624630924E+03  0.25500000920E-02 0.  1.
</event>
<event>
 5   0  0.7547580E-04  0.1527901E+04  0.7818609E-02  0.8866108E-01
        2   -1    0    0  501    0  0.00000000000E+00  0.00000000000E+00  0.73289558206E+03  0.73289558206E+03  0.25500000920E-02 0. -1.
       -2   -1    0    0    0  501  0.00000000000E+00  0.00000000000E+00 -0.79632152365E+03  0.79632152365E+03  0.25500000920E-02 0.  1.
    10030    2    1    2    0    0  0.00000000000E+00  0.00000000000E+00 -0.63425941587E+02  0.15292171057E+04  0.15279012096E+04 0.  0.
        4    1    3    3  502    0 -0.47359077988E+03 -0.20921827007E+03 -0.59394262328E+03  0.78792763879E+03  0.12699999809E+01 0.  1.
       -4    1    3    3    0  502  0.47359077988E+03  0.20921827007E+03  0.53051668169E+03  0.74128946692E+03  0.12699999809E+01 0. -1.
</event>
<event>
 5   0  0.7547580E-04  0.1458886E+04  0.7818609E-02  0.8912263E-01
        2   -1    0    0  501    0  0.00000000000E+00  0.00000000000E+00  0.12840475771E+04  0.12840475771E+04  0.25500000920E-02 0.  1.
       -2   -1    0    0    0  501  0.00000000000E+00  0.00000000000E+00 -0.41438290738E+03  0.41438290739E+03  0.25500000920E-02 0. -1.
    10030    2    1    2    0    0  0.00000000000E+00  0.00000000000E+00  0.86966466970E+03  0.16984304845E+04  0.14588863811E+04 0.  0.
        4    1    3    3  502    0 -0.71052917957E+03 -0.14249414405E+03  0.33792068717E+03  0.79959258365E+03  0.12699999809E+01 0. -1.
       -4    1    3    3    0  502  0.71052917957E+03  0.14249414405E+03  0.53174398253E+03  0.89883790083E+03  0.12699999809E+01 0.  1.
</event>
<event>
 5   0  0.4058874E-04  0.1540449E+04  0.7818609E-02  0.8857992E-01
       -1   -1    0    0    0  501  0.00000000000E+00  0.00000000000E+00  0.55493988270E+03  0.55493988272E+03  0.50400001928E-02 0.  1.
        1   -1    0    0  501    0  0.00000000000E+00  0.00000000000E+00 -0.10690267663E+04  0.10690267664E+04  0.50400001928E-02 0. -1.
    10030    2    1    2    0    0  0.00000000000E+00  0.00000000000E+00 -0.51408688364E+03  0.16239666491E+04  0.15404487507E+04 0.  0.
        4    1    3    3  502    0  0.67861205180E+03 -0.10779477281E+03 -0.62391982518E+03  0.92812261639E+03  0.12699999809E+01 0. -1.
       -4    1    3    3    0  502 -0.67861205180E+03  0.10779477281E+03  0.10983294154E+03  0.69584403269E+03  0.12699999809E+01 0.  1.
</event>
<event>
 5   0  0.4086710E-04  0.1498316E+04  0.7818609E-02  0.8885574E-01
        1   -1    0    0  501    0  0.00000000000E+00  0.00000000000E+00  0.92264331362E+03  0.92264331363E+03  0.50400001928E-02 0. -1.
       -1   -1    0    0    0  501  0.00000000000E+00  0.00000000000E+00 -0.60829324591E+03  0.60829324593E+03  0.50400001928E-02 0.  1.
    10030    2    1    2    0    0  0.00000000000E+00  0.00000000000E+00  0.31435006771E+03  0.15309365596E+04  0.14983159828E+04 0.  0.
        3    1    3    3  502    0  0.46710238723E+03 -0.19375032421E+03  0.72194193842E+03  0.88143292481E+03  0.10100000352E+00 0. -1.
       -3    1    3    3    0  502 -0.46710238723E+03  0.19375032421E+03 -0.40759187072E+03  0.64950363476E+03  0.10100000352E+00 0.  1.
</event>
<event>
 5   0  0.4084462E-04  0.1519617E+04  0.7818609E-02  0.8871512E-01
        1   -1    0    0  501    0  0.00000000000E+00  0.00000000000E+00  0.84942127876E+03  0.84942127877E+03  0.50400001928E-02 0. -1.
       -1   -1    0    0    0  501  0.00000000000E+00  0.00000000000E+00 -0.67964934089E+03  0.67964934091E+03  0.50400001928E-02 0.  1.
    10030    2    1    2    0    0  0.00000000000E+00  0.00000000000E+00  0.16977193787E+03  0.15290706197E+04  0.15196165467E+04 0.  0.
        1    1    3    3  502    0 -0.26827196686E+03  0.43453268193E+03  0.65098731225E+03  0.82738925579E+03  0.50400001928E-02 0. -1.
       -1    1    3    3    0  502  0.26827196686E+03 -0.43453268193E+03 -0.48121537438E+03  0.70168136389E+03  0.50400001928E-02 0.  1.
</event>
<event>
 5   0  0.4058874E-04  0.1492883E+04  0.7818609E-02  0.8889199E-01
       -1   -1    0    0    0  501  0.00000000000E+00  0.00000000000E+00  0.40598439689E+03  0.40598439692E+03  0.50400001928E-02 0.  1.
        1   -1    0    0  501    0  0.00000000000E+00  0.00000000000E+00 -0.13724051952E+04  0.13724051952E+04  0.50400001928E-02 0. -1.
    10030    2    1    2    0    0  0.00000000000E+00  0.00000000000E+00 -0.96642079835E+03  0.17783895922E+04  0.14928832446E+04 0.  0.
        4    1    3    3  502    0  0.10817524716E+03  0.27665580784E+03  0.33253857746E+03  0.44589666797E+03  0.12699999809E+01 0.  1.
       -4    1    3    3    0  502 -0.10817524716E+03 -0.27665580784E+03 -0.12989593758E+04  0.13324929242E+04  0.12699999809E+01 0. -1.
</event>
<event>
 5   0  0.4084462E-04  0.1504591E+04  0.7818609E-02  0.8881406E-01
       -1   -1    0    0    0  501  0.00000000000E+00  0.00000000000E+00  0.10337013567E+04  0.10337013567E+04  0.50400001928E-02 0. -1.
        1   -1    0    0  501    0  0.00000000000E+00  0.00000000000E+00 -0.54749711838E+03  0.54749711840E+03  0.50400001928E-02 0.  1.
    10030    2    1    2    0    0  0.00000000000E+00  0.00000000000E+00  0.48620423835E+03  0.15811984751E+04  0.15045909931E+04 0.  0.
        1    1    3    3  502    0 -0.27632956614E+03  0.39536940563E+03 -0.36358997007E+03  0.60404690414E+03  0.50400001928E-02 0.  1.
       -1    1    3    3    0  502  0.27632956614E+03 -0.39536940563E+03  0.84979420842E+03  0.97715157101E+03  0.50400001928E-02 0. -1.
</event>
<event>
 5   0  0.7634227E-04  0.1501396E+04  0.7818609E-02  0.8883525E-01
        2   -1    0    0  501    0  0.00000000000E+00  0.00000000000E+00  0.86399580408E+03  0.86399580408E+03  0.25500000920E-02 0.  1.
       -2   -1    0    0    0  501  0.00000000000E+00  0.00000000000E+00 -0.65225745200E+03  0.65225745200E+03  0.25500000920E-02 0. -1.
    10030    2    1    2    0    0  0.00000000000E+00  0.00000000000E+00  0.21173835208E+03  0.15162532561E+04  0.15013962857E+04 0.  0.
        2    1    3    3  502    0 -0.24194843660E+03 -0.69018283294E+03  0.27682604855E+03  0.78200003199E+03  0.25500000920E-02 0. -1.
       -2    1    3    3    0  502  0.24194843660E+03  0.69018283294E+03 -0.65087696469E+02  0.73425322410E+03  0.25500000920E-02 0.  1.
</event>
<event>
 5   0  0.4058874E-04  0.1497538E+04  0.7818609E-02  0.8886092E-01
        1   -1    0    0  501    0  0.00000000000E+00  0.00000000000E+00  0.68851890540E+03  0.68851890542E+03  0.50400001928E-02 0. -1.
       -1   -1    0    0    0  501  0.00000000000E+00  0.00000000000E+00 -0.81429138996E+03  0.81429138997E+03  0.50400001928E-02 0.  1.
    10030    2    1    2    0    0  0.00000000000E+00  0.00000000000E+00 -0.12577248456E+03  0.15028102954E+04  0.14975380015E+04 0.  0.
        4    1    3    3  502    0 -0.35883293006E+02  0.25704900397E+03  0.64193367951E+03  0.69241769399E+03  0.12699999809E+01 0. -1.
       -4    1    3    3    0  502  0.35883293006E+02 -0.25704900397E+03 -0.76770616407E+03  0.81039260140E+03  0.12699999809E+01 0.  1.
</event>
<event>
 5   0  0.7547580E-04  0.1514610E+04  0.7818609E-02  0.8874795E-01
       -2   -1    0    0    0  501  0.00000000000E+00  0.00000000000E+00  0.89019578594E+03  0.89019578595E+03  0.25500000920E-02 0. -1.
        2   -1    0    0  501    0  0.00000000000E+00  0.00000000000E+00 -0.64425249494E+03  0.64425249495E+03  0.25500000920E-02 0.  1.
    10030    2    1    2    0    0  0.00000000000E+00  0.00000000000E+00  0.24594329100E+03  0.15344482809E+04  0.15146099908E+04 0.  0.
        4    1    3    3  502    0  0.48258908517E+03  0.55643763228E+03  0.30132920011E+03  0.79581151254E+03  0.12699999809E+01 0. -1.
       -4    1    3    3    0  502 -0.48258908517E+03 -0.55643763228E+03 -0.55385909114E+02  0.73863676836E+03  0.12699999809E+01 0.  1.
</event>
<event>
 5   0  0.4084462E-04  0.1513240E+04  0.7818609E-02  0.8875696E-01
        1   -1    0    0  501    0  0.00000000000E+00  0.00000000000E+00  0.93606958492E+03  0.93606958493E+03  0.50400001928E-02 0.  1.
       -1   -1    0    0    0  501  0.00000000000E+00  0.00000000000E+00 -0.61157216729E+03  0.61157216731E+03  0.50400001928E-02 0. -1.
    10030    2    1    2    0    0  0.00000000000E+00  0.00000000000E+00  0.32449741762E+03  0.15476417522E+04  0.15132403706E+04 0.  0.
        1    1    3    3  502    0  0.62992600995E+03 -0.36396876327E+03 -0.50307875756E+02  0.72925367400E+03  0.50400001928E-02 0.  1.
       -1    1    3    3    0  502 -0.62992600995E+03  0.36396876327E+03  0.37480529338E+03  0.81838807825E+03  0.50400001928E-02 0. -1.
</event>
<event>
 5   0  0.4086710E-04  0.1481547E+04  0.7818609E-02  0.8896817E-01
        1   -1    0    0  501    0  0.00000000000E+00  0.00000000000E+00  0.10439389657E+04  0.10439389657E+04  0.50400001928E-02 0.  1.
       -1   -1    0    0    0  501  0.00000000000E+00  0.00000000000E+00 -0.52564914545E+03  0.52564914548E+03  0.50400001928E-02 0. -1.
    10030    2    1    2    0    0  0.00000000000E+00  0.00000000000E+00  0.51828982023E+03  0.15695881112E+04  0.14815473334E+04 0.  0.
        3    1    3    3  502    0 -0.60794787071E+03 -0.40623717005E+03  0.13327220042E+03  0.74322993847E+03  0.10100000352E+00 0.  1.
       -3    1    3    3    0  502  0.60794787071E+03  0.40623717005E+03  0.38501761981E+03  0.82635817270E+03  0.10100000352E+00 0. -1.
</event>
<event>
 5   0  0.7634227E-04  0.1496093E+04  0.7818609E-02  0.8887055E-01
        2   -1    0    0  501    0  0.00000000000E+00  0.00000000000E+00  0.60974505201E+03  0.60974505201E+03  0.25500000920E-02 0.  1.
       -2   -1    0    0    0  501  0.00000000000E+00  0.00000000000E+00 -0.91771787099E+03  0.91771787099E+03  0.25500000920E-02 0. -1.
    10030    2    1    2    0    0  0.00000000000E+00  0.00000000000E+00 -0.30797281898E+03  0.15274629230E+04  0.14960934877E+04 0.  0.
        2    1    3    3  502    0  0.99574229189E+02  0.36258299659E+03 -0.81422370216E+03  0.89685098746E+03  0.25500000920E-02 0. -1.
       -2    1    3    3    0  502 -0.99574229189E+02 -0.36258299659E+03  0.50625088318E+03  0.63061193555E+03  0.25500000920E-02 0.  1.
</event>
<event>
 5   0  0.7454828E-04  0.1527940E+04  0.7818609E-02  0.8866083E-01
        2   -1    0    0  501    0  0.00000000000E+00  0.00000000000E+00  0.27355539081E+04  0.27355539081E+04  0.25500000920E-02 0. -1.
       -2   -1    0    0    0  501  0.00000000000E+00  0.00000000000E+00 -0.21335712764E+03  0.21335712766E+03  0.25500000920E-02 0.  1.
    10030    2    1    2    0    0  0.00000000000E+00  0.00000000000E+00  0.25221967804E+04  0.29489110357E+04  0.15279396904E+04 0.  0.
        3    1    3    3  502    0 -0.30980977021E+03  0.11794638845E+03 -0.67314359797E+02  0.33826716883E+03  0.10100000352E+00 0.  1.
       -3    1    3    3    0  502  0.30980977021E+03 -0.11794638845E+03  0.25895111402E+04  0.26106438669E+04  0.10100000352E+00 0. -1.
</event>
<event>
 5   0  0.7672251E-04  0.1485664E+04  0.7818609E-02  0.8894043E-01
       -2   -1    0    0    0  501  0.00000000000E+00  0.00000000000E+00  0.25046498601E+03  0.25046498602E+03  0.25500000920E-02 0.  1.
        2   -1    0    0  501    0  0.00000000000E+00  0.00000000000E+00 -0.22030999663E+04  0.22030999663E+04  0.25500000920E-02 0. -1.
    10030    2    1    2    0    0  0.00000000000E+00  0.00000000000E+00 -0.19526349803E+04  0.24535649524E+04  0.14856640297E+04 0.  0.
        5    1    3    3  502    0  0.12569769105E+03 -0.44138793843E+03 -0.11706418538E+02  0.45911039191E+03  0.46999998093E+01 0.  1.
       -5    1    3    3    0  502 -0.12569769105E+03  0.44138793843E+03 -0.19409285618E+04  0.19944545605E+04  0.46999998093E+01 0. -1.
</event>
<event>
 5   0  0.4058874E-04  0.1495895E+04  0.7818609E-02  0.8887188E-01
       -1   -1    0    0    0  501  0.00000000000E+00  0.00000000000E+00  0.30506012439E+03  0.30506012443E+03  0.50400001928E-02 0.  1.
        1   -1    0    0  501    0  0.00000000000E+00  0.00000000000E+00 -0.18338193609E+04  0.18338193609E+04  0.50400001928E-02 0. -1.
    10030    2    1    2    0    0  0.00000000000E+00  0.00000000000E+00 -0.15287592365E+04  0.21388794854E+04  0.14958945984E+04 0.  0.
        4    1    3    3  502    0 -0.68662131265E+03  0.29040612831E+03 -0.67812615583E+03  0.10077902770E+04  0.12699999809E+01 0.  1.
       -4    1    3    3    0  502  0.68662131265E+03 -0.29040612831E+03 -0.85063308069E+03  0.11310892083E+04  0.12699999809E+01 0. -1.
</event>
<event>
 5   0  0.4084462E-04  0.1490170E+04  0.7818609E-02  0.8891016E-01
        1   -1    0    0  501    0  0.00000000000E+00  0.00000000000E+00  0.58194230112E+03  0.58194230114E+03  0.50400001928E-02 0. -1.
       -1   -1    0    0    0  501  0.00000000000E+00  0.00000000000E+00 -0.95396290832E+03  0.95396290833E+03  0.50400001928E-02 0.  1.
    10030    2    1    2    0    0  0.00000000000E+00  0.00000000000E+00 -0.37202060720E+03  0.15359052095E+04  0.14901696146E+04 0.  0.
        1    1    3    3  502    0  0.67150428672E+02 -0.32034787464E+03 -0.87589598935E+03  0.93505386211E+03  0.50400001928E-02 0.  1.
       -1    1    3    3    0  502 -0.67150428672E+02  0.32034787464E+03  0.50387538215E+03  0.60085134736E+03  0.50400001928E-02 0. -1.
</event>
<event>
 5   0  0.4086710E-04  0.1487295E+04  0.7818609E-02  0.8892946E-01
        1   -1    0    0  501    0  0.00000000000E+00  0.00000000000E+00  0.18926550960E+04  0.18926550960E+04  0.50400001928E-02 0. -1.
       -1   -1    0    0    0  501  0.00000000000E+00  0.00000000000E+00 -0.29218820537E+03  0.29218820542E+03  0.50400001928E-02 0.  1.
    10030    2    1    2    0    0  0.00000000000E+00  0.00000000000E+00  0.16004668906E+04  0.21848433014E+04  0.14872948543E+04 0.  0.
        3    1    3    3  502    0  0.81645863607E+02  0.94083814806E+02  0.18772190487E+04  0.18813477026E+04  0.10100000352E+00 0. -1.
       -3    1    3    3    0  502 -0.81645863607E+02 -0.94083814806E+02 -0.27675215810E+03  0.30349559876E+03  0.10100000352E+00 0.  1.
</event>
<event>
 5   0  0.7454828E-04  0.1488131E+04  0.7818609E-02  0.8892384E-01
        2   -1    0    0  501    0  0.00000000000E+00  0.00000000000E+00  0.94621342608E+03  0.94621342609E+03  0.25500000920E-02 0. -1.
       -2   -1    0    0    0  501  0.00000000000E+00  0.00000000000E+00 -0.58510419812E+03  0.58510419813E+03  0.25500000920E-02 0.  1.
    10030    2    1    2    0    0  0.00000000000E+00  0.00000000000E+00  0.36110922796E+03  0.15313176242E+04  0.14881309726E+04 0.  0.
        3    1    3    3  502    0 -0.86840446427E+01  0.10376866243E+03 -0.57756909737E+03  0.58688109560E+03  0.10100000352E+00 0.  1.
       -3    1    3    3    0  502  0.86840446427E+01 -0.10376866243E+03  0.93867832533E+03  0.94443652861E+03  0.10100000352E+00 0. -1.
</event>
<event>
 5   0  0.7634227E-04  0.1493217E+04  0.7818609E-02  0.8888976E-01
        2   -1    0    0  501    0  0.00000000000E+00  0.00000000000E+00  0.51561197611E+03  0.51561197611E+03  0.25500000920E-02 0.  1.
       -2   -1    0    0    0  501  0.00000000000E+00  0.00000000000E+00 -0.10810924994E+04  0.10810924994E+04  0.25500000920E-02 0. -1.
    10030    2    1    2    0    0  0.00000000000E+00  0.00000000000E+00 -0.56548052324E+03  0.15967044755E+04  0.14932169835E+04 0.  0.
        2    1    3    3  502    0  0.36199281689E+03 -0.57338247575E+03 -0.61683260544E+03  0.91667263847E+03  0.25500000920E-02 0.  1.
       -2    1    3    3    0  502 -0.36199281689E+03  0.57338247575E+03  0.51352082198E+02  0.68003183700E+03  0.25500000920E-02 0. -1.
</event>
<event>
 5   0  0.4015204E-04  0.1493866E+04  0.7818609E-02  0.8888542E-01
        1   -1    0    0  501    0  0.00000000000E+00  0.00000000000E+00  0.33699822448E+03  0.33699822451E+03  0.50400001928E-02 0.  1.
       -1   -1    0    0    0  501  0.00000000000E+00  0.00000000000E+00 -0.16555244691E+04  0.16555244691E+04  0.50400001928E-02 0. -1.
    10030    2    1    2    0    0  0.00000000000E+00  0.00000000000E+00 -0.13185262447E+04  0.19925226937E+04  0.14938658664E+04 0.  0.
        2    1    3    3  502    0 -0.11211302813E+03  0.56090434468E+03 -0.12999410245E+04  0.14202217017E+04  0.25500000920E-02 0. -1.
       -2    1    3    3    0  502  0.11211302813E+03 -0.56090434468E+03 -0.18585220194E+02  0.57230099193E+03  0.25500000920E-02 0.  1.
</event>
<event>
 5   0  0.4015204E-04  0.1478708E+04  0.7818609E-02  0.8898737E-01
       -1   -1    0    0    0  501  0.00000000000E+00  0.00000000000E+00  0.41128949028E+03  0.41128949031E+03  0.50400001928E-02 0.  1.
        1   -1    0    0  501    0  0.00000000000E+00  0.00000000000E+00 -0.13290978885E+04  0.13290978885E+04  0.50400001928E-02 0. -1.
    10030    2    1    2    0    0  0.00000000000E+00  0.00000000000E+00 -0.91780839823E+03  0.17403873788E+04  0.14787075345E+04 0.  0.
        2    1    3    3  502    0  0.62846141295E+03  0.28081410266E+03 -0.77651843945E+03  0.10376903173E+04  0.25500000920E-02 0. -1.
       -2    1    3    3    0  502 -0.62846141295E+03 -0.28081410266E+03 -0.14128995878E+03  0.70269706153E+03  0.25500000920E-02 0.  1.
</event>
<event>
 5   0  0.7359897E-04  0.1500917E+04  0.7818609E-02  0.8883843E-01
        2   -1    0    0  501    0  0.00000000000E+00  0.00000000000E+00  0.63274092157E+03  0.63274092158E+03  0.25500000920E-02 0.  1.
       -2   -1    0    0    0  501  0.00000000000E+00  0.00000000000E+00 -0.89007682012E+03  0.89007682012E+03  0.25500000920E-02 0. -1.
    10030    2    1    2    0    0  0.00000000000E+00  0.00000000000E+00 -0.25733589855E+03  0.15228177417E+04  0.15009170896E+04 0.  0.
        1    1    3    3  502    0 -0.63172902220E+03 -0.25728100664E+03 -0.44614424258E+03  0.81505813233E+03  0.50400001928E-02 0. -1.
       -1    1    3    3    0  502  0.63172902220E+03  0.25728100664E+03  0.18880834403E+03  0.70775960937E+03  0.50400001928E-02 0.  1.
</event>
<event>
 5   0  0.4086710E-04  0.1503159E+04  0.7818609E-02  0.8882355E-01
        1   -1    0    0  501    0  0.00000000000E+00  0.00000000000E+00  0.13488906663E+04  0.13488906664E+04  0.50400001928E-02 0. -1.
       -1   -1    0    0    0  501  0.00000000000E+00  0.00000000000E+00 -0.41876773533E+03  0.41876773536E+03  0.50400001928E-02 0.  1.
    10030    2    1    2    0    0  0.00000000000E+00  0.00000000000E+00  0.93012293102E+03  0.17676584017E+04  0.15031591926E+04 0.  0.
        3    1    3    3  502    0  0.26732822188E+03  0.26508584831E+03 -0.29988996829E+03  0.48131994397E+03  0.10100000352E+00 0.  1.
       -3    1    3    3    0  502 -0.26732822188E+03 -0.26508584831E+03  0.12300128993E+04  0.12863384577E+04  0.10100000352E+00 0. -1.
</event>
<event>
 5   0  0.7359897E-04  0.1486471E+04  0.7818609E-02  0.8893500E-01
       -2   -1    0    0    0  501  0.00000000000E+00  0.00000000000E+00  0.67699674289E+03  0.67699674290E+03  0.25500000920E-02 0.  1.
        2   -1    0    0  501    0  0.00000000000E+00  0.00000000000E+00 -0.81595505346E+03  0.81595505347E+03  0.25500000920E-02 0. -1.
    10030    2    1    2    0    0  0.00000000000E+00  0.00000000000E+00 -0.13895831057E+03  0.14929517964E+04  0.14864708723E+04 0.  0.
        1    1    3    3  502    0  0.60105532138E+03 -0.40723176964E+03  0.90254181246E+02  0.73160852293E+03  0.50400001928E-02 0.  1.
       -1    1    3    3    0  502 -0.60105532138E+03  0.40723176964E+03 -0.22921249181E+03  0.76134327343E+03  0.50400001928E-02 0. -1.
</event>
<event>
 5   0  0.4015204E-04  0.1501914E+04  0.7818609E-02  0.8883181E-01
        1   -1    0    0  501    0  0.00000000000E+00  0.00000000000E+00  0.11494362446E+04  0.11494362446E+04  0.50400001928E-02 0. -1.
       -1   -1    0    0    0  501  0.00000000000E+00  0.00000000000E+00 -0.49062018246E+03  0.49062018248E+03  0.50400001928E-02 0.  1.
    10030    2    1    2    0    0  0.00000000000E+00  0.00000000000E+00  0.65881606213E+03  0.16400564271E+04  0.15019142720E+04 0.  0.
        2    1    3    3  502    0  0.19489114229E+03  0.13742342859E+03  0.11069916775E+04  0.11323861224E+04  0.25500000920E-02 0. -1.
       -2    1    3    3    0  502 -0.19489114229E+03 -0.13742342859E+03 -0.44817561537E+03  0.50767030472E+03  0.25500000920E-02 0.  1.
</event>
<event>
 5   0  0.4058874E-04  0.1508467E+04  0.7818609E-02  0.8878842E-01
       -1   -1    0    0    0  501  0.00000000000E+00  0.00000000000E+00  0.26594436278E+03  0.26594436282E+03  0.50400001928E-02 0. -1.
        1   -1    0    0  501    0  0.00000000000E+00  0.00000000000E+00 -0.21390506749E+04  0.21390506749E+04  0.50400001928E-02 0.  1.
    10030    2    1    2    0    0  0.00000000000E+00  0.00000000000E+00 -0.18731063121E+04  0.24049950377E+04  0.15084673927E+04 0.  0.
        4    1    3    3  502    0 -0.19204368543E+03  0.23457210180E+03 -0.20376363937E+04  0.20600651771E+04  0.12699999809E+01 0.  1.
       -4    1    3    3    0  502  0.19204368543E+03 -0.23457210180E+03  0.16453008163E+03  0.34492986058E+03  0.12699999809E+01 0. -1.
</event>
<event>
 5   0  0.7547580E-04  0.1503416E+04  0.7818609E-02  0.8882185E-01
       -2   -1    0    0    0  501  0.00000000000E+00  0.00000000000E+00  0.43237587049E+03  0.43237587050E+03  0.25500000920E-02 0. -1.
        2   -1    0    0  501    0  0.00000000000E+00  0.00000000000E+00 -0.13068830154E+04  0.13068830154E+04  0.25500000920E-02 0.  1.
    10030    2    1    2    0    0  0.00000000000E+00  0.00000000000E+00 -0.87450714495E+03  0.17392588859E+04  0.15034156863E+04 0.  0.
        4    1    3    3  502    0  0.18073932253E+03 -0.56672448258E+03  0.94428959035E+02  0.60229708871E+03  0.12699999809E+01 0.  1.
       -4    1    3    3    0  502 -0.18073932253E+03  0.56672448258E+03 -0.96893610399E+03  0.11369617972E+04  0.12699999809E+01 0. -1.
</event>
<event>
 5   0  0.7634227E-04  0.1507367E+04  0.7818609E-02  0.8879569E-01
       -2   -1    0    0    0  501  0.00000000000E+00  0.00000000000E+00  0.47662093991E+03  0.47662093991E+03  0.25500000920E-02 0.  1.
        2   -1    0    0  501    0  0.00000000000E+00  0.00000000000E+00 -0.11918042280E+04  0.11918042280E+04  0.25500000920E-02 0. -1.
    10030    2    1    2    0    0  0.00000000000E+00  0.00000000000E+00 -0.71518328814E+03  0.16684251680E+04  0.15073670440E+04 0.  0.
        2    1    3    3  502    0 -0.13344426440E+03  0.73567633639E+03 -0.25251802878E+03  0.78917197016E+03  0.25500000920E-02 0.  1.
       -2    1    3    3    0  502  0.13344426440E+03 -0.73567633639E+03 -0.46266525936E+03  0.87925319780E+03  0.25500000920E-02 0. -1.
</event>
<event>
 5   0  0.3907345E-04  0.1377650E+04  0.7818609E-02  0.8970158E-01
        1   -1    0    0  501    0  0.00000000000E+00  0.00000000000E+00  0.85644426436E+03  0.85644426437E+03  0.50400001928E-02 0. -1.
       -1   -1    0    0    0  501  0.00000000000E+00  0.00000000000E+00 -0.55401099228E+03  0.55401099230E+03  0.50400001928E-02 0.  1.
    10030    2    1    2    0    0  0.00000000000E+00  0.00000000000E+00  0.30243327208E+03  0.14104552567E+04  0.13776495008E+04 0.  0.
        5    1    3    3  502    0  0.45205237994E+03  0.51009109880E+02  0.68074087817E+03  0.81876951379E+03  0.46999998093E+01 0. -1.
       -5    1    3    3    0  502 -0.45205237994E+03 -0.51009109880E+02 -0.37830760609E+03  0.59168574288E+03  0.46999998093E+01 0.  1.
</event>
<event>
 5   0  0.7672251E-04  0.1529995E+04  0.7818609E-02  0.8864748E-01
        2   -1    0    0  501    0  0.00000000000E+00  0.00000000000E+00  0.61641140320E+03  0.61641140320E+03  0.25500000920E-02 0.  1.
       -2   -1    0    0    0  501  0.00000000000E+00  0.00000000000E+00 -0.94940070079E+03  0.94940070080E+03  0.25500000920E-02 0. -1.
    10030    2    1    2    0    0  0.00000000000E+00  0.00000000000E+00 -0.33298929759E+03  0.15658121040E+04  0.15299953179E+04 0.  0.
        5    1    3    3  502    0 -0.60116255922E+03  0.40917985785E+03  0.76497284661E+02  0.73123081393E+03  0.46999998093E+01 0.  1.
       -5    1    3    3    0  502  0.60116255922E+03 -0.40917985785E+03 -0.40948658225E+03  0.83458129007E+03  0.46999998093E+01 0. -1.
</event>
<event>
 5   0  0.7634227E-04  0.1535395E+04  0.7818609E-02  0.8861251E-01
        2   -1    0    0  501    0  0.00000000000E+00  0.00000000000E+00  0.54797826047E+03  0.54797826048E+03  0.25500000920E-02 0. -1.
       -2   -1    0    0    0  501  0.00000000000E+00  0.00000000000E+00 -0.10755167874E+04  0.10755167874E+04  0.25500000920E-02 0.  1.
    10030    2    1    2    0    0  0.00000000000E+00  0.00000000000E+00 -0.52753852696E+03  0.16234950479E+04  0.15353954778E+04 0.  0.
        2    1    3    3  502    0  0.54865498897E+03  0.27138079131E+03 -0.75370216602E+03  0.97094633522E+03  0.25500000920E-02 0.  1.
       -2    1    3    3    0  502 -0.54865498897E+03 -0.27138079131E+03  0.22616363906E+03  0.65254871270E+03  0.25500000920E-02 0. -1.
</event>
<event>
 5   0  0.2800375E-04  0.1238743E+04  0.7818609E-02  0.9079605E-01
       -4   -1    0    0    0  501  0.00000000000E+00  0.00000000000E+00  0.11349176566E+04  0.11349183671E+04  0.12699999809E+01 0.  1.
        4   -1    0    0  501    0  0.00000000000E+00  0.00000000000E+00 -0.33801458932E+03  0.33801697515E+03  0.12699999809E+01 0. -1.
    10030    2    1    2    0    0  0.00000000000E+00  0.00000000000E+00  0.79690306725E+03  0.14729353423E+04  0.12387429209E+04 0.  0.
        4    1    3    3  502    0  0.16396305464E+03 -0.66600751547E+02  0.11042142733E+04  0.11183068978E+04  0.12699999809E+01 0.  1.
       -4    1    3    3    0  502 -0.16396305464E+03  0.66600751547E+02 -0.30731120604E+03  0.35462844451E+03  0.12699999809E+01 0. -1.
</event>
<event>
 5   0  0.4086710E-04  0.1517343E+04  0.7818609E-02  0.8873001E-01
       -1   -1    0    0    0  501  0.00000000000E+00  0.00000000000E+00  0.79983869111E+03  0.79983869113E+03  0.50400001928E-02 0.  1.
        1   -1    0    0  501    0  0.00000000000E+00  0.00000000000E+00 -0.71962313017E+03  0.71962313019E+03  0.50400001928E-02 0. -1.
    10030    2    1    2    0    0  0.00000000000E+00  0.00000000000E+00  0.80215560940E+02  0.15194618213E+04  0.15173429705E+04 0.  0.
        3    1    3    3  502    0  0.45020506971E+03  0.20587024777E+03  0.61581514583E+03  0.79012370408E+03  0.10100000352E+00 0.  1.
       -3    1    3    3    0  502 -0.45020506971E+03 -0.20587024777E+03 -0.53559958489E+03  0.72933811723E+03  0.10100000352E+00 0. -1.
</event>
<event>
 5   0  0.7359897E-04  0.1527968E+04  0.7818609E-02  0.8866065E-01
        2   -1    0    0  501    0  0.00000000000E+00  0.00000000000E+00  0.23077080551E+04  0.23077080551E+04  0.25500000920E-02 0.  1.
       -2   -1    0    0    0  501  0.00000000000E+00  0.00000000000E+00 -0.25292265965E+03  0.25292265966E+03  0.25500000920E-02 0. -1.
    10030    2    1    2    0    0  0.00000000000E+00  0.00000000000E+00  0.20547853954E+04  0.25606307147E+04  0.15279681397E+04 0.  0.
        1    1    3    3  502    0 -0.60222861586E+03 -0.37647539575E+03  0.14991905194E+04  0.16589108604E+04  0.50400001928E-02 0.  1.
       -1    1    3    3    0  502  0.60222861586E+03  0.37647539575E+03  0.55559487604E+03  0.90171985432E+03  0.50400001928E-02 0. -1.
</event>
<event>
 5   0  0.4086710E-04  0.1507898E+04  0.7818609E-02  0.8879218E-01
        1   -1    0    0  501    0  0.00000000000E+00  0.00000000000E+00  0.74963819283E+03  0.74963819285E+03  0.50400001928E-02 0. -1.
       -1   -1    0    0    0  501  0.00000000000E+00  0.00000000000E+00 -0.75828451681E+03  0.75828451683E+03  0.50400001928E-02 0.  1.
    10030    2    1    2    0    0  0.00000000000E+00  0.00000000000E+00 -0.86463239741E+01  0.15079227097E+04  0.15078979208E+04 0.  0.
        3    1    3    3  502    0  0.32319528165E+03 -0.65043296608E+03  0.19796904411E+03  0.75280142539E+03  0.10100000352E+00 0. -1.
       -3    1    3    3    0  502 -0.32319528165E+03  0.65043296608E+03 -0.20661536809E+03  0.75512128428E+03  0.10100000352E+00 0.  1.
</event>
<event>
 5   0  0.7634227E-04  0.1520234E+04  0.7818609E-02  0.8871108E-01
        2   -1    0    0  501    0  0.00000000000E+00  0.00000000000E+00  0.21456627236E+04  0.21456627236E+04  0.25500000920E-02 0.  1.
       -2   -1    0    0    0  501  0.00000000000E+00  0.00000000000E+00 -0.26927710600E+03  0.26927710601E+03  0.25500000920E-02 0. -1.
    10030    2    1    2    0    0  0.00000000000E+00  0.00000000000E+00  0.18763856176E+04  0.24149398296E+04  0.15202339934E+04 0.  0.
        2    1    3    3  502    0  0.57673917529E+03  0.28971097494E+03  0.15760180885E+04  0.17030541802E+04  0.25500000920E-02 0.  1.
       -2    1    3    3    0  502 -0.57673917529E+03 -0.28971097494E+03  0.30036752908E+03  0.71188564942E+03  0.25500000920E-02 0. -1.
</event>
<event>
 5   0  0.7454828E-04  0.1502381E+04  0.7818609E-02  0.8882871E-01
        2   -1    0    0  501    0  0.00000000000E+00  0.00000000000E+00  0.31109571214E+03  0.31109571215E+03  0.25500000920E-02 0.  1.
       -2   -1    0    0    0  501  0.00000000000E+00  0.00000000000E+00 -0.18138703648E+04  0.18138703648E+04  0.25500000920E-02 0. -1.
    10030    2    1    2    0    0  0.00000000000E+00  0.00000000000E+00 -0.15027746527E+04  0.21249660770E+04  0.15023811672E+04 0.  0.
        3    1    3    3  502    0 -0.28991666845E+03  0.34693238333E+03  0.97102856871E+02  0.46243132275E+03  0.10100000352E+00 0.  1.
       -3    1    3    3    0  502  0.28991666845E+03 -0.34693238333E+03 -0.15998775096E+04  0.16625347542E+04  0.10100000352E+00 0. -1.
</event>
<event>
 5   0  0.7359897E-04  0.1513064E+04  0.7818609E-02  0.8875812E-01
        2   -1    0    0  501    0  0.00000000000E+00  0.00000000000E+00  0.14365293386E+04  0.14365293386E+04  0.25500000920E-02 0.  1.
       -2   -1    0    0    0  501  0.00000000000E+00  0.00000000000E+00 -0.39841885823E+03  0.39841885824E+03  0.25500000920E-02 0. -1.
    10030    2    1    2    0    0  0.00000000000E+00  0.00000000000E+00  0.10381104804E+04  0.18349481968E+04  0.15130636192E+04 0.  0.
        1    1    3    3  502    0 -0.18689499262E+03  0.66325698687E+03  0.14037666812E+03  0.70323906169E+03  0.50400001928E-02 0. -1.
       -1    1    3    3    0  502  0.18689499262E+03 -0.66325698687E+03  0.89773381226E+03  0.11317091352E+04  0.50400001928E-02 0.  1.
</event>
<event>
 5   0  0.7672251E-04  0.1597715E+04  0.7818609E-02  0.8821953E-01
       -2   -1    0    0    0  501  0.00000000000E+00  0.00000000000E+00  0.84028858543E+03  0.84028858543E+03  0.25500000920E-02 0. -1.
        2   -1    0    0  501    0  0.00000000000E+00  0.00000000000E+00 -0.75946930902E+03  0.75946930902E+03  0.25500000920E-02 0.  1.
    10030    2    1    2    0    0  0.00000000000E+00  0.00000000000E+00  0.80819276408E+02  0.15997578945E+04  0.15977151077E+04 0.  0.
        5    1    3    3  502    0 -0.28696747131E+03  0.38648832899E+03  0.67874160387E+03  0.83212728165E+03  0.46999998093E+01 0. -1.
       -5    1    3    3    0  502  0.28696747131E+03 -0.38648832899E+03 -0.59792232747E+03  0.76763061281E+03  0.46999998093E+01 0.  1.
</event>
<event>
 5   0  0.4058874E-04  0.1487326E+04  0.7818609E-02  0.8892925E-01
        1   -1    0    0  501    0  0.00000000000E+00  0.00000000000E+00  0.51171224597E+03  0.51171224600E+03  0.50400001928E-02 0. -1.
       -1   -1    0    0    0  501  0.00000000000E+00  0.00000000000E+00 -0.10807535120E+04  0.10807535120E+04  0.50400001928E-02 0.  1.
    10030    2    1    2    0    0  0.00000000000E+00  0.00000000000E+00 -0.56904126605E+03  0.15924657580E+04  0.14873262010E+04 0.  0.
        4    1    3    3  502    0 -0.62710183755E+03  0.28991568141E+03 -0.57915580986E+03  0.90151588005E+03  0.12699999809E+01 0.  1.
       -4    1    3    3    0  502  0.62710183755E+03 -0.28991568141E+03  0.10114543808E+02  0.69094987799E+03  0.12699999809E+01 0. -1.
</event>
<event>
 5   0  0.3907345E-04  0.1478821E+04  0.7818609E-02  0.8898660E-01
       -1   -1    0    0    0  501  0.00000000000E+00  0.00000000000E+00  0.47974034971E+03  0.47974034974E+03  0.50400001928E-02 0. -1.
        1   -1    0    0  501    0  0.00000000000E+00  0.00000000000E+00 -0.11396332951E+04  0.11396332951E+04  0.50400001928E-02 0.  1.
    10030    2    1    2    0    0  0.00000000000E+00  0.00000000000E+00 -0.65989294541E+03  0.16193736449E+04  0.14788212543E+04 0.  0.
        5    1    3    3  502    0  0.46871466690E+03  0.54943488249E+03 -0.15634198452E+03  0.73894318806E+03  0.46999998093E+01 0. -1.
       -5    1    3    3    0  502 -0.46871466690E+03 -0.54943488249E+03 -0.50355096089E+03  0.88043045680E+03  0.46999998093E+01 0.  1.
</event>
<event>
 5   0  0.7547580E-04  0.1514014E+04  0.7818609E-02  0.8875187E-01
       -2   -1    0    0    0  501  0.00000000000E+00  0.00000000000E+00  0.89217302439E+03  0.89217302439E+03  0.25500000920E-02 0. -1.
        2   -1    0    0  501    0  0.00000000000E+00  0.00000000000E+00 -0.64231902806E+03  0.64231902806E+03  0.25500000920E-02 0.  1.
    10030    2    1    2    0    0  0.00000000000E+00  0.00000000000E+00  0.24985399633E+03  0.15344920525E+04  0.15140141477E+04 0.  0.
        4    1    3    3  502    0 -0.63146810837E+03 -0.27661680038E+02 -0.29728999004E+03  0.69849845490E+03  0.12699999809E+01 0.  1.
       -4    1    3    3    0  502  0.63146810837E+03  0.27661680038E+02  0.54714398637E+03  0.83599359755E+03  0.12699999809E+01 0. -1.
</event>
<event>
 5   0  0.4058874E-04  0.1506550E+04  0.7818609E-02  0.8880109E-01
        1   -1    0    0  501    0  0.00000000000E+00  0.00000000000E+00  0.71242777836E+03  0.71242777838E+03  0.50400001928E-02 0. -1.
       -1   -1    0    0    0  501  0.00000000000E+00  0.00000000000E+00 -0.79646448290E+03  0.79646448291E+03  0.50400001928E-02 0.  1.
    10030    2    1    2    0    0  0.00000000000E+00  0.00000000000E+00 -0.84036704539E+02  0.15088922613E+04  0.15065502608E+04 0.  0.
        4    1    3    3  502    0  0.13483603028E+02 -0.56350102868E+02 -0.79422826892E+03  0.79633993853E+03  0.12699999809E+01 0.  1.
       -4    1    3    3    0  502 -0.13483603028E+02  0.56350102868E+02  0.71019156438E+03  0.71255232276E+03  0.12699999809E+01 0. -1.
</event>
<event>
 5   0  0.4084462E-04  0.1507477E+04  0.7818609E-02  0.8879496E-01
        1   -1    0    0  501    0  0.00000000000E+00  0.00000000000E+00  0.12598020667E+04  0.12598020668E+04  0.50400001928E-02 0. -1.
       -1   -1    0    0    0  501  0.00000000000E+00  0.00000000000E+00 -0.45096086006E+03  0.45096086009E+03  0.50400001928E-02 0.  1.
    10030    2    1    2    0    0  0.00000000000E+00  0.00000000000E+00  0.80884120669E+03  0.17107629268E+04  0.15074765982E+04 0.  0.
        1    1    3    3  502    0  0.29113208284E+03 -0.53034688338E+03 -0.10575279102E+03  0.61417372070E+03  0.50400001928E-02 0. -1.
       -1    1    3    3    0  502 -0.29113208284E+03  0.53034688338E+03  0.91459399771E+03  0.10965892061E+04  0.50400001928E-02 0.  1.
</event>
<event>
 5   0  0.7359897E-04  0.1483757E+04  0.7818609E-02  0.8895327E-01
        2   -1    0    0  501    0  0.00000000000E+00  0.00000000000E+00  0.86590675658E+03  0.86590675659E+03  0.25500000920E-02 0.  1.
       -2   -1    0    0    0  501  0.00000000000E+00  0.00000000000E+00 -0.63561540194E+03  0.63561540195E+03  0.25500000920E-02 0. -1.
    10030    2    1    2    0    0  0.00000000000E+00  0.00000000000E+00  0.23029135464E+03  0.15015221585E+04  0.14837569493E+04 0.  0.
        1    1    3    3  502    0 -0.53312710051E+03 -0.49615829524E+03 -0.27919236227E+02  0.72881893705E+03  0.50400001928E-02 0.  1.
       -1    1    3    3    0  502  0.53312710051E+03  0.49615829524E+03  0.25821059086E+03  0.77270322148E+03  0.50400001928E-02 0. -1.
</event>
<event>
 5   0  0.3907345E-04  0.1505071E+04  0.7818609E-02  0.8881088E-01
        1   -1    0    0  501    0  0.00000000000E+00  0.00000000000E+00  0.91015299440E+03  0.91015299442E+03  0.50400001928E-02 0.  1.
       -1   -1    0    0    0  501  0.00000000000E+00  0.00000000000E+00 -0.62221338821E+03  0.62221338824E+03  0.50400001928E-02 0. -1.
    10030    2    1    2    0    0  0.00000000000E+00  0.00000000000E+00  0.28793960619E+03  0.15323663827E+04  0.15050706010E+04 0.  0.
        5    1    3    3  502    0 -0.11699506484E+03  0.99506010753E+02 -0.60607093504E+03  0.62524663907E+03  0.46999998093E+01 0. -1.
       -5    1    3    3    0  502  0.11699506484E+03 -0.99506010753E+02  0.89401054123E+03  0.90711974358E+03  0.46999998093E+01 0.  1.
</event>
<event>
 5   0  0.7547580E-04  0.1509300E+04  0.7818609E-02  0.8878292E-01
        2   -1    0    0  501    0  0.00000000000E+00  0.00000000000E+00  0.11934859870E+04  0.11934859870E+04  0.25500000920E-02 0.  1.
       -2   -1    0    0    0  501  0.00000000000E+00  0.00000000000E+00 -0.47717076951E+03  0.47717076952E+03  0.25500000920E-02 0. -1.
    10030    2    1    2    0    0  0.00000000000E+00  0.00000000000E+00  0.71631521753E+03  0.16706567566E+04  0.15093000058E+04 0.  0.
        4    1    3    3  502    0  0.60923400463E+03  0.30130832698E+03  0.72115306093E+03  0.99096727015E+03  0.12699999809E+01 0.  1.
       -4    1    3    3    0  502 -0.60923400463E+03 -0.30130832698E+03 -0.48378434064E+01  0.67968948641E+03  0.12699999809E+01 0. -1.
</event>
<event>
 5   0  0.7359897E-04  0.1508578E+04  0.7818609E-02  0.8878769E-01
       -2   -1    0    0    0  501  0.00000000000E+00  0.00000000000E+00  0.26246007680E+03  0.26246007681E+03  0.25500000920E-02 0. -1.
        2   -1    0    0  501    0  0.00000000000E+00  0.00000000000E+00 -0.21677645757E+04  0.21677645757E+04  0.25500000920E-02 0.  1.
    10030    2    1    2    0    0  0.00000000000E+00  0.00000000000E+00 -0.19053044989E+04  0.24302246525E+04  0.15085776838E+04 0.  0.
        1    1    3    3  502    0  0.49705735638E+03 -0.51728130141E+03 -0.57724605197E+03  0.92079257428E+03  0.50400001928E-02 0. -1.
       -1    1    3    3    0  502 -0.49705735638E+03  0.51728130141E+03 -0.13280584469E+04  0.15094320782E+04  0.50400001928E-02 0.  1.
</event>
<event>
 5   0  0.7454828E-04  0.1500672E+04  0.7818609E-02  0.8884006E-01
        2   -1    0    0  501    0  0.00000000000E+00  0.00000000000E+00  0.15139050099E+04  0.15139050099E+04  0.25500000920E-02 0. -1.
       -2   -1    0    0    0  501  0.00000000000E+00  0.00000000000E+00 -0.37188869910E+03  0.37188869911E+03  0.25500000920E-02 0.  1.
    10030    2    1    2    0    0  0.00000000000E+00  0.00000000000E+00  0.11420163108E+04  0.18857937090E+04  0.15006720691E+04 0.  0.
        3    1    3    3  502    0 -0.19761231690E+03  0.53423043299E+03 -0.42752919585E+02  0.57120977378E+03  0.10100000352E+00 0.  1.
       -3    1    3    3    0  502  0.19761231690E+03 -0.53423043299E+03  0.11847692304E+04  0.13145839352E+04  0.10100000352E+00 0. -1.
</event>
<event>
 5   0  0.7634227E-04  0.1488106E+04  0.7818609E-02  0.8892401E-01
        2   -1    0    0  501    0  0.00000000000E+00  0.00000000000E+00  0.12586038951E+04  0.12586038951E+04  0.25500000920E-02 0. -1.
       -2   -1    0    0    0  501  0.00000000000E+00  0.00000000000E+00 -0.43986396156E+03  0.43986396157E+03  0.25500000920E-02 0.  1.
    10030    2    1    2    0    0  0.00000000000E+00  0.00000000000E+00  0.81873993353E+03  0.16984678567E+04  0.14881055008E+04 0.  0.
        2    1    3    3  502    0 -0.68788610784E+03  0.14462050778E+03  0.68780653504E+03  0.98345321103E+03  0.25500000920E-02 0. -1.
       -2    1    3    3    0  502  0.68788610784E+03 -0.14462050778E+03  0.13093339848E+03  0.71501464564E+03  0.25500000920E-02 0.  1.
</event>
<event>
 5   0  0.7359897E-04  0.1434445E+04  0.7818609E-02  0.8929256E-01
       -2   -1    0    0    0  501  0.00000000000E+00  0.00000000000E+00  0.31532884392E+03  0.31532884393E+03  0.25500000920E-02 0.  1.
        2   -1    0    0  501    0  0.00000000000E+00  0.00000000000E+00 -0.16313381737E+04  0.16313381737E+04  0.25500000920E-02 0. -1.
    10030    2    1    2    0    0  0.00000000000E+00  0.00000000000E+00 -0.13160093297E+04  0.19466670176E+04  0.14344448130E+04 0.  0.
        1    1    3    3  502    0 -0.46007556647E+03  0.34946115306E+03 -0.12347514229E+04  0.13632328124E+04  0.50400001928E-02 0. -1.
       -1    1    3    3    0  502  0.46007556647E+03 -0.34946115306E+03 -0.81257906832E+02  0.58343420521E+03  0.50400001928E-02 0.  1.
</event>
<event>
 5   0  0.7672251E-04  0.1498648E+04  0.7818609E-02  0.8885352E-01
        2   -1    0    0  501    0  0.00000000000E+00  0.00000000000E+00  0.12135098560E+04  0.12135098560E+04  0.25500000920E-02 0. -1.
       -2   -1    0    0    0  501  0.00000000000E+00  0.00000000000E+00 -0.46269627891E+03  0.46269627892E+03  0.25500000920E-02 0.  1.
    10030    2    1    2    0    0  0.00000000000E+00  0.00000000000E+00  0.75081357705E+03  0.16762061349E+04  0.14986480505E+04 0.  0.
        5    1    3    3  502    0  0.54750462946E+03 -0.19096979853E+03  0.90622325020E+03  0.10758686966E+04  0.46999998093E+01 0. -1.
       -5    1    3    3    0  502 -0.54750462946E+03  0.19096979853E+03 -0.15540967315E+03  0.60033743823E+03  0.46999998093E+01 0.  1.
</event>
<event>
 5   0  0.7634227E-04  0.1477653E+04  0.7818609E-02  0.8899451E-01
        2   -1    0    0  501    0  0.00000000000E+00  0.00000000000E+00  0.17430309539E+04  0.17430309539E+04  0.25500000920E-02 0. -1.
       -2   -1    0    0    0  501  0.00000000000E+00  0.00000000000E+00 -0.31316974762E+03  0.31316974763E+03  0.25500000920E-02 0.  1.
    10030    2    1    2    0    0  0.00000000000E+00  0.00000000000E+00  0.14298612063E+04  0.20562007016E+04  0.14776529551E+04 0.  0.
        2    1    3    3  502    0 -0.49124320306E+03 -0.46127222870E+03  0.29338011272E+03  0.73495839615E+03  0.25500000920E-02 0. -1.
       -2    1    3    3    0  502  0.49124320306E+03  0.46127222870E+03  0.11364810936E+04  0.13212423054E+04  0.25500000920E-02 0.  1.
</event>
<event>
 5   0  0.4086710E-04  0.1497863E+04  0.7818609E-02  0.8885875E-01
       -1   -1    0    0    0  501  0.00000000000E+00  0.00000000000E+00  0.76794006652E+03  0.76794006654E+03  0.50400001928E-02 0. -1.
        1   -1    0    0  501    0  0.00000000000E+00  0.00000000000E+00 -0.73039351259E+03  0.73039351261E+03  0.50400001928E-02 0.  1.
    10030    2    1    2    0    0  0.00000000000E+00  0.00000000000E+00  0.37546553934E+02  0.14983335791E+04  0.14978630681E+04 0.  0.
        3    1    3    3  502    0 -0.26817925479E+03  0.10133454436E+03  0.71087906596E+03  0.76651018206E+03  0.10100000352E+00 0. -1.
       -3    1    3    3    0  502  0.26817925479E+03 -0.10133454436E+03 -0.67333251202E+03  0.73182339709E+03  0.10100000352E+00 0.  1.
</event>
<event>
 5   0  0.4084462E-04  0.1500588E+04  0.7818609E-02  0.8884062E-01
       -1   -1    0    0    0  501  0.00000000000E+00  0.00000000000E+00  0.44649535707E+03  0.44649535709E+03  0.50400001928E-02 0.  1.
        1   -1    0    0  501    0  0.00000000000E+00  0.00000000000E+00 -0.12607996194E+04  0.12607996194E+04  0.50400001928E-02 0. -1.
    10030    2    1    2    0    0  0.00000000000E+00  0.00000000000E+00 -0.81430426235E+03  0.17072949765E+04  0.15005881198E+04 0.  0.
        1    1    3    3  502    0 -0.41754460430E+03 -0.62336917576E+03 -0.40382522663E+03  0.85206070180E+03  0.50400001928E-02 0.  1.
       -1    1    3    3    0  502  0.41754460430E+03  0.62336917576E+03 -0.41047903573E+03  0.85523427472E+03  0.50400001928E-02 0. -1.
</event>
<event>
 5   0  0.7547580E-04  0.1495304E+04  0.7818609E-02  0.8887582E-01
       -2   -1    0    0    0  501  0.00000000000E+00  0.00000000000E+00  0.59831674876E+03  0.59831674877E+03  0.25500000920E-02 0.  1.
        2   -1    0    0  501    0  0.00000000000E+00  0.00000000000E+00 -0.93425984201E+03  0.93425984202E+03  0.25500000920E-02 0. -1.
    10030    2    1    2    0    0  0.00000000000E+00  0.00000000000E+00 -0.33594309325E+03  0.15325765908E+04  0.14953037299E+04 0.  0.
        4    1    3    3  502    0 -0.23759591926E+03 -0.59166046216E+03 -0.56817589422E+03  0.85401369018E+03  0.12699999809E+01 0. -1.
       -4    1    3    3    0  502  0.23759591926E+03  0.59166046216E+03  0.23223280096E+03  0.67856290061E+03  0.12699999809E+01 0.  1.
</event>
<event>
 5   0  0.7672251E-04  0.1500334E+04  0.7818609E-02  0.8884231E-01
        2   -1    0    0  501    0  0.00000000000E+00  0.00000000000E+00  0.95621178403E+03  0.95621178403E+03  0.25500000920E-02 0. -1.
       -2   -1    0    0    0  501  0.00000000000E+00  0.00000000000E+00 -0.58852117801E+03  0.58852117802E+03  0.25500000920E-02 0.  1.
    10030    2    1    2    0    0  0.00000000000E+00  0.00000000000E+00  0.36769060602E+03  0.15447329620E+04  0.15003344768E+04 0.  0.
        5    1    3    3  502    0  0.24677425214E+03  0.37838561074E+03 -0.43275556083E+03  0.62559784795E+03  0.46999998093E+01 0.  1.
       -5    1    3    3    0  502 -0.24677425214E+03 -0.37838561074E+03  0.80044616686E+03  0.91913511410E+03  0.46999998093E+01 0. -1.
</event>
<event>
 5   0  0.7672251E-04  0.1517192E+04  0.7818609E-02  0.8873100E-01
       -2   -1    0    0    0  501  0.00000000000E+00  0.00000000000E+00  0.68049985740E+03  0.68049985741E+03  0.25500000920E-02 0. -1.
        2   -1    0    0  501    0  0.00000000000E+00  0.00000000000E+00 -0.84565446290E+03  0.84565446291E+03  0.25500000920E-02 0.  1.
    10030    2    1    2    0    0  0.00000000000E+00  0.00000000000E+00 -0.16515460550E+03  0.15261543203E+04  0.15171918025E+04 0.  0.
        5    1    3    3  502    0 -0.39765799374E+02  0.62317241652E+03  0.35068797240E+03  0.71619084293E+03  0.46999998093E+01 0. -1.
       -5    1    3    3    0  502  0.39765799374E+02 -0.62317241652E+03 -0.51584257790E+03  0.80996347738E+03  0.46999998093E+01 0.  1.
</event>
<event>
 5   0  0.4058874E-04  0.1484584E+04  0.7818609E-02  0.8894770E-01
       -1   -1    0    0    0  501  0.00000000000E+00  0.00000000000E+00  0.56514165149E+03  0.56514165152E+03  0.50400001928E-02 0.  1.
        1   -1    0    0  501    0  0.00000000000E+00  0.00000000000E+00 -0.97497236224E+03  0.97497236225E+03  0.50400001928E-02 0. -1.
    10030    2    1    2    0    0  0.00000000000E+00  0.00000000000E+00 -0.40983071074E+03  0.15401140138E+04  0.14845841047E+04 0.  0.
        4    1    3    3  502    0 -0.29866664462E+03 -0.12962371618E+03  0.48711329230E+03  0.58590532071E+03  0.12699999809E+01 0.  1.
       -4    1    3    3    0  502  0.29866664462E+03  0.12962371618E+03 -0.89694400304E+03  0.95420869305E+03  0.12699999809E+01 0. -1.
</event>
<event>
 5   0  0.3907345E-04  0.1500934E+04  0.7818609E-02  0.8883832E-01
       -1   -1    0    0    0  501  0.00000000000E+00  0.00000000000E+00  0.20362819902E+04  0.20362819902E+04  0.50400001928E-02 0. -1.
        1   -1    0    0  501    0  0.00000000000E+00  0.00000000000E+00 -0.27658269655E+03  0.27658269660E+03  0.50400001928E-02 0.  1.
    10030    2    1    2    0    0  0.00000000000E+00  0.00000000000E+00  0.17596992936E+04  0.23128646868E+04  0.15009335280E+04 0.  0.
        5    1    3    3  502    0  0.22043557884E+03  0.19950163134E+02 -0.22511889084E+03  0.31573795850E+03  0.46999998093E+01 0.  1.
       -5    1    3    3    0  502 -0.22043557884E+03 -0.19950163134E+02  0.19848181845E+04  0.19971267283E+04  0.46999998093E+01 0. -1.
</event>
<event>
 5   0  0.7359897E-04  0.1510909E+04  0.7818609E-02  0.8877231E-01
       -2   -1    0    0    0  501  0.00000000000E+00  0.00000000000E+00  0.37970390215E+03  0.37970390216E+03  0.25500000920E-02 0.  1.
        2   -1    0    0  501    0  0.00000000000E+00  0.00000000000E+00 -0.15030441390E+04  0.15030441390E+04  0.25500000920E-02 0. -1.
    10030    2    1    2    0    0  0.00000000000E+00  0.00000000000E+00 -0.11233402369E+04  0.18827480412E+04  0.15109092954E+04 0.  0.
        1    1    3    3  502    0 -0.44069378735E+03 -0.31476527656E+03  0.94664722522E+02  0.54977231947E+03  0.50400001928E-02 0.  1.
       -1    1    3    3    0  502  0.44069378735E+03  0.31476527656E+03 -0.12180049594E+04  0.13329757217E+04  0.50400001928E-02 0. -1.
</event>
<event>
 5   0  0.7547580E-04  0.1533192E+04  0.7818609E-02  0.8862676E-01
       -2   -1    0    0    0  501  0.00000000000E+00  0.00000000000E+00  0.86582097289E+03  0.86582097289E+03  0.25500000920E-02 0.  1.
        2   -1    0    0  501    0  0.00000000000E+00  0.00000000000E+00 -0.67874254367E+03  0.67874254367E+03  0.25500000920E-02 0. -1.
    10030    2    1    2    0    0  0.00000000000E+00  0.00000000000E+00  0.18707842922E+03  0.15445635166E+04  0.15331921334E+04 0.  0.
        4    1    3    3  502    0 -0.32609784253E+03  0.52774269763E+03 -0.36015165405E+03  0.71733045706E+03  0.12699999809E+01 0. -1.
       -4    1    3    3    0  502  0.32609784253E+03 -0.52774269763E+03  0.54723008327E+03  0.82723305951E+03  0.12699999809E+01 0.  1.
</event>
<event>
 5   0  0.7634227E-04  0.1506730E+04  0.7818609E-02  0.8879990E-01
        2   -1    0    0  501    0  0.00000000000E+00  0.00000000000E+00  0.81284491620E+03  0.81284491620E+03  0.25500000920E-02 0.  1.
       -2   -1    0    0    0  501  0.00000000000E+00  0.00000000000E+00 -0.69823741000E+03  0.69823741000E+03  0.25500000920E-02 0. -1.
    10030    2    1    2    0    0  0.00000000000E+00  0.00000000000E+00  0.11460750620E+03  0.15110823262E+04  0.15067298750E+04 0.  0.
        2    1    3    3  502    0  0.54471165237E+03 -0.28086731632E+03 -0.38209598010E+03  0.72221504527E+03  0.25500000920E-02 0. -1.
       -2    1    3    3    0  502 -0.54471165237E+03  0.28086731632E+03  0.49670348630E+03  0.78886728093E+03  0.25500000920E-02 0.  1.
</event>
<event>
 5   0  0.7634227E-04  0.1505919E+04  0.7818609E-02  0.8880526E-01
       -2   -1    0    0    0  501  0.00000000000E+00  0.00000000000E+00  0.37944666638E+03  0.37944666639E+03  0.25500000920E-02 0.  1.
        2   -1    0    0  501    0  0.00000000000E+00  0.00000000000E+00 -0.14941450644E+04  0.14941450644E+04  0.25500000920E-02 0. -1.
    10030    2    1    2    0    0  0.00000000000E+00  0.00000000000E+00 -0.11146983980E+04  0.18735917308E+04  0.15059194717E+04 0.  0.
        2    1    3    3  502    0  0.24692078630E+03 -0.14268966313E+03  0.30965393396E+03  0.42097003871E+03  0.25500000920E-02 0.  1.
       -2    1    3    3    0  502 -0.24692078630E+03  0.14268966313E+03 -0.14243523320E+04  0.14526216921E+04  0.25500000920E-02 0. -1.
</event>
<event>
 5   0  0.4015204E-04  0.1498818E+04  0.7818609E-02  0.8885239E-01
        1   -1    0    0  501    0  0.00000000000E+00  0.00000000000E+00  0.53361657824E+03  0.53361657826E+03  0.50400001928E-02 0. -1.
       -1   -1    0    0    0  501  0.00000000000E+00  0.00000000000E+00 -0.10524671071E+04  0.10524671071E+04  0.50400001928E-02 0.  1.
    10030    2    1    2    0    0  0.00000000000E+00  0.00000000000E+00 -0.51885052885E+03  0.15860836854E+04  0.14988180629E+04 0.  0.
        2    1    3    3  502    0 -0.22487461329E+03 -0.67477115765E+03 -0.50924028246E+03  0.87476303773E+03  0.25500000920E-02 0.  1.
       -2    1    3    3    0  502  0.22487461329E+03  0.67477115765E+03 -0.96102463870E+01  0.71132064762E+03  0.25500000920E-02 0. -1.
</event>
<event>
 5   0  0.4086710E-04  0.1492117E+04  0.7818609E-02  0.8889712E-01
       -1   -1    0    0    0  501  0.00000000000E+00  0.00000000000E+00  0.75018907859E+03  0.75018907861E+03  0.50400001928E-02 0. -1.
        1   -1    0    0  501    0  0.00000000000E+00  0.00000000000E+00 -0.74195112095E+03  0.74195112096E+03  0.50400001928E-02 0.  1.
    10030    2    1    2    0    0  0.00000000000E+00  0.00000000000E+00  0.82379576465E+01  0.14921401996E+04  0.14921174589E+04 0.  0.
        3    1    3    3  502    0 -0.18453538052E+03  0.45491134009E+03 -0.55767778485E+03  0.74296847573E+03  0.10100000352E+00 0.  1.
       -3    1    3    3    0  502  0.18453538052E+03 -0.45491134009E+03  0.56591574250E+03  0.74917172385E+03  0.10100000352E+00 0. -1.
</event>
<event>
 5   0  0.7672251E-04  0.1467344E+04  0.7818609E-02  0.8906464E-01
        2   -1    0    0  501    0  0.00000000000E+00  0.00000000000E+00  0.11297129147E+04  0.11297129147E+04  0.25500000920E-02 0.  1.
       -2   -1    0    0    0  501  0.00000000000E+00  0.00000000000E+00 -0.47647028790E+03  0.47647028791E+03  0.25500000920E-02 0. -1.
    10030    2    1    2    0    0  0.00000000000E+00  0.00000000000E+00  0.65324262684E+03  0.16061832027E+04  0.14673440466E+04 0.  0.
        5    1    3    3  502    0  0.34438387308E+03 -0.71350454607E+02 -0.37816516104E+03  0.51645146764E+03  0.46999998093E+01 0. -1.
       -5    1    3    3    0  502 -0.34438387308E+03  0.71350454607E+02  0.10314077879E+04  0.10897317350E+04  0.46999998093E+01 0.  1.
</event>
<event>
 5   0  0.7359897E-04  0.1402819E+04  0.7818609E-02  0.8951780E-01
       -2   -1    0    0    0  501  0.00000000000E+00  0.00000000000E+00  0.42268787603E+03  0.42268787604E+03  0.25500000920E-02 0.  1.
        2   -1    0    0  501    0  0.00000000000E+00  0.00000000000E+00 -0.11639214724E+04  0.11639214724E+04  0.25500000920E-02 0. -1.
    10030    2    1    2    0    0  0.00000000000E+00  0.00000000000E+00 -0.74123359639E+03  0.15866093485E+04  0.14028192971E+04 0.  0.
        1    1    3    3  502    0 -0.69051356067E+03  0.12169101945E+03 -0.34922257421E+03  0.78330970124E+03  0.50400001928E-02 0.  1.
       -1    1    3    3    0  502  0.69051356067E+03 -0.12169101945E+03 -0.39201102217E+03  0.80329964722E+03  0.50400001928E-02 0. -1.
</event>
<event>
 5   0  0.4058874E-04  0.1489949E+04  0.7818609E-02  0.8891164E-01
       -1   -1    0    0    0  501  0.00000000000E+00  0.00000000000E+00  0.82244607810E+03  0.82244607812E+03  0.50400001928E-02 0.  1.
        1   -1    0    0  501    0  0.00000000000E+00  0.00000000000E+00 -0.67480049742E+03  0.67480049744E+03  0.50400001928E-02 0. -1.
    10030    2    1    2    0    0  0.00000000000E+00  0.00000000000E+00  0.14764558068E+03  0.14972465756E+04  0.14899490228E+04 0.  0.
        4    1    3    3  502    0  0.67379426510E+03  0.18298103887E+03  0.33491187964E+03  0.77436964835E+03  0.12699999809E+01 0.  1.
       -4    1    3    3    0  502 -0.67379426510E+03 -0.18298103887E+03 -0.18726629896E+03  0.72287692721E+03  0.12699999809E+01 0. -1.
</event>
<event>
 5   0  0.4086710E-04  0.1496916E+04  0.7818609E-02  0.8886506E-01
       -1   -1    0    0    0  501  0.00000000000E+00  0.00000000000E+00  0.54273597610E+03  0.54273597613E+03  0.50400001928E-02 0.  1.
        1   -1    0    0  501    0  0.00000000000E+00  0.00000000000E+00 -0.10321587454E+04  0.10321587454E+04  0.50400001928E-02 0. -1.
    10030    2    1    2    0    0  0.00000000000E+00  0.00000000000E+00 -0.48942276927E+03  0.15748947215E+04  0.14969164094E+04 0.  0.
        3    1    3    3  502    0  0.42770095713E+03  0.53899695705E+03 -0.55457694795E+03  0.88374285278E+03  0.10100000352E+00 0. -1.
       -3    1    3    3    0  502 -0.42770095713E+03 -0.53899695705E+03  0.65154178686E+02  0.69115186873E+03  0.10100000352E+00 0.  1.
</event>
<event>
 5   0  0.7672251E-04  0.1503318E+04  0.7818609E-02  0.8882249E-01
       -2   -1    0    0    0  501  0.00000000000E+00  0.00000000000E+00  0.41432125319E+03  0.41432125320E+03  0.25500000920E-02 0. -1.
        2   -1    0    0  501    0  0.00000000000E+00  0.00000000000E+00 -0.13636554152E+04  0.13636554152E+04  0.25500000920E-02 0.  1.
    10030    2    1    2    0    0  0.00000000000E+00  0.00000000000E+00 -0.94933416205E+03  0.17779766684E+04  0.15033182239E+04 0.  0.
        5    1    3    3  502    0 -0.19989025620E+03  0.56591338254E+02 -0.13290087703E+04  0.13451561603E+04  0.46999998093E+01 0.  1.
       -5    1    3    3    0  502  0.19989025620E+03 -0.56591338254E+02  0.37967460826E+03  0.43282050812E+03  0.46999998093E+01 0. -1.
</event>
<event>
 5   0  0.2800375E-04  0.1494086E+04  0.7818609E-02  0.8888395E-01
       -4   -1    0    0    0  501  0.00000000000E+00  0.00000000000E+00  0.49863948158E+03  0.49864109888E+03  0.12699999809E+01 0. -1.
        4   -1    0    0  501    0  0.00000000000E+00  0.00000000000E+00 -0.11191882960E+04  0.11191890166E+04  0.12699999809E+01 0.  1.
    10030    2    1    2    0    0  0.00000000000E+00  0.00000000000E+00 -0.62054881445E+03  0.16178301155E+04  0.14940861593E+04 0.  0.
        2    1    3    3  502    0  0.94690452766E+01 -0.54275677233E+03 -0.86600481087E+03  0.10220757845E+04  0.25500000920E-02 0.  1.
       -2    1    3    3    0  502 -0.94690452766E+01  0.54275677233E+03  0.24545599642E+03  0.59575433101E+03  0.25500000920E-02 0. -1.
</event>
<event>
 5   0  0.7634227E-04  0.1471322E+04  0.7818609E-02  0.8903750E-01
        2   -1    0    0  501    0  0.00000000000E+00  0.00000000000E+00  0.24208898491E+04  0.24208898491E+04  0.25500000920E-02 0.  1.
       -2   -1    0    0    0  501  0.00000000000E+00  0.00000000000E+00 -0.22355309523E+03  0.22355309524E+03  0.25500000920E-02 0. -1.
    10030    2    1    2    0    0  0.00000000000E+00  0.00000000000E+00  0.21973367538E+04  0.26444429443E+04  0.14713224242E+04 0.  0.
        2    1    3    3  502    0  0.18627391154E+03  0.26997323593E+03 -0.84858010895E+02  0.33879846555E+03  0.25500000920E-02 0. -1.
       -2    1    3    3    0  502 -0.18627391154E+03 -0.26997323593E+03  0.22821947647E+04  0.23056444788E+04  0.25500000920E-02 0.  1.
</event>
<event>
 5   0  0.7547580E-04  0.1486220E+04  0.7818609E-02  0.8893668E-01
       -2   -1    0    0    0  501  0.00000000000E+00  0.00000000000E+00  0.57534119729E+03  0.57534119729E+03  0.25500000920E-02 0. -1.
        2   -1    0    0  501    0  0.00000000000E+00  0.00000000000E+00 -0.95980011342E+03  0.95980011342E+03  0.25500000920E-02 0.  1.
    10030    2    1    2    0    0  0.00000000000E+00  0.00000000000E+00 -0.38445891613E+03  0.15351413107E+04  0.14862201000E+04 0.  0.
        4    1    3    3  502    0 -0.55180451480E+03 -0.19890629203E+03 -0.66349189264E+03  0.88559304427E+03  0.12699999809E+01 0.  1.
       -4    1    3    3    0  502  0.55180451480E+03  0.19890629203E+03  0.27903297651E+03  0.64954826644E+03  0.12699999809E+01 0. -1.
</event>
<event>
 5   0  0.4084462E-04  0.1494081E+04  0.7818609E-02  0.8888399E-01
       -1   -1    0    0    0  501  0.00000000000E+00  0.00000000000E+00  0.87168727788E+03  0.87168727790E+03  0.50400001928E-02 0.  1.
        1   -1    0    0  501    0  0.00000000000E+00  0.00000000000E+00 -0.64021753386E+03  0.64021753388E+03  0.50400001928E-02 0. -1.
    10030    2    1    2    0    0  0.00000000000E+00  0.00000000000E+00  0.23146974402E+03  0.15119048118E+04  0.14940809608E+04 0.  0.
        1    1    3    3  502    0 -0.28368811089E+03 -0.45004770035E+03 -0.41497143576E+03  0.67470228203E+03  0.50400001928E-02 0. -1.
       -1    1    3    3    0  502  0.28368811089E+03  0.45004770035E+03  0.64644117979E+03  0.83720252974E+03  0.50400001928E-02 0.  1.
</event>
<event>
 5   0  0.4084462E-04  0.1500274E+04  0.7818609E-02  0.8884271E-01
        1   -1    0    0  501    0  0.00000000000E+00  0.00000000000E+00  0.21313798522E+04  0.21313798522E+04  0.50400001928E-02 0. -1.
       -1   -1    0    0    0  501  0.00000000000E+00  0.00000000000E+00 -0.26400999434E+03  0.26400999439E+03  0.50400001928E-02 0.  1.
    10030    2    1    2    0    0  0.00000000000E+00  0.00000000000E+00  0.18673698578E+04  0.23953898466E+04  0.15002740853E+04 0.  0.
        1    1    3    3  502    0 -0.18659012708E+03 -0.44837139335E+03  0.20872169333E+02  0.48609508265E+03  0.50400001928E-02 0.  1.
       -1    1    3    3    0  502  0.18659012708E+03  0.44837139335E+03  0.18464976885E+04  0.19092947639E+04  0.50400001928E-02 0. -1.
</event>
<event>
 5   0  0.4086710E-04  0.1503578E+04  0.7818609E-02  0.8882077E-01
       -1   -1    0    0    0  501  0.00000000000E+00  0.00000000000E+00  0.57821199276E+03  0.57821199278E+03  0.50400001928E-02 0.  1.
        1   -1    0    0  501    0  0.00000000000E+00  0.00000000000E+00 -0.97747307979E+03  0.97747307980E+03  0.50400001928E-02 0. -1.
    10030    2    1    2    0    0  0.00000000000E+00  0.00000000000E+00 -0.39926108703E+03  0.15556850726E+04  0.15035779426E+04 0.  0.
        3    1    3    3  502    0 -0.17071161210E+02  0.71637196959E+03  0.35640234800E+02  0.71746112083E+03  0.10100000352E+00 0. -1.
       -3    1    3    3    0  502  0.17071161210E+02 -0.71637196959E+03 -0.43490132183E+03  0.83822395175E+03  0.10100000352E+00 0.  1.
</event>
<event>
 5   0  0.7359897E-04  0.1426067E+04  0.7818609E-02  0.8935163E-01
        2   -1    0    0  501    0  0.00000000000E+00  0.00000000000E+00  0.18414030631E+04  0.18414030631E+04  0.25500000920E-02 0.  1.
       -2   -1    0    0    0  501  0.00000000000E+00  0.00000000000E+00 -0.27610302358E+03  0.27610302359E+03  0.25500000920E-02 0. -1.
    10030    2    1    2    0    0  0.00000000000E+00  0.00000000000E+00  0.15653000395E+04  0.21175060867E+04  0.14260672542E+04 0.  0.
        1    1    3    3  502    0 -0.47471496685E+02 -0.42799953150E+03 -0.61213762962E+02  0.43495317767E+03  0.50400001928E-02 0. -1.
       -1    1    3    3    0  502  0.47471496685E+02  0.42799953150E+03  0.16265138025E+04  0.16825529090E+04  0.50400001928E-02 0.  1.
</event>
<event>
 5   0  0.2800375E-04  0.1499753E+04  0.7818609E-02  0.8884617E-01
       -3   -1    0    0    0  501  0.00000000000E+00  0.00000000000E+00  0.84821044035E+03  0.84821044636E+03  0.10100000352E+00 0. -1.
        3   -1    0    0  501    0  0.00000000000E+00  0.00000000000E+00 -0.66294277173E+03  0.66294277943E+03  0.10100000352E+00 0.  1.
    10030    2    1    2    0    0  0.00000000000E+00  0.00000000000E+00  0.18526766861E+03  0.15111532258E+04  0.14997533006E+04 0.  0.
        3    1    3    3  502    0 -0.12641073188E+03 -0.54558374568E+03  0.59509625943E+03  0.81717860036E+03  0.10100000352E+00 0. -1.
       -3    1    3    3    0  502  0.12641073188E+03  0.54558374568E+03 -0.40982859082E+03  0.69397462543E+03  0.10100000352E+00 0.  1.
</event>
<event>
 5   0  0.7547580E-04  0.1514619E+04  0.7818609E-02  0.8874789E-01
        2   -1    0    0  501    0  0.00000000000E+00  0.00000000000E+00  0.60544124011E+03  0.60544124012E+03  0.25500000920E-02 0. -1.
       -2   -1    0    0    0  501  0.00000000000E+00  0.00000000000E+00 -0.94727245457E+03  0.94727245457E+03  0.25500000920E-02 0.  1.
    10030    2    1    2    0    0  0.00000000000E+00  0.00000000000E+00 -0.34183121445E+03  0.15527136947E+04  0.15146191728E+04 0.  0.
        4    1    3    3  502    0 -0.31129778294E+03 -0.53747043576E+03 -0.61509769401E+03  0.87414390408E+03  0.12699999809E+01 0.  1.
       -4    1    3    3    0  502  0.31129778294E+03  0.53747043576E+03  0.27326647955E+03  0.67856979061E+03  0.12699999809E+01 0. -1.
</event>
<event>
 5   0  0.4058874E-04  0.1490707E+04  0.7818609E-02  0.8890656E-01
       -1   -1    0    0    0  501  0.00000000000E+00  0.00000000000E+00  0.47542726754E+03  0.47542726757E+03  0.50400001928E-02 0. -1.
        1   -1    0    0  501    0  0.00000000000E+00  0.00000000000E+00 -0.11685314271E+04  0.11685314271E+04  0.50400001928E-02 0.  1.
    10030    2    1    2    0    0  0.00000000000E+00  0.00000000000E+00 -0.69310415957E+03  0.16439586947E+04  0.14907068169E+04 0.  0.
        4    1    3    3  502    0 -0.46128517005E+03  0.18908682974E+03  0.26449759678E+03  0.56435665044E+03  0.12699999809E+01 0. -1.
       -4    1    3    3    0  502  0.46128517005E+03 -0.18908682974E+03 -0.95760175635E+03  0.10796020443E+04  0.12699999809E+01 0.  1.
</event>
<event>
 5   0  0.3907345E-04  0.1527390E+04  0.7818609E-02  0.8866441E-01
       -1   -1    0    0    0  501  0.00000000000E+00  0.00000000000E+00  0.93302361814E+03  0.93302361815E+03  0.50400001928E-02 0. -1.
        1   -1    0    0  501    0  0.00000000000E+00  0.00000000000E+00 -0.62509664483E+03  0.62509664485E+03  0.50400001928E-02 0.  1.
    10030    2    1    2    0    0  0.00000000000E+00  0.00000000000E+00  0.30792697330E+03  0.15581202630E+04  0.15273898432E+04 0.  0.
        5    1    3    3  502    0 -0.66874016525E+03  0.85548287960E+02 -0.21196795512E+03  0.70674211859E+03  0.46999998093E+01 0.  1.
       -5    1    3    3    0  502  0.66874016525E+03 -0.85548287960E+02  0.51989492842E+03  0.85137814442E+03  0.46999998093E+01 0. -1.
</event>
<event>
 5   0  0.7359897E-04  0.1496817E+04  0.7818609E-02  0.8886573E-01
       -2   -1    0    0    0  501  0.00000000000E+00  0.00000000000E+00  0.10323070525E+04  0.10323070526E+04  0.25500000920E-02 0.  1.
        2   -1    0    0  501    0  0.00000000000E+00  0.00000000000E+00 -0.54258571480E+03  0.54258571481E+03  0.25500000920E-02 0. -1.
    10030    2    1    2    0    0  0.00000000000E+00  0.00000000000E+00  0.48972133775E+03  0.15748927674E+04  0.14968167022E+04 0.  0.
        1    1    3    3  502    0 -0.14138510166E+03 -0.47153803980E+02 -0.52681335197E+03  0.54749021547E+03  0.50400001928E-02 0. -1.
       -1    1    3    3    0  502  0.14138510166E+03  0.47153803980E+02  0.10165346897E+04  0.10274025519E+04  0.50400001928E-02 0.  1.
</event>
<event>
 5   0  0.4086710E-04  0.1507358E+04  0.7818609E-02  0.8879574E-01
       -1   -1    0    0    0  501  0.00000000000E+00  0.00000000000E+00  0.31918406334E+03  0.31918406338E+03  0.50400001928E-02 0.  1.
        1   -1    0    0  501    0  0.00000000000E+00  0.00000000000E+00 -0.17796389854E+04  0.17796389854E+04  0.50400001928E-02 0. -1.
    10030    2    1    2    0    0  0.00000000000E+00  0.00000000000E+00 -0.14604549220E+04  0.20988230487E+04  0.15073584878E+04 0.  0.
        3    1    3    3  502    0  0.45444446415E+03  0.60015624465E+03 -0.67954191001E+03  0.10141422517E+04  0.10100000352E+00 0.  1.
       -3    1    3    3    0  502 -0.45444446415E+03 -0.60015624465E+03 -0.78091301201E+03  0.10846807971E+04  0.10100000352E+00 0. -1.
</event>
<event>
 5   0  0.7634227E-04  0.1494724E+04  0.7818609E-02  0.8887969E-01
       -2   -1    0    0    0  501  0.00000000000E+00  0.00000000000E+00  0.34547156400E+03  0.34547156400E+03  0.25500000920E-02 0.  1.
        2   -1    0    0  501    0  0.00000000000E+00  0.00000000000E+00 -0.16167759390E+04  0.16167759390E+04  0.25500000920E-02 0. -1.
    10030    2    1    2    0    0  0.00000000000E+00  0.00000000000E+00 -0.12713043750E+04  0.19622475030E+04  0.14947242050E+04 0.  0.
        2    1    3    3  502    0 -0.60054031565E+03 -0.20720706966E+03 -0.11524395331E+04  0.13159408489E+04  0.25500000920E-02 0. -1.
       -2    1    3    3    0  502  0.60054031565E+03  0.20720706966E+03 -0.11886484189E+03  0.64630665406E+03  0.25500000920E-02 0.  1.
</event>
<event>
 5   0  0.7634227E-04  0.1481910E+04  0.7818609E-02  0.8896572E-01
        2   -1    0    0  501    0  0.00000000000E+00  0.00000000000E+00  0.10985471177E+04  0.10985471178E+04  0.25500000920E-02 0. -1.
       -2   -1    0    0    0  501  0.00000000000E+00  0.00000000000E+00 -0.49976420383E+03  0.49976420384E+03  0.25500000920E-02 0.  1.
    10030    2    1    2    0    0  0.00000000000E+00  0.00000000000E+00  0.59878291391E+03  0.15983113216E+04  0.14819102884E+04 0.  0.
        2    1    3    3  502    0  0.21585344766E+03  0.13407403258E+03  0.10500840585E+04  0.10803911731E+04  0.25500000920E-02 0. -1.
       -2    1    3    3    0  502 -0.21585344766E+03 -0.13407403258E+03 -0.45130114458E+03  0.51792014846E+03  0.25500000920E-02 0.  1.
</event>
<event>
 5   0  0.7547580E-04  0.1516238E+04  0.7818609E-02  0.8873726E-01
       -2   -1    0    0    0  501  0.00000000000E+00  0.00000000000E+00  0.43862746791E+03  0.43862746792E+03  0.25500000920E-02 0. -1.
        2   -1    0    0  501    0  0.00000000000E+00  0.00000000000E+00 -0.13103251468E+04  0.13103251468E+04  0.25500000920E-02 0.  1.
    10030    2    1    2    0    0  0.00000000000E+00  0.00000000000E+00 -0.87169767888E+03  0.17489526147E+04  0.15162382416E+04 0.  0.
        4    1    3    3  502    0 -0.44357451635E+03  0.35027812895E+03  0.14696168750E+03  0.58399697745E+03  0.12699999809E+01 0. -1.
       -4    1    3    3    0  502  0.44357451635E+03 -0.35027812895E+03 -0.10186593664E+04  0.11649556373E+04  0.12699999809E+01 0.  1.
</event>
<event>
 5   0  0.7454828E-04  0.1501743E+04  0.7818609E-02  0.8883295E-01
       -2   -1    0    0    0  501  0.00000000000E+00  0.00000000000E+00  0.31808532993E+03  0.31808532994E+03  0.25500000920E-02 0. -1.
        2   -1    0    0  501    0  0.00000000000E+00  0.00000000000E+00 -0.17725057490E+04  0.17725057490E+04  0.25500000920E-02 0.  1.
    10030    2    1    2    0    0  0.00000000000E+00  0.00000000000E+00 -0.14544204191E+04  0.20905910789E+04  0.15017430885E+04 0.  0.
        3    1    3    3  502    0  0.72134619084E+02 -0.68614812411E+03 -0.31470057234E+03  0.75831333361E+03  0.10100000352E+00 0. -1.
       -3    1    3    3    0  502 -0.72134619084E+02  0.68614812411E+03 -0.11397198467E+04  0.13322777453E+04  0.10100000352E+00 0.  1.
</event>
<event>
 5   0  0.7359897E-04  0.1504052E+04  0.7818609E-02  0.8881763E-01
       -2   -1    0    0    0  501  0.00000000000E+00  0.00000000000E+00  0.50888416312E+03  0.50888416313E+03  0.25500000920E-02 0. -1.
        2   -1    0    0  501    0  0.00000000000E+00  0.00000000000E+00 -0.11113389301E+04  0.11113389301E+04  0.25500000920E-02 0.  1.
    10030    2    1    2    0    0  0.00000000000E+00  0.00000000000E+00 -0.60245476698E+03  0.16202230932E+04  0.15040515701E+04 0.  0.
        1    1    3    3  502    0  0.48719610524E+03 -0.33494545703E+03 -0.80187622192E+03  0.99627003341E+03  0.50400001928E-02 0.  1.
       -1    1    3    3    0  502 -0.48719610524E+03  0.33494545703E+03  0.19942145495E+03  0.62395305983E+03  0.50400001928E-02 0. -1.
</event>
<event>
 5   0  0.7672251E-04  0.1578607E+04  0.7818609E-02  0.8833799E-01
       -2   -1    0    0    0  501  0.00000000000E+00  0.00000000000E+00  0.85436349530E+03  0.85436349531E+03  0.25500000920E-02 0. -1.
        2   -1    0    0  501    0  0.00000000000E+00  0.00000000000E+00 -0.72919777471E+03  0.72919777471E+03  0.25500000920E-02 0.  1.
    10030    2    1    2    0    0  0.00000000000E+00  0.00000000000E+00  0.12516572060E+03  0.15835612700E+04  0.15786069296E+04 0.  0.
        5    1    3    3  502    0  0.74844699266E+03 -0.16957325683E+03 -0.12252235500E+03  0.77714979748E+03  0.46999998093E+01 0.  1.
       -5    1    3    3    0  502 -0.74844699266E+03  0.16957325683E+03  0.24768807560E+03  0.80641147254E+03  0.46999998093E+01 0. -1.
</event>
<event>
 5   0  0.4058874E-04  0.1473926E+04  0.7818609E-02  0.8901979E-01
        1   -1    0    0  501    0  0.00000000000E+00  0.00000000000E+00  0.55551962105E+03  0.55551962107E+03  0.50400001928E-02 0. -1.
       -1   -1    0    0    0  501  0.00000000000E+00  0.00000000000E+00 -0.97766959194E+03  0.97766959195E+03  0.50400001928E-02 0.  1.
    10030    2    1    2    0    0  0.00000000000E+00  0.00000000000E+00 -0.42214997089E+03  0.15331892130E+04  0.14739262414E+04 0.  0.
        4    1    3    3  502    0 -0.62450968757E+03 -0.21079341574E+03  0.13182579367E+03  0.67217993630E+03  0.12699999809E+01 0. -1.
       -4    1    3    3    0  502  0.62450968757E+03  0.21079341574E+03 -0.55397576456E+03  0.86100927673E+03  0.12699999809E+01 0.  1.
</event>
<event>
 5   0  0.3907345E-04  0.1472752E+04  0.7818609E-02  0.8902777E-01
        1   -1    0    0  501    0  0.00000000000E+00  0.00000000000E+00  0.36988814515E+03  0.36988814519E+03  0.50400001928E-02 0. -1.
       -1   -1    0    0    0  501  0.00000000000E+00  0.00000000000E+00 -0.14659834523E+04  0.14659834523E+04  0.50400001928E-02 0.  1.
    10030    2    1    2    0    0  0.00000000000E+00  0.00000000000E+00 -0.10960953071E+04  0.18358715975E+04  0.14727523893E+04 0.  0.
        5    1    3    3  502    0 -0.45715755329E+03 -0.56762893340E+03 -0.41711645383E+03  0.83976416964E+03  0.46999998093E+01 0.  1.
       -5    1    3    3    0  502  0.45715755329E+03  0.56762893340E+03 -0.67897885330E+03  0.99610742783E+03  0.46999998093E+01 0. -1.
</event>
<event>
 5   0  0.7547580E-04  0.1507968E+04  0.7818609E-02  0.8879172E-01
       -2   -1    0    0    0  501  0.00000000000E+00  0.00000000000E+00  0.33061630043E+03  0.33061630044E+03  0.25500000920E-02 0.  1.
        2   -1    0    0  501    0  0.00000000000E+00  0.00000000000E+00 -0.17194912692E+04  0.17194912692E+04  0.25500000920E-02 0. -1.
    10030    2    1    2    0    0  0.00000000000E+00  0.00000000000E+00 -0.13888749688E+04  0.20501075696E+04  0.15079679599E+04 0.  0.
        4    1    3    3  502    0  0.51806838797E+03 -0.32784287758E+03 -0.97774719639E+02  0.62083598131E+03  0.12699999809E+01 0.  1.
       -4    1    3    3    0  502 -0.51806838797E+03  0.32784287758E+03 -0.12911002491E+04  0.14292715883E+04  0.12699999809E+01 0. -1.
</event>
<event>
 5   0  0.7634227E-04  0.1497902E+04  0.7818609E-02  0.8885849E-01
       -2   -1    0    0    0  501  0.00000000000E+00  0.00000000000E+00  0.53269778755E+03  0.53269778756E+03  0.25500000920E-02 0. -1.
        2   -1    0    0  501    0  0.00000000000E+00  0.00000000000E+00 -0.10529943568E+04  0.10529943568E+04  0.25500000920E-02 0.  1.
    10030    2    1    2    0    0  0.00000000000E+00  0.00000000000E+00 -0.52029656922E+03  0.15856921443E+04  0.14979022187E+04 0.  0.
        2    1    3    3  502    0  0.28893604507E+01  0.65681626471E+03 -0.64111768763E+03  0.91784957558E+03  0.25500000920E-02 0.  1.
       -2    1    3    3    0  502 -0.28893604507E+01 -0.65681626471E+03  0.12082111840E+03  0.66784256876E+03  0.25500000920E-02 0. -1.
</event>
<event>
 5   0  0.3907345E-04  0.1527164E+04  0.7818609E-02  0.8866588E-01
        1   -1    0    0  501    0  0.00000000000E+00  0.00000000000E+00  0.69354164790E+03  0.69354164792E+03  0.50400001928E-02 0.  1.
       -1   -1    0    0    0  501  0.00000000000E+00  0.00000000000E+00 -0.84069547482E+03  0.84069547484E+03  0.50400001928E-02 0. -1.
    10030    2    1    2    0    0  0.00000000000E+00  0.00000000000E+00 -0.14715382692E+03  0.15342371228E+04  0.15271638092E+04 0.  0.
        5    1    3    3  502    0  0.43864339143E+03 -0.16111480649E+03  0.53309853921E+03  0.70893028446E+03  0.46999998093E+01 0.  1.
       -5    1    3    3    0  502 -0.43864339143E+03  0.16111480649E+03 -0.68025236613E+03  0.82530683830E+03  0.46999998093E+01 0. -1.
</event>
<event>
 5   0  0.4015204E-04  0.1536109E+04  0.7818609E-02  0.8860790E-01
        1   -1    0    0  501    0  0.00000000000E+00  0.00000000000E+00  0.11202449182E+04  0.11202449182E+04  0.50400001928E-02 0. -1.
       -1   -1    0    0    0  501  0.00000000000E+00  0.00000000000E+00 -0.52658832437E+03  0.52658832440E+03  0.50400001928E-02 0.  1.
    10030    2    1    2    0    0  0.00000000000E+00  0.00000000000E+00  0.59365659378E+03  0.16468332426E+04  0.15361092336E+04 0.  0.
        2    1    3    3  502    0  0.23806786807E+03 -0.68095083779E+03  0.14120888115E+02  0.72150519941E+03  0.25500000920E-02 0.  1.
       -2    1    3    3    0  502 -0.23806786807E+03  0.68095083779E+03  0.57953570566E+03  0.92532804315E+03  0.25500000920E-02 0. -1.
</event>
<event>
 5   0  0.7672251E-04  0.1484518E+04  0.7818609E-02  0.8894814E-01
        2   -1    0    0  501    0  0.00000000000E+00  0.00000000000E+00  0.71210135811E+03  0.71210135811E+03  0.25500000920E-02 0.  1.
       -2   -1    0    0    0  501  0.00000000000E+00  0.00000000000E+00 -0.77369406524E+03  0.77369406525E+03  0.25500000920E-02 0. -1.
    10030    2    1    2    0    0  0.00000000000E+00  0.00000000000E+00 -0.61592707134E+02  0.14857954234E+04  0.14845182311E+04 0.  0.
        5    1    3    3  502    0 -0.67799312140E+03 -0.29241911204E+03  0.45050734873E+02  0.73975351872E+03  0.46999998093E+01 0. -1.
       -5    1    3    3    0  502  0.67799312140E+03  0.29241911204E+03 -0.10664344201E+03  0.74604190464E+03  0.46999998093E+01 0.  1.
</event>
<event>
 5   0  0.4015204E-04  0.1507855E+04  0.7818609E-02  0.8879246E-01
        1   -1    0    0  501    0  0.00000000000E+00  0.00000000000E+00  0.25606787479E+04  0.25606787479E+04  0.50400001928E-02 0. -1.
       -1   -1    0    0    0  501  0.00000000000E+00  0.00000000000E+00 -0.22197502997E+03  0.22197503003E+03  0.50400001928E-02 0.  1.
    10030    2    1    2    0    0  0.00000000000E+00  0.00000000000E+00  0.23387037180E+04  0.27826537780E+04  0.15078550884E+04 0.  0.
        2    1    3    3  502    0 -0.70828731794E+03  0.25006460458E+03  0.12889999147E+04  0.14918860584E+04  0.25500000920E-02 0. -1.
       -2    1    3    3    0  502  0.70828731794E+03 -0.25006460458E+03  0.10497038033E+04  0.12907677196E+04  0.25500000920E-02 0.  1.
</event>
<event>
 5   0  0.4086710E-04  0.1406844E+04  0.7818609E-02  0.8948879E-01
        1   -1    0    0  501    0  0.00000000000E+00  0.00000000000E+00  0.11632067139E+04  0.11632067139E+04  0.50400001928E-02 0. -1.
       -1   -1    0    0    0  501  0.00000000000E+00  0.00000000000E+00 -0.42537807709E+03  0.42537807712E+03  0.50400001928E-02 0.  1.
    10030    2    1    2    0    0  0.00000000000E+00  0.00000000000E+00  0.73782863684E+03  0.15885847911E+04  0.14068441780E+04 0.  0.
        3    1    3    3  502    0 -0.25782617713E+03  0.10768292411E+03 -0.36002802687E+03  0.45573033704E+03  0.10100000352E+00 0.  1.
       -3    1    3    3    0  502  0.25782617713E+03 -0.10768292411E+03  0.10978566637E+04  0.11328544540E+04  0.10100000352E+00 0. -1.
</event>
<event>
 5   0  0.4084462E-04  0.1493915E+04  0.7818609E-02  0.8888509E-01
       -1   -1    0    0    0  501  0.00000000000E+00  0.00000000000E+00  0.26656944028E+03  0.26656944033E+03  0.50400001928E-02 0.  1.
        1   -1    0    0  501    0  0.00000000000E+00  0.00000000000E+00 -0.20930592252E+04  0.20930592252E+04  0.50400001928E-02 0. -1.
    10030    2    1    2    0    0  0.00000000000E+00  0.00000000000E+00 -0.18264897849E+04  0.23596286655E+04  0.14939151598E+04 0.  0.
        1    1    3    3  502    0  0.15878301858E+02 -0.86713926376E+02 -0.20848138062E+04  0.20866767915E+04  0.50400001928E-02 0. -1.
       -1    1    3    3    0  502 -0.15878301858E+02  0.86713926376E+02  0.25832402134E+03  0.27295187401E+03  0.50400001928E-02 0.  1.
</event>
<event>
 5   0  0.7359897E-04  0.1500295E+04  0.7818609E-02  0.8884257E-01
        2   -1    0    0  501    0  0.00000000000E+00  0.00000000000E+00  0.55389979346E+03  0.55389979347E+03  0.25500000920E-02 0. -1.
       -2   -1    0    0    0  501  0.00000000000E+00  0.00000000000E+00 -0.10159266570E+04  0.10159266570E+04  0.25500000920E-02 0.  1.
    10030    2    1    2    0    0  0.00000000000E+00  0.00000000000E+00 -0.46202686350E+03  0.15698264504E+04  0.15002953915E+04 0.  0.
        1    1    3    3  502    0  0.65075367695E+03 -0.35132895141E+03 -0.99451690838E+02  0.74619234719E+03  0.50400001928E-02 0. -1.
       -1    1    3    3    0  502 -0.65075367695E+03  0.35132895141E+03 -0.36257517266E+03  0.82363410324E+03  0.50400001928E-02 0.  1.
</event>
<event>
 5   0  0.2800375E-04  0.1496147E+04  0.7818609E-02  0.8887019E-01
        3   -1    0    0  501    0  0.00000000000E+00  0.00000000000E+00  0.29841658871E+04  0.29841658888E+04  0.10100000352E+00 0.  1.
       -3   -1    0    0    0  501  0.00000000000E+00  0.00000000000E+00 -0.18752782056E+03  0.18752784776E+03  0.10100000352E+00 0. -1.
    10030    2    1    2    0    0  0.00000000000E+00  0.00000000000E+00  0.27966380665E+04  0.31716937365E+04  0.14961472800E+04 0.  0.
        5    1    3    3  502    0  0.23586589662E+02  0.56592627579E+02  0.29787992786E+04  0.29794338866E+04  0.46999998093E+01 0.  1.
       -5    1    3    3    0  502 -0.23586589662E+02 -0.56592627579E+02 -0.18216121207E+03  0.19225984991E+03  0.46999998093E+01 0. -1.
</event>
<event>
 5   0  0.7454828E-04  0.1482154E+04  0.7818609E-02  0.8896408E-01
        2   -1    0    0  501    0  0.00000000000E+00  0.00000000000E+00  0.11244888543E+04  0.11244888543E+04  0.25500000920E-02 0.  1.
       -2   -1    0    0    0  501  0.00000000000E+00  0.00000000000E+00 -0.48839546877E+03  0.48839546877E+03  0.25500000920E-02 0. -1.
    10030    2    1    2    0    0  0.00000000000E+00  0.00000000000E+00  0.63609338558E+03  0.16128843231E+04  0.14821541906E+04 0.  0.
        3    1    3    3  502    0 -0.48496375129E+03  0.49191453298E+03  0.25999534503E+02  0.69126386700E+03  0.10100000352E+00 0. -1.
       -3    1    3    3    0  502  0.48496375129E+03 -0.49191453298E+03  0.61009385107E+03  0.92162045612E+03  0.10100000352E+00 0.  1.
</event>
<event>
 5   0  0.7672251E-04  0.1508621E+04  0.7818609E-02  0.8878740E-01
       -2   -1    0    0    0  501  0.00000000000E+00  0.00000000000E+00  0.71090156020E+03  0.71090156021E+03  0.25500000920E-02 0. -1.
        2   -1    0    0  501    0  0.00000000000E+00  0.00000000000E+00 -0.80037046254E+03  0.80037046255E+03  0.25500000920E-02 0.  1.
    10030    2    1    2    0    0  0.00000000000E+00  0.00000000000E+00 -0.89468902339E+02  0.15112720228E+04  0.15086213714E+04 0.  0.
        5    1    3    3  502    0  0.46112326528E+03 -0.12124181379E+03  0.54078225687E+03  0.72097280292E+03  0.46999998093E+01 0. -1.
       -5    1    3    3    0  502 -0.46112326528E+03  0.12124181379E+03 -0.63025115921E+03  0.79029921984E+03  0.46999998093E+01 0.  1.
</event>
<event>
 5   0  0.7547580E-04  0.1501993E+04  0.7818609E-02  0.8883129E-01
        2   -1    0    0  501    0  0.00000000000E+00  0.00000000000E+00  0.62702126632E+03  0.62702126633E+03  0.25500000920E-02 0. -1.
       -2   -1    0    0    0  501  0.00000000000E+00  0.00000000000E+00 -0.89948384099E+03  0.89948384099E+03  0.25500000920E-02 0.  1.
    10030    2    1    2    0    0  0.00000000000E+00  0.00000000000E+00 -0.27246257466E+03  0.15265051073E+04  0.15019926724E+04 0.  0.
        4    1    3    3  502    0 -0.16113345402E+03  0.30171077400E+03 -0.81572345272E+03  0.88453363156E+03  0.12699999809E+01 0.  1.
       -4    1    3    3    0  502  0.16113345402E+03 -0.30171077400E+03  0.54326087806E+03  0.64197147575E+03  0.12699999809E+01 0. -1.
</event>
<event>
 5   0  0.7359897E-04  0.1494158E+04  0.7818609E-02  0.8888347E-01
       -2   -1    0    0    0  501  0.00000000000E+00  0.00000000000E+00  0.24418037773E+03  0.24418037775E+03  0.25500000920E-02 0.  1.
        2   -1    0    0  501    0  0.00000000000E+00  0.00000000000E+00 -0.22857157081E+04  0.22857157081E+04  0.25500000920E-02 0. -1.
    10030    2    1    2    0    0  0.00000000000E+00  0.00000000000E+00 -0.20415353303E+04  0.25298960858E+04  0.14941578565E+04 0.  0.
        1    1    3    3  502    0 -0.38164967591E+03  0.27346816344E+03 -0.20046937622E+04  0.20589410851E+04  0.50400001928E-02 0. -1.
       -1    1    3    3    0  502  0.38164967591E+03 -0.27346816344E+03 -0.36841568102E+02  0.47095500072E+03  0.50400001928E-02 0.  1.
</event>
<event>
 5   0  0.4015204E-04  0.1477283E+04  0.7818609E-02  0.8899702E-01
        1   -1    0    0  501    0  0.00000000000E+00  0.00000000000E+00  0.88937672633E+03  0.88937672634E+03  0.50400001928E-02 0. -1.
       -1   -1    0    0    0  501  0.00000000000E+00  0.00000000000E+00 -0.61345342111E+03  0.61345342113E+03  0.50400001928E-02 0.  1.
    10030    2    1    2    0    0  0.00000000000E+00  0.00000000000E+00  0.27592330522E+03  0.15028301475E+04  0.14772829051E+04 0.  0.
        2    1    3    3  502    0 -0.61364460162E+03  0.16926777614E+03 -0.24319080030E+03  0.68143454748E+03  0.25500000920E-02 0.  1.
       -2    1    3    3    0  502  0.61364460162E+03 -0.16926777614E+03  0.51911410552E+03  0.82139559999E+03  0.25500000920E-02 0. -1.
</event>
<event>
 5   0  0.4086710E-04  0.1503092E+04  0.7818609E-02  0.8882399E-01
        1   -1    0    0  501    0  0.00000000000E+00  0.00000000000E+00  0.89724479290E+03  0.89724479291E+03  0.50400001928E-02 0.  1.
       -1   -1    0    0    0  501  0.00000000000E+00  0.00000000000E+00 -0.62950686520E+03  0.62950686522E+03  0.50400001928E-02 0. -1.
    10030    2    1    2    0    0  0.00000000000E+00  0.00000000000E+00  0.26773792769E+03  0.15267516581E+04  0.15030924881E+04 0.  0.
        3    1    3    3  502    0 -0.12739495160E+03 -0.73141689006E+03  0.25241767930E+03  0.78416505647E+03  0.10100000352E+00 0.  1.
       -3    1    3    3    0  502  0.12739495160E+03  0.73141689006E+03  0.15320248394E+02  0.74258660166E+03  0.10100000352E+00 0. -1.
</event>
<event>
 5   0  0.7454828E-04  0.1505085E+04  0.7818609E-02  0.8881079E-01
       -2   -1    0    0    0  501  0.00000000000E+00  0.00000000000E+00  0.39283857323E+03  0.39283857324E+03  0.25500000920E-02 0.  1.
        2   -1    0    0  501    0  0.00000000000E+00  0.00000000000E+00 -0.14416102167E+04  0.14416102168E+04  0.25500000920E-02 0. -1.
    10030    2    1    2    0    0  0.00000000000E+00  0.00000000000E+00 -0.10487716435E+04  0.18344487900E+04  0.15050848491E+04 0.  0.
        3    1    3    3  502    0 -0.32566252806E+03 -0.61983645135E+03 -0.18822884416E+03  0.72504028618E+03  0.10100000352E+00 0. -1.
       -3    1    3    3    0  502  0.32566252806E+03  0.61983645135E+03 -0.86054279936E+03  0.11094085038E+04  0.10100000352E+00 0.  1.
</event>
<event>
 5   0  0.7454828E-04  0.1448240E+04  0.7818609E-02  0.8919622E-01
        2   -1    0    0  501    0  0.00000000000E+00  0.00000000000E+00  0.11298838417E+04  0.11298838417E+04  0.25500000920E-02 0. -1.
       -2   -1    0    0    0  501  0.00000000000E+00  0.00000000000E+00 -0.46407379664E+03  0.46407379665E+03  0.25500000920E-02 0.  1.
    10030    2    1    2    0    0  0.00000000000E+00  0.00000000000E+00  0.66581004506E+03  0.15939576383E+04  0.14482395992E+04 0.  0.
        3    1    3    3  502    0  0.42612455388E+03  0.56651237648E+03  0.17028507113E+03  0.72905104332E+03  0.10100000352E+00 0. -1.
       -3    1    3    3    0  502 -0.42612455388E+03 -0.56651237648E+03  0.49552497393E+03  0.86490659502E+03  0.10100000352E+00 0.  1.
</event>
<event>
 5   0  0.4015204E-04  0.1497084E+04  0.7818609E-02  0.8886394E-01
       -1   -1    0    0    0  501  0.00000000000E+00  0.00000000000E+00  0.30261545606E+03  0.30261545610E+03  0.50400001928E-02 0.  1.
        1   -1    0    0  501    0  0.00000000000E+00  0.00000000000E+00 -0.18515750252E+04  0.18515750252E+04  0.50400001928E-02 0. -1.
    10030    2    1    2    0    0  0.00000000000E+00  0.00000000000E+00 -0.15489595691E+04  0.21541904813E+04  0.14970841269E+04 0.  0.
        2    1    3    3  502    0  0.39305944641E+03  0.54681500801E+03 -0.30420723761E+03  0.73894818818E+03  0.25500000920E-02 0.  1.
       -2    1    3    3    0  502 -0.39305944641E+03 -0.54681500801E+03 -0.12447523315E+04  0.14152422931E+04  0.25500000920E-02 0. -1.
</event>
<event>
 5   0  0.4084462E-04  0.1523456E+04  0.7818609E-02  0.8869003E-01
        1   -1    0    0  501    0  0.00000000000E+00  0.00000000000E+00  0.59099849793E+03  0.59099849796E+03  0.50400001928E-02 0.  1.
       -1   -1    0    0    0  501  0.00000000000E+00  0.00000000000E+00 -0.98177803732E+03  0.98177803733E+03  0.50400001928E-02 0. -1.
    10030    2    1    2    0    0  0.00000000000E+00  0.00000000000E+00 -0.39077953938E+03  0.15727765353E+04  0.15234557367E+04 0.  0.
        1    1    3    3  502    0  0.59631572170E+03  0.46582502154E+03 -0.28564995769E+03  0.80881474331E+03  0.50400001928E-02 0. -1.
       -1    1    3    3    0  502 -0.59631572170E+03 -0.46582502154E+03 -0.10512958169E+03  0.76396179198E+03  0.50400001928E-02 0.  1.
</event>
<event>
 5   0  0.7672251E-04  0.1457590E+04  0.7818609E-02  0.8913156E-01
        2   -1    0    0  501    0  0.00000000000E+00  0.00000000000E+00  0.10846634026E+04  0.10846634026E+04  0.25500000920E-02 0.  1.
       -2   -1    0    0    0  501  0.00000000000E+00  0.00000000000E+00 -0.48968372233E+03  0.48968372234E+03  0.25500000920E-02 0. -1.
    10030    2    1    2    0    0  0.00000000000E+00  0.00000000000E+00  0.59497968031E+03  0.15743471250E+04  0.14575898085E+04 0.  0.
        5    1    3    3  502    0  0.47270988429E+03  0.22542236676E+03 -0.24991041419E+03  0.58029921873E+03  0.46999998093E+01 0. -1.
       -5    1    3    3    0  502 -0.47270988429E+03 -0.22542236676E+03  0.84489009450E+03  0.99404790625E+03  0.46999998093E+01 0.  1.
</event>
<event>
 5   0  0.4058874E-04  0.1498926E+04  0.7818609E-02  0.8885167E-01
        1   -1    0    0  501    0  0.00000000000E+00  0.00000000000E+00  0.18999756095E+04  0.18999756095E+04  0.50400001928E-02 0. -1.
       -1   -1    0    0    0  501  0.00000000000E+00  0.00000000000E+00 -0.29563267349E+03  0.29563267354E+03  0.50400001928E-02 0.  1.
    10030    2    1    2    0    0  0.00000000000E+00  0.00000000000E+00  0.16043429360E+04  0.21956082830E+04  0.14989261077E+04 0.  0.
        4    1    3    3  502    0  0.31858219859E+03  0.31322436821E+03  0.16835904165E+04  0.17418617699E+04  0.12699999809E+01 0. -1.
       -4    1    3    3    0  502 -0.31858219859E+03 -0.31322436821E+03 -0.79247480494E+02  0.45374651312E+03  0.12699999809E+01 0.  1.
</event>
<event>
 5   0  0.4084462E-04  0.1507324E+04  0.7818609E-02  0.8879597E-01
        1   -1    0    0  501    0  0.00000000000E+00  0.00000000000E+00  0.19202891386E+04  0.19202891386E+04  0.50400001928E-02 0. -1.
       -1   -1    0    0    0  501  0.00000000000E+00  0.00000000000E+00 -0.29579218340E+03  0.29579218344E+03  0.50400001928E-02 0.  1.
    10030    2    1    2    0    0  0.00000000000E+00  0.00000000000E+00  0.16244969552E+04  0.22160813220E+04  0.15073241418E+04 0.  0.
        1    1    3    3  502    0  0.15026069238E+02 -0.17977285454E+03 -0.26358127517E+03  0.31940436852E+03  0.50400001928E-02 0.  1.
       -1    1    3    3    0  502 -0.15026069238E+02  0.17977285454E+03  0.18880782304E+04  0.18966769535E+04  0.50400001928E-02 0. -1.
</event>
<event>
 5   0  0.7547580E-04  0.1472419E+04  0.7818609E-02  0.8903004E-01
        2   -1    0    0  501    0  0.00000000000E+00  0.00000000000E+00  0.18311227242E+04  0.18311227242E+04  0.25500000920E-02 0.  1.
       -2   -1    0    0    0  501  0.00000000000E+00  0.00000000000E+00 -0.29599570216E+03  0.29599570217E+03  0.25500000920E-02 0. -1.
    10030    2    1    2    0    0  0.00000000000E+00  0.00000000000E+00  0.15351270221E+04  0.21271184264E+04  0.14724190389E+04 0.  0.
        4    1    3    3  502    0 -0.39868092094E+03  0.19238017741E+03  0.16173842181E+04  0.16768690859E+04  0.12699999809E+01 0.  1.
       -4    1    3    3    0  502  0.39868092094E+03 -0.19238017741E+03 -0.82257196073E+02  0.45024934046E+03  0.12699999809E+01 0. -1.
</event>
<event>
 5   0  0.4086710E-04  0.1473660E+04  0.7818609E-02  0.8902160E-01
       -1   -1    0    0    0  501  0.00000000000E+00  0.00000000000E+00  0.62047157674E+03  0.62047157676E+03  0.50400001928E-02 0.  1.
        1   -1    0    0  501    0  0.00000000000E+00  0.00000000000E+00 -0.87500951613E+03  0.87500951614E+03  0.50400001928E-02 0. -1.
    10030    2    1    2    0    0  0.00000000000E+00  0.00000000000E+00 -0.25453793939E+03  0.14954810929E+04  0.14736601157E+04 0.  0.
        3    1    3    3  502    0  0.54373830371E+03 -0.41150485272E+03 -0.41056373302E+03  0.79595865207E+03  0.10100000352E+00 0. -1.
       -3    1    3    3    0  502 -0.54373830371E+03  0.41150485272E+03  0.15602579364E+03  0.69952244083E+03  0.10100000352E+00 0.  1.
</event>
<event>
 5   0  0.4084462E-04  0.1523910E+04  0.7818609E-02  0.8868707E-01
        1   -1    0    0  501    0  0.00000000000E+00  0.00000000000E+00  0.75829245055E+03  0.75829245057E+03  0.50400001928E-02 0. -1.
       -1   -1    0    0    0  501  0.00000000000E+00  0.00000000000E+00 -0.76563553468E+03  0.76563553469E+03  0.50400001928E-02 0.  1.
    10030    2    1    2    0    0  0.00000000000E+00  0.00000000000E+00 -0.73430841260E+01  0.15239279853E+04  0.15239102937E+04 0.  0.
        1    1    3    3  502    0  0.29038134643E+03 -0.69843083147E+03 -0.95589381883E+02  0.76240690098E+03  0.50400001928E-02 0. -1.
       -1    1    3    3    0  502 -0.29038134643E+03  0.69843083147E+03  0.88246297757E+02  0.76152108428E+03  0.50400001928E-02 0.  1.
</event>
<event>
 5   0  0.4084462E-04  0.1602095E+04  0.7818609E-02  0.8819262E-01
       -1   -1    0    0    0  501  0.00000000000E+00  0.00000000000E+00  0.55524589650E+03  0.55524589652E+03  0.50400001928E-02 0. -1.
        1   -1    0    0  501    0  0.00000000000E+00  0.00000000000E+00 -0.11556630587E+04  0.11556630588E+04  0.50400001928E-02 0.  1.
    10030    2    1    2    0    0  0.00000000000E+00  0.00000000000E+00 -0.60041716225E+03  0.17109089553E+04  0.16020950922E+04 0.  0.
        1    1    3    3  502    0 -0.43441850086E+03  0.46781771829E+03 -0.81691436523E+03  0.10367844190E+04  0.50400001928E-02 0.  1.
       -1    1    3    3    0  502  0.43441850086E+03 -0.46781771829E+03  0.21649720298E+03  0.67412453624E+03  0.50400001928E-02 0. -1.
</event>
<event>
 5   0  0.3907345E-04  0.1505655E+04  0.7818609E-02  0.8880701E-01
        1   -1    0    0  501    0  0.00000000000E+00  0.00000000000E+00  0.12765884838E+04  0.12765884838E+04  0.50400001928E-02 0.  1.
       -1   -1    0    0    0  501  0.00000000000E+00  0.00000000000E+00 -0.44395588184E+03  0.44395588187E+03  0.50400001928E-02 0. -1.
    10030    2    1    2    0    0  0.00000000000E+00  0.00000000000E+00  0.83263260191E+03  0.17205443656E+04  0.15056546298E+04 0.  0.
        5    1    3    3  502    0  0.17072977867E+03 -0.43004803445E+03  0.10949015168E+04  0.11886636996E+04  0.46999998093E+01 0.  1.
       -5    1    3    3    0  502 -0.17072977867E+03  0.43004803445E+03 -0.26226891484E+03  0.53188066608E+03  0.46999998093E+01 0. -1.
</event>
<event>
 5   0  0.3907345E-04  0.1531297E+04  0.7818609E-02  0.8863903E-01
        1   -1    0    0  501    0  0.00000000000E+00  0.00000000000E+00  0.13568731123E+04  0.13568731123E+04  0.50400001928E-02 0. -1.
       -1   -1    0    0    0  501  0.00000000000E+00  0.00000000000E+00 -0.43203569408E+03  0.43203569411E+03  0.50400001928E-02 0.  1.
    10030    2    1    2    0    0  0.00000000000E+00  0.00000000000E+00  0.92483741820E+03  0.17889088064E+04  0.15312969887E+04 0.  0.
        5    1    3    3  502    0 -0.37821422754E+03  0.16995001751E+03 -0.28949618889E+03  0.50572635263E+03  0.46999998093E+01 0.  1.
       -5    1    3    3    0  502  0.37821422754E+03 -0.16995001751E+03  0.12143336071E+04  0.12831824538E+04  0.46999998093E+01 0. -1.
</event>
<event>
 5   0  0.4015204E-04  0.1496912E+04  0.7818609E-02  0.8886509E-01
       -1   -1    0    0    0  501  0.00000000000E+00  0.00000000000E+00  0.10041782948E+04  0.10041782948E+04  0.50400001928E-02 0. -1.
        1   -1    0    0  501    0  0.00000000000E+00  0.00000000000E+00 -0.55785553581E+03  0.55785553583E+03  0.50400001928E-02 0.  1.
    10030    2    1    2    0    0  0.00000000000E+00  0.00000000000E+00  0.44632275895E+03  0.15620338306E+04  0.14969120491E+04 0.  0.
        2    1    3    3  502    0  0.14799135343E+03  0.40095638896E+03 -0.41799435663E+03  0.59781832417E+03  0.25500000920E-02 0.  1.
       -2    1    3    3    0  502 -0.14799135343E+03 -0.40095638896E+03  0.86431711558E+03  0.96421550642E+03  0.25500000920E-02 0. -1.
</event>
<event>
 5   0  0.4015204E-04  0.1490676E+04  0.7818609E-02  0.8890677E-01
        1   -1    0    0  501    0  0.00000000000E+00  0.00000000000E+00  0.60460384841E+03  0.60460384843E+03  0.50400001928E-02 0. -1.
       -1   -1    0    0    0  501  0.00000000000E+00  0.00000000000E+00 -0.91883082579E+03  0.91883082580E+03  0.50400001928E-02 0.  1.
    10030    2    1    2    0    0  0.00000000000E+00  0.00000000000E+00 -0.31422697738E+03  0.15234346742E+04  0.14906758914E+04 0.  0.
        2    1    3    3  502    0  0.18677353189E+03  0.28459535534E+03 -0.83474569823E+03  0.90148724296E+03  0.25500000920E-02 0.  1.
       -2    1    3    3    0  502 -0.18677353189E+03 -0.28459535534E+03  0.52051872085E+03  0.62194743127E+03  0.25500000920E-02 0. -1.
</event>
<event>
 5   0  0.4015204E-04  0.1752791E+04  0.7818609E-02  0.8731815E-01
        1   -1    0    0  501    0  0.00000000000E+00  0.00000000000E+00  0.17056702010E+04  0.17056702010E+04  0.50400001928E-02 0.  1.
       -1   -1    0    0    0  501  0.00000000000E+00  0.00000000000E+00 -0.45030340490E+03  0.45030340493E+03  0.50400001928E-02 0. -1.
    10030    2    1    2    0    0  0.00000000000E+00  0.00000000000E+00  0.12553667961E+04  0.21559736059E+04  0.17527910305E+04 0.  0.
        2    1    3    3  502    0  0.29063122797E+03 -0.13375190800E+03  0.16312745452E+04  0.16623515649E+04  0.25500000920E-02 0.  1.
       -2    1    3    3    0  502 -0.29063122797E+03  0.13375190800E+03 -0.37590774908E+03  0.49362204103E+03  0.25500000920E-02 0. -1.
</event>
<event>
 5   0  0.7672251E-04  0.1485741E+04  0.7818609E-02  0.8893990E-01
        2   -1    0    0  501    0  0.00000000000E+00  0.00000000000E+00  0.14496720882E+04  0.14496720882E+04  0.25500000920E-02 0.  1.
       -2   -1    0    0    0  501  0.00000000000E+00  0.00000000000E+00 -0.38067705029E+03  0.38067705030E+03  0.25500000920E-02 0. -1.
    10030    2    1    2    0    0  0.00000000000E+00  0.00000000000E+00  0.10689950379E+04  0.18303491385E+04  0.14857414236E+04 0.  0.
        5    1    3    3  502    0  0.14947927428E+03  0.68638304787E+03  0.83213119367E+03  0.10890042035E+04  0.46999998093E+01 0. -1.
       -5    1    3    3    0  502 -0.14947927428E+03 -0.68638304787E+03  0.23686384420E+03  0.74134493492E+03  0.46999998093E+01 0.  1.
</event>
<event>
 5   0  0.4084462E-04  0.1564723E+04  0.7818609E-02  0.8842518E-01
       -1   -1    0    0    0  501  0.00000000000E+00  0.00000000000E+00  0.72594886534E+03  0.72594886535E+03  0.50400001928E-02 0.  1.
        1   -1    0    0  501    0  0.00000000000E+00  0.00000000000E+00 -0.84315819842E+03  0.84315819843E+03  0.50400001928E-02 0. -1.
    10030    2    1    2    0    0  0.00000000000E+00  0.00000000000E+00 -0.11720933308E+03  0.15691070638E+04  0.15647232822E+04 0.  0.
        1    1    3    3  502    0  0.77660319012E+03 -0.50585162147E+02 -0.13894381077E+03  0.79055471418E+03  0.50400001928E-02 0. -1.
       -1    1    3    3    0  502 -0.77660319012E+03  0.50585162147E+02  0.21734477691E+02  0.77855234961E+03  0.50400001928E-02 0.  1.
</event>
<event>
 5   0  0.2800375E-04  0.1509486E+04  0.7818609E-02  0.8878169E-01
        3   -1    0    0  501    0  0.00000000000E+00  0.00000000000E+00  0.57168755326E+03  0.57168756218E+03  0.10100000352E+00 0. -1.
       -3   -1    0    0    0  501  0.00000000000E+00  0.00000000000E+00 -0.99641318888E+03  0.99641319400E+03  0.10100000352E+00 0.  1.
    10030    2    1    2    0    0  0.00000000000E+00  0.00000000000E+00 -0.42472563562E+03  0.15681007562E+04  0.15094860437E+04 0.  0.
        4    1    3    3  502    0 -0.21929707288E+02  0.70069675227E+03 -0.50282440796E+03  0.86272292704E+03  0.12699999809E+01 0.  1.
       -4    1    3    3    0  502  0.21929707288E+02 -0.70069675227E+03  0.78098772342E+02  0.70537782914E+03  0.12699999809E+01 0. -1.
</event>
<event>
 5   0  0.7454828E-04  0.1358463E+04  0.7818609E-02  0.8984446E-01
       -2   -1    0    0    0  501  0.00000000000E+00  0.00000000000E+00  0.10112885339E+04  0.10112885339E+04  0.25500000920E-02 0.  1.
        2   -1    0    0  501    0  0.00000000000E+00  0.00000000000E+00 -0.45620575470E+03  0.45620575471E+03  0.25500000920E-02 0. -1.
    10030    2    1    2    0    0  0.00000000000E+00  0.00000000000E+00  0.55508277919E+03  0.14674942886E+04  0.13584633213E+04 0.  0.
        3    1    3    3  502    0  0.40008960629E+03 -0.15817520142E+03 -0.29025298292E+03  0.51897773719E+03  0.10100000352E+00 0. -1.
       -3    1    3    3    0  502 -0.40008960629E+03  0.15817520142E+03  0.84533576211E+03  0.94851655142E+03  0.10100000352E+00 0.  1.
</event>
<event>
 5   0  0.4058874E-04  0.1541065E+04  0.7818609E-02  0.8857595E-01
        1   -1    0    0  501    0  0.00000000000E+00  0.00000000000E+00  0.11861202736E+04  0.11861202736E+04  0.50400001928E-02 0.  1.
       -1   -1    0    0    0  501  0.00000000000E+00  0.00000000000E+00 -0.50055690137E+03  0.50055690140E+03  0.50400001928E-02 0. -1.
    10030    2    1    2    0    0  0.00000000000E+00  0.00000000000E+00  0.68556337225E+03  0.16866771750E+04  0.15410654611E+04 0.  0.
        4    1    3    3  502    0 -0.61437247282E+02 -0.60632410596E+03 -0.17327316956E+03  0.63358398102E+03  0.12699999809E+01 0. -1.
       -4    1    3    3    0  502  0.61437247282E+02  0.60632410596E+03  0.85883654181E+03  0.10530931940E+04  0.12699999809E+01 0.  1.
</event>
<event>
 5   0  0.7547580E-04  0.1505180E+04  0.7818609E-02  0.8881015E-01
       -2   -1    0    0    0  501  0.00000000000E+00  0.00000000000E+00  0.10611553841E+04  0.10611553841E+04  0.25500000920E-02 0.  1.
        2   -1    0    0  501    0  0.00000000000E+00  0.00000000000E+00 -0.53375027925E+03  0.53375027926E+03  0.25500000920E-02 0. -1.
    10030    2    1    2    0    0  0.00000000000E+00  0.00000000000E+00  0.52740510484E+03  0.15949056634E+04  0.15051803647E+04 0.  0.
        4    1    3    3  502    0  0.44338013417E+03 -0.58958625647E+03  0.42155426616E+03  0.84965140464E+03  0.12699999809E+01 0.  1.
       -4    1    3    3    0  502 -0.44338013417E+03  0.58958625647E+03  0.10585083868E+03  0.74525425872E+03  0.12699999809E+01 0. -1.
</event>
<event>
 5   0  0.7359897E-04  0.1496150E+04  0.7818609E-02  0.8887017E-01
        2   -1    0    0  501    0  0.00000000000E+00  0.00000000000E+00  0.84318982556E+03  0.84318982556E+03  0.25500000920E-02 0.  1.
       -2   -1    0    0    0  501  0.00000000000E+00  0.00000000000E+00 -0.66368963853E+03  0.66368963853E+03  0.25500000920E-02 0. -1.
    10030    2    1    2    0    0  0.00000000000E+00  0.00000000000E+00  0.17950018703E+03  0.15068794641E+04  0.14961501937E+04 0.  0.
        1    1    3    3  502    0  0.31668894933E+03 -0.63906016281E+03 -0.13753739340E+03  0.72636514023E+03  0.50400001928E-02 0. -1.
       -1    1    3    3    0  502 -0.31668894933E+03  0.63906016281E+03  0.31703758044E+03  0.78051432387E+03  0.50400001928E-02 0.  1.
</event>
<event>
 5   0  0.4086710E-04  0.1494242E+04  0.7818609E-02  0.8888291E-01
        1   -1    0    0  501    0  0.00000000000E+00  0.00000000000E+00  0.66425253004E+03  0.66425253006E+03  0.50400001928E-02 0. -1.
       -1   -1    0    0    0  501  0.00000000000E+00  0.00000000000E+00 -0.84032724832E+03  0.84032724834E+03  0.50400001928E-02 0.  1.
    10030    2    1    2    0    0  0.00000000000E+00  0.00000000000E+00 -0.17607471828E+03  0.15045797784E+04  0.14942416147E+04 0.  0.
        3    1    3    3  502    0  0.32734365967E+03  0.65461551534E+03  0.63047913801E+02  0.73460900763E+03  0.10100000352E+00 0. -1.
       -3    1    3    3    0  502 -0.32734365967E+03 -0.65461551534E+03 -0.23912263209E+03  0.76997077077E+03  0.10100000352E+00 0.  1.
</event>
<event>
 5   0  0.7454828E-04  0.1490525E+04  0.7818609E-02  0.8890778E-01
        2   -1    0    0  501    0  0.00000000000E+00  0.00000000000E+00  0.13575803923E+04  0.13575803923E+04  0.25500000920E-02 0.  1.
       -2   -1    0    0    0  501  0.00000000000E+00  0.00000000000E+00 -0.40912238201E+03  0.40912238202E+03  0.25500000920E-02 0. -1.
    10030    2    1    2    0    0  0.00000000000E+00  0.00000000000E+00  0.94845801024E+03  0.17667027743E+04  0.14905254427E+04 0.  0.
        3    1    3    3  502    0  0.29118367591E+03  0.46160266077E+02  0.12855222877E+04  0.13188958509E+04  0.10100000352E+00 0.  1.
       -3    1    3    3    0  502 -0.29118367591E+03 -0.46160266077E+02 -0.33706427743E+03  0.44780692335E+03  0.10100000352E+00 0. -1.
</event>
<event>
 5   0  0.4058874E-04  0.1496117E+04  0.7818609E-02  0.8887039E-01
        1   -1    0    0  501    0  0.00000000000E+00  0.00000000000E+00  0.18524340034E+04  0.18524340034E+04  0.50400001928E-02 0. -1.
       -1   -1    0    0    0  501  0.00000000000E+00  0.00000000000E+00 -0.30208455949E+03  0.30208455953E+03  0.50400001928E-02 0.  1.
    10030    2    1    2    0    0  0.00000000000E+00  0.00000000000E+00  0.15503494439E+04  0.21545185630E+04  0.14961172547E+04 0.  0.
        4    1    3    3  502    0 -0.52231979825E+03 -0.20197940282E+03  0.60955770284E+02  0.56332128456E+03  0.12699999809E+01 0.  1.
       -4    1    3    3    0  502  0.52231979825E+03  0.20197940282E+03  0.14893936737E+04  0.15911972784E+04  0.12699999809E+01 0. -1.
</event>
<event>
 5   0  0.7634227E-04  0.1509189E+04  0.7818609E-02  0.8878365E-01
        2   -1    0    0  501    0  0.00000000000E+00  0.00000000000E+00  0.66626092476E+03  0.66626092476E+03  0.25500000920E-02 0. -1.
       -2   -1    0    0    0  501  0.00000000000E+00  0.00000000000E+00 -0.85463969177E+03  0.85463969177E+03  0.25500000920E-02 0.  1.
    10030    2    1    2    0    0  0.00000000000E+00  0.00000000000E+00 -0.18837876701E+03  0.15209006165E+04  0.15091892279E+04 0.  0.
        2    1    3    3  502    0 -0.18397192128E+02  0.53629278495E+03  0.44045997239E+03  0.69422863320E+03  0.25500000920E-02 0. -1.
       -2    1    3    3    0  502  0.18397192128E+02 -0.53629278495E+03 -0.62883873940E+03  0.82667198334E+03  0.25500000920E-02 0.  1.
</event>
<event>
 5   0  0.4058874E-04  0.1506772E+04  0.7818609E-02  0.8879962E-01
       -1   -1    0    0    0  501  0.00000000000E+00  0.00000000000E+00  0.55049590140E+03  0.55049590143E+03  0.50400001928E-02 0. -1.
        1   -1    0    0  501    0  0.00000000000E+00  0.00000000000E+00 -0.10310525689E+04  0.10310525690E+04  0.50400001928E-02 0.  1.
    10030    2    1    2    0    0  0.00000000000E+00  0.00000000000E+00 -0.48055666754E+03  0.15815484704E+04  0.15067716660E+04 0.  0.
        4    1    3    3  502    0 -0.74344659823E+03 -0.10871914293E+03 -0.29830196647E+03  0.80840483210E+03  0.12699999809E+01 0.  1.
       -4    1    3    3    0  502  0.74344659823E+03  0.10871914293E+03 -0.18225470107E+03  0.77314363828E+03  0.12699999809E+01 0. -1.
</event>
<event>
 5   0  0.4058874E-04  0.1453641E+04  0.7818609E-02  0.8915880E-01
       -1   -1    0    0    0  501  0.00000000000E+00  0.00000000000E+00  0.39941477420E+03  0.39941477423E+03  0.50400001928E-02 0.  1.
        1   -1    0    0  501    0  0.00000000000E+00  0.00000000000E+00 -0.13226043243E+04  0.13226043243E+04  0.50400001928E-02 0. -1.
    10030    2    1    2    0    0  0.00000000000E+00  0.00000000000E+00 -0.92318955007E+03  0.17220190985E+04  0.14536405437E+04 0.  0.
        4    1    3    3  502    0 -0.65097996702E+03 -0.32316197825E+03 -0.45261089411E+03  0.85619321185E+03  0.12699999809E+01 0. -1.
       -4    1    3    3    0  502  0.65097996702E+03  0.32316197825E+03 -0.47057865595E+03  0.86582588665E+03  0.12699999809E+01 0.  1.
</event>
<event>
 5   0  0.4015204E-04  0.1483613E+04  0.7818609E-02  0.8895424E-01
        1   -1    0    0  501    0  0.00000000000E+00  0.00000000000E+00  0.10447720970E+04  0.10447720970E+04  0.50400001928E-02 0.  1.
       -1   -1    0    0    0  501  0.00000000000E+00  0.00000000000E+00 -0.52669562065E+03  0.52669562067E+03  0.50400001928E-02 0. -1.
    10030    2    1    2    0    0  0.00000000000E+00  0.00000000000E+00  0.51807647633E+03  0.15714677177E+04  0.14836130063E+04 0.  0.
        2    1    3    3  502    0  0.54997140121E+02  0.38046781813E+03  0.93103294882E+03  0.10072749366E+04  0.25500000920E-02 0.  1.
       -2    1    3    3    0  502 -0.54997140121E+02 -0.38046781813E+03 -0.41295647249E+03  0.56419278109E+03  0.25500000920E-02 0. -1.
</event>
<event>
 5   0  0.7634227E-04  0.1507899E+04  0.7818609E-02  0.8879217E-01
       -2   -1    0    0    0  501  0.00000000000E+00  0.00000000000E+00  0.54211180910E+03  0.54211180911E+03  0.25500000920E-02 0.  1.
        2   -1    0    0  501    0  0.00000000000E+00  0.00000000000E+00 -0.10485658712E+04  0.10485658712E+04  0.25500000920E-02 0. -1.
    10030    2    1    2    0    0  0.00000000000E+00  0.00000000000E+00 -0.50645406205E+03  0.15906776803E+04  0.15078991231E+04 0.  0.
        2    1    3    3  502    0  0.51430598605E+03 -0.44183674893E+03 -0.60103842926E+03  0.90607811664E+03  0.25500000920E-02 0.  1.
       -2    1    3    3    0  502 -0.51430598605E+03  0.44183674893E+03  0.94584367213E+02  0.68459956363E+03  0.25500000920E-02 0. -1.
</event>
<event>
 5   0  0.7359897E-04  0.1525705E+04  0.7818609E-02  0.8867537E-01
       -2   -1    0    0    0  501  0.00000000000E+00  0.00000000000E+00  0.26950819400E+03  0.26950819401E+03  0.25500000920E-02 0. -1.
        2   -1    0    0  501    0  0.00000000000E+00  0.00000000000E+00 -0.21592812106E+04  0.21592812106E+04  0.25500000920E-02 0.  1.
    10030    2    1    2    0    0  0.00000000000E+00  0.00000000000E+00 -0.18897730166E+04  0.24287894046E+04  0.15257050559E+04 0.  0.
        1    1    3    3  502    0 -0.35809074690E+03  0.64129314814E+03 -0.61686711273E+03  0.95917199691E+03  0.50400001928E-02 0. -1.
       -1    1    3    3    0  502  0.35809074690E+03 -0.64129314814E+03 -0.12729059039E+04  0.14696174077E+04  0.50400001928E-02 0.  1.
</event>
<event>
 5   0  0.2800375E-04  0.1510838E+04  0.7818609E-02  0.8877278E-01
        4   -1    0    0  501    0  0.00000000000E+00  0.00000000000E+00  0.16061178631E+04  0.16061183653E+04  0.12699999809E+01 0.  1.
       -4   -1    0    0    0  501  0.00000000000E+00  0.00000000000E+00 -0.35530068247E+03  0.35530295223E+03  0.12699999809E+01 0. -1.
    10030    2    1    2    0    0  0.00000000000E+00  0.00000000000E+00  0.12508171807E+04  0.19614213175E+04  0.15108375046E+04 0.  0.
        4    1    3    3  502    0 -0.29867741436E+03 -0.45181517190E+02  0.15242953997E+04  0.15539393958E+04  0.12699999809E+01 0.  1.
       -4    1    3    3    0  502  0.29867741436E+03  0.45181517190E+02 -0.27347821902E+03  0.40748192171E+03  0.12699999809E+01 0. -1.
</event>
<event>
 5   0  0.7359897E-04  0.1483471E+04  0.7818609E-02  0.8895519E-01
       -2   -1    0    0    0  501  0.00000000000E+00  0.00000000000E+00  0.61673711495E+03  0.61673711495E+03  0.25500000920E-02 0.  1.
        2   -1    0    0  501    0  0.00000000000E+00  0.00000000000E+00 -0.89206822920E+03  0.89206822921E+03  0.25500000920E-02 0. -1.
    10030    2    1    2    0    0  0.00000000000E+00  0.00000000000E+00 -0.27533111425E+03  0.15088053442E+04  0.14834710459E+04 0.  0.
        1    1    3    3  502    0  0.55925149464E+03  0.26914049087E+03  0.27543924513E+03  0.67901812632E+03  0.50400001928E-02 0.  1.
       -1    1    3    3    0  502 -0.55925149464E+03 -0.26914049087E+03 -0.55077035938E+03  0.82978721784E+03  0.50400001928E-02 0. -1.
</event>
<event>
 5   0  0.4084462E-04  0.1484187E+04  0.7818609E-02  0.8895037E-01
       -1   -1    0    0    0  501  0.00000000000E+00  0.00000000000E+00  0.93455362850E+03  0.93455362851E+03  0.50400001928E-02 0. -1.
        1   -1    0    0  501    0  0.00000000000E+00  0.00000000000E+00 -0.58926785104E+03  0.58926785106E+03  0.50400001928E-02 0.  1.
    10030    2    1    2    0    0  0.00000000000E+00  0.00000000000E+00  0.34528577746E+03  0.15238214796E+04  0.14841865225E+04 0.  0.
        1    1    3    3  502    0  0.61329237932E+03  0.22757662497E+03 -0.18711973867E+03  0.68039140162E+03  0.50400001928E-02 0.  1.
       -1    1    3    3    0  502 -0.61329237932E+03 -0.22757662497E+03  0.53240551613E+03  0.84343007796E+03  0.50400001928E-02 0. -1.
</event>
<event>
 5   0  0.7672251E-04  0.1399169E+04  0.7818609E-02  0.8954420E-01
       -2   -1    0    0    0  501  0.00000000000E+00  0.00000000000E+00  0.37269231803E+03  0.37269231804E+03  0.25500000920E-02 0.  1.
        2   -1    0    0  501    0  0.00000000000E+00  0.00000000000E+00 -0.13131972834E+04  0.13131972834E+04  0.25500000920E-02 0. -1.
    10030    2    1    2    0    0  0.00000000000E+00  0.00000000000E+00 -0.94050496538E+03  0.16858896015E+04  0.13991690957E+04 0.  0.
        5    1    3    3  502    0  0.24299713077E+03  0.40534627367E+03  0.15123880372E+03  0.49623429234E+03  0.46999998093E+01 0.  1.
       -5    1    3    3    0  502 -0.24299713077E+03 -0.40534627367E+03 -0.10917437691E+04  0.11896553091E+04  0.46999998093E+01 0. -1.
</event>
<event>
 5   0  0.2800375E-04  0.1512365E+04  0.7818609E-02  0.8876272E-01
        3   -1    0    0  501    0  0.00000000000E+00  0.00000000000E+00  0.58083666318E+03  0.58083667196E+03  0.10100000352E+00 0.  1.
       -3   -1    0    0    0  501  0.00000000000E+00  0.00000000000E+00 -0.98446304532E+03  0.98446305050E+03  0.10100000352E+00 0. -1.
    10030    2    1    2    0    0  0.00000000000E+00  0.00000000000E+00 -0.40362638213E+03  0.15652997225E+04  0.15123653543E+04 0.  0.
        1    1    3    3  502    0  0.14811836782E+03 -0.73991493538E+03 -0.15111843527E+03  0.76957776994E+03  0.50400001928E-02 0. -1.
       -1    1    3    3    0  502 -0.14811836782E+03  0.73991493538E+03 -0.25250794686E+03  0.79572195252E+03  0.50400001928E-02 0.  1.
</event>
<event>
 5   0  0.7547580E-04  0.1507309E+04  0.7818609E-02  0.8879607E-01
       -2   -1    0    0    0  501  0.00000000000E+00  0.00000000000E+00  0.45189209374E+03  0.45189209375E+03  0.25500000920E-02 0.  1.
        2   -1    0    0  501    0  0.00000000000E+00  0.00000000000E+00 -0.12569263128E+04  0.12569263128E+04  0.25500000920E-02 0. -1.
    10030    2    1    2    0    0  0.00000000000E+00  0.00000000000E+00 -0.80503421903E+03  0.17088184065E+04  0.15073089440E+04 0.  0.
        4    1    3    3  502    0  0.22612463660E+03 -0.98526173364E+01 -0.12174836401E+04  0.12383446419E+04  0.12699999809E+01 0. -1.
       -4    1    3    3    0  502 -0.22612463660E+03  0.98526173364E+01  0.41244942107E+03  0.47047376461E+03  0.12699999809E+01 0.  1.
</event>
<event>
 5   0  0.7547580E-04  0.1505010E+04  0.7818609E-02  0.8881128E-01
       -2   -1    0    0    0  501  0.00000000000E+00  0.00000000000E+00  0.47886171518E+03  0.47886171519E+03  0.25500000920E-02 0.  1.
        2   -1    0    0  501    0  0.00000000000E+00  0.00000000000E+00 -0.11825200632E+04  0.11825200632E+04  0.25500000920E-02 0. -1.
    10030    2    1    2    0    0  0.00000000000E+00  0.00000000000E+00 -0.70365834799E+03  0.16613817784E+04  0.15050097484E+04 0.  0.
        4    1    3    3  502    0  0.15102111818E+03  0.41536486094E+03 -0.10241462394E+04  0.11154427275E+04  0.12699999809E+01 0. -1.
       -4    1    3    3    0  502 -0.15102111818E+03 -0.41536486094E+03  0.32048789136E+03  0.54593905086E+03  0.12699999809E+01 0.  1.
</event>
<event>
 5   0  0.4015204E-04  0.1513452E+04  0.7818609E-02  0.8875557E-01
       -1   -1    0    0    0  501  0.00000000000E+00  0.00000000000E+00  0.58695615181E+03  0.58695615183E+03  0.50400001928E-02 0.  1.
        1   -1    0    0  501    0  0.00000000000E+00  0.00000000000E+00 -0.97559944996E+03  0.97559944997E+03  0.50400001928E-02 0. -1.
    10030    2    1    2    0    0  0.00000000000E+00  0.00000000000E+00 -0.38864329815E+03  0.15625556018E+04  0.15134518147E+04 0.  0.
        2    1    3    3  502    0 -0.42102439582E+03 -0.62325647102E+03 -0.28023153916E+03  0.80264555446E+03  0.25500000920E-02 0. -1.
       -2    1    3    3    0  502  0.42102439582E+03  0.62325647102E+03 -0.10841175899E+03  0.75991004734E+03  0.25500000920E-02 0.  1.
</event>
<event>
 5   0  0.4086710E-04  0.1486914E+04  0.7818609E-02  0.8893202E-01
       -1   -1    0    0    0  501  0.00000000000E+00  0.00000000000E+00  0.86085892678E+03  0.86085892680E+03  0.50400001928E-02 0. -1.
        1   -1    0    0  501    0  0.00000000000E+00  0.00000000000E+00 -0.64206566931E+03  0.64206566933E+03  0.50400001928E-02 0.  1.
    10030    2    1    2    0    0  0.00000000000E+00  0.00000000000E+00  0.21879325748E+03  0.15029245961E+04  0.14869135322E+04 0.  0.
        3    1    3    3  502    0  0.13020479636E+02 -0.70645174024E+02 -0.63854960706E+03  0.64257753181E+03  0.10100000352E+00 0.  1.
       -3    1    3    3    0  502 -0.13020479636E+02  0.70645174024E+02  0.85734286454E+03  0.86034706432E+03  0.10100000352E+00 0. -1.
</event>
<event>
 5   0  0.3907345E-04  0.1474689E+04  0.7818609E-02  0.8901461E-01
        1   -1    0    0  501    0  0.00000000000E+00  0.00000000000E+00  0.71802888201E+03  0.71802888203E+03  0.50400001928E-02 0. -1.
       -1   -1    0    0    0  501  0.00000000000E+00  0.00000000000E+00 -0.75717967753E+03  0.75717967755E+03  0.50400001928E-02 0.  1.
    10030    2    1    2    0    0  0.00000000000E+00  0.00000000000E+00 -0.39150795523E+02  0.14752085596E+04  0.14746889535E+04 0.  0.
        5    1    3    3  502    0  0.95904111180E+02  0.68742096226E+03 -0.26847948534E+03  0.74420998511E+03  0.46999998093E+01 0.  1.
       -5    1    3    3    0  502 -0.95904111180E+02 -0.68742096226E+03  0.22932868981E+03  0.73099857446E+03  0.46999998093E+01 0. -1.
</event>
<event>
 5   0  0.7547580E-04  0.1386950E+04  0.7818609E-02  0.8963319E-01
        2   -1    0    0  501    0  0.00000000000E+00  0.00000000000E+00  0.27005401566E+04  0.27005401566E+04  0.25500000920E-02 0. -1.
       -2   -1    0    0    0  501  0.00000000000E+00  0.00000000000E+00 -0.17807832408E+03  0.17807832410E+03  0.25500000920E-02 0.  1.
    10030    2    1    2    0    0  0.00000000000E+00  0.00000000000E+00  0.25224618325E+04  0.28786184807E+04  0.13869501292E+04 0.  0.
        4    1    3    3  502    0 -0.30170237220E+03  0.26169486814E+03  0.84588420941E+02  0.40824666472E+03  0.12699999809E+01 0.  1.
       -4    1    3    3    0  502  0.30170237220E+03 -0.26169486814E+03  0.24378734116E+04  0.24703718160E+04  0.12699999809E+01 0. -1.
</event>
<event>
 5   0  0.7672251E-04  0.1456523E+04  0.7818609E-02  0.8913891E-01
        2   -1    0    0  501    0  0.00000000000E+00  0.00000000000E+00  0.18876799646E+04  0.18876799646E+04  0.25500000920E-02 0. -1.
       -2   -1    0    0    0  501  0.00000000000E+00  0.00000000000E+00 -0.28096102165E+03  0.28096102166E+03  0.25500000920E-02 0.  1.
    10030    2    1    2    0    0  0.00000000000E+00  0.00000000000E+00  0.16067189430E+04  0.21686409863E+04  0.14565225593E+04 0.  0.
        5    1    3    3  502    0 -0.13173868472E+03  0.33581839344E+03  0.17452842444E+04  0.17821807591E+04  0.46999998093E+01 0. -1.
       -5    1    3    3    0  502  0.13173868472E+03 -0.33581839344E+03 -0.13856530142E+03  0.38646022717E+03  0.46999998093E+01 0.  1.
</event>
<event>
 5   0  0.7359897E-04  0.1507617E+04  0.7818609E-02  0.8879403E-01
        2   -1    0    0  501    0  0.00000000000E+00  0.00000000000E+00  0.71717049153E+03  0.71717049154E+03  0.25500000920E-02 0.  1.
       -2   -1    0    0    0  501  0.00000000000E+00  0.00000000000E+00 -0.79231819731E+03  0.79231819732E+03  0.25500000920E-02 0. -1.
    10030    2    1    2    0    0  0.00000000000E+00  0.00000000000E+00 -0.75147705782E+02  0.15094886889E+04  0.15076169686E+04 0.  0.
        1    1    3    3  502    0  0.68797293231E+03 -0.21562088757E+03  0.18276323154E+03  0.74377518214E+03  0.50400001928E-02 0.  1.
       -1    1    3    3    0  502 -0.68797293231E+03  0.21562088757E+03 -0.25791093733E+03  0.76571350671E+03  0.50400001928E-02 0. -1.
</event>
<event>
 5   0  0.7359897E-04  0.1500936E+04  0.7818609E-02  0.8883831E-01
        2   -1    0    0  501    0  0.00000000000E+00  0.00000000000E+00  0.15765046739E+04  0.15765046739E+04  0.25500000920E-02 0.  1.
       -2   -1    0    0    0  501  0.00000000000E+00  0.00000000000E+00 -0.35724748880E+03  0.35724748881E+03  0.25500000920E-02 0. -1.
    10030    2    1    2    0    0  0.00000000000E+00  0.00000000000E+00  0.12192571851E+04  0.19337521627E+04  0.15009361557E+04 0.  0.
        1    1    3    3  502    0 -0.12486495820E+03  0.39381694863E+03 -0.19754899548E+03  0.45793957293E+03  0.50400001928E-02 0. -1.
       -1    1    3    3    0  502  0.12486495820E+03 -0.39381694863E+03  0.14168061806E+04  0.14758125898E+04  0.50400001928E-02 0.  1.
</event>
<event>
 5   0  0.3907345E-04  0.1540312E+04  0.7818609E-02  0.8858080E-01
        1   -1    0    0  501    0  0.00000000000E+00  0.00000000000E+00  0.73932253234E+03  0.73932253236E+03  0.50400001928E-02 0. -1.
       -1   -1    0    0    0  501  0.00000000000E+00  0.00000000000E+00 -0.80227492473E+03  0.80227492475E+03  0.50400001928E-02 0.  1.
    10030    2    1    2    0    0  0.00000000000E+00  0.00000000000E+00 -0.62952392393E+02  0.15415974571E+04  0.15403115646E+04 0.  0.
        5    1    3    3  502    0 -0.40598363191E+03  0.30083577989E+03  0.55020859426E+03  0.74704515462E+03  0.46999998093E+01 0. -1.
       -5    1    3    3    0  502  0.40598363191E+03 -0.30083577989E+03 -0.61316098666E+03  0.79455230249E+03  0.46999998093E+01 0.  1.
</event>
<event>
 5   0  0.3907345E-04  0.1507790E+04  0.7818609E-02  0.8879289E-01
       -1   -1    0    0    0  501  0.00000000000E+00  0.00000000000E+00  0.83749240741E+03  0.83749240742E+03  0.50400001928E-02 0.  1.
        1   -1    0    0  501    0  0.00000000000E+00  0.00000000000E+00 -0.67864201488E+03  0.67864201490E+03  0.50400001928E-02 0. -1.
    10030    2    1    2    0    0  0.00000000000E+00  0.00000000000E+00  0.15885039253E+03  0.15161344223E+04  0.15077898194E+04 0.  0.
        5    1    3    3  502    0  0.23697217473E+03 -0.62977539035E+03 -0.26240115291E+03  0.72225293972E+03  0.46999998093E+01 0. -1.
       -5    1    3    3    0  502 -0.23697217473E+03  0.62977539035E+03  0.42125154544E+03  0.79388148260E+03  0.46999998093E+01 0.  1.
</event>
<event>
 5   0  0.7547580E-04  0.1520436E+04  0.7818609E-02  0.8870976E-01
        2   -1    0    0  501    0  0.00000000000E+00  0.00000000000E+00  0.24435853202E+04  0.24435853202E+04  0.25500000920E-02 0.  1.
       -2   -1    0    0    0  501  0.00000000000E+00  0.00000000000E+00 -0.23650946103E+03  0.23650946104E+03  0.25500000920E-02 0. -1.
    10030    2    1    2    0    0  0.00000000000E+00  0.00000000000E+00  0.22070758592E+04  0.26800947813E+04  0.15204355259E+04 0.  0.
        4    1    3    3  502    0  0.34310622541E+03  0.52935722558E+03  0.35570514725E+03  0.72420212570E+03  0.12699999809E+01 0. -1.
       -4    1    3    3    0  502 -0.34310622541E+03 -0.52935722558E+03  0.18513707119E+04  0.19558926556E+04  0.12699999809E+01 0.  1.
</event>
<event>
 5   0  0.4058874E-04  0.1501659E+04  0.7818609E-02  0.8883351E-01
       -1   -1    0    0    0  501  0.00000000000E+00  0.00000000000E+00  0.80363887190E+03  0.80363887191E+03  0.50400001928E-02 0.  1.
        1   -1    0    0  501    0  0.00000000000E+00  0.00000000000E+00 -0.70149011945E+03  0.70149011947E+03  0.50400001928E-02 0. -1.
    10030    2    1    2    0    0  0.00000000000E+00  0.00000000000E+00  0.10214875245E+03  0.15051289914E+04  0.15016587206E+04 0.  0.
        4    1    3    3  502    0  0.38422475678E+03 -0.25586229773E+03 -0.54245024760E+03  0.71228369569E+03  0.12699999809E+01 0. -1.
       -4    1    3    3    0  502 -0.38422475678E+03  0.25586229773E+03  0.64459900005E+03  0.79284529569E+03  0.12699999809E+01 0.  1.
</event>
<event>
 5   0  0.7547580E-04  0.1533324E+04  0.7818609E-02  0.8862590E-01
        2   -1    0    0  501    0  0.00000000000E+00  0.00000000000E+00  0.18323189548E+04  0.18323189548E+04  0.25500000920E-02 0. -1.
       -2   -1    0    0    0  501  0.00000000000E+00  0.00000000000E+00 -0.32077974343E+03  0.32077974344E+03  0.25500000920E-02 0.  1.
    10030    2    1    2    0    0  0.00000000000E+00  0.00000000000E+00  0.15115392114E+04  0.21530986983E+04  0.15333242374E+04 0.  0.
        4    1    3    3  502    0 -0.17351845638E+03 -0.61588526793E+03  0.13487788591E+04  0.14928594514E+04  0.12699999809E+01 0. -1.
       -4    1    3    3    0  502  0.17351845638E+03  0.61588526793E+03  0.16276035233E+03  0.66023924690E+03  0.12699999809E+01 0.  1.
</event>
<event>
 5   0  0.4086710E-04  0.1346044E+04  0.7818609E-02  0.8993828E-01
        1   -1    0    0  501    0  0.00000000000E+00  0.00000000000E+00  0.14307181530E+04  0.14307181530E+04  0.50400001928E-02 0.  1.
       -1   -1    0    0    0  501  0.00000000000E+00  0.00000000000E+00 -0.31659537847E+03  0.31659537851E+03  0.50400001928E-02 0. -1.
    10030    2    1    2    0    0  0.00000000000E+00  0.00000000000E+00  0.11141227745E+04  0.17473135315E+04  0.13460442120E+04 0.  0.
        3    1    3    3  502    0 -0.13340261948E+03  0.62236351878E+03  0.27317526337E+03  0.69264517836E+03  0.10100000352E+00 0. -1.
       -3    1    3    3    0  502  0.13340261948E+03 -0.62236351878E+03  0.84094751114E+03  0.10546683531E+04  0.10100000352E+00 0.  1.
</event>
<event>
 5   0  0.4058874E-04  0.1500203E+04  0.7818609E-02  0.8884318E-01
       -1   -1    0    0    0  501  0.00000000000E+00  0.00000000000E+00  0.91704941701E+03  0.91704941703E+03  0.50400001928E-02 0.  1.
        1   -1    0    0  501    0  0.00000000000E+00  0.00000000000E+00 -0.61354616269E+03  0.61354616271E+03  0.50400001928E-02 0. -1.
    10030    2    1    2    0    0  0.00000000000E+00  0.00000000000E+00  0.30350325432E+03  0.15305955797E+04  0.15002028541E+04 0.  0.
        4    1    3    3  502    0  0.11940057208E+03 -0.74033347021E+03  0.16943463934E+03  0.76880417118E+03  0.12699999809E+01 0.  1.
       -4    1    3    3    0  502 -0.11940057208E+03  0.74033347021E+03  0.13406861499E+03  0.76179140856E+03  0.12699999809E+01 0. -1.
</event>
<event>
 5   0  0.4015204E-04  0.1477843E+04  0.7818609E-02  0.8899322E-01
       -1   -1    0    0    0  501  0.00000000000E+00  0.00000000000E+00  0.52365880532E+03  0.52365880535E+03  0.50400001928E-02 0. -1.
        1   -1    0    0  501    0  0.00000000000E+00  0.00000000000E+00 -0.10426738546E+04  0.10426738546E+04  0.50400001928E-02 0.  1.
    10030    2    1    2    0    0  0.00000000000E+00  0.00000000000E+00 -0.51901504923E+03  0.15663326599E+04  0.14778434897E+04 0.  0.
        2    1    3    3  502    0  0.43513565708E+02  0.67576214731E+03 -0.57294717090E+03  0.88702670241E+03  0.25500000920E-02 0.  1.
       -2    1    3    3    0  502 -0.43513565708E+02 -0.67576214731E+03  0.53932121677E+02  0.67930595750E+03  0.25500000920E-02 0. -1.
</event>
<event>
 5   0  0.7359897E-04  0.1515880E+04  0.7818609E-02  0.8873961E-01
        2   -1    0    0  501    0  0.00000000000E+00  0.00000000000E+00  0.16916223375E+04  0.16916223375E+04  0.25500000920E-02 0. -1.
       -2   -1    0    0    0  501  0.00000000000E+00  0.00000000000E+00 -0.33959895860E+03  0.33959895861E+03  0.25500000920E-02 0.  1.
    10030    2    1    2    0    0  0.00000000000E+00  0.00000000000E+00  0.13520233789E+04  0.20312212961E+04  0.15158801855E+04 0.  0.
        1    1    3    3  502    0 -0.93307041350E+02 -0.48753006505E+03  0.14435201654E+04  0.15264803425E+04  0.50400001928E-02 0. -1.
       -1    1    3    3    0  502  0.93307041350E+02  0.48753006505E+03 -0.91496786439E+02  0.50474095360E+03  0.50400001928E-02 0.  1.
</event>
<event>
 5   0  0.4084462E-04  0.1491780E+04  0.7818609E-02  0.8889938E-01
       -1   -1    0    0    0  501  0.00000000000E+00  0.00000000000E+00  0.10843030565E+04  0.10843030565E+04  0.50400001928E-02 0.  1.
        1   -1    0    0  501    0  0.00000000000E+00  0.00000000000E+00 -0.51309629605E+03  0.51309629607E+03  0.50400001928E-02 0. -1.
    10030    2    1    2    0    0  0.00000000000E+00  0.00000000000E+00  0.57120676045E+03  0.15973993526E+04  0.14917799866E+04 0.  0.
        1    1    3    3  502    0 -0.24444188385E+03  0.68799072438E+03  0.44894460986E+03  0.85710812279E+03  0.50400001928E-02 0.  1.
       -1    1    3    3    0  502  0.24444188385E+03 -0.68799072438E+03  0.12226215059E+03  0.74029122979E+03  0.50400001928E-02 0. -1.
</event>
<event>
 5   0  0.7359897E-04  0.1499958E+04  0.7818609E-02  0.8884481E-01
       -2   -1    0    0    0  501  0.00000000000E+00  0.00000000000E+00  0.80705436997E+03  0.80705436998E+03  0.25500000920E-02 0. -1.
        2   -1    0    0  501    0  0.00000000000E+00  0.00000000000E+00 -0.69693985523E+03  0.69693985523E+03  0.25500000920E-02 0.  1.
    10030    2    1    2    0    0  0.00000000000E+00  0.00000000000E+00  0.11011451475E+03  0.15039942252E+04  0.14999578071E+04 0.  0.
        1    1    3    3  502    0  0.27497703335E+03 -0.69150721681E+03 -0.38326367077E+02  0.74516005677E+03  0.50400001928E-02 0.  1.
       -1    1    3    3    0  502 -0.27497703335E+03  0.69150721681E+03  0.14844088182E+03  0.75883416844E+03  0.50400001928E-02 0. -1.
</event>
<event>
 5   0  0.7634227E-04  0.1479208E+04  0.7818609E-02  0.8898399E-01
       -2   -1    0    0    0  501  0.00000000000E+00  0.00000000000E+00  0.51346184479E+03  0.51346184480E+03  0.25500000920E-02 0.  1.
        2   -1    0    0  501    0  0.00000000000E+00  0.00000000000E+00 -0.10653445075E+04  0.10653445075E+04  0.25500000920E-02 0. -1.
    10030    2    1    2    0    0  0.00000000000E+00  0.00000000000E+00 -0.55188266272E+03  0.15788063523E+04  0.14792075665E+04 0.  0.
        2    1    3    3  502    0 -0.30132400289E+03 -0.40872105647E+03 -0.84988911419E+03  0.99003058698E+03  0.25500000920E-02 0. -1.
       -2    1    3    3    0  502  0.30132400289E+03  0.40872105647E+03  0.29800645148E+03  0.58877576534E+03  0.25500000920E-02 0.  1.
</event>
<event>
 5   0  0.7547580E-04  0.1484560E+04  0.7818609E-02  0.8894785E-01
        2   -1    0    0  501    0  0.00000000000E+00  0.00000000000E+00  0.15494388065E+04  0.15494388065E+04  0.25500000920E-02 0. -1.
       -2   -1    0    0    0  501  0.00000000000E+00  0.00000000000E+00 -0.35559967963E+03  0.35559967964E+03  0.25500000920E-02 0.  1.
    10030    2    1    2    0    0  0.00000000000E+00  0.00000000000E+00  0.11938391269E+04  0.19050384862E+04  0.14845604645E+04 0.  0.
        4    1    3    3  502    0  0.62724724527E+03  0.31753640344E+03  0.90250674708E+03  0.11440229524E+04  0.12699999809E+01 0. -1.
       -4    1    3    3    0  502 -0.62724724527E+03 -0.31753640344E+03  0.29133237983E+03  0.76101553377E+03  0.12699999809E+01 0.  1.
</event>
<event>
 5   0  0.4058874E-04  0.1505592E+04  0.7818609E-02  0.8880743E-01
        1   -1    0    0  501    0  0.00000000000E+00  0.00000000000E+00  0.91668705052E+03  0.91668705053E+03  0.50400001928E-02 0.  1.
       -1   -1    0    0    0  501  0.00000000000E+00  0.00000000000E+00 -0.61820606759E+03  0.61820606761E+03  0.50400001928E-02 0. -1.
    10030    2    1    2    0    0  0.00000000000E+00  0.00000000000E+00  0.29848098293E+03  0.15348931181E+04  0.15055915738E+04 0.  0.
        4    1    3    3  502    0 -0.24018564185E+03  0.78056818000E+02 -0.57372821452E+03  0.62685539514E+03  0.12699999809E+01 0. -1.
       -4    1    3    3    0  502  0.24018564185E+03 -0.78056818000E+02  0.87220919745E+03  0.90803772300E+03  0.12699999809E+01 0.  1.
</event>
<event>
 5   0  0.4084462E-04  0.1527407E+04  0.7818609E-02  0.8866429E-01
       -1   -1    0    0    0  501  0.00000000000E+00  0.00000000000E+00  0.43642279225E+03  0.43642279227E+03  0.50400001928E-02 0.  1.
        1   -1    0    0  501    0  0.00000000000E+00  0.00000000000E+00 -0.13364182420E+04  0.13364182420E+04  0.50400001928E-02 0. -1.
    10030    2    1    2    0    0  0.00000000000E+00  0.00000000000E+00 -0.89999544977E+03  0.17728410343E+04  0.15274074516E+04 0.  0.
        1    1    3    3  502    0  0.62374769001E+03 -0.32854171563E+03 -0.10913802089E+03  0.71338064687E+03  0.50400001928E-02 0.  1.
       -1    1    3    3    0  502 -0.62374769001E+03  0.32854171563E+03 -0.79085742889E+03  0.10594603874E+04  0.50400001928E-02 0. -1.
</event>
<event>
 5   0  0.7547580E-04  0.1507728E+04  0.7818609E-02  0.8879330E-01
        2   -1    0    0  501    0  0.00000000000E+00  0.00000000000E+00  0.11533698848E+04  0.11533698848E+04  0.25500000920E-02 0. -1.
       -2   -1    0    0    0  501  0.00000000000E+00  0.00000000000E+00 -0.49273937496E+03  0.49273937497E+03  0.25500000920E-02 0.  1.
    10030    2    1    2    0    0  0.00000000000E+00  0.00000000000E+00  0.66063050984E+03  0.16461092598E+04  0.15077277687E+04 0.  0.
        4    1    3    3  502    0  0.40106803061E+02  0.53454461307E+03  0.90902395995E+03  0.10553069088E+04  0.12699999809E+01 0. -1.
       -4    1    3    3    0  502 -0.40106803061E+02 -0.53454461307E+03 -0.24839345011E+03  0.59080235102E+03  0.12699999809E+01 0.  1.
</event>
<event>
 5   0  0.7672251E-04  0.1436584E+04  0.7818609E-02  0.8927755E-01
       -2   -1    0    0    0  501  0.00000000000E+00  0.00000000000E+00  0.70613250403E+03  0.70613250403E+03  0.25500000920E-02 0. -1.
        2   -1    0    0  501    0  0.00000000000E+00  0.00000000000E+00 -0.73066062915E+03  0.73066062916E+03  0.25500000920E-02 0.  1.
    10030    2    1    2    0    0  0.00000000000E+00  0.00000000000E+00 -0.24528125127E+02  0.14367931332E+04  0.14365837527E+04 0.  0.
        5    1    3    3  502    0 -0.46677950556E+03  0.52958458775E+03  0.12033801757E+03  0.71613285838E+03  0.46999998093E+01 0. -1.
       -5    1    3    3    0  502  0.46677950556E+03 -0.52958458775E+03 -0.14486614269E+03  0.72066027481E+03  0.46999998093E+01 0.  1.
</event>
<event>
 5   0  0.4015204E-04  0.1528948E+04  0.7818609E-02  0.8865428E-01
       -1   -1    0    0    0  501  0.00000000000E+00  0.00000000000E+00  0.17059305405E+04  0.17059305405E+04  0.50400001928E-02 0.  1.
        1   -1    0    0  501    0  0.00000000000E+00  0.00000000000E+00 -0.34258160369E+03  0.34258160373E+03  0.50400001928E-02 0. -1.
    10030    2    1    2    0    0  0.00000000000E+00  0.00000000000E+00  0.13633489368E+04  0.20485121443E+04  0.15289479002E+04 0.  0.
        2    1    3    3  502    0  0.52541226540E+03  0.48663840488E+03  0.10400487368E+04  0.12627653625E+04  0.25500000920E-02 0.  1.
       -2    1    3    3    0  502 -0.52541226540E+03 -0.48663840488E+03  0.32330020002E+03  0.78574678177E+03  0.25500000920E-02 0. -1.
</event>
<event>
 5   0  0.2800375E-04  0.1456769E+04  0.7818609E-02  0.8913721E-01
       -3   -1    0    0    0  501  0.00000000000E+00  0.00000000000E+00  0.72399450150E+03  0.72399450855E+03  0.10100000352E+00 0. -1.
        3   -1    0    0  501    0  0.00000000000E+00  0.00000000000E+00 -0.73280066885E+03  0.73280067581E+03  0.10100000352E+00 0.  1.
    10030    2    1    2    0    0  0.00000000000E+00  0.00000000000E+00 -0.88061673507E+01  0.14567951844E+04  0.14567685680E+04 0.  0.
        5    1    3    3  502    0 -0.38517834836E+03 -0.29659434342E+03  0.53800060445E+03  0.72511882129E+03  0.46999998093E+01 0. -1.
       -5    1    3    3    0  502  0.38517834836E+03  0.29659434342E+03 -0.54680677180E+03  0.73167636307E+03  0.46999998093E+01 0.  1.
</event>
<event>
 5   0  0.4086710E-04  0.1483024E+04  0.7818609E-02  0.8895821E-01
        1   -1    0    0  501    0  0.00000000000E+00  0.00000000000E+00  0.92449964719E+03  0.92449964720E+03  0.50400001928E-02 0.  1.
       -1   -1    0    0    0  501  0.00000000000E+00  0.00000000000E+00 -0.59474332132E+03  0.59474332135E+03  0.50400001928E-02 0. -1.
    10030    2    1    2    0    0  0.00000000000E+00  0.00000000000E+00  0.32975632587E+03  0.15192429686E+04  0.14830239253E+04 0.  0.
        3    1    3    3  502    0 -0.54652639840E+03  0.33300859690E+03 -0.21877337107E+03  0.67634874721E+03  0.10100000352E+00 0. -1.
       -3    1    3    3    0  502  0.54652639840E+03 -0.33300859690E+03  0.54852969693E+03  0.84289422134E+03  0.10100000352E+00 0.  1.
</event>
<event>
 5   0  0.7634227E-04  0.1489853E+04  0.7818609E-02  0.8891229E-01
        2   -1    0    0  501    0  0.00000000000E+00  0.00000000000E+00  0.15497719459E+04  0.15497719459E+04  0.25500000920E-02 0.  1.
       -2   -1    0    0    0  501  0.00000000000E+00  0.00000000000E+00 -0.35806281816E+03  0.35806281817E+03  0.25500000920E-02 0. -1.
    10030    2    1    2    0    0  0.00000000000E+00  0.00000000000E+00  0.11917091278E+04  0.19078347641E+04  0.14898532954E+04 0.  0.
        2    1    3    3  502    0  0.25670613194E+03 -0.27617607546E+03 -0.22683856874E+03  0.44003067973E+03  0.25500000920E-02 0. -1.
       -2    1    3    3    0  502 -0.25670613194E+03  0.27617607546E+03  0.14185476965E+04  0.14678040844E+04  0.25500000920E-02 0.  1.
</event>
<event>
 5   0  0.7547580E-04  0.1511133E+04  0.7818609E-02  0.8877083E-01
        2   -1    0    0  501    0  0.00000000000E+00  0.00000000000E+00  0.67754697634E+03  0.67754697635E+03  0.25500000920E-02 0. -1.
       -2   -1    0    0    0  501  0.00000000000E+00  0.00000000000E+00 -0.84256981366E+03  0.84256981367E+03  0.25500000920E-02 0.  1.
    10030    2    1    2    0    0  0.00000000000E+00  0.00000000000E+00 -0.16502283732E+03  0.15201167900E+04  0.15111328593E+04 0.  0.
        4    1    3    3  502    0 -0.31148723717E+03 -0.50270778997E+03  0.39053914271E+03  0.70870435014E+03  0.12699999809E+01 0. -1.
       -4    1    3    3    0  502  0.31148723717E+03  0.50270778997E+03 -0.55556198003E+03  0.81141243987E+03  0.12699999809E+01 0.  1.
</event>
<event>
 5   0  0.4084462E-04  0.1512981E+04  0.7818609E-02  0.8875866E-01
       -1   -1    0    0    0  501  0.00000000000E+00  0.00000000000E+00  0.55233351037E+03  0.55233351039E+03  0.50400001928E-02 0. -1.
        1   -1    0    0  501    0  0.00000000000E+00  0.00000000000E+00 -0.10361097452E+04  0.10361097453E+04  0.50400001928E-02 0.  1.
    10030    2    1    2    0    0  0.00000000000E+00  0.00000000000E+00 -0.48377623488E+03  0.15884432556E+04  0.15129813386E+04 0.  0.
        1    1    3    3  502    0 -0.27408926483E+03 -0.11999555017E+02 -0.98203916065E+03  0.10196420095E+04  0.50400001928E-02 0.  1.
       -1    1    3    3    0  502  0.27408926483E+03  0.11999555017E+02  0.49826292577E+03  0.56880124617E+03  0.50400001928E-02 0. -1.
</event>
<event>
 5   0  0.4084462E-04  0.1488216E+04  0.7818609E-02  0.8892327E-01
       -1   -1    0    0    0  501  0.00000000000E+00  0.00000000000E+00  0.30038642194E+03  0.30038642198E+03  0.50400001928E-02 0. -1.
        1   -1    0    0  501    0  0.00000000000E+00  0.00000000000E+00 -0.18432808983E+04  0.18432808983E+04  0.50400001928E-02 0.  1.
    10030    2    1    2    0    0  0.00000000000E+00  0.00000000000E+00 -0.15428944763E+04  0.21436673202E+04  0.14882157824E+04 0.  0.
        1    1    3    3  502    0 -0.32186917785E+02 -0.67899738314E+03 -0.33543970262E+03  0.75801928611E+03  0.50400001928E-02 0. -1.
       -1    1    3    3    0  502  0.32186917785E+02  0.67899738314E+03 -0.12074547737E+04  0.13856480341E+04  0.50400001928E-02 0.  1.
</event>
<event>
 5   0  0.7454828E-04  0.1498556E+04  0.7818609E-02  0.8885414E-01
       -2   -1    0    0    0  501  0.00000000000E+00  0.00000000000E+00  0.12806583465E+04  0.12806583465E+04  0.25500000920E-02 0. -1.
        2   -1    0    0  501    0  0.00000000000E+00  0.00000000000E+00 -0.43838197947E+03  0.43838197947E+03  0.25500000920E-02 0.  1.
    10030    2    1    2    0    0  0.00000000000E+00  0.00000000000E+00  0.84227636701E+03  0.17190403260E+04  0.14985560263E+04 0.  0.
        3    1    3    3  502    0  0.51197771611E+03 -0.44156710317E+03  0.50639957184E+02  0.67798753961E+03  0.10100000352E+00 0.  1.
       -3    1    3    3    0  502 -0.51197771611E+03  0.44156710317E+03  0.79163640983E+03  0.10410527863E+04  0.10100000352E+00 0. -1.
</event>
<event>
 5   0  0.4058874E-04  0.1514023E+04  0.7818609E-02  0.8875181E-01
        1   -1    0    0  501    0  0.00000000000E+00  0.00000000000E+00  0.77908748037E+03  0.77908748039E+03  0.50400001928E-02 0.  1.
       -1   -1    0    0    0  501  0.00000000000E+00  0.00000000000E+00 -0.73556082678E+03  0.73556082679E+03  0.50400001928E-02 0. -1.
    10030    2    1    2    0    0  0.00000000000E+00  0.00000000000E+00  0.43526653598E+02  0.15146483072E+04  0.15140227623E+04 0.  0.
        4    1    3    3  502    0 -0.27022175613E+03 -0.17598358078E+03  0.70693651138E+03  0.77701406822E+03  0.12699999809E+01 0.  1.
       -4    1    3    3    0  502  0.27022175613E+03  0.17598358078E+03 -0.66340985778E+03  0.73763423896E+03  0.12699999809E+01 0. -1.
</event>
<event>
 5   0  0.4084462E-04  0.1508218E+04  0.7818609E-02  0.8879007E-01
       -1   -1    0    0    0  501  0.00000000000E+00  0.00000000000E+00  0.87761836155E+03  0.87761836156E+03  0.50400001928E-02 0.  1.
        1   -1    0    0  501    0  0.00000000000E+00  0.00000000000E+00 -0.64798101901E+03  0.64798101903E+03  0.50400001928E-02 0. -1.
    10030    2    1    2    0    0  0.00000000000E+00  0.00000000000E+00  0.22963734253E+03  0.15255993806E+04  0.15082175443E+04 0.  0.
        1    1    3    3  502    0 -0.50963099822E+03  0.82352413904E+02 -0.44122042007E+03  0.67910318327E+03  0.50400001928E-02 0. -1.
       -1    1    3    3    0  502  0.50963099822E+03 -0.82352413904E+02  0.67085776260E+03  0.84649619732E+03  0.50400001928E-02 0.  1.
</event>
<event>
 5   0  0.4084462E-04  0.1480605E+04  0.7818609E-02  0.8897454E-01
        1   -1    0    0  501    0  0.00000000000E+00  0.00000000000E+00  0.97819995139E+03  0.97819995141E+03  0.50400001928E-02 0.  1.
       -1   -1    0    0    0  501  0.00000000000E+00  0.00000000000E+00 -0.56026154889E+03  0.56026154891E+03  0.50400001928E-02 0. -1.
    10030    2    1    2    0    0  0.00000000000E+00  0.00000000000E+00  0.41793840251E+03  0.15384615003E+04  0.14806050384E+04 0.  0.
        1    1    3    3  502    0 -0.17144529332E+03 -0.14449870996E+03  0.94207003269E+03  0.96838489883E+03  0.50400001928E-02 0.  1.
       -1    1    3    3    0  502  0.17144529332E+03  0.14449870996E+03 -0.52413163018E+03  0.57007660148E+03  0.50400001928E-02 0. -1.
</event>
<event>
 5   0  0.4086710E-04  0.1443252E+04  0.7818609E-02  0.8923092E-01
       -1   -1    0    0    0  501  0.00000000000E+00  0.00000000000E+00  0.56558509391E+03  0.56558509393E+03  0.50400001928E-02 0. -1.
        1   -1    0    0  501    0  0.00000000000E+00  0.00000000000E+00 -0.92071777876E+03  0.92071777878E+03  0.50400001928E-02 0.  1.
    10030    2    1    2    0    0  0.00000000000E+00  0.00000000000E+00 -0.35513268485E+03  0.14863028727E+04  0.14432522321E+04 0.  0.
        3    1    3    3  502    0  0.47688710628E+03  0.25925255081E+03 -0.66726167754E+03  0.86015774934E+03  0.10100000352E+00 0.  1.
       -3    1    3    3    0  502 -0.47688710628E+03 -0.25925255081E+03  0.31212899269E+03  0.62614512336E+03  0.10100000352E+00 0. -1.
</event>
<event>
 5   0  0.7672251E-04  0.1509305E+04  0.7818609E-02  0.8878289E-01
       -2   -1    0    0    0  501  0.00000000000E+00  0.00000000000E+00  0.10312064479E+04  0.10312064479E+04  0.25500000920E-02 0.  1.
        2   -1    0    0  501    0  0.00000000000E+00  0.00000000000E+00 -0.55226579352E+03  0.55226579353E+03  0.25500000920E-02 0. -1.
    10030    2    1    2    0    0  0.00000000000E+00  0.00000000000E+00  0.47894065441E+03  0.15834722415E+04  0.15093045382E+04 0.  0.
        5    1    3    3  502    0  0.18160085479E+03 -0.39408378417E+03 -0.40828105240E+03  0.59581574934E+03  0.46999998093E+01 0. -1.
       -5    1    3    3    0  502 -0.18160085479E+03  0.39408378417E+03  0.88722170682E+03  0.98765649213E+03  0.46999998093E+01 0.  1.
</event>
<event>
 5   0  0.4058874E-04  0.1474825E+04  0.7818609E-02  0.8901369E-01
        1   -1    0    0  501    0  0.00000000000E+00  0.00000000000E+00  0.10183495820E+04  0.10183495820E+04  0.50400001928E-02 0.  1.
       -1   -1    0    0    0  501  0.00000000000E+00  0.00000000000E+00 -0.53397882808E+03  0.53397882811E+03  0.50400001928E-02 0. -1.
    10030    2    1    2    0    0  0.00000000000E+00  0.00000000000E+00  0.48437075394E+03  0.15523284101E+04  0.14748248932E+04 0.  0.
        4    1    3    3  502    0  0.15634530635E+03 -0.70496804457E+03  0.84823881788E+02  0.72706292885E+03  0.12699999809E+01 0. -1.
       -4    1    3    3    0  502 -0.15634530635E+03  0.70496804457E+03  0.39954687216E+03  0.82526548130E+03  0.12699999809E+01 0.  1.
</event>
<event>
 5   0  0.4084462E-04  0.1502059E+04  0.7818609E-02  0.8883085E-01
        1   -1    0    0  501    0  0.00000000000E+00  0.00000000000E+00  0.51033159994E+03  0.51033159996E+03  0.50400001928E-02 0. -1.
       -1   -1    0    0    0  501  0.00000000000E+00  0.00000000000E+00 -0.11052530071E+04  0.11052530071E+04  0.50400001928E-02 0.  1.
    10030    2    1    2    0    0  0.00000000000E+00  0.00000000000E+00 -0.59492140718E+03  0.16155846071E+04  0.15020593004E+04 0.  0.
        1    1    3    3  502    0 -0.40522076436E+03  0.30783981233E+03 -0.89154336263E+03  0.10265567619E+04  0.50400001928E-02 0.  1.
       -1    1    3    3    0  502  0.40522076436E+03 -0.30783981233E+03  0.29662195545E+03  0.58902784519E+03  0.50400001928E-02 0. -1.
</event>
<event>
 5   0  0.4084462E-04  0.1520990E+04  0.7818609E-02  0.8870614E-01
        1   -1    0    0  501    0  0.00000000000E+00  0.00000000000E+00  0.56024887054E+03  0.56024887056E+03  0.50400001928E-02 0.  1.
       -1   -1    0    0    0  501  0.00000000000E+00  0.00000000000E+00 -0.10323131425E+04  0.10323131426E+04  0.50400001928E-02 0. -1.
    10030    2    1    2    0    0  0.00000000000E+00  0.00000000000E+00 -0.47206427200E+03  0.15925620131E+04  0.15209895097E+04 0.  0.
        1    1    3    3  502    0  0.35376915980E+03 -0.17837465766E+03 -0.91571793082E+03  0.99775220660E+03  0.50400001928E-02 0. -1.
       -1    1    3    3    0  502 -0.35376915980E+03  0.17837465766E+03  0.44365365882E+03  0.59480980652E+03  0.50400001928E-02 0.  1.
</event>
<event>
 5   0  0.7672251E-04  0.1503241E+04  0.7818609E-02  0.8882301E-01
       -2   -1    0    0    0  501  0.00000000000E+00  0.00000000000E+00  0.23470719826E+03  0.23470719827E+03  0.25500000920E-02 0.  1.
        2   -1    0    0  501    0  0.00000000000E+00  0.00000000000E+00 -0.24069696273E+04  0.24069696273E+04  0.25500000920E-02 0. -1.
    10030    2    1    2    0    0  0.00000000000E+00  0.00000000000E+00 -0.21722624291E+04  0.26416768256E+04  0.15032406295E+04 0.  0.
        5    1    3    3  502    0  0.54340480142E+03 -0.40108198616E+03 -0.16656622989E+04  0.17973893629E+04  0.46999998093E+01 0. -1.
       -5    1    3    3    0  502 -0.54340480142E+03  0.40108198616E+03 -0.50660013020E+03  0.84428746274E+03  0.46999998093E+01 0.  1.
</event>
<event>
 5   0  0.7547580E-04  0.1502129E+04  0.7818609E-02  0.8883038E-01
        2   -1    0    0  501    0  0.00000000000E+00  0.00000000000E+00  0.11562297624E+04  0.11562297624E+04  0.25500000920E-02 0. -1.
       -2   -1    0    0    0  501  0.00000000000E+00  0.00000000000E+00 -0.48787708392E+03  0.48787708393E+03  0.25500000920E-02 0.  1.
    10030    2    1    2    0    0  0.00000000000E+00  0.00000000000E+00  0.66835267850E+03  0.16441068464E+04  0.15021291620E+04 0.  0.
        4    1    3    3  502    0 -0.68487588519E+03 -0.30015455702E+03  0.41117202312E+03  0.85335325729E+03  0.12699999809E+01 0. -1.
       -4    1    3    3    0  502  0.68487588519E+03  0.30015455702E+03  0.25718065538E+03  0.79075358907E+03  0.12699999809E+01 0.  1.
</event>
<event>
 5   0  0.3907345E-04  0.1501563E+04  0.7818609E-02  0.8883415E-01
        1   -1    0    0  501    0  0.00000000000E+00  0.00000000000E+00  0.88662081857E+03  0.88662081858E+03  0.50400001928E-02 0. -1.
       -1   -1    0    0    0  501  0.00000000000E+00  0.00000000000E+00 -0.63575376673E+03  0.63575376675E+03  0.50400001928E-02 0.  1.
    10030    2    1    2    0    0  0.00000000000E+00  0.00000000000E+00  0.25086705184E+03  0.15223745853E+04  0.15015625529E+04 0.  0.
        5    1    3    3  502    0  0.26024160758E+03  0.68441359319E+01 -0.58851265081E+03  0.64353847335E+03  0.46999998093E+01 0.  1.
       -5    1    3    3    0  502 -0.26024160758E+03 -0.68441359319E+01  0.83937970265E+03  0.87883611199E+03  0.46999998093E+01 0. -1.
</event>
<event>
 5   0  0.7547580E-04  0.1500004E+04  0.7818609E-02  0.8884450E-01
        2   -1    0    0  501    0  0.00000000000E+00  0.00000000000E+00  0.21652662288E+04  0.21652662288E+04  0.25500000920E-02 0. -1.
       -2   -1    0    0    0  501  0.00000000000E+00  0.00000000000E+00 -0.25978459034E+03  0.25978459035E+03  0.25500000920E-02 0.  1.
    10030    2    1    2    0    0  0.00000000000E+00  0.00000000000E+00  0.19054816385E+04  0.24250508191E+04  0.15000037336E+04 0.  0.
        4    1    3    3  502    0 -0.13996734727E+03 -0.19209983409E+03 -0.19728393382E+03  0.30889442857E+03  0.12699999809E+01 0.  1.
       -4    1    3    3    0  502  0.13996734727E+03  0.19209983409E+03  0.21027655723E+04  0.21161563906E+04  0.12699999809E+01 0. -1.
</event>
<event>
 5   0  0.4086710E-04  0.1563470E+04  0.7818609E-02  0.8843310E-01
       -1   -1    0    0    0  501  0.00000000000E+00  0.00000000000E+00  0.39839017953E+03  0.39839017956E+03  0.50400001928E-02 0.  1.
        1   -1    0    0  501    0  0.00000000000E+00  0.00000000000E+00 -0.15339472522E+04  0.15339472522E+04  0.50400001928E-02 0. -1.
    10030    2    1    2    0    0  0.00000000000E+00  0.00000000000E+00 -0.11355570726E+04  0.19323374317E+04  0.15634698861E+04 0.  0.
        3    1    3    3  502    0 -0.86368136713E+02  0.63736504966E+03 -0.18636797599E+02  0.64346017903E+03  0.10100000352E+00 0.  1.
       -3    1    3    3    0  502  0.86368136713E+02 -0.63736504966E+03 -0.11169202750E+04  0.12888772527E+04  0.10100000352E+00 0. -1.
</event>
<event>
 5   0  0.7634227E-04  0.1498386E+04  0.7818609E-02  0.8885527E-01
       -2   -1    0    0    0  501  0.00000000000E+00  0.00000000000E+00  0.43763580309E+03  0.43763580310E+03  0.25500000920E-02 0. -1.
        2   -1    0    0  501    0  0.00000000000E+00  0.00000000000E+00 -0.12825510040E+04  0.12825510040E+04  0.25500000920E-02 0.  1.
    10030    2    1    2    0    0  0.00000000000E+00  0.00000000000E+00 -0.84491520093E+03  0.17201868071E+04  0.14983861167E+04 0.  0.
        2    1    3    3  502    0 -0.89869998469E+02 -0.15143341558E+03  0.41354018623E+03  0.44947100197E+03  0.25500000920E-02 0. -1.
       -2    1    3    3    0  502  0.89869998469E+02  0.15143341558E+03 -0.12584553872E+04  0.12707158051E+04  0.25500000920E-02 0.  1.
</event>
<event>
 5   0  0.7359897E-04  0.1513381E+04  0.7818609E-02  0.8875603E-01
       -2   -1    0    0    0  501  0.00000000000E+00  0.00000000000E+00  0.31048498063E+03  0.31048498064E+03  0.25500000920E-02 0.  1.
        2   -1    0    0  501    0  0.00000000000E+00  0.00000000000E+00 -0.18441500021E+04  0.18441500021E+04  0.25500000920E-02 0. -1.
    10030    2    1    2    0    0  0.00000000000E+00  0.00000000000E+00 -0.15336650215E+04  0.21546349828E+04  0.15133814823E+04 0.  0.
        1    1    3    3  502    0 -0.46638568050E+03 -0.46095719938E+03 -0.13044337791E+04  0.14599810364E+04  0.50400001928E-02 0.  1.
       -1    1    3    3    0  502  0.46638568050E+03  0.46095719938E+03 -0.22923124236E+03  0.69465394632E+03  0.50400001928E-02 0. -1.
</event>
<event>
 5   0  0.4058874E-04  0.1345926E+04  0.7818609E-02  0.8993918E-01
       -1   -1    0    0    0  501  0.00000000000E+00  0.00000000000E+00  0.23806492744E+03  0.23806492750E+03  0.50400001928E-02 0. -1.
        1   -1    0    0  501    0  0.00000000000E+00  0.00000000000E+00 -0.19023334803E+04  0.19023334803E+04  0.50400001928E-02 0.  1.
    10030    2    1    2    0    0  0.00000000000E+00  0.00000000000E+00 -0.16642685528E+04  0.21403984078E+04  0.13459255284E+04 0.  0.
        4    1    3    3  502    0 -0.31867608121E+03 -0.19946301831E+03 -0.17197574551E+04  0.17603713409E+04  0.12699999809E+01 0.  1.
       -4    1    3    3    0  502  0.31867608121E+03  0.19946301831E+03  0.55488902284E+02  0.38002706691E+03  0.12699999809E+01 0. -1.
</event>
<event>
 5   0  0.7359897E-04  0.1463141E+04  0.7818609E-02  0.8909341E-01
        2   -1    0    0  501    0  0.00000000000E+00  0.00000000000E+00  0.18886762861E+04  0.18886762861E+04  0.25500000920E-02 0.  1.
       -2   -1    0    0    0  501  0.00000000000E+00  0.00000000000E+00 -0.28337056816E+03  0.28337056817E+03  0.25500000920E-02 0. -1.
    10030    2    1    2    0    0  0.00000000000E+00  0.00000000000E+00  0.16053057180E+04  0.21720468543E+04  0.14631408303E+04 0.  0.
        1    1    3    3  502    0  0.83560778813E+02 -0.17004013478E+03 -0.24631819420E+03  0.31075505468E+03  0.50400001928E-02 0. -1.
       -1    1    3    3    0  502 -0.83560778813E+02  0.17004013478E+03  0.18516239122E+04  0.18612917996E+04  0.50400001928E-02 0.  1.
</event>
<event>
 5   0  0.4015204E-04  0.1494129E+04  0.7818609E-02  0.8888367E-01
        1   -1    0    0  501    0  0.00000000000E+00  0.00000000000E+00  0.13659811802E+04  0.13659811802E+04  0.50400001928E-02 0.  1.
       -1   -1    0    0    0  501  0.00000000000E+00  0.00000000000E+00 -0.40857455587E+03  0.40857455590E+03  0.50400001928E-02 0. -1.
    10030    2    1    2    0    0  0.00000000000E+00  0.00000000000E+00  0.95740662435E+03  0.17745557361E+04  0.14941287148E+04 0.  0.
        2    1    3    3  502    0  0.37596743302E+03  0.62756250406E+03  0.29889947274E+03  0.79027027149E+03  0.25500000920E-02 0. -1.
       -2    1    3    3    0  502 -0.37596743302E+03 -0.62756250406E+03  0.65850715161E+03  0.98428546465E+03  0.25500000920E-02 0.  1.
</event>
<event>
 5   0  0.7547580E-04  0.1545492E+04  0.7818609E-02  0.8854752E-01
       -2   -1    0    0    0  501  0.00000000000E+00  0.00000000000E+00  0.80249680223E+03  0.80249680224E+03  0.25500000920E-02 0.  1.
        2   -1    0    0  501    0  0.00000000000E+00  0.00000000000E+00 -0.74409823778E+03  0.74409823778E+03  0.25500000920E-02 0. -1.
    10030    2    1    2    0    0  0.00000000000E+00  0.00000000000E+00  0.58398564456E+02  0.15465950400E+04  0.15454920982E+04 0.  0.
        4    1    3    3  502    0  0.31961495545E+03 -0.70077094580E+02  0.72974910373E+03  0.79974988979E+03  0.12699999809E+01 0.  1.
       -4    1    3    3    0  502 -0.31961495545E+03  0.70077094580E+02 -0.67135053927E+03  0.74684515023E+03  0.12699999809E+01 0. -1.
</event>
<event>
 5   0  0.7454828E-04  0.1500506E+04  0.7818609E-02  0.8884116E-01
        2   -1    0    0  501    0  0.00000000000E+00  0.00000000000E+00  0.15565278527E+04  0.15565278527E+04  0.25500000920E-02 0.  1.
       -2   -1    0    0    0  501  0.00000000000E+00  0.00000000000E+00 -0.36162516969E+03  0.36162516969E+03  0.25500000920E-02 0. -1.
    10030    2    1    2    0    0  0.00000000000E+00  0.00000000000E+00  0.11949026830E+04  0.19181530224E+04  0.15005061131E+04 0.  0.
        3    1    3    3  502    0 -0.22501591963E+03  0.57577269992E+03  0.11409075289E+04  0.12976194996E+04  0.10100000352E+00 0.  1.
       -3    1    3    3    0  502  0.22501591963E+03 -0.57577269992E+03  0.53995154134E+02  0.62053352281E+03  0.10100000352E+00 0. -1.
</event>
<event>
 5   0  0.4015204E-04  0.1532225E+04  0.7818609E-02  0.8863302E-01
        1   -1    0    0  501    0  0.00000000000E+00  0.00000000000E+00  0.33194479975E+03  0.33194479979E+03  0.50400001928E-02 0. -1.
       -1   -1    0    0    0  501  0.00000000000E+00  0.00000000000E+00 -0.17681515658E+04  0.17681515658E+04  0.50400001928E-02 0.  1.
    10030    2    1    2    0    0  0.00000000000E+00  0.00000000000E+00 -0.14362067660E+04  0.21000963656E+04  0.15322254632E+04 0.  0.
        2    1    3    3  502    0  0.57952083510E+03 -0.50328123074E+02 -0.34782561817E+02  0.58274106162E+03  0.25500000920E-02 0. -1.
       -2    1    3    3    0  502 -0.57952083510E+03  0.50328123074E+02 -0.14014242042E+04  0.15173553039E+04  0.25500000920E-02 0.  1.
</event>
<event>
 5   0  0.4058874E-04  0.1482646E+04  0.7818609E-02  0.8896076E-01
       -1   -1    0    0    0  501  0.00000000000E+00  0.00000000000E+00  0.69135192956E+03  0.69135192957E+03  0.50400001928E-02 0. -1.
        1   -1    0    0  501    0  0.00000000000E+00  0.00000000000E+00 -0.79490589261E+03  0.79490589263E+03  0.50400001928E-02 0.  1.
    10030    2    1    2    0    0  0.00000000000E+00  0.00000000000E+00 -0.10355396306E+03  0.14862578222E+04  0.14826459088E+04 0.  0.
        4    1    3    3  502    0  0.27005043375E+03  0.68237298523E+03  0.53349762396E+02  0.73580427954E+03  0.12699999809E+01 0. -1.
       -4    1    3    3    0  502 -0.27005043375E+03 -0.68237298523E+03 -0.15690372545E+03  0.75045354267E+03  0.12699999809E+01 0.  1.
</event>
<event>
 5   0  0.4086710E-04  0.1454823E+04  0.7818609E-02  0.8915063E-01
       -1   -1    0    0    0  501  0.00000000000E+00  0.00000000000E+00  0.57509698260E+03  0.57509698262E+03  0.50400001928E-02 0.  1.
        1   -1    0    0  501    0  0.00000000000E+00  0.00000000000E+00 -0.92006694401E+03  0.92006694403E+03  0.50400001928E-02 0. -1.
    10030    2    1    2    0    0  0.00000000000E+00  0.00000000000E+00 -0.34496996141E+03  0.14951639266E+04  0.14548233203E+04 0.  0.
        3    1    3    3  502    0  0.86555162862E+01  0.36695960425E+03 -0.81790643847E+03  0.89649607997E+03  0.10100000352E+00 0. -1.
       -3    1    3    3    0  502 -0.86555162862E+01 -0.36695960425E+03  0.47293647706E+03  0.59866784668E+03  0.10100000352E+00 0.  1.
</event>
<event>
 5   0  0.4086710E-04  0.1463916E+04  0.7818609E-02  0.8908809E-01
        1   -1    0    0  501    0  0.00000000000E+00  0.00000000000E+00  0.60895094115E+03  0.60895094117E+03  0.50400001928E-02 0.  1.
       -1   -1    0    0    0  501  0.00000000000E+00  0.00000000000E+00 -0.87981237590E+03  0.87981237592E+03  0.50400001928E-02 0. -1.
    10030    2    1    2    0    0  0.00000000000E+00  0.00000000000E+00 -0.27086143476E+03  0.14887633171E+04  0.14639160828E+04 0.  0.
        3    1    3    3  502    0 -0.41829580469E+03  0.25491582264E+03 -0.68854547713E+03  0.84501381121E+03  0.10100000352E+00 0. -1.
       -3    1    3    3    0  502  0.41829580469E+03 -0.25491582264E+03  0.41768404238E+03  0.64374950588E+03  0.10100000352E+00 0.  1.
</event>
<event>
 5   0  0.7454828E-04  0.1499817E+04  0.7818609E-02  0.8884575E-01
        2   -1    0    0  501    0  0.00000000000E+00  0.00000000000E+00  0.14695140879E+04  0.14695140879E+04  0.25500000920E-02 0. -1.
       -2   -1    0    0    0  501  0.00000000000E+00  0.00000000000E+00 -0.38268599844E+03  0.38268599845E+03  0.25500000920E-02 0.  1.
    10030    2    1    2    0    0  0.00000000000E+00  0.00000000000E+00  0.10868280894E+04  0.18522000863E+04  0.14998166101E+04 0.  0.
        3    1    3    3  502    0  0.97203651045E+02 -0.20684013341E+03  0.14254588098E+04  0.14436634716E+04  0.10100000352E+00 0. -1.
       -3    1    3    3    0  502 -0.97203651045E+02  0.20684013341E+03 -0.33863072039E+03  0.40853661471E+03  0.10100000352E+00 0.  1.
</event>
<event>
 5   0  0.7672251E-04  0.1498031E+04  0.7818609E-02  0.8885763E-01
        2   -1    0    0  501    0  0.00000000000E+00  0.00000000000E+00  0.56058384934E+03  0.56058384934E+03  0.25500000920E-02 0. -1.
       -2   -1    0    0    0  501  0.00000000000E+00  0.00000000000E+00 -0.10007856049E+04  0.10007856049E+04  0.25500000920E-02 0.  1.
    10030    2    1    2    0    0  0.00000000000E+00  0.00000000000E+00 -0.44020175559E+03  0.15613694543E+04  0.14980310368E+04 0.  0.
        5    1    3    3  502    0  0.73005903717E+03 -0.10787280800E+03 -0.86707558847E+02  0.74307673306E+03  0.46999998093E+01 0.  1.
       -5    1    3    3    0  502 -0.73005903717E+03  0.10787280800E+03 -0.35349419675E+03  0.81829272121E+03  0.46999998093E+01 0. -1.
</event>
<event>
 5   0  0.7634227E-04  0.1492456E+04  0.7818609E-02  0.8889485E-01
        2   -1    0    0  501    0  0.00000000000E+00  0.00000000000E+00  0.57679618910E+03  0.57679618911E+03  0.25500000920E-02 0.  1.
       -2   -1    0    0    0  501  0.00000000000E+00  0.00000000000E+00 -0.96542975225E+03  0.96542975225E+03  0.25500000920E-02 0. -1.
    10030    2    1    2    0    0  0.00000000000E+00  0.00000000000E+00 -0.38863356315E+03  0.15422259414E+04  0.14924559651E+04 0.  0.
        2    1    3    3  502    0 -0.23071535553E+03  0.62467511979E+03  0.15367388719E+03  0.68342098605E+03  0.25500000920E-02 0.  1.
       -2    1    3    3    0  502  0.23071535553E+03 -0.62467511979E+03 -0.54230745034E+03  0.85880495531E+03  0.25500000920E-02 0. -1.
</event>
<event>
 5   0  0.4084462E-04  0.1251599E+04  0.7818609E-02  0.9068854E-01
       -1   -1    0    0    0  501  0.00000000000E+00  0.00000000000E+00  0.19699974136E+03  0.19699974142E+03  0.50400001928E-02 0. -1.
        1   -1    0    0  501    0  0.00000000000E+00  0.00000000000E+00 -0.19879453327E+04  0.19879453327E+04  0.50400001928E-02 0.  1.
    10030    2    1    2    0    0  0.00000000000E+00  0.00000000000E+00 -0.17909455913E+04  0.21849450741E+04  0.12515985242E+04 0.  0.
        1    1    3    3  502    0  0.33790235115E+02 -0.51788718553E+03 -0.28502892534E+03  0.59210675154E+03  0.50400001928E-02 0. -1.
       -1    1    3    3    0  502 -0.33790235115E+02  0.51788718553E+03 -0.15059166660E+04  0.15928383226E+04  0.50400001928E-02 0.  1.
</event>
<event>
 5   0  0.7634227E-04  0.1491377E+04  0.7818609E-02  0.8890207E-01
       -2   -1    0    0    0  501  0.00000000000E+00  0.00000000000E+00  0.61850929750E+03  0.61850929750E+03  0.25500000920E-02 0.  1.
        2   -1    0    0  501    0  0.00000000000E+00  0.00000000000E+00 -0.89901887638E+03  0.89901887638E+03  0.25500000920E-02 0. -1.
    10030    2    1    2    0    0  0.00000000000E+00  0.00000000000E+00 -0.28050957888E+03  0.15175281739E+04  0.14913772610E+04 0.  0.
        2    1    3    3  502    0 -0.61971731351E+01 -0.55464588263E+03 -0.64737217014E+03  0.85250289545E+03  0.25500000920E-02 0. -1.
       -2    1    3    3    0  502  0.61971731351E+01  0.55464588263E+03  0.36686259126E+03  0.66502527843E+03  0.25500000920E-02 0.  1.
</event>
<event>
 5   0  0.4084462E-04  0.1419564E+04  0.7818609E-02  0.8939777E-01
       -1   -1    0    0    0  501  0.00000000000E+00  0.00000000000E+00  0.59745553064E+03  0.59745553067E+03  0.50400001928E-02 0.  1.
        1   -1    0    0  501    0  0.00000000000E+00  0.00000000000E+00 -0.84322701762E+03  0.84322701764E+03  0.50400001928E-02 0. -1.
    10030    2    1    2    0    0  0.00000000000E+00  0.00000000000E+00 -0.24577148698E+03  0.14406825483E+04  0.14195642223E+04 0.  0.
        1    1    3    3  502    0  0.43847613384E+03 -0.16347180470E+03  0.41872596194E+03  0.62794568404E+03  0.50400001928E-02 0.  1.
       -1    1    3    3    0  502 -0.43847613384E+03  0.16347180470E+03 -0.66449744892E+03  0.81273686426E+03  0.50400001928E-02 0. -1.
</event>
<event>
 5   0  0.3907345E-04  0.1496540E+04  0.7818609E-02  0.8886757E-01
        1   -1    0    0  501    0  0.00000000000E+00  0.00000000000E+00  0.14060917926E+04  0.14060917926E+04  0.50400001928E-02 0.  1.
       -1   -1    0    0    0  501  0.00000000000E+00  0.00000000000E+00 -0.39820146193E+03  0.39820146196E+03  0.50400001928E-02 0. -1.
    10030    2    1    2    0    0  0.00000000000E+00  0.00000000000E+00  0.10078903307E+04  0.18042932546E+04  0.14965397522E+04 0.  0.
        5    1    3    3  502    0  0.49251314982E+03 -0.31177138269E+02 -0.17416306063E+03  0.52335081770E+03  0.46999998093E+01 0. -1.
       -5    1    3    3    0  502 -0.49251314982E+03  0.31177138269E+02  0.11820533913E+04  0.12809424369E+04  0.46999998093E+01 0.  1.
</event>
<event>
 5   0  0.7547580E-04  0.1518431E+04  0.7818609E-02  0.8872288E-01
       -2   -1    0    0    0  501  0.00000000000E+00  0.00000000000E+00  0.49857153892E+03  0.49857153892E+03  0.25500000920E-02 0.  1.
        2   -1    0    0  501    0  0.00000000000E+00  0.00000000000E+00 -0.11561192606E+04  0.11561192606E+04  0.25500000920E-02 0. -1.
    10030    2    1    2    0    0  0.00000000000E+00  0.00000000000E+00 -0.65754772170E+03  0.16546907995E+04  0.15184309783E+04 0.  0.
        4    1    3    3  502    0  0.85365977904E+02 -0.24672354352E+03  0.44811532414E+03  0.51862203360E+03  0.12699999809E+01 0.  1.
       -4    1    3    3    0  502 -0.85365977904E+02  0.24672354352E+03 -0.11056630458E+04  0.11360687659E+04  0.12699999809E+01 0. -1.
</event>
<event>
 5   0  0.4086710E-04  0.1463265E+04  0.7818609E-02  0.8909256E-01
        1   -1    0    0  501    0  0.00000000000E+00  0.00000000000E+00  0.71558499547E+03  0.71558499548E+03  0.50400001928E-02 0.  1.
       -1   -1    0    0    0  501  0.00000000000E+00  0.00000000000E+00 -0.74803960141E+03  0.74803960142E+03  0.50400001928E-02 0. -1.
    10030    2    1    2    0    0  0.00000000000E+00  0.00000000000E+00 -0.32454605940E+02  0.14636245969E+04  0.14632647263E+04 0.  0.
        3    1    3    3  502    0  0.59754265859E+03  0.26747165680E+03 -0.34293829428E+03  0.73905683131E+03  0.10100000352E+00 0. -1.
       -3    1    3    3    0  502 -0.59754265859E+03 -0.26747165680E+03  0.31048368834E+03  0.72456776560E+03  0.10100000352E+00 0.  1.
</event>
<event>
 5   0  0.2800375E-04  0.1486535E+04  0.7818609E-02  0.8893456E-01
       -3   -1    0    0    0  501  0.00000000000E+00  0.00000000000E+00  0.71730654939E+03  0.71730655650E+03  0.10100000352E+00 0.  1.
        3   -1    0    0  501    0  0.00000000000E+00  0.00000000000E+00 -0.77016834059E+03  0.77016834721E+03  0.10100000352E+00 0. -1.
    10030    2    1    2    0    0  0.00000000000E+00  0.00000000000E+00 -0.52861791193E+02  0.14874749037E+04  0.14865353074E+04 0.  0.
        4    1    3    3  502    0  0.44957624822E+03 -0.52760168098E+03  0.24199759670E+03  0.73419805669E+03  0.12699999809E+01 0.  1.
       -4    1    3    3    0  502 -0.44957624822E+03  0.52760168098E+03 -0.29485938789E+03  0.75327684703E+03  0.12699999809E+01 0. -1.
</event>
<event>
 5   0  0.4084462E-04  0.1524615E+04  0.7818609E-02  0.8868247E-01
       -1   -1    0    0    0  501  0.00000000000E+00  0.00000000000E+00  0.23397487346E+03  0.23397487352E+03  0.50400001928E-02 0.  1.
        1   -1    0    0  501    0  0.00000000000E+00  0.00000000000E+00 -0.24836556435E+04  0.24836556435E+04  0.50400001928E-02 0. -1.
    10030    2    1    2    0    0  0.00000000000E+00  0.00000000000E+00 -0.22496807700E+04  0.27176305170E+04  0.15246153810E+04 0.  0.
        1    1    3    3  502    0 -0.57471446996E+03 -0.20128346819E+02 -0.20168241274E+04  0.20972080091E+04  0.50400001928E-02 0. -1.
       -1    1    3    3    0  502  0.57471446996E+03  0.20128346819E+02 -0.23285664260E+03  0.62042250794E+03  0.50400001928E-02 0.  1.
</event>
<event>
 5   0  0.4015204E-04  0.1488601E+04  0.7818609E-02  0.8892068E-01
        1   -1    0    0  501    0  0.00000000000E+00  0.00000000000E+00  0.86064693718E+03  0.86064693719E+03  0.50400001928E-02 0. -1.
       -1   -1    0    0    0  501  0.00000000000E+00  0.00000000000E+00 -0.64368260517E+03  0.64368260519E+03  0.50400001928E-02 0.  1.
    10030    2    1    2    0    0  0.00000000000E+00  0.00000000000E+00  0.21696433200E+03  0.15043295424E+04  0.14886013068E+04 0.  0.
        2    1    3    3  502    0  0.60337340905E+03 -0.36184217416E+03  0.35393574429E+03  0.78756570573E+03  0.25500000920E-02 0. -1.
       -2    1    3    3    0  502 -0.60337340905E+03  0.36184217416E+03 -0.13697141228E+03  0.71676383666E+03  0.25500000920E-02 0.  1.
</event>
<event>
 5   0  0.4058874E-04  0.1496635E+04  0.7818609E-02  0.8886694E-01
        1   -1    0    0  501    0  0.00000000000E+00  0.00000000000E+00  0.10817068875E+04  0.10817068875E+04  0.50400001928E-02 0.  1.
       -1   -1    0    0    0  501  0.00000000000E+00  0.00000000000E+00 -0.51768064867E+03  0.51768064870E+03  0.50400001928E-02 0. -1.
    10030    2    1    2    0    0  0.00000000000E+00  0.00000000000E+00  0.56402623885E+03  0.15993875362E+04  0.14966345222E+04 0.  0.
        4    1    3    3  502    0 -0.28356949266E+03 -0.18317512171E+03 -0.43167978683E+03  0.54800897222E+03  0.12699999809E+01 0. -1.
       -4    1    3    3    0  502  0.28356949266E+03  0.18317512171E+03  0.99570602568E+03  0.10513785640E+04  0.12699999809E+01 0.  1.
</event>
<event>
 5   0  0.3907345E-04  0.1428496E+04  0.7818609E-02  0.8933446E-01
       -1   -1    0    0    0  501  0.00000000000E+00  0.00000000000E+00  0.10279991559E+04  0.10279991559E+04  0.50400001928E-02 0.  1.
        1   -1    0    0  501    0  0.00000000000E+00  0.00000000000E+00 -0.49625532539E+03  0.49625532542E+03  0.50400001928E-02 0. -1.
    10030    2    1    2    0    0  0.00000000000E+00  0.00000000000E+00  0.53174383046E+03  0.15242544813E+04  0.14284957902E+04 0.  0.
        5    1    3    3  502    0  0.57082211268E+03 -0.13525622459E+03 -0.16886559252E+03  0.61046687785E+03  0.46999998093E+01 0. -1.
       -5    1    3    3    0  502 -0.57082211268E+03  0.13525622459E+03  0.70060942298E+03  0.91378760343E+03  0.46999998093E+01 0.  1.
</event>
<event>
 5   0  0.7359897E-04  0.1330178E+04  0.7818609E-02  0.9005970E-01
        2   -1    0    0  501    0  0.00000000000E+00  0.00000000000E+00  0.18754047791E+04  0.18754047791E+04  0.25500000920E-02 0. -1.
       -2   -1    0    0    0  501  0.00000000000E+00  0.00000000000E+00 -0.23586564569E+03  0.23586564570E+03  0.25500000920E-02 0.  1.
    10030    2    1    2    0    0  0.00000000000E+00  0.00000000000E+00  0.16395391334E+04  0.21112704248E+04  0.13301782725E+04 0.  0.
        1    1    3    3  502    0  0.17452396721E+03 -0.56318087163E+01  0.18383732700E+04  0.18466473980E+04  0.50400001928E-02 0. -1.
       -1    1    3    3    0  502 -0.17452396721E+03  0.56318087163E+01 -0.19883413665E+03  0.26462302681E+03  0.50400001928E-02 0.  1.
</event>
<event>
 5   0  0.4015204E-04  0.1518640E+04  0.7818609E-02  0.8872152E-01
        1   -1    0    0  501    0  0.00000000000E+00  0.00000000000E+00  0.10975516716E+04  0.10975516716E+04  0.50400001928E-02 0.  1.
       -1   -1    0    0    0  501  0.00000000000E+00  0.00000000000E+00 -0.52532064827E+03  0.52532064830E+03  0.50400001928E-02 0. -1.
    10030    2    1    2    0    0  0.00000000000E+00  0.00000000000E+00  0.57223102333E+03  0.16228723199E+04  0.15186395961E+04 0.  0.
        2    1    3    3  502    0 -0.62143831724E+02  0.55886416457E+03 -0.25917724650E+03  0.61916383564E+03  0.25500000920E-02 0. -1.
       -2    1    3    3    0  502  0.62143831724E+02 -0.55886416457E+03  0.83140826983E+03  0.10037084843E+04  0.25500000920E-02 0.  1.
</event>
<event>
 5   0  0.7454828E-04  0.1492262E+04  0.7818609E-02  0.8889615E-01
        2   -1    0    0  501    0  0.00000000000E+00  0.00000000000E+00  0.15242625948E+04  0.15242625948E+04  0.25500000920E-02 0.  1.
       -2   -1    0    0    0  501  0.00000000000E+00  0.00000000000E+00 -0.36523345049E+03  0.36523345050E+03  0.25500000920E-02 0. -1.
    10030    2    1    2    0    0  0.00000000000E+00  0.00000000000E+00  0.11590291443E+04  0.18894960453E+04  0.14922622919E+04 0.  0.
        3    1    3    3  502    0 -0.46397699331E+03 -0.56457552018E+03  0.38877864449E+03  0.82774936601E+03  0.10100000352E+00 0. -1.
       -3    1    3    3    0  502  0.46397699331E+03  0.56457552018E+03  0.77025049979E+03  0.10617466793E+04  0.10100000352E+00 0.  1.
</event>
<event>
 5   0  0.4058874E-04  0.1504913E+04  0.7818609E-02  0.8881192E-01
        1   -1    0    0  501    0  0.00000000000E+00  0.00000000000E+00  0.20200435181E+04  0.20200435181E+04  0.50400001928E-02 0.  1.
       -1   -1    0    0    0  501  0.00000000000E+00  0.00000000000E+00 -0.28028640290E+03  0.28028640295E+03  0.50400001928E-02 0. -1.
    10030    2    1    2    0    0  0.00000000000E+00  0.00000000000E+00  0.17397571152E+04  0.23003299210E+04  0.15049129296E+04 0.  0.
        4    1    3    3  502    0  0.72309710435E+03  0.11281993388E+03  0.60252981948E+03  0.94796706486E+03  0.12699999809E+01 0. -1.
       -4    1    3    3    0  502 -0.72309710435E+03 -0.11281993388E+03  0.11372272957E+04  0.13523628562E+04  0.12699999809E+01 0.  1.
</event>
<event>
 5   0  0.7359897E-04  0.1502430E+04  0.7818609E-02  0.8882839E-01
       -2   -1    0    0    0  501  0.00000000000E+00  0.00000000000E+00  0.41842956181E+03  0.41842956182E+03  0.25500000920E-02 0. -1.
        2   -1    0    0  501    0  0.00000000000E+00  0.00000000000E+00 -0.13486715977E+04  0.13486715977E+04  0.25500000920E-02 0.  1.
    10030    2    1    2    0    0  0.00000000000E+00  0.00000000000E+00 -0.93024203589E+03  0.17671011595E+04  0.15024301191E+04 0.  0.
        1    1    3    3  502    0 -0.31364553320E+03  0.32967047701E+03 -0.11681352910E+04  0.12536332007E+04  0.50400001928E-02 0.  1.
       -1    1    3    3    0  502  0.31364553320E+03 -0.32967047701E+03  0.23789325507E+03  0.51346795882E+03  0.50400001928E-02 0. -1.
</event>
<event>
 5   0  0.4086710E-04  0.1495335E+04  0.7818609E-02  0.8887561E-01
        1   -1    0    0  501    0  0.00000000000E+00  0.00000000000E+00  0.15123006072E+04  0.15123006072E+04  0.50400001928E-02 0.  1.
       -1   -1    0    0    0  501  0.00000000000E+00  0.00000000000E+00 -0.36964012104E+03  0.36964012108E+03  0.50400001928E-02 0. -1.
    10030    2    1    2    0    0  0.00000000000E+00  0.00000000000E+00  0.11426604862E+04  0.18819407283E+04  0.14953353865E+04 0.  0.
        3    1    3    3  502    0  0.13023317729E+03 -0.67968040525E+03  0.92747916039E+03  0.11572137818E+04  0.10100000352E+00 0.  1.
       -3    1    3    3    0  502 -0.13023317729E+03  0.67968040525E+03  0.21518132578E+03  0.72472694645E+03  0.10100000352E+00 0. -1.
</event>
<event>
 5   0  0.7547580E-04  0.1510198E+04  0.7818609E-02  0.8877699E-01
        2   -1    0    0  501    0  0.00000000000E+00  0.00000000000E+00  0.16567915333E+04  0.16567915333E+04  0.25500000920E-02 0. -1.
       -2   -1    0    0    0  501  0.00000000000E+00  0.00000000000E+00 -0.34414390751E+03  0.34414390752E+03  0.25500000920E-02 0.  1.
    10030    2    1    2    0    0  0.00000000000E+00  0.00000000000E+00  0.13126476258E+04  0.20009354408E+04  0.15101982813E+04 0.  0.
        4    1    3    3  502    0 -0.58049349615E+03 -0.34300747352E+03  0.11067017179E+04  0.12959232737E+04  0.12699999809E+01 0. -1.
       -4    1    3    3    0  502  0.58049349615E+03  0.34300747352E+03  0.20594590791E+03  0.70501216716E+03  0.12699999809E+01 0.  1.
</event>
<event>
 5   0  0.2800375E-04  0.1503410E+04  0.7818609E-02  0.8882189E-01
       -3   -1    0    0    0  501  0.00000000000E+00  0.00000000000E+00  0.22906701883E+03  0.22906704110E+03  0.10100000352E+00 0.  1.
        3   -1    0    0  501    0  0.00000000000E+00  0.00000000000E+00 -0.24667900159E+04  0.24667900180E+04  0.10100000352E+00 0. -1.
    10030    2    1    2    0    0  0.00000000000E+00  0.00000000000E+00 -0.22377229971E+04  0.26958570591E+04  0.15034098148E+04 0.  0.
        5    1    3    3  502    0 -0.42222451637E+03 -0.19696762567E+03 -0.21766269471E+04  0.22259372732E+04  0.46999998093E+01 0. -1.
       -5    1    3    3    0  502  0.42222451637E+03  0.19696762567E+03 -0.61096050012E+02  0.46991978582E+03  0.46999998093E+01 0.  1.
</event>
<event>
 5   0  0.7547580E-04  0.1494534E+04  0.7818609E-02  0.8888096E-01
       -2   -1    0    0    0  501  0.00000000000E+00  0.00000000000E+00  0.24634461524E+03  0.24634461526E+03  0.25500000920E-02 0. -1.
        2   -1    0    0  501    0  0.00000000000E+00  0.00000000000E+00 -0.22667768435E+04  0.22667768435E+04  0.25500000920E-02 0.  1.
    10030    2    1    2    0    0  0.00000000000E+00  0.00000000000E+00 -0.20204322283E+04  0.25131214588E+04  0.14945344016E+04 0.  0.
        4    1    3    3  502    0  0.89977786757E+02  0.12208495439E+03  0.22019188537E+03  0.26737018810E+03  0.12699999809E+01 0. -1.
       -4    1    3    3    0  502 -0.89977786757E+02 -0.12208495439E+03 -0.22406241136E+04  0.22457512707E+04  0.12699999809E+01 0.  1.
</event>
<event>
 5   0  0.7672251E-04  0.1495913E+04  0.7818609E-02  0.8887176E-01
        2   -1    0    0  501    0  0.00000000000E+00  0.00000000000E+00  0.38367347565E+03  0.38367347566E+03  0.25500000920E-02 0.  1.
       -2   -1    0    0    0  501  0.00000000000E+00  0.00000000000E+00 -0.14581110964E+04  0.14581110964E+04  0.25500000920E-02 0. -1.
    10030    2    1    2    0    0  0.00000000000E+00  0.00000000000E+00 -0.10744376208E+04  0.18417845721E+04  0.14959125005E+04 0.  0.
        5    1    3    3  502    0  0.12347083337E+03  0.39704975423E+03  0.22823723732E+03  0.47434995575E+03  0.46999998093E+01 0.  1.
       -5    1    3    3    0  502 -0.12347083337E+03 -0.39704975423E+03 -0.13026748581E+04  0.13674346163E+04  0.46999998093E+01 0. -1.
</event>
<event>
 5   0  0.7634227E-04  0.1470413E+04  0.7818609E-02  0.8904370E-01
        2   -1    0    0  501    0  0.00000000000E+00  0.00000000000E+00  0.99887369623E+03  0.99887369624E+03  0.25500000920E-02 0. -1.
       -2   -1    0    0    0  501  0.00000000000E+00  0.00000000000E+00 -0.54113775088E+03  0.54113775089E+03  0.25500000920E-02 0.  1.
    10030    2    1    2    0    0  0.00000000000E+00  0.00000000000E+00  0.45773594535E+03  0.15400114471E+04  0.14704125481E+04 0.  0.
        2    1    3    3  502    0 -0.25491402595E+03 -0.67194186363E+03  0.66476526050E+02  0.72173828862E+03  0.25500000920E-02 0.  1.
       -2    1    3    3    0  502  0.25491402595E+03  0.67194186363E+03  0.39125941930E+03  0.81827315851E+03  0.25500000920E-02 0. -1.
</event>
<event>
 5   0  0.7454828E-04  0.1495179E+04  0.7818609E-02  0.8887665E-01
       -2   -1    0    0    0  501  0.00000000000E+00  0.00000000000E+00  0.63751051107E+03  0.63751051107E+03  0.25500000920E-02 0.  1.
        2   -1    0    0  501    0  0.00000000000E+00  0.00000000000E+00 -0.87667583765E+03  0.87667583766E+03  0.25500000920E-02 0. -1.
    10030    2    1    2    0    0  0.00000000000E+00  0.00000000000E+00 -0.23916532658E+03  0.15141863487E+04  0.14951790011E+04 0.  0.
        3    1    3    3  502    0  0.24191972043E+03  0.13740524824E+03 -0.82229468292E+03  0.86808634889E+03  0.10100000352E+00 0. -1.
       -3    1    3    3    0  502 -0.24191972043E+03 -0.13740524824E+03  0.58312935633E+03  0.64609999984E+03  0.10100000352E+00 0.  1.
</event>
<event>
 5   0  0.7454828E-04  0.1476221E+04  0.7818609E-02  0.8900422E-01
       -2   -1    0    0    0  501  0.00000000000E+00  0.00000000000E+00  0.70457821086E+03  0.70457821086E+03  0.25500000920E-02 0. -1.
        2   -1    0    0  501    0  0.00000000000E+00  0.00000000000E+00 -0.77323846634E+03  0.77323846634E+03  0.25500000920E-02 0.  1.
    10030    2    1    2    0    0  0.00000000000E+00  0.00000000000E+00 -0.68660255483E+02  0.14778166772E+04  0.14762208171E+04 0.  0.
        3    1    3    3  502    0  0.34133580002E+03 -0.15918978946E+03  0.60114382441E+03  0.70938383493E+03  0.10100000352E+00 0. -1.
       -3    1    3    3    0  502 -0.34133580002E+03  0.15918978946E+03 -0.66980407989E+03  0.76843284227E+03  0.10100000352E+00 0.  1.
</event>
<event>
 5   0  0.7634227E-04  0.1484732E+04  0.7818609E-02  0.8894670E-01
       -2   -1    0    0    0  501  0.00000000000E+00  0.00000000000E+00  0.54748193735E+03  0.54748193736E+03  0.25500000920E-02 0.  1.
        2   -1    0    0  501    0  0.00000000000E+00  0.00000000000E+00 -0.10066217290E+04  0.10066217290E+04  0.25500000920E-02 0. -1.
    10030    2    1    2    0    0  0.00000000000E+00  0.00000000000E+00 -0.45913979161E+03  0.15541036663E+04  0.14847319143E+04 0.  0.
        2    1    3    3  502    0 -0.40000528804E+02 -0.16185492349E+03 -0.98677149541E+03  0.10007572347E+04  0.25500000920E-02 0. -1.
       -2    1    3    3    0  502  0.40000528804E+02  0.16185492349E+03  0.52763170380E+03  0.55334643166E+03  0.25500000920E-02 0.  1.
</event>
<event>
 5   0  0.2800375E-04  0.1505003E+04  0.7818609E-02  0.8881133E-01
       -3   -1    0    0    0  501  0.00000000000E+00  0.00000000000E+00  0.59349952387E+03  0.59349953246E+03  0.10100000352E+00 0. -1.
        3   -1    0    0  501    0  0.00000000000E+00  0.00000000000E+00 -0.95410100523E+03  0.95410101057E+03  0.10100000352E+00 0.  1.
    10030    2    1    2    0    0  0.00000000000E+00  0.00000000000E+00 -0.36060148136E+03  0.15476005430E+04  0.15050029942E+04 0.  0.
        1    1    3    3  502    0  0.56935012979E+03  0.41252666830E+03 -0.45607162018E+03  0.83805676723E+03  0.50400001928E-02 0.  1.
       -1    1    3    3    0  502 -0.56935012979E+03 -0.41252666830E+03  0.95470138821E+02  0.70954377580E+03  0.50400001928E-02 0. -1.
</event>
<event>
 5   0  0.2800375E-04  0.1488038E+04  0.7818609E-02  0.8892447E-01
        4   -1    0    0  501    0  0.00000000000E+00  0.00000000000E+00  0.51024096370E+03  0.51024254423E+03  0.12699999809E+01 0. -1.
       -4   -1    0    0    0  501  0.00000000000E+00  0.00000000000E+00 -0.10849033437E+04  0.10849040870E+04  0.12699999809E+01 0.  1.
    10030    2    1    2    0    0  0.00000000000E+00  0.00000000000E+00 -0.57466237997E+03  0.15951466312E+04  0.14880376085E+04 0.  0.
        4    1    3    3  502    0  0.25685076876E+03 -0.11036522953E+03 -0.10264609040E+04  0.10638498022E+04  0.12699999809E+01 0.  1.
       -4    1    3    3    0  502 -0.25685076876E+03  0.11036522953E+03  0.45179852404E+03  0.53129682902E+03  0.12699999809E+01 0. -1.
</event>
<event>
 5   0  0.7454828E-04  0.1496787E+04  0.7818609E-02  0.8886592E-01
        2   -1    0    0  501    0  0.00000000000E+00  0.00000000000E+00  0.13680323763E+04  0.13680323763E+04  0.25500000920E-02 0.  1.
       -2   -1    0    0    0  501  0.00000000000E+00  0.00000000000E+00 -0.40941496680E+03  0.40941496680E+03  0.25500000920E-02 0. -1.
    10030    2    1    2    0    0  0.00000000000E+00  0.00000000000E+00  0.95861740945E+03  0.17774473431E+04  0.14967871324E+04 0.  0.
        3    1    3    3  502    0  0.39822488568E+03  0.17888946419E+03 -0.24254447200E+03  0.49941198532E+03  0.10100000352E+00 0. -1.
       -3    1    3    3    0  502 -0.39822488568E+03 -0.17888946419E+03  0.12011618815E+04  0.12780353577E+04  0.10100000352E+00 0.  1.
</event>
<event>
 5   0  0.4058874E-04  0.1507276E+04  0.7818609E-02  0.8879629E-01
       -1   -1    0    0    0  501  0.00000000000E+00  0.00000000000E+00  0.82298633919E+03  0.82298633921E+03  0.50400001928E-02 0. -1.
        1   -1    0    0  501    0  0.00000000000E+00  0.00000000000E+00 -0.69013325835E+03  0.69013325837E+03  0.50400001928E-02 0.  1.
    10030    2    1    2    0    0  0.00000000000E+00  0.00000000000E+00  0.13285308084E+03  0.15131195976E+04  0.15072760117E+04 0.  0.
        4    1    3    3  502    0 -0.44645239744E+03  0.60565382225E+03  0.23454799073E+02  0.75278684638E+03  0.12699999809E+01 0.  1.
       -4    1    3    3    0  502  0.44645239744E+03 -0.60565382225E+03  0.10939828177E+03  0.76033275120E+03  0.12699999809E+01 0. -1.
</event>
<event>
 5   0  0.7359897E-04  0.1504796E+04  0.7818609E-02  0.8881270E-01
        2   -1    0    0  501    0  0.00000000000E+00  0.00000000000E+00  0.58836827676E+03  0.58836827677E+03  0.25500000920E-02 0.  1.
       -2   -1    0    0    0  501  0.00000000000E+00  0.00000000000E+00 -0.96215744970E+03  0.96215744970E+03  0.25500000920E-02 0. -1.
    10030    2    1    2    0    0  0.00000000000E+00  0.00000000000E+00 -0.37378917293E+03  0.15505257265E+04  0.15047962263E+04 0.  0.
        1    1    3    3  502    0  0.10799484563E+03  0.23936311321E+03 -0.91340687894E+03  0.95040502585E+03  0.50400001928E-02 0. -1.
       -1    1    3    3    0  502 -0.10799484563E+03 -0.23936311321E+03  0.53961770601E+03  0.60012070062E+03  0.50400001928E-02 0.  1.
</event>
<event>
 5   0  0.7634227E-04  0.1475347E+04  0.7818609E-02  0.8901014E-01
       -2   -1    0    0    0  501  0.00000000000E+00  0.00000000000E+00  0.74915319266E+03  0.74915319266E+03  0.25500000920E-02 0. -1.
        2   -1    0    0  501    0  0.00000000000E+00  0.00000000000E+00 -0.72636977233E+03  0.72636977233E+03  0.25500000920E-02 0.  1.
    10030    2    1    2    0    0  0.00000000000E+00  0.00000000000E+00  0.22783420327E+02  0.14755229650E+04  0.14753470561E+04 0.  0.
        2    1    3    3  502    0 -0.84763408900E+02  0.65949729167E+03 -0.30808451009E+03  0.73282847828E+03  0.25500000920E-02 0.  1.
       -2    1    3    3    0  502  0.84763408900E+02 -0.65949729167E+03  0.33086793042E+03  0.74269448672E+03  0.25500000920E-02 0. -1.
</event>
<event>
 5   0  0.4015204E-04  0.1509828E+04  0.7818609E-02  0.8877944E-01
        1   -1    0    0  501    0  0.00000000000E+00  0.00000000000E+00  0.14163126726E+04  0.14163126727E+04  0.50400001928E-02 0.  1.
       -1   -1    0    0    0  501  0.00000000000E+00  0.00000000000E+00 -0.40237929335E+03  0.40237929338E+03  0.50400001928E-02 0. -1.
    10030    2    1    2    0    0  0.00000000000E+00  0.00000000000E+00  0.10139333793E+04  0.18186919660E+04  0.15098276622E+04 0.  0.
        2    1    3    3  502    0 -0.58838028812E+03 -0.18087084620E+03 -0.19458000406E+02  0.61586056883E+03  0.25500000920E-02 0. -1.
       -2    1    3    3    0  502  0.58838028812E+03  0.18087084620E+03  0.10333913797E+04  0.12028313972E+04  0.25500000920E-02 0.  1.
</event>
<event>
 5   0  0.7672251E-04  0.1482387E+04  0.7818609E-02  0.8896250E-01
        2   -1    0    0  501    0  0.00000000000E+00  0.00000000000E+00  0.45859587758E+03  0.45859587759E+03  0.25500000920E-02 0.  1.
       -2   -1    0    0    0  501  0.00000000000E+00  0.00000000000E+00 -0.11979349574E+04  0.11979349574E+04  0.25500000920E-02 0. -1.
    10030    2    1    2    0    0  0.00000000000E+00  0.00000000000E+00 -0.73933907981E+03  0.16565308350E+04  0.14823873085E+04 0.  0.
        5    1    3    3  502    0  0.57945893761E+03  0.21816102259E+03 -0.82493476103E+03  0.10314583569E+04  0.46999998093E+01 0. -1.
       -5    1    3    3    0  502 -0.57945893761E+03 -0.21816102259E+03  0.85595681221E+02  0.62507247803E+03  0.46999998093E+01 0.  1.
</event>
<event>
 5   0  0.4086710E-04  0.1486348E+04  0.7818609E-02  0.8893583E-01
       -1   -1    0    0    0  501  0.00000000000E+00  0.00000000000E+00  0.46376614384E+03  0.46376614387E+03  0.50400001928E-02 0.  1.
        1   -1    0    0  501    0  0.00000000000E+00  0.00000000000E+00 -0.11909178169E+04  0.11909178169E+04  0.50400001928E-02 0. -1.
    10030    2    1    2    0    0  0.00000000000E+00  0.00000000000E+00 -0.72715167309E+03  0.16546839608E+04  0.14863476896E+04 0.  0.
        3    1    3    3  502    0  0.30017490551E+03  0.14076777286E+03 -0.11040258264E+04  0.11527330893E+04  0.10100000352E+00 0. -1.
       -3    1    3    3    0  502 -0.30017490551E+03 -0.14076777286E+03  0.37687415327E+03  0.50195087147E+03  0.10100000352E+00 0.  1.
</event>
<event>
 5   0  0.4086710E-04  0.1494450E+04  0.7818609E-02  0.8888152E-01
        1   -1    0    0  501    0  0.00000000000E+00  0.00000000000E+00  0.65324104980E+03  0.65324104982E+03  0.50400001928E-02 0.  1.
       -1   -1    0    0    0  501  0.00000000000E+00  0.00000000000E+00 -0.85473017719E+03  0.85473017721E+03  0.50400001928E-02 0. -1.
    10030    2    1    2    0    0  0.00000000000E+00  0.00000000000E+00 -0.20148912739E+03  0.15079712270E+04  0.14944495151E+04 0.  0.
        3    1    3    3  502    0  0.17245133186E+03 -0.67406205936E+03 -0.37569060954E+03  0.79072281238E+03  0.10100000352E+00 0. -1.
       -3    1    3    3    0  502 -0.17245133186E+03  0.67406205936E+03  0.17420148215E+03  0.71724841464E+03  0.10100000352E+00 0.  1.
</event>
<event>
 5   0  0.4058874E-04  0.1500274E+04  0.7818609E-02  0.8884271E-01
        1   -1    0    0  501    0  0.00000000000E+00  0.00000000000E+00  0.96110106141E+03  0.96110106142E+03  0.50400001928E-02 0. -1.
       -1   -1    0    0    0  501  0.00000000000E+00  0.00000000000E+00 -0.58547987355E+03  0.58547987357E+03  0.50400001928E-02 0.  1.
    10030    2    1    2    0    0  0.00000000000E+00  0.00000000000E+00  0.37562118786E+03  0.15465809350E+04  0.15002737456E+04 0.  0.
        4    1    3    3  502    0 -0.28191756921E+03 -0.27843867066E+02  0.90383646060E+03  0.94719309392E+03  0.12699999809E+01 0. -1.
       -4    1    3    3    0  502  0.28191756921E+03  0.27843867066E+02 -0.52821527275E+03  0.59938784107E+03  0.12699999809E+01 0.  1.
</event>
<event>
 5   0  0.7547580E-04  0.1487231E+04  0.7818609E-02  0.8892989E-01
       -2   -1    0    0    0  501  0.00000000000E+00  0.00000000000E+00  0.66162770186E+03  0.66162770186E+03  0.25500000920E-02 0.  1.
        2   -1    0    0  501    0  0.00000000000E+00  0.00000000000E+00 -0.83576321387E+03  0.83576321388E+03  0.25500000920E-02 0. -1.
    10030    2    1    2    0    0  0.00000000000E+00  0.00000000000E+00 -0.17413551201E+03  0.14973909157E+04  0.14872311112E+04 0.  0.
        4    1    3    3  502    0  0.38227392223E+02  0.14011805627E+03 -0.82134267677E+03  0.83408621184E+03  0.12699999809E+01 0. -1.
       -4    1    3    3    0  502 -0.38227392223E+02 -0.14011805627E+03  0.64720716475E+03  0.66330470390E+03  0.12699999809E+01 0.  1.
</event>
<event>
 5   0  0.7634227E-04  0.1513069E+04  0.7818609E-02  0.8875809E-01
        2   -1    0    0  501    0  0.00000000000E+00  0.00000000000E+00  0.21173007450E+04  0.21173007450E+04  0.25500000920E-02 0.  1.
       -2   -1    0    0    0  501  0.00000000000E+00  0.00000000000E+00 -0.27031785498E+03  0.27031785499E+03  0.25500000920E-02 0. -1.
    10030    2    1    2    0    0  0.00000000000E+00  0.00000000000E+00  0.18469828900E+04  0.23876186000E+04  0.15130686643E+04 0.  0.
        2    1    3    3  502    0  0.63436725532E+03 -0.37332651413E+03  0.11993012845E+04  0.14071666823E+04  0.25500000920E-02 0.  1.
       -2    1    3    3    0  502 -0.63436725532E+03  0.37332651413E+03  0.64768160551E+03  0.98045191769E+03  0.25500000920E-02 0. -1.
</event>
<event>
 5   0  0.7547580E-04  0.1504641E+04  0.7818609E-02  0.8881372E-01
       -2   -1    0    0    0  501  0.00000000000E+00  0.00000000000E+00  0.59150657821E+03  0.59150657822E+03  0.25500000920E-02 0.  1.
        2   -1    0    0  501    0  0.00000000000E+00  0.00000000000E+00 -0.95685575738E+03  0.95685575739E+03  0.25500000920E-02 0. -1.
    10030    2    1    2    0    0  0.00000000000E+00  0.00000000000E+00 -0.36534917917E+03  0.15483623356E+04  0.15046414522E+04 0.  0.
        4    1    3    3  502    0  0.62461360664E+03  0.79890873778E+02 -0.60629158235E+03  0.87413717747E+03  0.12699999809E+01 0. -1.
       -4    1    3    3    0  502 -0.62461360664E+03 -0.79890873778E+02  0.24094240318E+03  0.67422515813E+03  0.12699999809E+01 0.  1.
</event>
<event>
 5   0  0.7359897E-04  0.1451191E+04  0.7818609E-02  0.8917575E-01
       -2   -1    0    0    0  501  0.00000000000E+00  0.00000000000E+00  0.32730344619E+03  0.32730344620E+03  0.25500000920E-02 0.  1.
        2   -1    0    0  501    0  0.00000000000E+00  0.00000000000E+00 -0.16085653790E+04  0.16085653790E+04  0.25500000920E-02 0. -1.
    10030    2    1    2    0    0  0.00000000000E+00  0.00000000000E+00 -0.12812619328E+04  0.19358688252E+04  0.14511912238E+04 0.  0.
        1    1    3    3  502    0 -0.99258576879E+02 -0.37871154402E+03  0.17431800658E+03  0.42855742451E+03  0.50400001928E-02 0.  1.
       -1    1    3    3    0  502  0.99258576879E+02  0.37871154402E+03 -0.14555799394E+04  0.15073114007E+04  0.50400001928E-02 0. -1.
</event>
<event>
 5   0  0.7454828E-04  0.1485815E+04  0.7818609E-02  0.8893941E-01
       -2   -1    0    0    0  501  0.00000000000E+00  0.00000000000E+00  0.34975054446E+03  0.34975054447E+03  0.25500000920E-02 0.  1.
        2   -1    0    0  501    0  0.00000000000E+00  0.00000000000E+00 -0.15780138473E+04  0.15780138473E+04  0.25500000920E-02 0. -1.
    10030    2    1    2    0    0  0.00000000000E+00  0.00000000000E+00 -0.12282633028E+04  0.19277643917E+04  0.14858145271E+04 0.  0.
        3    1    3    3  502    0 -0.32051056996E+02 -0.34704149675E+03  0.23710193961E+03  0.42152391472E+03  0.10100000352E+00 0.  1.
       -3    1    3    3    0  502  0.32051056996E+02  0.34704149675E+03 -0.14653652424E+04  0.15062404770E+04  0.10100000352E+00 0. -1.
</event>
<event>
 5   0  0.4084462E-04  0.1504589E+04  0.7818609E-02  0.8881407E-01
        1   -1    0    0  501    0  0.00000000000E+00  0.00000000000E+00  0.15473161047E+04  0.15473161047E+04  0.50400001928E-02 0. -1.
       -1   -1    0    0    0  501  0.00000000000E+00  0.00000000000E+00 -0.36576020615E+03  0.36576020619E+03  0.50400001928E-02 0.  1.
    10030    2    1    2    0    0  0.00000000000E+00  0.00000000000E+00  0.11815558985E+04  0.19130763109E+04  0.15045885251E+04 0.  0.
        1    1    3    3  502    0 -0.57071399158E+03  0.21801776158E+03  0.32621539625E+02  0.61180909557E+03  0.50400001928E-02 0.  1.
       -1    1    3    3    0  502  0.57071399158E+03 -0.21801776158E+03  0.11489343589E+04  0.13012672153E+04  0.50400001928E-02 0. -1.
</event>
<event>
 5   0  0.7634227E-04  0.1528198E+04  0.7818609E-02  0.8865915E-01
        2   -1    0    0  501    0  0.00000000000E+00  0.00000000000E+00  0.70279876775E+03  0.70279876776E+03  0.25500000920E-02 0.  1.
       -2   -1    0    0    0  501  0.00000000000E+00  0.00000000000E+00 -0.83074607096E+03  0.83074607097E+03  0.25500000920E-02 0. -1.
    10030    2    1    2    0    0  0.00000000000E+00  0.00000000000E+00 -0.12794730321E+03  0.15335448387E+04  0.15281980434E+04 0.  0.
        2    1    3    3  502    0  0.71946262341E+02 -0.88467213017E+02 -0.82215970053E+03  0.83002968960E+03  0.25500000920E-02 0. -1.
       -2    1    3    3    0  502 -0.71946262341E+02  0.88467213017E+02  0.69421239732E+03  0.70351514912E+03  0.25500000920E-02 0.  1.
</event>
<event>
 5   0  0.4015204E-04  0.1550416E+04  0.7818609E-02  0.8851602E-01
       -1   -1    0    0    0  501  0.00000000000E+00  0.00000000000E+00  0.86942021477E+03  0.86942021479E+03  0.50400001928E-02 0. -1.
        1   -1    0    0  501    0  0.00000000000E+00  0.00000000000E+00 -0.69120439254E+03  0.69120439256E+03  0.50400001928E-02 0.  1.
    10030    2    1    2    0    0  0.00000000000E+00  0.00000000000E+00  0.17821582223E+03  0.15606246073E+04  0.15504155204E+04 0.  0.
        2    1    3    3  502    0  0.14816638322E+03 -0.71146403632E+03 -0.18250722550E+03  0.74929516177E+03  0.25500000920E-02 0.  1.
       -2    1    3    3    0  502 -0.14816638322E+03  0.71146403632E+03  0.36072304773E+03  0.81132944557E+03  0.25500000920E-02 0. -1.
</event>
<event>
 5   0  0.7547580E-04  0.1324813E+04  0.7818609E-02  0.9010116E-01
       -2   -1    0    0    0  501  0.00000000000E+00  0.00000000000E+00  0.94813237670E+03  0.94813237670E+03  0.25500000920E-02 0.  1.
        2   -1    0    0  501    0  0.00000000000E+00  0.00000000000E+00 -0.46278621020E+03  0.46278621021E+03  0.25500000920E-02 0. -1.
    10030    2    1    2    0    0  0.00000000000E+00  0.00000000000E+00  0.48534616649E+03  0.14109185869E+04  0.13248133293E+04 0.  0.
        4    1    3    3  502    0  0.19760325476E+01  0.56662768245E+03 -0.12271485442E+03  0.57976838791E+03  0.12699999809E+01 0. -1.
       -4    1    3    3    0  502 -0.19760325476E+01 -0.56662768245E+03  0.60806102092E+03  0.83115019899E+03  0.12699999809E+01 0.  1.
</event>
<event>
 5   0  0.7547580E-04  0.1487591E+04  0.7818609E-02  0.8892747E-01
        2   -1    0    0  501    0  0.00000000000E+00  0.00000000000E+00  0.18355273481E+04  0.18355273481E+04  0.25500000920E-02 0. -1.
       -2   -1    0    0    0  501  0.00000000000E+00  0.00000000000E+00 -0.30140226338E+03  0.30140226339E+03  0.25500000920E-02 0.  1.
    10030    2    1    2    0    0  0.00000000000E+00  0.00000000000E+00  0.15341250847E+04  0.21369296115E+04  0.14875914724E+04 0.  0.
        4    1    3    3  502    0  0.62504541646E+03  0.33575250926E+03  0.44643274249E+03  0.83828117394E+03  0.12699999809E+01 0.  1.
       -4    1    3    3    0  502 -0.62504541646E+03 -0.33575250926E+03  0.10876923422E+04  0.12986484376E+04  0.12699999809E+01 0. -1.
</event>
<event>
 5   0  0.4084462E-04  0.1574797E+04  0.7818609E-02  0.8836182E-01
        1   -1    0    0  501    0  0.00000000000E+00  0.00000000000E+00  0.73084535053E+03  0.73084535055E+03  0.50400001928E-02 0. -1.
       -1   -1    0    0    0  501  0.00000000000E+00  0.00000000000E+00 -0.84832818816E+03  0.84832818817E+03  0.50400001928E-02 0.  1.
    10030    2    1    2    0    0  0.00000000000E+00  0.00000000000E+00 -0.11748283763E+03  0.15791735387E+04  0.15747973991E+04 0.  0.
        1    1    3    3  502    0  0.10331833741E+02 -0.41242185727E+03 -0.73127506221E+03  0.83962000439E+03  0.50400001928E-02 0.  1.
       -1    1    3    3    0  502 -0.10331833741E+02  0.41242185727E+03  0.61379222458E+03  0.73955353432E+03  0.50400001928E-02 0. -1.
</event>
<event>
 5   0  0.4086710E-04  0.1504717E+04  0.7818609E-02  0.8881322E-01
       -1   -1    0    0    0  501  0.00000000000E+00  0.00000000000E+00  0.11268915362E+04  0.11268915362E+04  0.50400001928E-02 0.  1.
        1   -1    0    0  501    0  0.00000000000E+00  0.00000000000E+00 -0.50230530942E+03  0.50230530945E+03  0.50400001928E-02 0. -1.
    10030    2    1    2    0    0  0.00000000000E+00  0.00000000000E+00  0.62458622680E+03  0.16291968457E+04  0.15047173845E+04 0.  0.
        3    1    3    3  502    0  0.73545772771E+03  0.96241321898E+02  0.44874723934E+03  0.86691092754E+03  0.10100000352E+00 0. -1.
       -3    1    3    3    0  502 -0.73545772771E+03 -0.96241321898E+02  0.17583898747E+03  0.76228591814E+03  0.10100000352E+00 0.  1.
</event>
<event>
 5   0  0.7454828E-04  0.1485487E+04  0.7818609E-02  0.8894162E-01
        2   -1    0    0  501    0  0.00000000000E+00  0.00000000000E+00  0.19017451994E+04  0.19017451994E+04  0.25500000920E-02 0.  1.
       -2   -1    0    0    0  501  0.00000000000E+00  0.00000000000E+00 -0.29008496407E+03  0.29008496409E+03  0.25500000920E-02 0. -1.
    10030    2    1    2    0    0  0.00000000000E+00  0.00000000000E+00  0.16116602353E+04  0.21918301635E+04  0.14854867052E+04 0.  0.
        3    1    3    3  502    0 -0.52726492403E+02  0.15931945371E+03 -0.26174516011E+03  0.31092331912E+03  0.10100000352E+00 0. -1.
       -3    1    3    3    0  502  0.52726492403E+02 -0.15931945371E+03  0.18734053954E+04  0.18809068443E+04  0.10100000352E+00 0.  1.
</event>
<event>
 5   0  0.3907345E-04  0.1498249E+04  0.7818609E-02  0.8885618E-01
       -1   -1    0    0    0  501  0.00000000000E+00  0.00000000000E+00  0.60192656897E+03  0.60192656900E+03  0.50400001928E-02 0. -1.
        1   -1    0    0  501    0  0.00000000000E+00  0.00000000000E+00 -0.93231935909E+03  0.93231935911E+03  0.50400001928E-02 0.  1.
    10030    2    1    2    0    0  0.00000000000E+00  0.00000000000E+00 -0.33039279012E+03  0.15342459281E+04  0.14982493691E+04 0.  0.
        5    1    3    3  502    0 -0.43908459975E+03  0.20033319763E+03  0.42148816803E+03  0.64078314710E+03  0.46999998093E+01 0. -1.
       -5    1    3    3    0  502  0.43908459975E+03 -0.20033319763E+03 -0.75188095815E+03  0.89346278101E+03  0.46999998093E+01 0.  1.
</event>
<event>
 5   0  0.4058874E-04  0.1478238E+04  0.7818609E-02  0.8899055E-01
        1   -1    0    0  501    0  0.00000000000E+00  0.00000000000E+00  0.85889099368E+03  0.85889099369E+03  0.50400001928E-02 0. -1.
       -1   -1    0    0    0  501  0.00000000000E+00  0.00000000000E+00 -0.63604873500E+03  0.63604873502E+03  0.50400001928E-02 0.  1.
    10030    2    1    2    0    0  0.00000000000E+00  0.00000000000E+00  0.22284225868E+03  0.14949397287E+04  0.14782375047E+04 0.  0.
        4    1    3    3  502    0 -0.22702537000E+03  0.19139783120E+03  0.79591520614E+03  0.84950354718E+03  0.12699999809E+01 0. -1.
       -4    1    3    3    0  502  0.22702537000E+03 -0.19139783120E+03 -0.57307294746E+03  0.64543618153E+03  0.12699999809E+01 0.  1.
</event>
<event>
 5   0  0.7547580E-04  0.1507450E+04  0.7818609E-02  0.8879514E-01
       -2   -1    0    0    0  501  0.00000000000E+00  0.00000000000E+00  0.42607840590E+03  0.42607840591E+03  0.25500000920E-02 0. -1.
        2   -1    0    0  501    0  0.00000000000E+00  0.00000000000E+00 -0.13333254397E+04  0.13333254397E+04  0.25500000920E-02 0.  1.
    10030    2    1    2    0    0  0.00000000000E+00  0.00000000000E+00 -0.90724703381E+03  0.17594038456E+04  0.15074497377E+04 0.  0.
        4    1    3    3  502    0 -0.45134531788E+03 -0.26852209008E+03 -0.10846162645E+04  0.12050770776E+04  0.12699999809E+01 0.  1.
       -4    1    3    3    0  502  0.45134531788E+03  0.26852209008E+03  0.17736923071E+03  0.55432676801E+03  0.12699999809E+01 0. -1.
</event>
<event>
 5   0  0.7359897E-04  0.1490421E+04  0.7818609E-02  0.8890848E-01
        2   -1    0    0  501    0  0.00000000000E+00  0.00000000000E+00  0.15590202424E+04  0.15590202424E+04  0.25500000920E-02 0.  1.
       -2   -1    0    0    0  501  0.00000000000E+00  0.00000000000E+00 -0.35621020986E+03  0.35621020987E+03  0.25500000920E-02 0. -1.
    10030    2    1    2    0    0  0.00000000000E+00  0.00000000000E+00  0.12028100325E+04  0.19152304522E+04  0.14904213199E+04 0.  0.
        1    1    3    3  502    0  0.48396923963E+03  0.28910991672E+03 -0.24876414796E+02  0.56429567152E+03  0.50400001928E-02 0. -1.
       -1    1    3    3    0  502 -0.48396923963E+03 -0.28910991672E+03  0.12276864473E+04  0.13509347807E+04  0.50400001928E-02 0.  1.
</event>
<event>
 5   0  0.4015204E-04  0.1504268E+04  0.7818609E-02  0.8881620E-01
       -1   -1    0    0    0  501  0.00000000000E+00  0.00000000000E+00  0.50184271212E+03  0.50184271214E+03  0.50400001928E-02 0.  1.
        1   -1    0    0  501    0  0.00000000000E+00  0.00000000000E+00 -0.11272562457E+04  0.11272562457E+04  0.50400001928E-02 0. -1.
    10030    2    1    2    0    0  0.00000000000E+00  0.00000000000E+00 -0.62541353356E+03  0.16290989578E+04  0.15042677044E+04 0.  0.
        2    1    3    3  502    0 -0.31550227721E+03 -0.47420830706E+03 -0.84468285242E+03  0.10187758962E+04  0.25500000920E-02 0.  1.
       -2    1    3    3    0  502  0.31550227721E+03  0.47420830706E+03  0.21926931886E+03  0.61032306167E+03  0.25500000920E-02 0. -1.
</event>
<event>
 5   0  0.7634227E-04  0.1615151E+04  0.7818609E-02  0.8811294E-01
        2   -1    0    0  501    0  0.00000000000E+00  0.00000000000E+00  0.10164655403E+04  0.10164655403E+04  0.25500000920E-02 0.  1.
       -2   -1    0    0    0  501  0.00000000000E+00  0.00000000000E+00 -0.64161375669E+03  0.64161375669E+03  0.25500000920E-02 0. -1.
    10030    2    1    2    0    0  0.00000000000E+00  0.00000000000E+00  0.37485178362E+03  0.16580792970E+04  0.16151511061E+04 0.  0.
        2    1    3    3  502    0  0.27424833495E+03 -0.52686697916E+03  0.74912221246E+03  0.95602565455E+03  0.25500000920E-02 0.  1.
       -2    1    3    3    0  502 -0.27424833495E+03  0.52686697916E+03 -0.37427042885E+03  0.70205364244E+03  0.25500000920E-02 0. -1.
</event>
<event>
 5   0  0.7359897E-04  0.1500167E+04  0.7818609E-02  0.8884342E-01
        2   -1    0    0  501    0  0.00000000000E+00  0.00000000000E+00  0.88960460286E+03  0.88960460287E+03  0.25500000920E-02 0.  1.
       -2   -1    0    0    0  501  0.00000000000E+00  0.00000000000E+00 -0.63244424345E+03  0.63244424346E+03  0.25500000920E-02 0. -1.
    10030    2    1    2    0    0  0.00000000000E+00  0.00000000000E+00  0.25716035941E+03  0.15220488463E+04  0.15001670707E+04 0.  0.
        1    1    3    3  502    0  0.11772287114E+03 -0.74074466009E+03  0.13669586548E+03  0.76239562270E+03  0.50400001928E-02 0. -1.
       -1    1    3    3    0  502 -0.11772287114E+03  0.74074466009E+03  0.12046449393E+03  0.75965322363E+03  0.50400001928E-02 0.  1.
</event>
<event>
 5   0  0.7454828E-04  0.1502853E+04  0.7818609E-02  0.8882558E-01
        2   -1    0    0  501    0  0.00000000000E+00  0.00000000000E+00  0.64926397800E+03  0.64926397801E+03  0.25500000920E-02 0. -1.
       -2   -1    0    0    0  501  0.00000000000E+00  0.00000000000E+00 -0.86966463079E+03  0.86966463079E+03  0.25500000920E-02 0.  1.
    10030    2    1    2    0    0  0.00000000000E+00  0.00000000000E+00 -0.22040065279E+03  0.15189286088E+04  0.15028531768E+04 0.  0.
        3    1    3    3  502    0 -0.25112731776E+03  0.66049116749E+03  0.14812786547E+03  0.72198018448E+03  0.10100000352E+00 0. -1.
       -3    1    3    3    0  502  0.25112731776E+03 -0.66049116749E+03 -0.36852851826E+03  0.79694842432E+03  0.10100000352E+00 0.  1.
</event>
<event>
 5   0  0.7634227E-04  0.1495295E+04  0.7818609E-02  0.8887588E-01
       -2   -1    0    0    0  501  0.00000000000E+00  0.00000000000E+00  0.96434852336E+03  0.96434852337E+03  0.25500000920E-02 0. -1.
        2   -1    0    0  501    0  0.00000000000E+00  0.00000000000E+00 -0.57964195107E+03  0.57964195107E+03  0.25500000920E-02 0.  1.
    10030    2    1    2    0    0  0.00000000000E+00  0.00000000000E+00  0.38470657230E+03  0.15439904744E+04  0.14952951008E+04 0.  0.
        2    1    3    3  502    0  0.32152246428E+03  0.28722225967E+03 -0.43836059597E+03  0.61484415390E+03  0.25500000920E-02 0.  1.
       -2    1    3    3    0  502 -0.32152246428E+03 -0.28722225967E+03  0.82306716827E+03  0.92914632054E+03  0.25500000920E-02 0. -1.
</event>
<event>
 5   0  0.3907345E-04  0.1479306E+04  0.7818609E-02  0.8898332E-01
        1   -1    0    0  501    0  0.00000000000E+00  0.00000000000E+00  0.30350091152E+03  0.30350091156E+03  0.50400001928E-02 0. -1.
       -1   -1    0    0    0  501  0.00000000000E+00  0.00000000000E+00 -0.18025856307E+04  0.18025856307E+04  0.50400001928E-02 0.  1.
    10030    2    1    2    0    0  0.00000000000E+00  0.00000000000E+00 -0.14990847191E+04  0.21060865422E+04  0.14793057589E+04 0.  0.
        5    1    3    3  502    0 -0.72648481627E+03 -0.11132587496E+03 -0.63136114031E+03  0.96892343258E+03  0.46999998093E+01 0.  1.
       -5    1    3    3    0  502  0.72648481627E+03  0.11132587496E+03 -0.86772357883E+03  0.11371631097E+04  0.46999998093E+01 0. -1.
</event>
<event>
 5   0  0.7547580E-04  0.1494880E+04  0.7818609E-02  0.8887864E-01
        2   -1    0    0  501    0  0.00000000000E+00  0.00000000000E+00  0.53121879168E+03  0.53121879169E+03  0.25500000920E-02 0.  1.
       -2   -1    0    0    0  501  0.00000000000E+00  0.00000000000E+00 -0.10516700974E+04  0.10516700974E+04  0.25500000920E-02 0. -1.
    10030    2    1    2    0    0  0.00000000000E+00  0.00000000000E+00 -0.52045130572E+03  0.15828888891E+04  0.14948804881E+04 0.  0.
        4    1    3    3  502    0  0.32628277009E+03 -0.13531168728E+03 -0.95771340168E+03  0.10207772879E+04  0.12699999809E+01 0. -1.
       -4    1    3    3    0  502 -0.32628277009E+03  0.13531168728E+03  0.43726209596E+03  0.56211160123E+03  0.12699999809E+01 0.  1.
</event>
<event>
 5   0  0.4086710E-04  0.1499471E+04  0.7818609E-02  0.8884805E-01
        1   -1    0    0  501    0  0.00000000000E+00  0.00000000000E+00  0.18314582139E+04  0.18314582139E+04  0.50400001928E-02 0.  1.
       -1   -1    0    0    0  501  0.00000000000E+00  0.00000000000E+00 -0.30691579428E+03  0.30691579432E+03  0.50400001928E-02 0. -1.
    10030    2    1    2    0    0  0.00000000000E+00  0.00000000000E+00  0.15245424196E+04  0.21383740082E+04  0.14994711767E+04 0.  0.
        3    1    3    3  502    0 -0.50172649416E+03 -0.54593106810E+03  0.92064527687E+03  0.11820989561E+04  0.10100000352E+00 0. -1.
       -3    1    3    3    0  502  0.50172649416E+03  0.54593106810E+03  0.60389714277E+03  0.95627505212E+03  0.10100000352E+00 0.  1.
</event>
<event>
 5   0  0.4084462E-04  0.1517846E+04  0.7818609E-02  0.8872672E-01
       -1   -1    0    0    0  501  0.00000000000E+00  0.00000000000E+00  0.94483775654E+03  0.94483775655E+03  0.50400001928E-02 0.  1.
        1   -1    0    0  501    0  0.00000000000E+00  0.00000000000E+00 -0.60959009869E+03  0.60959009871E+03  0.50400001928E-02 0. -1.
    10030    2    1    2    0    0  0.00000000000E+00  0.00000000000E+00  0.33524765784E+03  0.15544278553E+04  0.15178455011E+04 0.  0.
        1    1    3    3  502    0 -0.47382840385E+03  0.58630999778E+03  0.77811987190E+02  0.75784396493E+03  0.50400001928E-02 0.  1.
       -1    1    3    3    0  502  0.47382840385E+03 -0.58630999778E+03  0.25743567065E+03  0.79658389034E+03  0.50400001928E-02 0. -1.
</event>
<event>
 5   0  0.7454828E-04  0.1485512E+04  0.7818609E-02  0.8894145E-01
       -2   -1    0    0    0  501  0.00000000000E+00  0.00000000000E+00  0.25316587248E+03  0.25316587249E+03  0.25500000920E-02 0. -1.
        2   -1    0    0  501    0  0.00000000000E+00  0.00000000000E+00 -0.21791488964E+04  0.21791488964E+04  0.25500000920E-02 0.  1.
    10030    2    1    2    0    0  0.00000000000E+00  0.00000000000E+00 -0.19259830240E+04  0.24323147689E+04  0.14855115370E+04 0.  0.
        3    1    3    3  502    0  0.10221663370E+02 -0.36963993342E+03  0.91736703120E+02  0.38099054540E+03  0.10100000352E+00 0.  1.
       -3    1    3    3    0  502 -0.10221663370E+02  0.36963993342E+03 -0.20177197271E+04  0.20513242235E+04  0.10100000352E+00 0. -1.
</event>
<event>
 5   0  0.2800375E-04  0.1493918E+04  0.7818609E-02  0.8888508E-01
        3   -1    0    0  501    0  0.00000000000E+00  0.00000000000E+00  0.13336636865E+04  0.13336636904E+04  0.10100000352E+00 0. -1.
       -3   -1    0    0    0  501  0.00000000000E+00  0.00000000000E+00 -0.41835705285E+03  0.41835706504E+03  0.10100000352E+00 0.  1.
    10030    2    1    2    0    0  0.00000000000E+00  0.00000000000E+00  0.91530663368E+03  0.17520207554E+04  0.14939178337E+04 0.  0.
        4    1    3    3  502    0  0.23479273604E+03 -0.25552872108E+03  0.12333879919E+04  0.12812767490E+04  0.12699999809E+01 0. -1.
       -4    1    3    3    0  502 -0.23479273604E+03  0.25552872108E+03 -0.31808135821E+03  0.47074400636E+03  0.12699999809E+01 0.  1.
</event>
<event>
 5   0  0.4086710E-04  0.1501695E+04  0.7818609E-02  0.8883326E-01
        1   -1    0    0  501    0  0.00000000000E+00  0.00000000000E+00  0.61892228618E+03  0.61892228620E+03  0.50400001928E-02 0.  1.
       -1   -1    0    0    0  501  0.00000000000E+00  0.00000000000E+00 -0.91089327806E+03  0.91089327807E+03  0.50400001928E-02 0. -1.
    10030    2    1    2    0    0  0.00000000000E+00  0.00000000000E+00 -0.29197099188E+03  0.15298155643E+04  0.15016952422E+04 0.  0.
        3    1    3    3  502    0  0.54689260887E+03 -0.34472779449E+03 -0.53503118192E+03  0.83915859869E+03  0.10100000352E+00 0. -1.
       -3    1    3    3    0  502 -0.54689260887E+03  0.34472779449E+03  0.24306019004E+03  0.69065696558E+03  0.10100000352E+00 0.  1.
</event>
<event>
 5   0  0.4058874E-04  0.1501383E+04  0.7818609E-02  0.8883534E-01
        1   -1    0    0  501    0  0.00000000000E+00  0.00000000000E+00  0.13750675987E+04  0.13750675987E+04  0.50400001928E-02 0.  1.
       -1   -1    0    0    0  501  0.00000000000E+00  0.00000000000E+00 -0.40982567133E+03  0.40982567136E+03  0.50400001928E-02 0. -1.
    10030    2    1    2    0    0  0.00000000000E+00  0.00000000000E+00  0.96524192736E+03  0.17848932701E+04  0.15013833645E+04 0.  0.
        4    1    3    3  502    0 -0.71429836074E+03 -0.19066580268E+03  0.32779502488E+03  0.80871922674E+03  0.12699999809E+01 0. -1.
       -4    1    3    3    0  502  0.71429836074E+03  0.19066580268E+03  0.63744690248E+03  0.97617404332E+03  0.12699999809E+01 0.  1.
</event>
<event>
 5   0  0.3907345E-04  0.1501961E+04  0.7818609E-02  0.8883150E-01
       -1   -1    0    0    0  501  0.00000000000E+00  0.00000000000E+00  0.36731009035E+03  0.36731009038E+03  0.50400001928E-02 0.  1.
        1   -1    0    0  501    0  0.00000000000E+00  0.00000000000E+00 -0.15354094448E+04  0.15354094448E+04  0.50400001928E-02 0. -1.
    10030    2    1    2    0    0  0.00000000000E+00  0.00000000000E+00 -0.11680993545E+04  0.19027195352E+04  0.15019605613E+04 0.  0.
        5    1    3    3  502    0 -0.61689371150E+03 -0.10794202533E+03 -0.11090407597E+04  0.12736572651E+04  0.46999998093E+01 0. -1.
       -5    1    3    3    0  502  0.61689371150E+03  0.10794202533E+03 -0.59058594765E+02  0.62906227016E+03  0.46999998093E+01 0.  1.
</event>
<event>
 5   0  0.4058874E-04  0.1584377E+04  0.7818609E-02  0.8830204E-01
       -1   -1    0    0    0  501  0.00000000000E+00  0.00000000000E+00  0.78333169232E+03  0.78333169234E+03  0.50400001928E-02 0. -1.
        1   -1    0    0  501    0  0.00000000000E+00  0.00000000000E+00 -0.80114503259E+03  0.80114503260E+03  0.50400001928E-02 0.  1.
    10030    2    1    2    0    0  0.00000000000E+00  0.00000000000E+00 -0.17813340265E+02  0.15844767249E+04  0.15843765893E+04 0.  0.
        4    1    3    3  502    0 -0.31808510968E+03 -0.31801120680E+03  0.64324758443E+03  0.78490657560E+03  0.12699999809E+01 0. -1.
       -4    1    3    3    0  502  0.31808510968E+03  0.31801120680E+03 -0.66106092470E+03  0.79957014934E+03  0.12699999809E+01 0.  1.
</event>
<event>
 5   0  0.7454828E-04  0.1491161E+04  0.7818609E-02  0.8890352E-01
       -2   -1    0    0    0  501  0.00000000000E+00  0.00000000000E+00  0.58893078286E+03  0.58893078286E+03  0.25500000920E-02 0. -1.
        2   -1    0    0  501    0  0.00000000000E+00  0.00000000000E+00 -0.94389771899E+03  0.94389771899E+03  0.25500000920E-02 0.  1.
    10030    2    1    2    0    0  0.00000000000E+00  0.00000000000E+00 -0.35496693613E+03  0.15328285019E+04  0.14911611886E+04 0.  0.
        3    1    3    3  502    0 -0.51756726464E+03  0.18126879084E+03  0.34176115534E+03  0.64616944021E+03  0.10100000352E+00 0. -1.
       -3    1    3    3    0  502  0.51756726464E+03 -0.18126879084E+03 -0.69672809147E+03  0.88665906165E+03  0.10100000352E+00 0.  1.
</event>
<event>
 5   0  0.4084462E-04  0.1478443E+04  0.7818609E-02  0.8898916E-01
        1   -1    0    0  501    0  0.00000000000E+00  0.00000000000E+00  0.15204676657E+04  0.15204676657E+04  0.50400001928E-02 0.  1.
       -1   -1    0    0    0  501  0.00000000000E+00  0.00000000000E+00 -0.35939480517E+03  0.35939480520E+03  0.50400001928E-02 0. -1.
    10030    2    1    2    0    0  0.00000000000E+00  0.00000000000E+00  0.11610728605E+04  0.18798624709E+04  0.14784426678E+04 0.  0.
        1    1    3    3  502    0 -0.41908434941E+03  0.46375282235E+02 -0.19150041692E+03  0.46309261323E+03  0.50400001928E-02 0. -1.
       -1    1    3    3    0  502  0.41908434941E+03 -0.46375282235E+02  0.13525732774E+04  0.14167698576E+04  0.50400001928E-02 0.  1.
</event>
<event>
 5   0  0.7454828E-04  0.1467121E+04  0.7818609E-02  0.8906616E-01
        2   -1    0    0  501    0  0.00000000000E+00  0.00000000000E+00  0.14160714250E+04  0.14160714250E+04  0.25500000920E-02 0. -1.
       -2   -1    0    0    0  501  0.00000000000E+00  0.00000000000E+00 -0.38000265373E+03  0.38000265373E+03  0.25500000920E-02 0.  1.
    10030    2    1    2    0    0  0.00000000000E+00  0.00000000000E+00  0.10360687712E+04  0.17960740787E+04  0.14671208531E+04 0.  0.
        3    1    3    3  502    0 -0.72166617228E+03  0.12701095135E+03  0.56003489455E+03  0.92226511335E+03  0.10100000352E+00 0. -1.
       -3    1    3    3    0  502  0.72166617228E+03 -0.12701095135E+03  0.47603387669E+03  0.87380896536E+03  0.10100000352E+00 0.  1.
</event>
<event>
 5   0  0.7547580E-04  0.1513927E+04  0.7818609E-02  0.8875244E-01
       -2   -1    0    0    0  501  0.00000000000E+00  0.00000000000E+00  0.64451253439E+03  0.64451253440E+03  0.25500000920E-02 0. -1.
        2   -1    0    0  501    0  0.00000000000E+00  0.00000000000E+00 -0.88903404654E+03  0.88903404654E+03  0.25500000920E-02 0.  1.
    10030    2    1    2    0    0  0.00000000000E+00  0.00000000000E+00 -0.24452151215E+03  0.15335465809E+04  0.15139267968E+04 0.  0.
        4    1    3    3  502    0  0.19371562599E+03 -0.30748590539E+02  0.61832334120E+03  0.64868835873E+03  0.12699999809E+01 0. -1.
       -4    1    3    3    0  502 -0.19371562599E+03  0.30748590539E+02 -0.86284485334E+03  0.88485822221E+03  0.12699999809E+01 0.  1.
</event>
<event>
 5   0  0.4058874E-04  0.1483275E+04  0.7818609E-02  0.8895651E-01
       -1   -1    0    0    0  501  0.00000000000E+00  0.00000000000E+00  0.58473963654E+03  0.58473963656E+03  0.50400001928E-02 0.  1.
        1   -1    0    0  501    0  0.00000000000E+00  0.00000000000E+00 -0.94063465040E+03  0.94063465042E+03  0.50400001928E-02 0. -1.
    10030    2    1    2    0    0  0.00000000000E+00  0.00000000000E+00 -0.35589501386E+03  0.15253742870E+04  0.14832752457E+04 0.  0.
        4    1    3    3  502    0  0.68326797335E+03 -0.21451679531E+03  0.20272175428E+02  0.71643921785E+03  0.12699999809E+01 0.  1.
       -4    1    3    3    0  502 -0.68326797335E+03  0.21451679531E+03 -0.37616718929E+03  0.80893506913E+03  0.12699999809E+01 0. -1.
</event>
<event>
 5   0  0.4084462E-04  0.1461764E+04  0.7818609E-02  0.8910285E-01
       -1   -1    0    0    0  501  0.00000000000E+00  0.00000000000E+00  0.76477021633E+03  0.76477021635E+03  0.50400001928E-02 0. -1.
        1   -1    0    0  501    0  0.00000000000E+00  0.00000000000E+00 -0.69849531681E+03  0.69849531683E+03  0.50400001928E-02 0.  1.
    10030    2    1    2    0    0  0.00000000000E+00  0.00000000000E+00  0.66274899518E+02  0.14632655332E+04  0.14617638859E+04 0.  0.
        1    1    3    3  502    0 -0.67538909063E+03 -0.19464157121E+03  0.23372455879E+03  0.74071785073E+03  0.50400001928E-02 0. -1.
       -1    1    3    3    0  502  0.67538909063E+03  0.19464157121E+03 -0.16744965927E+03  0.72254768244E+03  0.50400001928E-02 0.  1.
</event>
<event>
 5   0  0.7634227E-04  0.1495802E+04  0.7818609E-02  0.8887249E-01
        2   -1    0    0  501    0  0.00000000000E+00  0.00000000000E+00  0.63147105547E+03  0.63147105547E+03  0.25500000920E-02 0. -1.
       -2   -1    0    0    0  501  0.00000000000E+00  0.00000000000E+00 -0.88579802149E+03  0.88579802149E+03  0.25500000920E-02 0.  1.
    10030    2    1    2    0    0  0.00000000000E+00  0.00000000000E+00 -0.25432696602E+03  0.15172690770E+04  0.14958018740E+04 0.  0.
        2    1    3    3  502    0 -0.31618733276E+03  0.15810974860E+02  0.56015342711E+03  0.64342542554E+03  0.25500000920E-02 0. -1.
       -2    1    3    3    0  502  0.31618733276E+03 -0.15810974860E+02 -0.81448039313E+03  0.87384365142E+03  0.25500000920E-02 0.  1.
</event>
<event>
 5   0  0.7454828E-04  0.1489128E+04  0.7818609E-02  0.8891715E-01
        2   -1    0    0  501    0  0.00000000000E+00  0.00000000000E+00  0.41739615470E+03  0.41739615470E+03  0.25500000920E-02 0. -1.
       -2   -1    0    0    0  501  0.00000000000E+00  0.00000000000E+00 -0.13281762163E+04  0.13281762163E+04  0.25500000920E-02 0.  1.
    10030    2    1    2    0    0  0.00000000000E+00  0.00000000000E+00 -0.91078006156E+03  0.17455723710E+04  0.14891281280E+04 0.  0.
        3    1    3    3  502    0 -0.60014177038E+03 -0.10576192248E+03 -0.95687157750E+03  0.11344421338E+04  0.10100000352E+00 0.  1.
       -3    1    3    3    0  502  0.60014177038E+03  0.10576192248E+03  0.46091515938E+02  0.61113023722E+03  0.10100000352E+00 0. -1.
</event>
<event>
 5   0  0.4058874E-04  0.1503967E+04  0.7818609E-02  0.8881819E-01
        1   -1    0    0  501    0  0.00000000000E+00  0.00000000000E+00  0.99204653789E+03  0.99204653790E+03  0.50400001928E-02 0. -1.
       -1   -1    0    0    0  501  0.00000000000E+00  0.00000000000E+00 -0.57001242619E+03  0.57001242621E+03  0.50400001928E-02 0.  1.
    10030    2    1    2    0    0  0.00000000000E+00  0.00000000000E+00  0.42203411170E+03  0.15620589641E+04  0.15039665608E+04 0.  0.
        4    1    3    3  502    0  0.56678753045E+03  0.45917201767E+03  0.40080504231E+03  0.83230603827E+03  0.12699999809E+01 0. -1.
       -4    1    3    3    0  502 -0.56678753045E+03 -0.45917201767E+03  0.21229069384E+02  0.72975292584E+03  0.12699999809E+01 0.  1.
</event>
<event>
 5   0  0.4015204E-04  0.1485953E+04  0.7818609E-02  0.8893848E-01
        1   -1    0    0  501    0  0.00000000000E+00  0.00000000000E+00  0.12684140231E+04  0.12684140231E+04  0.50400001928E-02 0.  1.
       -1   -1    0    0    0  501  0.00000000000E+00  0.00000000000E+00 -0.43520015573E+03  0.43520015576E+03  0.50400001928E-02 0. -1.
    10030    2    1    2    0    0  0.00000000000E+00  0.00000000000E+00  0.83321386738E+03  0.17036141789E+04  0.14859528666E+04 0.  0.
        2    1    3    3  502    0  0.71021235997E+03  0.96824752909E+02  0.64079377237E+03  0.96145373666E+03  0.25500000920E-02 0. -1.
       -2    1    3    3    0  502 -0.71021235997E+03 -0.96824752909E+02  0.19242009501E+03  0.74216044222E+03  0.25500000920E-02 0.  1.
</event>
<event>
 5   0  0.4084462E-04  0.1517948E+04  0.7818609E-02  0.8872605E-01
       -1   -1    0    0    0  501  0.00000000000E+00  0.00000000000E+00  0.60355442762E+03  0.60355442765E+03  0.50400001928E-02 0.  1.
        1   -1    0    0  501    0  0.00000000000E+00  0.00000000000E+00 -0.95441517085E+03  0.95441517086E+03  0.50400001928E-02 0. -1.
    10030    2    1    2    0    0  0.00000000000E+00  0.00000000000E+00 -0.35086074322E+03  0.15579695985E+04  0.15179479598E+04 0.  0.
        1    1    3    3  502    0  0.25491978079E+03 -0.57150990637E+03 -0.61621089245E+03  0.87825026713E+03  0.50400001928E-02 0. -1.
       -1    1    3    3    0  502 -0.25491978079E+03  0.57150990637E+03  0.26535014923E+03  0.67971933137E+03  0.50400001928E-02 0.  1.
</event>
<event>
 5   0  0.7634227E-04  0.1485667E+04  0.7818609E-02  0.8894041E-01
        2   -1    0    0  501    0  0.00000000000E+00  0.00000000000E+00  0.58359266453E+03  0.58359266454E+03  0.25500000920E-02 0. -1.
       -2   -1    0    0    0  501  0.00000000000E+00  0.00000000000E+00 -0.94552504083E+03  0.94552504084E+03  0.25500000920E-02 0.  1.
    10030    2    1    2    0    0  0.00000000000E+00  0.00000000000E+00 -0.36193237630E+03  0.15291177054E+04  0.14856668240E+04 0.  0.
        2    1    3    3  502    0  0.63922766589E+03 -0.24015287655E+03 -0.48195014410E+03  0.83579982912E+03  0.25500000920E-02 0.  1.
       -2    1    3    3    0  502 -0.63922766589E+03  0.24015287655E+03  0.12001776780E+03  0.69331787626E+03  0.25500000920E-02 0. -1.
</event>
<event>
 5   0  0.3907345E-04  0.1496939E+04  0.7818609E-02  0.8886491E-01
       -1   -1    0    0    0  501  0.00000000000E+00  0.00000000000E+00  0.97190620815E+03  0.97190620816E+03  0.50400001928E-02 0.  1.
        1   -1    0    0  501    0  0.00000000000E+00  0.00000000000E+00 -0.57639985252E+03  0.57639985255E+03  0.50400001928E-02 0. -1.
    10030    2    1    2    0    0  0.00000000000E+00  0.00000000000E+00  0.39550635563E+03  0.15483060607E+04  0.14969390035E+04 0.  0.
        5    1    3    3  502    0  0.69258632375E+03 -0.12552936694E+03 -0.65440937659E+02  0.70692152615E+03  0.46999998093E+01 0. -1.
       -5    1    3    3    0  502 -0.69258632375E+03  0.12552936694E+03  0.46094729329E+03  0.84138453456E+03  0.46999998093E+01 0.  1.
</event>
<event>
 5   0  0.4086710E-04  0.1362024E+04  0.7818609E-02  0.8981776E-01
       -1   -1    0    0    0  501  0.00000000000E+00  0.00000000000E+00  0.53904190330E+03  0.53904190332E+03  0.50400001928E-02 0. -1.
        1   -1    0    0  501    0  0.00000000000E+00  0.00000000000E+00 -0.86037360137E+03  0.86037360138E+03  0.50400001928E-02 0.  1.
    10030    2    1    2    0    0  0.00000000000E+00  0.00000000000E+00 -0.32133169807E+03  0.13994155047E+04  0.13620241168E+04 0.  0.
        3    1    3    3  502    0 -0.14221234740E+03  0.62537403916E+03  0.74664300226E+02  0.64567159496E+03  0.10100000352E+00 0. -1.
       -3    1    3    3    0  502  0.14221234740E+03 -0.62537403916E+03 -0.39599599829E+03  0.75374390974E+03  0.10100000352E+00 0.  1.
</event>
<event>
 5   0  0.7454828E-04  0.1589454E+04  0.7818609E-02  0.8827053E-01
       -2   -1    0    0    0  501  0.00000000000E+00  0.00000000000E+00  0.97740237465E+03  0.97740237465E+03  0.25500000920E-02 0. -1.
        2   -1    0    0  501    0  0.00000000000E+00  0.00000000000E+00 -0.64619368355E+03  0.64619368356E+03  0.25500000920E-02 0.  1.
    10030    2    1    2    0    0  0.00000000000E+00  0.00000000000E+00  0.33120869109E+03  0.16235960582E+04  0.15894542973E+04 0.  0.
        3    1    3    3  502    0  0.24897281088E+03 -0.32944932607E+03 -0.52800018546E+03  0.67030480011E+03  0.10100000352E+00 0.  1.
       -3    1    3    3    0  502 -0.24897281088E+03  0.32944932607E+03  0.85920887655E+03  0.95329125809E+03  0.10100000352E+00 0. -1.
</event>
<event>
 5   0  0.7454828E-04  0.1503221E+04  0.7818609E-02  0.8882314E-01
       -2   -1    0    0    0  501  0.00000000000E+00  0.00000000000E+00  0.63764275888E+03  0.63764275889E+03  0.25500000920E-02 0. -1.
        2   -1    0    0  501    0  0.00000000000E+00  0.00000000000E+00 -0.88594857614E+03  0.88594857615E+03  0.25500000920E-02 0.  1.
    10030    2    1    2    0    0  0.00000000000E+00  0.00000000000E+00 -0.24830581726E+03  0.15235913350E+04  0.15032214665E+04 0.  0.
        3    1    3    3  502    0 -0.17044938298E+03 -0.38648261990E+03 -0.75426602409E+03  0.86448774019E+03  0.10100000352E+00 0.  1.
       -3    1    3    3    0  502  0.17044938298E+03  0.38648261990E+03  0.50596020683E+03  0.65910359484E+03  0.10100000352E+00 0. -1.
</event>
<event>
 5   0  0.4084462E-04  0.1507076E+04  0.7818609E-02  0.8879761E-01
       -1   -1    0    0    0  501  0.00000000000E+00  0.00000000000E+00  0.95827847398E+03  0.95827847399E+03  0.50400001928E-02 0.  1.
        1   -1    0    0  501    0  0.00000000000E+00  0.00000000000E+00 -0.59254162543E+03  0.59254162546E+03  0.50400001928E-02 0. -1.
    10030    2    1    2    0    0  0.00000000000E+00  0.00000000000E+00  0.36573684854E+03  0.15508200994E+04  0.15070764873E+04 0.  0.
        1    1    3    3  502    0  0.63326740148E+02  0.63110128051E+03 -0.23578282547E+03  0.67667765080E+03  0.50400001928E-02 0.  1.
       -1    1    3    3    0  502 -0.63326740148E+02 -0.63110128051E+03  0.60151967402E+03  0.87414244865E+03  0.50400001928E-02 0. -1.
</event>
<event>
 5   0  0.7359897E-04  0.1567658E+04  0.7818609E-02  0.8840667E-01
        2   -1    0    0  501    0  0.00000000000E+00  0.00000000000E+00  0.24200335053E+04  0.24200335053E+04  0.25500000920E-02 0. -1.
       -2   -1    0    0    0  501  0.00000000000E+00  0.00000000000E+00 -0.25387569709E+03  0.25387569711E+03  0.25500000920E-02 0.  1.
    10030    2    1    2    0    0  0.00000000000E+00  0.00000000000E+00  0.21661578082E+04  0.26739092024E+04  0.15676577345E+04 0.  0.
        1    1    3    3  502    0 -0.15913637563E+03 -0.76219083030E+03  0.12368586540E+04  0.14615329548E+04  0.50400001928E-02 0. -1.
       -1    1    3    3    0  502  0.15913637563E+03  0.76219083030E+03  0.92929915418E+03  0.12123762476E+04  0.50400001928E-02 0.  1.
</event>
<event>
 5   0  0.4015204E-04  0.1512979E+04  0.7818609E-02  0.8875868E-01
        1   -1    0    0  501    0  0.00000000000E+00  0.00000000000E+00  0.75446058473E+03  0.75446058475E+03  0.50400001928E-02 0.  1.
       -1   -1    0    0    0  501  0.00000000000E+00  0.00000000000E+00 -0.75852387998E+03  0.75852387999E+03  0.50400001928E-02 0. -1.
    10030    2    1    2    0    0  0.00000000000E+00  0.00000000000E+00 -0.40632952447E+01  0.15129844647E+04  0.15129790085E+04 0.  0.
        2    1    3    3  502    0 -0.53191207843E+02  0.48262128683E+03 -0.58214041859E+03  0.75805018175E+03  0.25500000920E-02 0. -1.
       -2    1    3    3    0  502  0.53191207843E+02 -0.48262128683E+03  0.57807712334E+03  0.75493428299E+03  0.25500000920E-02 0.  1.
</event>
<event>
 5   0  0.4084462E-04  0.1501065E+04  0.7818609E-02  0.8883745E-01
       -1   -1    0    0    0  501  0.00000000000E+00  0.00000000000E+00  0.47374963585E+03  0.47374963588E+03  0.50400001928E-02 0. -1.
        1   -1    0    0  501    0  0.00000000000E+00  0.00000000000E+00 -0.11890226862E+04  0.11890226862E+04  0.50400001928E-02 0.  1.
    10030    2    1    2    0    0  0.00000000000E+00  0.00000000000E+00 -0.71527305034E+03  0.16627723221E+04  0.15010650414E+04 0.  0.
        1    1    3    3  502    0  0.27217083840E+03 -0.18276828625E+03 -0.11055113973E+04  0.11530987214E+04  0.50400001928E-02 0.  1.
       -1    1    3    3    0  502 -0.27217083840E+03  0.18276828625E+03  0.39023834697E+03  0.50967360065E+03  0.50400001928E-02 0. -1.
</event>
<event>
 5   0  0.2800375E-04  0.1429837E+04  0.7818609E-02  0.8932500E-01
       -4   -1    0    0    0  501  0.00000000000E+00  0.00000000000E+00  0.10398223105E+04  0.10398230861E+04  0.12699999809E+01 0.  1.
        4   -1    0    0  501    0  0.00000000000E+00  0.00000000000E+00 -0.49153258588E+03  0.49153422656E+03  0.12699999809E+01 0. -1.
    10030    2    1    2    0    0  0.00000000000E+00  0.00000000000E+00  0.54828972467E+03  0.15313573127E+04  0.14298369127E+04 0.  0.
        1    1    3    3  502    0 -0.32181392486E+03 -0.43949154376E+03  0.77004438693E+03  0.94323134868E+03  0.50400001928E-02 0.  1.
       -1    1    3    3    0  502  0.32181392486E+03  0.43949154376E+03 -0.22175466226E+03  0.58812596400E+03  0.50400001928E-02 0. -1.
</event>
<event>
 5   0  0.7359897E-04  0.1502806E+04  0.7818609E-02  0.8882589E-01
        2   -1    0    0  501    0  0.00000000000E+00  0.00000000000E+00  0.53875011904E+03  0.53875011905E+03  0.25500000920E-02 0.  1.
       -2   -1    0    0    0  501  0.00000000000E+00  0.00000000000E+00 -0.10479939096E+04  0.10479939096E+04  0.25500000920E-02 0. -1.
    10030    2    1    2    0    0  0.00000000000E+00  0.00000000000E+00 -0.50924379056E+03  0.15867440286E+04  0.15028064993E+04 0.  0.
        1    1    3    3  502    0  0.31982091329E+03 -0.67865242670E+03 -0.29882058173E+03  0.80755697814E+03  0.50400001928E-02 0. -1.
       -1    1    3    3    0  502 -0.31982091329E+03  0.67865242670E+03 -0.21042320883E+03  0.77918705051E+03  0.50400001928E-02 0.  1.
</event>
<event>
 5   0  0.4015204E-04  0.1467440E+04  0.7818609E-02  0.8906398E-01
        1   -1    0    0  501    0  0.00000000000E+00  0.00000000000E+00  0.90459744104E+03  0.90459744106E+03  0.50400001928E-02 0.  1.
       -1   -1    0    0    0  501  0.00000000000E+00  0.00000000000E+00 -0.59512102452E+03  0.59512102454E+03  0.50400001928E-02 0. -1.
    10030    2    1    2    0    0  0.00000000000E+00  0.00000000000E+00  0.30947641652E+03  0.14997184656E+04  0.14674398876E+04 0.  0.
        2    1    3    3  502    0  0.73217422657E+03 -0.33125814564E+02  0.18967402407E+03  0.75706845995E+03  0.25500000920E-02 0.  1.
       -2    1    3    3    0  502 -0.73217422657E+03  0.33125814564E+02  0.11980239245E+03  0.74265000565E+03  0.25500000920E-02 0. -1.
</event>
<event>
 5   0  0.4015204E-04  0.1537443E+04  0.7818609E-02  0.8859929E-01
        1   -1    0    0  501    0  0.00000000000E+00  0.00000000000E+00  0.13697575918E+04  0.13697575918E+04  0.50400001928E-02 0.  1.
       -1   -1    0    0    0  501  0.00000000000E+00  0.00000000000E+00 -0.43141393549E+03  0.43141393552E+03  0.50400001928E-02 0. -1.
    10030    2    1    2    0    0  0.00000000000E+00  0.00000000000E+00  0.93834365627E+03  0.18011715273E+04  0.15374426992E+04 0.  0.
        2    1    3    3  502    0  0.75315955174E+03 -0.76616895673E+02  0.31281194754E+03  0.81912805691E+03  0.25500000920E-02 0.  1.
       -2    1    3    3    0  502 -0.75315955174E+03  0.76616895673E+02  0.62553170873E+03  0.98204347038E+03  0.25500000920E-02 0. -1.
</event>
<event>
 5   0  0.7634227E-04  0.1519007E+04  0.7818609E-02  0.8871911E-01
       -2   -1    0    0    0  501  0.00000000000E+00  0.00000000000E+00  0.44137040876E+03  0.44137040877E+03  0.25500000920E-02 0. -1.
        2   -1    0    0  501    0  0.00000000000E+00  0.00000000000E+00 -0.13069428480E+04  0.13069428480E+04  0.25500000920E-02 0.  1.
    10030    2    1    2    0    0  0.00000000000E+00  0.00000000000E+00 -0.86557243920E+03  0.17483132567E+04  0.15190074378E+04 0.  0.
        2    1    3    3  502    0 -0.69157892221E+03  0.30762677832E+03 -0.36063064046E+03  0.83843312150E+03  0.25500000920E-02 0.  1.
       -2    1    3    3    0  502  0.69157892221E+03 -0.30762677832E+03 -0.50494179875E+03  0.90988013524E+03  0.25500000920E-02 0. -1.
</event>
<event>
 5   0  0.4086710E-04  0.1488635E+04  0.7818609E-02  0.8892046E-01
       -1   -1    0    0    0  501  0.00000000000E+00  0.00000000000E+00  0.11384235524E+04  0.11384235524E+04  0.50400001928E-02 0.  1.
        1   -1    0    0  501    0  0.00000000000E+00  0.00000000000E+00 -0.48664536644E+03  0.48664536646E+03  0.50400001928E-02 0. -1.
    10030    2    1    2    0    0  0.00000000000E+00  0.00000000000E+00  0.65177818594E+03  0.16250689188E+04  0.14886350081E+04 0.  0.
        3    1    3    3  502    0 -0.33832000609E+03 -0.60837634988E+03  0.61352668926E+03  0.92789935782E+03  0.10100000352E+00 0.  1.
       -3    1    3    3    0  502  0.33832000609E+03  0.60837634988E+03  0.38251496682E+02  0.69716956102E+03  0.10100000352E+00 0. -1.
</event>
<event>
 5   0  0.7672251E-04  0.1509515E+04  0.7818609E-02  0.8878150E-01
        2   -1    0    0  501    0  0.00000000000E+00  0.00000000000E+00  0.14055155079E+04  0.14055155079E+04  0.25500000920E-02 0. -1.
       -2   -1    0    0    0  501  0.00000000000E+00  0.00000000000E+00 -0.40530231116E+03  0.40530231117E+03  0.25500000920E-02 0.  1.
    10030    2    1    2    0    0  0.00000000000E+00  0.00000000000E+00  0.10002131968E+04  0.18108178191E+04  0.15095147349E+04 0.  0.
        5    1    3    3  502    0 -0.67879238656E+03 -0.32001996354E+02  0.89406851927E+03  0.11230155115E+04  0.46999998093E+01 0. -1.
       -5    1    3    3    0  502  0.67879238656E+03  0.32001996354E+02  0.10614467749E+03  0.68780230763E+03  0.46999998093E+01 0.  1.
</event>
<event>
 5   0  0.4086710E-04  0.1485364E+04  0.7818609E-02  0.8894245E-01
        1   -1    0    0  501    0  0.00000000000E+00  0.00000000000E+00  0.47853464023E+03  0.47853464025E+03  0.50400001928E-02 0. -1.
       -1   -1    0    0    0  501  0.00000000000E+00  0.00000000000E+00 -0.11526362264E+04  0.11526362264E+04  0.50400001928E-02 0.  1.
    10030    2    1    2    0    0  0.00000000000E+00  0.00000000000E+00 -0.67410158617E+03  0.16311708667E+04  0.14853637426E+04 0.  0.
        3    1    3    3  502    0 -0.43187164929E+03  0.64464265679E+00 -0.10005653212E+04  0.10897910393E+04  0.10100000352E+00 0.  1.
       -3    1    3    3    0  502  0.43187164929E+03 -0.64464265679E+00  0.32646373505E+03  0.54137982741E+03  0.10100000352E+00 0. -1.
</event>
<event>
 5   0  0.7634227E-04  0.1504413E+04  0.7818609E-02  0.8881524E-01
       -2   -1    0    0    0  501  0.00000000000E+00  0.00000000000E+00  0.71136359872E+03  0.71136359872E+03  0.25500000920E-02 0.  1.
        2   -1    0    0  501    0  0.00000000000E+00  0.00000000000E+00 -0.79539447591E+03  0.79539447591E+03  0.25500000920E-02 0. -1.
    10030    2    1    2    0    0  0.00000000000E+00  0.00000000000E+00 -0.84030877187E+02  0.15067580746E+04  0.15044130773E+04 0.  0.
        2    1    3    3  502    0 -0.62810971466E+03  0.19016427991E+03 -0.41018931868E+03  0.77391184522E+03  0.25500000920E-02 0. -1.
       -2    1    3    3    0  502  0.62810971466E+03 -0.19016427991E+03  0.32615844149E+03  0.73284622942E+03  0.25500000920E-02 0.  1.
</event>
<event>
 5   0  0.7634227E-04  0.1495469E+04  0.7818609E-02  0.8887471E-01
       -2   -1    0    0    0  501  0.00000000000E+00  0.00000000000E+00  0.15828357499E+04  0.15828357499E+04  0.25500000920E-02 0.  1.
        2   -1    0    0  501    0  0.00000000000E+00  0.00000000000E+00 -0.35323137141E+03  0.35323137142E+03  0.25500000920E-02 0. -1.
    10030    2    1    2    0    0  0.00000000000E+00  0.00000000000E+00  0.12296043785E+04  0.19360671213E+04  0.14954694817E+04 0.  0.
        2    1    3    3  502    0 -0.63100142057E+03 -0.22005172219E+02  0.96209309335E+02  0.63867303965E+03  0.25500000920E-02 0. -1.
       -2    1    3    3    0  502  0.63100142057E+03  0.22005172219E+02  0.11333950692E+04  0.12973940817E+04  0.25500000920E-02 0.  1.
</event>
<event>
 5   0  0.4084462E-04  0.1490177E+04  0.7818609E-02  0.8891012E-01
        1   -1    0    0  501    0  0.00000000000E+00  0.00000000000E+00  0.12938069548E+04  0.12938069548E+04  0.50400001928E-02 0.  1.
       -1   -1    0    0    0  501  0.00000000000E+00  0.00000000000E+00 -0.42908784026E+03  0.42908784029E+03  0.50400001928E-02 0. -1.
    10030    2    1    2    0    0  0.00000000000E+00  0.00000000000E+00  0.86471911457E+03  0.17228947951E+04  0.14901769452E+04 0.  0.
        1    1    3    3  502    0  0.22480006565E+01 -0.71525835749E+03  0.67365615458E+03  0.98255391002E+03  0.50400001928E-02 0.  1.
       -1    1    3    3    0  502 -0.22480006565E+01  0.71525835749E+03  0.19106295999E+03  0.74034088511E+03  0.50400001928E-02 0. -1.
</event>
<event>
 5   0  0.7454828E-04  0.1515870E+04  0.7818609E-02  0.8873968E-01
        2   -1    0    0  501    0  0.00000000000E+00  0.00000000000E+00  0.12567480504E+04  0.12567480504E+04  0.25500000920E-02 0. -1.
       -2   -1    0    0    0  501  0.00000000000E+00  0.00000000000E+00 -0.45710459071E+03  0.45710459072E+03  0.25500000920E-02 0.  1.
    10030    2    1    2    0    0  0.00000000000E+00  0.00000000000E+00  0.79964345965E+03  0.17138526411E+04  0.15158697875E+04 0.  0.
        3    1    3    3  502    0 -0.45536371977E+03 -0.50153453672E+03  0.15461513390E+02  0.67759285519E+03  0.10100000352E+00 0.  1.
       -3    1    3    3    0  502  0.45536371977E+03  0.50153453672E+03  0.78418194626E+03  0.10362597859E+04  0.10100000352E+00 0. -1.
</event>
<event>
 5   0  0.7634227E-04  0.1497384E+04  0.7818609E-02  0.8886195E-01
       -2   -1    0    0    0  501  0.00000000000E+00  0.00000000000E+00  0.32986543430E+03  0.32986543431E+03  0.25500000920E-02 0. -1.
        2   -1    0    0  501    0  0.00000000000E+00  0.00000000000E+00 -0.16992976440E+04  0.16992976440E+04  0.25500000920E-02 0.  1.
    10030    2    1    2    0    0  0.00000000000E+00  0.00000000000E+00 -0.13694322097E+04  0.20291630783E+04  0.14973837923E+04 0.  0.
        2    1    3    3  502    0 -0.42932879380E+03  0.61019265128E+03 -0.60029116143E+03  0.95760522313E+03  0.25500000920E-02 0.  1.
       -2    1    3    3    0  502  0.42932879380E+03 -0.61019265128E+03 -0.76914104828E+03  0.10715578552E+04  0.25500000920E-02 0. -1.
</event>
<event>
 5   0  0.4086710E-04  0.1571346E+04  0.7818609E-02  0.8838347E-01
        1   -1    0    0  501    0  0.00000000000E+00  0.00000000000E+00  0.13431239625E+04  0.13431239625E+04  0.50400001928E-02 0. -1.
       -1   -1    0    0    0  501  0.00000000000E+00  0.00000000000E+00 -0.45958666550E+03  0.45958666552E+03  0.50400001928E-02 0.  1.
    10030    2    1    2    0    0  0.00000000000E+00  0.00000000000E+00  0.88353729702E+03  0.18027106281E+04  0.15713457459E+04 0.  0.
        3    1    3    3  502    0 -0.51974069329E+03 -0.25192684810E+03 -0.16927458204E+03  0.60187325857E+03  0.10100000352E+00 0.  1.
       -3    1    3    3    0  502  0.51974069329E+03  0.25192684810E+03  0.10528118791E+04  0.12008373695E+04  0.10100000352E+00 0. -1.
</event>
<event>
 5   0  0.4086710E-04  0.1499677E+04  0.7818609E-02  0.8884668E-01
        1   -1    0    0  501    0  0.00000000000E+00  0.00000000000E+00  0.84653675915E+03  0.84653675917E+03  0.50400001928E-02 0.  1.
       -1   -1    0    0    0  501  0.00000000000E+00  0.00000000000E+00 -0.66418607429E+03  0.66418607431E+03  0.50400001928E-02 0. -1.
    10030    2    1    2    0    0  0.00000000000E+00  0.00000000000E+00  0.18235068486E+03  0.15107228335E+04  0.14996772010E+04 0.  0.
        3    1    3    3  502    0 -0.53257100139E+03 -0.52213299569E+03  0.13124483952E+02  0.74594034546E+03  0.10100000352E+00 0.  1.
       -3    1    3    3    0  502  0.53257100139E+03  0.52213299569E+03  0.16922620091E+03  0.76478248802E+03  0.10100000352E+00 0. -1.
</event>
<event>
 5   0  0.4058874E-04  0.1489316E+04  0.7818609E-02  0.8891589E-01
       -1   -1    0    0    0  501  0.00000000000E+00  0.00000000000E+00  0.38317410123E+03  0.38317410127E+03  0.50400001928E-02 0. -1.
        1   -1    0    0  501    0  0.00000000000E+00  0.00000000000E+00 -0.14471629839E+04  0.14471629839E+04  0.50400001928E-02 0.  1.
    10030    2    1    2    0    0  0.00000000000E+00  0.00000000000E+00 -0.10639888827E+04  0.18303370852E+04  0.14893157835E+04 0.  0.
        4    1    3    3  502    0  0.42029175279E+03  0.58573987698E+03 -0.30280592450E+03  0.78193951286E+03  0.12699999809E+01 0. -1.
       -4    1    3    3    0  502 -0.42029175279E+03 -0.58573987698E+03 -0.76118295818E+03  0.10483975723E+04  0.12699999809E+01 0.  1.
</event>
<event>
 5   0  0.7454828E-04  0.1463881E+04  0.7818609E-02  0.8908833E-01
       -2   -1    0    0    0  501  0.00000000000E+00  0.00000000000E+00  0.38815974547E+03  0.38815974548E+03  0.25500000920E-02 0. -1.
        2   -1    0    0  501    0  0.00000000000E+00  0.00000000000E+00 -0.13801977529E+04  0.13801977529E+04  0.25500000920E-02 0.  1.
    10030    2    1    2    0    0  0.00000000000E+00  0.00000000000E+00 -0.99203800739E+03  0.17683574983E+04  0.14638814275E+04 0.  0.
        3    1    3    3  502    0  0.17351045287E+03  0.70385419585E+03 -0.37389467400E+03  0.81566772875E+03  0.10100000352E+00 0.  1.
       -3    1    3    3    0  502 -0.17351045287E+03 -0.70385419585E+03 -0.61814333339E+03  0.95268976959E+03  0.10100000352E+00 0. -1.
</event>
<event>
 5   0  0.7634227E-04  0.1445276E+04  0.7818609E-02  0.8921682E-01
       -2   -1    0    0    0  501  0.00000000000E+00  0.00000000000E+00  0.80048854666E+03  0.80048854666E+03  0.25500000920E-02 0.  1.
        2   -1    0    0  501    0  0.00000000000E+00  0.00000000000E+00 -0.65235831505E+03  0.65235831505E+03  0.25500000920E-02 0. -1.
    10030    2    1    2    0    0  0.00000000000E+00  0.00000000000E+00  0.14813023161E+03  0.14528468617E+04  0.14452755578E+04 0.  0.
        2    1    3    3  502    0  0.38553262133E+03  0.53249671048E+03  0.37566554656E+03  0.75717418845E+03  0.25500000920E-02 0.  1.
       -2    1    3    3    0  502 -0.38553262133E+03 -0.53249671048E+03 -0.22753531494E+03  0.69567267327E+03  0.25500000920E-02 0. -1.
</event>
<event>
 5   0  0.7547580E-04  0.1532810E+04  0.7818609E-02  0.8862923E-01
        2   -1    0    0  501    0  0.00000000000E+00  0.00000000000E+00  0.12623912399E+04  0.12623912400E+04  0.25500000920E-02 0. -1.
       -2   -1    0    0    0  501  0.00000000000E+00  0.00000000000E+00 -0.46528913228E+03  0.46528913229E+03  0.25500000920E-02 0.  1.
    10030    2    1    2    0    0  0.00000000000E+00  0.00000000000E+00  0.79710210767E+03  0.17276803722E+04  0.15328103922E+04 0.  0.
        4    1    3    3  502    0  0.14149094940E+03  0.60481427709E+03  0.90457618802E+03  0.10973056508E+04  0.12699999809E+01 0. -1.
       -4    1    3    3    0  502 -0.14149094940E+03 -0.60481427709E+03 -0.10747408035E+03  0.63037472140E+03  0.12699999809E+01 0.  1.
</event>
<event>
 5   0  0.4015204E-04  0.1507112E+04  0.7818609E-02  0.8879737E-01
        1   -1    0    0  501    0  0.00000000000E+00  0.00000000000E+00  0.18842172005E+04  0.18842172005E+04  0.50400001928E-02 0.  1.
       -1   -1    0    0    0  501  0.00000000000E+00  0.00000000000E+00 -0.30136998823E+03  0.30136998828E+03  0.50400001928E-02 0. -1.
    10030    2    1    2    0    0  0.00000000000E+00  0.00000000000E+00  0.15828472122E+04  0.21855871887E+04  0.15071118281E+04 0.  0.
        2    1    3    3  502    0  0.65160664401E+03  0.33606190019E+03  0.53891815560E+03  0.90992395161E+03  0.25500000920E-02 0. -1.
       -2    1    3    3    0  502 -0.65160664401E+03 -0.33606190019E+03  0.10439290566E+04  0.12756632371E+04  0.25500000920E-02 0.  1.
</event>
<event>
 5   0  0.2800375E-04  0.1498443E+04  0.7818609E-02  0.8885489E-01
       -3   -1    0    0    0  501  0.00000000000E+00  0.00000000000E+00  0.10880327181E+04  0.10880327228E+04  0.10100000352E+00 0. -1.
        3   -1    0    0  501    0  0.00000000000E+00  0.00000000000E+00 -0.51591560635E+03  0.51591561624E+03  0.10100000352E+00 0.  1.
    10030    2    1    2    0    0  0.00000000000E+00  0.00000000000E+00  0.57211711174E+03  0.16039483390E+04  0.14984432871E+04 0.  0.
        1    1    3    3  502    0 -0.39944285399E+03 -0.11513987889E+03  0.95326076311E+03  0.10399605126E+04  0.50400001928E-02 0. -1.
       -1    1    3    3    0  502  0.39944285399E+03  0.11513987889E+03 -0.38114365137E+03  0.56398782639E+03  0.50400001928E-02 0.  1.
</event>
<event>
 5   0  0.7454828E-04  0.1492424E+04  0.7818609E-02  0.8889506E-01
        2   -1    0    0  501    0  0.00000000000E+00  0.00000000000E+00  0.45145368395E+03  0.45145368396E+03  0.25500000920E-02 0.  1.
       -2   -1    0    0    0  501  0.00000000000E+00  0.00000000000E+00 -0.12334209847E+04  0.12334209847E+04  0.25500000920E-02 0. -1.
    10030    2    1    2    0    0  0.00000000000E+00  0.00000000000E+00 -0.78196730078E+03  0.16848746687E+04  0.14924241320E+04 0.  0.
        3    1    3    3  502    0  0.81161911920E+02  0.43267003571E+02  0.44503011490E+03  0.45443492704E+03  0.10100000352E+00 0.  1.
       -3    1    3    3    0  502 -0.81161911920E+02 -0.43267003571E+02 -0.12269974157E+04  0.12304397417E+04  0.10100000352E+00 0. -1.
</event>
<event>
 5   0  0.7634227E-04  0.1502016E+04  0.7818609E-02  0.8883114E-01
       -2   -1    0    0    0  501  0.00000000000E+00  0.00000000000E+00  0.89563519247E+03  0.89563519247E+03  0.25500000920E-02 0. -1.
        2   -1    0    0  501    0  0.00000000000E+00  0.00000000000E+00 -0.62973502446E+03  0.62973502447E+03  0.25500000920E-02 0.  1.
    10030    2    1    2    0    0  0.00000000000E+00  0.00000000000E+00  0.26590016801E+03  0.15253702169E+04  0.15020157787E+04 0.  0.
        2    1    3    3  502    0  0.25552587024E+03  0.92991095699E+02  0.84388644735E+03  0.88661443157E+03  0.25500000920E-02 0. -1.
       -2    1    3    3    0  502 -0.25552587024E+03 -0.92991095699E+02 -0.57798627934E+03  0.63875578537E+03  0.25500000920E-02 0.  1.
</event>
<event>
 5   0  0.4084462E-04  0.1494780E+04  0.7818609E-02  0.8887932E-01
        1   -1    0    0  501    0  0.00000000000E+00  0.00000000000E+00  0.19843911432E+04  0.19843911432E+04  0.50400001928E-02 0. -1.
       -1   -1    0    0    0  501  0.00000000000E+00  0.00000000000E+00 -0.28149264983E+03  0.28149264987E+03  0.50400001928E-02 0.  1.
    10030    2    1    2    0    0  0.00000000000E+00  0.00000000000E+00  0.17028984934E+04  0.22658837931E+04  0.14947796108E+04 0.  0.
        1    1    3    3  502    0  0.29653190303E+03 -0.32700096435E+01  0.18913917818E+04  0.19144985596E+04  0.50400001928E-02 0. -1.
       -1    1    3    3    0  502 -0.29653190303E+03  0.32700096435E+01 -0.18849328844E+03  0.35138523345E+03  0.50400001928E-02 0.  1.
</event>
<event>
 5   0  0.4086710E-04  0.1515457E+04  0.7818609E-02  0.8874239E-01
       -1   -1    0    0    0  501  0.00000000000E+00  0.00000000000E+00  0.14727635179E+04  0.14727635179E+04  0.50400001928E-02 0.  1.
        1   -1    0    0  501    0  0.00000000000E+00  0.00000000000E+00 -0.38984700693E+03  0.38984700696E+03  0.50400001928E-02 0. -1.
    10030    2    1    2    0    0  0.00000000000E+00  0.00000000000E+00  0.10829165110E+04  0.18626105249E+04  0.15154569600E+04 0.  0.
        3    1    3    3  502    0  0.40701125640E+03  0.28339336623E+03 -0.16264465558E+03  0.52194181386E+03  0.10100000352E+00 0. -1.
       -3    1    3    3    0  502 -0.40701125640E+03 -0.28339336623E+03  0.12455611666E+04  0.13406687110E+04  0.10100000352E+00 0.  1.
</event>
<event>
 5   0  0.4058874E-04  0.1499835E+04  0.7818609E-02  0.8884563E-01
        1   -1    0    0  501    0  0.00000000000E+00  0.00000000000E+00  0.12978431434E+04  0.12978431434E+04  0.50400001928E-02 0. -1.
       -1   -1    0    0    0  501  0.00000000000E+00  0.00000000000E+00 -0.43331611062E+03  0.43331611065E+03  0.50400001928E-02 0.  1.
    10030    2    1    2    0    0  0.00000000000E+00  0.00000000000E+00  0.86452703273E+03  0.17311592540E+04  0.14998351151E+04 0.  0.
        4    1    3    3  502    0 -0.19267269046E+03 -0.70954620904E+02  0.12647667786E+04  0.12813250724E+04  0.12699999809E+01 0. -1.
       -4    1    3    3    0  502  0.19267269046E+03  0.70954620904E+02 -0.40023974589E+03  0.44983418163E+03  0.12699999809E+01 0.  1.
</event>
<event>
 5   0  0.2800375E-04  0.1518932E+04  0.7818609E-02  0.8871960E-01
        3   -1    0    0  501    0  0.00000000000E+00  0.00000000000E+00  0.25756013920E+03  0.25756015901E+03  0.10100000352E+00 0. -1.
       -3   -1    0    0    0  501  0.00000000000E+00  0.00000000000E+00 -0.22394328840E+04  0.22394328862E+04  0.10100000352E+00 0.  1.
    10030    2    1    2    0    0  0.00000000000E+00  0.00000000000E+00 -0.19818727447E+04  0.24969930452E+04  0.15189320892E+04 0.  0.
        5    1    3    3  502    0 -0.38342495132E+03 -0.28275013614E+03 -0.19632167399E+04  0.20201990968E+04  0.46999998093E+01 0.  1.
       -5    1    3    3    0  502  0.38342495132E+03  0.28275013614E+03 -0.18656004857E+02  0.47679394847E+03  0.46999998093E+01 0. -1.
</event>
<event>
 5   0  0.4084462E-04  0.1498868E+04  0.7818609E-02  0.8885206E-01
        1   -1    0    0  501    0  0.00000000000E+00  0.00000000000E+00  0.89581354202E+03  0.89581354203E+03  0.50400001928E-02 0.  1.
       -1   -1    0    0    0  501  0.00000000000E+00  0.00000000000E+00 -0.62697375742E+03  0.62697375744E+03  0.50400001928E-02 0. -1.
    10030    2    1    2    0    0  0.00000000000E+00  0.00000000000E+00  0.26883978460E+03  0.15227872995E+04  0.14988683497E+04 0.  0.
        1    1    3    3  502    0  0.57844762545E+03  0.14870709342E+02 -0.34944581532E+03  0.67596980055E+03  0.50400001928E-02 0. -1.
       -1    1    3    3    0  502 -0.57844762545E+03 -0.14870709342E+02  0.61828559992E+03  0.84681749892E+03  0.50400001928E-02 0.  1.
</event>
<event>
 5   0  0.7454828E-04  0.1501445E+04  0.7818609E-02  0.8883493E-01
       -2   -1    0    0    0  501  0.00000000000E+00  0.00000000000E+00  0.11132652961E+04  0.11132652961E+04  0.25500000920E-02 0.  1.
        2   -1    0    0  501    0  0.00000000000E+00  0.00000000000E+00 -0.50624438405E+03  0.50624438406E+03  0.25500000920E-02 0. -1.
    10030    2    1    2    0    0  0.00000000000E+00  0.00000000000E+00  0.60702091209E+03  0.16195096802E+04  0.15014450428E+04 0.  0.
        3    1    3    3  502    0  0.73653253386E+03 -0.10802228809E+03  0.19873680027E+03  0.77048381822E+03  0.10100000352E+00 0. -1.
       -3    1    3    3    0  502 -0.73653253386E+03  0.10802228809E+03  0.40828411182E+03  0.84902586198E+03  0.10100000352E+00 0.  1.
</event>
<event>
 5   0  0.4015204E-04  0.1502841E+04  0.7818609E-02  0.8882566E-01
       -1   -1    0    0    0  501  0.00000000000E+00  0.00000000000E+00  0.78971429143E+03  0.78971429145E+03  0.50400001928E-02 0.  1.
        1   -1    0    0  501    0  0.00000000000E+00  0.00000000000E+00 -0.71498319107E+03  0.71498319109E+03  0.50400001928E-02 0. -1.
    10030    2    1    2    0    0  0.00000000000E+00  0.00000000000E+00  0.74731100360E+02  0.15046974825E+04  0.15028405692E+04 0.  0.
        2    1    3    3  502    0  0.62267340752E+02  0.10016474271E+03 -0.70565802609E+03  0.71544632726E+03  0.25500000920E-02 0. -1.
       -2    1    3    3    0  502 -0.62267340752E+02 -0.10016474271E+03  0.78038912645E+03  0.78925115527E+03  0.25500000920E-02 0.  1.
</event>
<event>
 5   0  0.7359897E-04  0.1503850E+04  0.7818609E-02  0.8881897E-01
       -2   -1    0    0    0  501  0.00000000000E+00  0.00000000000E+00  0.31628834898E+03  0.31628834899E+03  0.25500000920E-02 0. -1.
        2   -1    0    0  501    0  0.00000000000E+00  0.00000000000E+00 -0.17875806933E+04  0.17875806933E+04  0.25500000920E-02 0.  1.
    10030    2    1    2    0    0  0.00000000000E+00  0.00000000000E+00 -0.14712923444E+04  0.21038690423E+04  0.15038496549E+04 0.  0.
        1    1    3    3  502    0  0.41450940549E+02  0.50807179947E+03 -0.15089414241E+04  0.15927207399E+04  0.50400001928E-02 0.  1.
       -1    1    3    3    0  502 -0.41450940549E+02 -0.50807179947E+03  0.37649079698E+02  0.51114830247E+03  0.50400001928E-02 0. -1.
</event>
<event>
 5   0  0.4015204E-04  0.1482448E+04  0.7818609E-02  0.8896210E-01
        1   -1    0    0  501    0  0.00000000000E+00  0.00000000000E+00  0.10547571603E+04  0.10547571604E+04  0.50400001928E-02 0. -1.
       -1   -1    0    0    0  501  0.00000000000E+00  0.00000000000E+00 -0.52089025554E+03  0.52089025557E+03  0.50400001928E-02 0.  1.
    10030    2    1    2    0    0  0.00000000000E+00  0.00000000000E+00  0.53386690480E+03  0.15756474159E+04  0.14824476069E+04 0.  0.
        2    1    3    3  502    0 -0.56444816005E+03  0.18929141212E+03  0.73625928251E+03  0.94684248699E+03  0.25500000920E-02 0. -1.
       -2    1    3    3    0  502  0.56444816005E+03 -0.18929141212E+03 -0.20239237771E+03  0.62880492893E+03  0.25500000920E-02 0.  1.
</event>
<event>
 5   0  0.4086710E-04  0.1512652E+04  0.7818609E-02  0.8876083E-01
        1   -1    0    0  501    0  0.00000000000E+00  0.00000000000E+00  0.13224089292E+04  0.13224089292E+04  0.50400001928E-02 0. -1.
       -1   -1    0    0    0  501  0.00000000000E+00  0.00000000000E+00 -0.43256568921E+03  0.43256568924E+03  0.50400001928E-02 0.  1.
    10030    2    1    2    0    0  0.00000000000E+00  0.00000000000E+00  0.88984324000E+03  0.17549746185E+04  0.15126516187E+04 0.  0.
        3    1    3    3  502    0 -0.19875126563E+03  0.67106515636E+03  0.11229032733E+03  0.70882976622E+03  0.10100000352E+00 0.  1.
       -3    1    3    3    0  502  0.19875126563E+03 -0.67106515636E+03  0.77755291267E+03  0.10461448522E+04  0.10100000352E+00 0. -1.
</event>
<event>
 5   0  0.7359897E-04  0.1517183E+04  0.7818609E-02  0.8873106E-01
        2   -1    0    0  501    0  0.00000000000E+00  0.00000000000E+00  0.22472087626E+04  0.22472087626E+04  0.25500000920E-02 0.  1.
       -2   -1    0    0    0  501  0.00000000000E+00  0.00000000000E+00 -0.25607816681E+03  0.25607816682E+03  0.25500000920E-02 0. -1.
    10030    2    1    2    0    0  0.00000000000E+00  0.00000000000E+00  0.19911305958E+04  0.25032869294E+04  0.15171830481E+04 0.  0.
        1    1    3    3  502    0 -0.47435884329E+03 -0.54801629119E+03  0.13649601912E+04  0.15454625493E+04  0.50400001928E-02 0.  1.
       -1    1    3    3    0  502  0.47435884329E+03  0.54801629119E+03  0.62617040459E+03  0.95782438016E+03  0.50400001928E-02 0. -1.
</event>
<event>
 5   0  0.4058874E-04  0.1528579E+04  0.7818609E-02  0.8865667E-01
       -1   -1    0    0    0  501  0.00000000000E+00  0.00000000000E+00  0.68501655526E+03  0.68501655527E+03  0.50400001928E-02 0.  1.
        1   -1    0    0  501    0  0.00000000000E+00  0.00000000000E+00 -0.85273658833E+03  0.85273658834E+03  0.50400001928E-02 0. -1.
    10030    2    1    2    0    0  0.00000000000E+00  0.00000000000E+00 -0.16772003307E+03  0.15377531436E+04  0.15285793147E+04 0.  0.
        4    1    3    3  502    0 -0.49127894543E+03 -0.36409743657E+03  0.37738386922E+03  0.71856951173E+03  0.12699999809E+01 0.  1.
       -4    1    3    3    0  502  0.49127894543E+03  0.36409743657E+03 -0.54510390229E+03  0.81918363188E+03  0.12699999809E+01 0. -1.
</event>
<event>
 5   0  0.7634227E-04  0.1504485E+04  0.7818609E-02  0.8881476E-01
       -2   -1    0    0    0  501  0.00000000000E+00  0.00000000000E+00  0.24840798828E+03  0.24840798830E+03  0.25500000920E-02 0.  1.
        2   -1    0    0  501    0  0.00000000000E+00  0.00000000000E+00 -0.22779825843E+04  0.22779825843E+04  0.25500000920E-02 0. -1.
    10030    2    1    2    0    0  0.00000000000E+00  0.00000000000E+00 -0.20295745960E+04  0.25263905726E+04  0.15044853886E+04 0.  0.
        2    1    3    3  502    0  0.67105718263E+03 -0.22078698234E+03 -0.58076187145E+03  0.91452117814E+03  0.25500000920E-02 0. -1.
       -2    1    3    3    0  502 -0.67105718263E+03  0.22078698234E+03 -0.14488127246E+04  0.16118693945E+04  0.25500000920E-02 0.  1.
</event>
<event>
 5   0  0.3907345E-04  0.1502841E+04  0.7818609E-02  0.8882566E-01
        1   -1    0    0  501    0  0.00000000000E+00  0.00000000000E+00  0.14880829789E+04  0.14880829790E+04  0.50400001928E-02 0.  1.
       -1   -1    0    0    0  501  0.00000000000E+00  0.00000000000E+00 -0.37943628142E+03  0.37943628145E+03  0.50400001928E-02 0. -1.
    10030    2    1    2    0    0  0.00000000000E+00  0.00000000000E+00  0.11086466975E+04  0.18675192604E+04  0.15028408725E+04 0.  0.
        5    1    3    3  502    0 -0.28417080697E+02 -0.16491610741E+03  0.14646132907E+04  0.14741502753E+04  0.46999998093E+01 0.  1.
       -5    1    3    3    0  502  0.28417080697E+02  0.16491610741E+03 -0.35596659318E+03  0.39336898507E+03  0.46999998093E+01 0. -1.
</event>
<event>
 5   0  0.7454828E-04  0.1453934E+04  0.7818609E-02  0.8915678E-01
       -2   -1    0    0    0  501  0.00000000000E+00  0.00000000000E+00  0.31258982121E+03  0.31258982122E+03  0.25500000920E-02 0.  1.
        2   -1    0    0  501    0  0.00000000000E+00  0.00000000000E+00 -0.16906525560E+04  0.16906525560E+04  0.25500000920E-02 0. -1.
    10030    2    1    2    0    0  0.00000000000E+00  0.00000000000E+00 -0.13780627348E+04  0.20032423773E+04  0.14539336714E+04 0.  0.
        3    1    3    3  502    0 -0.35358038838E+03  0.30914062018E+01 -0.15641862226E+04  0.16036543259E+04  0.10100000352E+00 0. -1.
       -3    1    3    3    0  502  0.35358038838E+03 -0.30914062018E+01  0.18612348780E+03  0.39958805131E+03  0.10100000352E+00 0.  1.
</event>
<event>
 5   0  0.4015204E-04  0.1477215E+04  0.7818609E-02  0.8899748E-01
        1   -1    0    0  501    0  0.00000000000E+00  0.00000000000E+00  0.15131908480E+04  0.15131908480E+04  0.50400001928E-02 0.  1.
       -1   -1    0    0    0  501  0.00000000000E+00  0.00000000000E+00 -0.36052351117E+03  0.36052351121E+03  0.50400001928E-02 0. -1.
    10030    2    1    2    0    0  0.00000000000E+00  0.00000000000E+00  0.11526673368E+04  0.18737143592E+04  0.14772147814E+04 0.  0.
        2    1    3    3  502    0  0.28710206026E+03  0.65515434236E+03  0.80982478223E+03  0.10804957118E+04  0.25500000920E-02 0.  1.
       -2    1    3    3    0  502 -0.28710206026E+03 -0.65515434236E+03  0.34284255459E+03  0.79321864739E+03  0.25500000920E-02 0. -1.
</event>
<event>
 5   0  0.7634227E-04  0.1503297E+04  0.7818609E-02  0.8882263E-01
       -2   -1    0    0    0  501  0.00000000000E+00  0.00000000000E+00  0.15428127615E+04  0.15428127615E+04  0.25500000920E-02 0.  1.
        2   -1    0    0  501    0  0.00000000000E+00  0.00000000000E+00 -0.36619834028E+03  0.36619834029E+03  0.25500000920E-02 0. -1.
    10030    2    1    2    0    0  0.00000000000E+00  0.00000000000E+00  0.11766144212E+04  0.19090111018E+04  0.15032970068E+04 0.  0.
        2    1    3    3  502    0  0.27566914452E+03  0.10031917673E+03 -0.29050132766E+03  0.41285401275E+03  0.25500000920E-02 0. -1.
       -2    1    3    3    0  502 -0.27566914452E+03 -0.10031917673E+03  0.14671157489E+04  0.14961570890E+04  0.25500000920E-02 0.  1.
</event>
<event>
 5   0  0.7359897E-04  0.1506383E+04  0.7818609E-02  0.8880219E-01
        2   -1    0    0  501    0  0.00000000000E+00  0.00000000000E+00  0.22764586825E+04  0.22764586825E+04  0.25500000920E-02 0.  1.
       -2   -1    0    0    0  501  0.00000000000E+00  0.00000000000E+00 -0.24920168590E+03  0.24920168591E+03  0.25500000920E-02 0. -1.
    10030    2    1    2    0    0  0.00000000000E+00  0.00000000000E+00  0.20272569966E+04  0.25256603684E+04  0.15063828751E+04 0.  0.
        1    1    3    3  502    0 -0.67903998921E+03 -0.16506293880E+03  0.14847499356E+04  0.16409824654E+04  0.50400001928E-02 0.  1.
       -1    1    3    3    0  502  0.67903998921E+03  0.16506293880E+03  0.54250706105E+03  0.88467790298E+03  0.50400001928E-02 0. -1.
</event>
<event>
 5   0  0.4086710E-04  0.1501883E+04  0.7818609E-02  0.8883202E-01
        1   -1    0    0  501    0  0.00000000000E+00  0.00000000000E+00  0.10128600387E+04  0.10128600387E+04  0.50400001928E-02 0. -1.
       -1   -1    0    0    0  501  0.00000000000E+00  0.00000000000E+00 -0.55675330779E+03  0.55675330781E+03  0.50400001928E-02 0.  1.
    10030    2    1    2    0    0  0.00000000000E+00  0.00000000000E+00  0.45610673093E+03  0.15696133465E+04  0.15018830539E+04 0.  0.
        3    1    3    3  502    0 -0.68137117630E+03 -0.31565935956E+03  0.23053874833E+03  0.78552888926E+03  0.10100000352E+00 0.  1.
       -3    1    3    3    0  502  0.68137117630E+03  0.31565935956E+03  0.22556798261E+03  0.78408445728E+03  0.10100000352E+00 0. -1.
</event>
<event>
 5   0  0.4058874E-04  0.1485560E+04  0.7818609E-02  0.8894112E-01
        1   -1    0    0  501    0  0.00000000000E+00  0.00000000000E+00  0.77313633014E+03  0.77313633016E+03  0.50400001928E-02 0.  1.
       -1   -1    0    0    0  501  0.00000000000E+00  0.00000000000E+00 -0.71361568100E+03  0.71361568102E+03  0.50400001928E-02 0. -1.
    10030    2    1    2    0    0  0.00000000000E+00  0.00000000000E+00  0.59520649142E+02  0.14867520112E+04  0.14855601082E+04 0.  0.
        4    1    3    3  502    0  0.36300100778E+03  0.64736242604E+03  0.19421912490E+00  0.74219235574E+03  0.12699999809E+01 0. -1.
       -4    1    3    3    0  502 -0.36300100778E+03 -0.64736242604E+03  0.59326430017E+02  0.74455965543E+03  0.12699999809E+01 0.  1.
</event>
<event>
 5   0  0.7634227E-04  0.1497243E+04  0.7818609E-02  0.8886289E-01
        2   -1    0    0  501    0  0.00000000000E+00  0.00000000000E+00  0.25228708948E+04  0.25228708948E+04  0.25500000920E-02 0. -1.
       -2   -1    0    0    0  501  0.00000000000E+00  0.00000000000E+00 -0.22214132620E+03  0.22214132622E+03  0.25500000920E-02 0.  1.
    10030    2    1    2    0    0  0.00000000000E+00  0.00000000000E+00  0.23007295686E+04  0.27450122210E+04  0.14972426476E+04 0.  0.
        2    1    3    3  502    0 -0.22105821932E+03  0.45886915340E+03  0.21562301391E+04  0.22155712692E+04  0.25500000920E-02 0. -1.
       -2    1    3    3    0  502  0.22105821932E+03 -0.45886915340E+03  0.14449942946E+03  0.52944095175E+03  0.25500000920E-02 0.  1.
</event>
<event>
 5   0  0.7547580E-04  0.1630325E+04  0.7818609E-02  0.8802132E-01
       -2   -1    0    0    0  501  0.00000000000E+00  0.00000000000E+00  0.91221442450E+03  0.91221442450E+03  0.25500000920E-02 0.  1.
        2   -1    0    0  501    0  0.00000000000E+00  0.00000000000E+00 -0.72843611570E+03  0.72843611571E+03  0.25500000920E-02 0. -1.
    10030    2    1    2    0    0  0.00000000000E+00  0.00000000000E+00  0.18377830880E+03  0.16406505402E+04  0.16303250376E+04 0.  0.
        4    1    3    3  502    0  0.84526737363E+01 -0.34841876097E+03  0.83345598408E+03  0.90339225755E+03  0.12699999809E+01 0.  1.
       -4    1    3    3    0  502 -0.84526737363E+01  0.34841876097E+03 -0.64967767529E+03  0.73725828266E+03  0.12699999809E+01 0. -1.
</event>
<event>
 5   0  0.7454828E-04  0.1494329E+04  0.7818609E-02  0.8888233E-01
        2   -1    0    0  501    0  0.00000000000E+00  0.00000000000E+00  0.14338733670E+04  0.14338733670E+04  0.25500000920E-02 0.  1.
       -2   -1    0    0    0  501  0.00000000000E+00  0.00000000000E+00 -0.38933341540E+03  0.38933341541E+03  0.25500000920E-02 0. -1.
    10030    2    1    2    0    0  0.00000000000E+00  0.00000000000E+00  0.10445399516E+04  0.18232067824E+04  0.14943290337E+04 0.  0.
        3    1    3    3  502    0 -0.61953548262E+03  0.91271691200E+02  0.25020195515E+02  0.62672223211E+03  0.10100000352E+00 0. -1.
       -3    1    3    3    0  502  0.61953548262E+03 -0.91271691200E+02  0.10195197560E+04  0.11964845503E+04  0.10100000352E+00 0.  1.
</event>
<event>
 5   0  0.7672251E-04  0.1484145E+04  0.7818609E-02  0.8895065E-01
       -2   -1    0    0    0  501  0.00000000000E+00  0.00000000000E+00  0.33790306692E+03  0.33790306693E+03  0.25500000920E-02 0.  1.
        2   -1    0    0  501    0  0.00000000000E+00  0.00000000000E+00 -0.16296734601E+04  0.16296734601E+04  0.25500000920E-02 0. -1.
    10030    2    1    2    0    0  0.00000000000E+00  0.00000000000E+00 -0.12917703931E+04  0.19675765270E+04  0.14841450876E+04 0.  0.
        5    1    3    3  502    0  0.80494253265E+02 -0.73436547456E+03 -0.73847393177E+03  0.10445754223E+04  0.46999998093E+01 0.  1.
       -5    1    3    3    0  502 -0.80494253265E+02  0.73436547456E+03 -0.55329646137E+03  0.92300110465E+03  0.46999998093E+01 0. -1.
</event>
<event>
 5   0  0.4058874E-04  0.1491007E+04  0.7818609E-02  0.8890455E-01
       -1   -1    0    0    0  501  0.00000000000E+00  0.00000000000E+00  0.29942205543E+03  0.29942205547E+03  0.50400001928E-02 0. -1.
        1   -1    0    0  501    0  0.00000000000E+00  0.00000000000E+00 -0.18561607023E+04  0.18561607023E+04  0.50400001928E-02 0.  1.
    10030    2    1    2    0    0  0.00000000000E+00  0.00000000000E+00 -0.15567386468E+04  0.21555827577E+04  0.14910069788E+04 0.  0.
        4    1    3    3  502    0 -0.67789324631E+03 -0.27769465751E+03 -0.97827814668E+03  0.12221633775E+04  0.12699999809E+01 0. -1.
       -4    1    3    3    0  502  0.67789324631E+03  0.27769465751E+03 -0.57846050016E+03  0.93341938021E+03  0.12699999809E+01 0.  1.
</event>
<event>
 5   0  0.3907345E-04  0.1497129E+04  0.7818609E-02  0.8886364E-01
       -1   -1    0    0    0  501  0.00000000000E+00  0.00000000000E+00  0.48175588045E+03  0.48175588048E+03  0.50400001928E-02 0. -1.
        1   -1    0    0  501    0  0.00000000000E+00  0.00000000000E+00 -0.11631388424E+04  0.11631388424E+04  0.50400001928E-02 0.  1.
    10030    2    1    2    0    0  0.00000000000E+00  0.00000000000E+00 -0.68138296198E+03  0.16448947229E+04  0.14971292224E+04 0.  0.
        5    1    3    3  502    0  0.29584007739E+03 -0.33058775120E+03  0.32174058460E+03  0.54804078901E+03  0.46999998093E+01 0. -1.
       -5    1    3    3    0  502 -0.29584007739E+03  0.33058775120E+03 -0.10031235466E+04  0.10968539339E+04  0.46999998093E+01 0.  1.
</event>
<event>
 5   0  0.4084462E-04  0.1496343E+04  0.7818609E-02  0.8886889E-01
        1   -1    0    0  501    0  0.00000000000E+00  0.00000000000E+00  0.55000958421E+03  0.55000958424E+03  0.50400001928E-02 0.  1.
       -1   -1    0    0    0  501  0.00000000000E+00  0.00000000000E+00 -0.10177286198E+04  0.10177286199E+04  0.50400001928E-02 0. -1.
    10030    2    1    2    0    0  0.00000000000E+00  0.00000000000E+00 -0.46771903563E+03  0.15677382041E+04  0.14963428686E+04 0.  0.
        1    1    3    3  502    0  0.65373100206E+03 -0.11857062013E+03 -0.59427481455E+03  0.89139540623E+03  0.50400001928E-02 0. -1.
       -1    1    3    3    0  502 -0.65373100206E+03  0.11857062013E+03  0.12655577893E+03  0.67634279786E+03  0.50400001928E-02 0.  1.
</event>
<event>
 5   0  0.7547580E-04  0.1500660E+04  0.7818609E-02  0.8884014E-01
        2   -1    0    0  501    0  0.00000000000E+00  0.00000000000E+00  0.87208387402E+03  0.87208387402E+03  0.25500000920E-02 0. -1.
       -2   -1    0    0    0  501  0.00000000000E+00  0.00000000000E+00 -0.64557487872E+03  0.64557487872E+03  0.25500000920E-02 0.  1.
    10030    2    1    2    0    0  0.00000000000E+00  0.00000000000E+00  0.22650899530E+03  0.15176587527E+04  0.15006604429E+04 0.  0.
        4    1    3    3  502    0  0.67473656117E+03  0.11491605763E+03  0.42417586460E+03  0.80523406802E+03  0.12699999809E+01 0. -1.
       -4    1    3    3    0  502 -0.67473656117E+03 -0.11491605763E+03 -0.19766686931E+03  0.71242468473E+03  0.12699999809E+01 0.  1.
</event>
<event>
 5   0  0.7547580E-04  0.1558395E+04  0.7818609E-02  0.8846523E-01
       -2   -1    0    0    0  501  0.00000000000E+00  0.00000000000E+00  0.31464439494E+03  0.31464439495E+03  0.25500000920E-02 0. -1.
        2   -1    0    0  501    0  0.00000000000E+00  0.00000000000E+00 -0.19296350396E+04  0.19296350396E+04  0.25500000920E-02 0.  1.
    10030    2    1    2    0    0  0.00000000000E+00  0.00000000000E+00 -0.16149906447E+04  0.22442794346E+04  0.15583951354E+04 0.  0.
        4    1    3    3  502    0 -0.64235118652E+02  0.67179424873E+03 -0.13684290642E+04  0.15257894284E+04  0.12699999809E+01 0. -1.
       -4    1    3    3    0  502  0.64235118652E+02 -0.67179424873E+03 -0.24656158045E+03  0.71849000616E+03  0.12699999809E+01 0.  1.
</event>
<event>
 5   0  0.2800375E-04  0.1500798E+04  0.7818609E-02  0.8883922E-01
       -3   -1    0    0    0  501  0.00000000000E+00  0.00000000000E+00  0.12283331259E+04  0.12283331300E+04  0.10100000352E+00 0.  1.
        3   -1    0    0  501    0  0.00000000000E+00  0.00000000000E+00 -0.45842525856E+03  0.45842526969E+03  0.10100000352E+00 0. -1.
    10030    2    1    2    0    0  0.00000000000E+00  0.00000000000E+00  0.76990786733E+03  0.16867583997E+04  0.15007983792E+04 0.  0.
        2    1    3    3  502    0 -0.50390966875E+03  0.41176419412E+03  0.80491684462E+03  0.10350680328E+04  0.25500000920E-02 0.  1.
       -2    1    3    3    0  502  0.50390966875E+03 -0.41176419412E+03 -0.35008977288E+02  0.65169036690E+03  0.25500000920E-02 0. -1.
</event>
<event>
 5   0  0.7634227E-04  0.1365957E+04  0.7818609E-02  0.8978836E-01
       -2   -1    0    0    0  501  0.00000000000E+00  0.00000000000E+00  0.24652347843E+03  0.24652347844E+03  0.25500000920E-02 0.  1.
        2   -1    0    0  501    0  0.00000000000E+00  0.00000000000E+00 -0.18921502785E+04  0.18921502785E+04  0.25500000920E-02 0. -1.
    10030    2    1    2    0    0  0.00000000000E+00  0.00000000000E+00 -0.16456268001E+04  0.21386737569E+04  0.13659567612E+04 0.  0.
        2    1    3    3  502    0  0.29321826548E+03 -0.57464731576E+03 -0.47179352806E+03  0.79924065327E+03  0.25500000920E-02 0.  1.
       -2    1    3    3    0  502 -0.29321826548E+03  0.57464731576E+03 -0.11738332720E+04  0.13394331037E+04  0.25500000920E-02 0. -1.
</event>
<event>
 5   0  0.4015204E-04  0.1483810E+04  0.7818609E-02  0.8895291E-01
       -1   -1    0    0    0  501  0.00000000000E+00  0.00000000000E+00  0.28212054649E+03  0.28212054654E+03  0.50400001928E-02 0. -1.
        1   -1    0    0  501    0  0.00000000000E+00  0.00000000000E+00 -0.19510208060E+04  0.19510208060E+04  0.50400001928E-02 0.  1.
    10030    2    1    2    0    0  0.00000000000E+00  0.00000000000E+00 -0.16689002595E+04  0.22331413526E+04  0.14838100365E+04 0.  0.
        2    1    3    3  502    0 -0.44408664914E+03 -0.35945228740E+03 -0.12214520238E+03  0.58424168743E+03  0.25500000920E-02 0. -1.
       -2    1    3    3    0  502  0.44408664914E+03  0.35945228740E+03 -0.15467550572E+04  0.16488996651E+04  0.25500000920E-02 0.  1.
</event>
<event>
 5   0  0.4086710E-04  0.1506581E+04  0.7818609E-02  0.8880089E-01
       -1   -1    0    0    0  501  0.00000000000E+00  0.00000000000E+00  0.28816830441E+03  0.28816830445E+03  0.50400001928E-02 0. -1.
        1   -1    0    0  501    0  0.00000000000E+00  0.00000000000E+00 -0.19691486533E+04  0.19691486533E+04  0.50400001928E-02 0.  1.
    10030    2    1    2    0    0  0.00000000000E+00  0.00000000000E+00 -0.16809803489E+04  0.22573169577E+04  0.15065805370E+04 0.  0.
        3    1    3    3  502    0 -0.64876697742E+03  0.34946278302E+03 -0.60633531780E+03  0.95428787874E+03  0.10100000352E+00 0. -1.
       -3    1    3    3    0  502  0.64876697742E+03 -0.34946278302E+03 -0.10746450311E+04  0.13030290790E+04  0.10100000352E+00 0.  1.
</event>
<event>
 5   0  0.7672251E-04  0.1492796E+04  0.7818609E-02  0.8889258E-01
        2   -1    0    0  501    0  0.00000000000E+00  0.00000000000E+00  0.99349303804E+03  0.99349303804E+03  0.25500000920E-02 0.  1.
       -2   -1    0    0    0  501  0.00000000000E+00  0.00000000000E+00 -0.56075871335E+03  0.56075871336E+03  0.25500000920E-02 0. -1.
    10030    2    1    2    0    0  0.00000000000E+00  0.00000000000E+00  0.43273432469E+03  0.15542517514E+04  0.14927958705E+04 0.  0.
        5    1    3    3  502    0  0.38760646807E+03 -0.16592503720E+03  0.85761011722E+03  0.95566055439E+03  0.46999998093E+01 0.  1.
       -5    1    3    3    0  502 -0.38760646807E+03  0.16592503720E+03 -0.42487579253E+03  0.59859119701E+03  0.46999998093E+01 0. -1.
</event>
<event>
 5   0  0.7359897E-04  0.1505884E+04  0.7818609E-02  0.8880550E-01
       -2   -1    0    0    0  501  0.00000000000E+00  0.00000000000E+00  0.69199608214E+03  0.69199608215E+03  0.25500000920E-02 0. -1.
        2   -1    0    0  501    0  0.00000000000E+00  0.00000000000E+00 -0.81925532346E+03  0.81925532347E+03  0.25500000920E-02 0.  1.
    10030    2    1    2    0    0  0.00000000000E+00  0.00000000000E+00 -0.12725924132E+03  0.15112514056E+04  0.15058837593E+04 0.  0.
        1    1    3    3  502    0  0.61725043340E+03  0.40458426031E+02 -0.49444581518E+03  0.79190381104E+03  0.50400001928E-02 0.  1.
       -1    1    3    3    0  502 -0.61725043340E+03 -0.40458426031E+02  0.36718657386E+03  0.71934759457E+03  0.50400001928E-02 0. -1.
</event>
<event>
 5   0  0.4058874E-04  0.1286690E+04  0.7818609E-02  0.9040187E-01
       -1   -1    0    0    0  501  0.00000000000E+00  0.00000000000E+00  0.64458779373E+03  0.64458779375E+03  0.50400001928E-02 0.  1.
        1   -1    0    0  501    0  0.00000000000E+00  0.00000000000E+00 -0.64210427627E+03  0.64210427629E+03  0.50400001928E-02 0. -1.
    10030    2    1    2    0    0  0.00000000000E+00  0.00000000000E+00  0.24835174671E+01  0.12866920700E+04  0.12866896732E+04 0.  0.
        4    1    3    3  502    0 -0.32772322904E+03 -0.51488085138E+03  0.20467802423E+03  0.64373869891E+03  0.12699999809E+01 0.  1.
       -4    1    3    3    0  502  0.32772322904E+03  0.51488085138E+03 -0.20219450676E+03  0.64295337112E+03  0.12699999809E+01 0. -1.
</event>
<event>
 5   0  0.4058874E-04  0.1459334E+04  0.7818609E-02  0.8911955E-01
       -1   -1    0    0    0  501  0.00000000000E+00  0.00000000000E+00  0.82862036846E+03  0.82862036847E+03  0.50400001928E-02 0. -1.
        1   -1    0    0  501    0  0.00000000000E+00  0.00000000000E+00 -0.64253076670E+03  0.64253076672E+03  0.50400001928E-02 0.  1.
    10030    2    1    2    0    0  0.00000000000E+00  0.00000000000E+00  0.18608960176E+03  0.14711511352E+04  0.14593342053E+04 0.  0.
        4    1    3    3  502    0  0.38578752185E+03  0.29149045732E+03  0.64392535700E+03  0.80525783263E+03  0.12699999809E+01 0. -1.
       -4    1    3    3    0  502 -0.38578752185E+03 -0.29149045732E+03 -0.45783575524E+03  0.66589330257E+03  0.12699999809E+01 0.  1.
</event>
<event>
 5   0  0.3907345E-04  0.1513845E+04  0.7818609E-02  0.8875298E-01
        1   -1    0    0  501    0  0.00000000000E+00  0.00000000000E+00  0.52550938632E+03  0.52550938635E+03  0.50400001928E-02 0.  1.
       -1   -1    0    0    0  501  0.00000000000E+00  0.00000000000E+00 -0.10902407817E+04  0.10902407818E+04  0.50400001928E-02 0. -1.
    10030    2    1    2    0    0  0.00000000000E+00  0.00000000000E+00 -0.56473139542E+03  0.16157501681E+04  0.15138451231E+04 0.  0.
        5    1    3    3  502    0  0.16504721783E+03  0.17862454420E+03  0.48265627016E+03  0.54048725890E+03  0.46999998093E+01 0.  1.
       -5    1    3    3    0  502 -0.16504721783E+03 -0.17862454420E+03 -0.10473876656E+04  0.10752629092E+04  0.46999998093E+01 0. -1.
</event>
<event>
 5   0  0.7547580E-04  0.1496769E+04  0.7818609E-02  0.8886604E-01
        2   -1    0    0  501    0  0.00000000000E+00  0.00000000000E+00  0.17668550902E+04  0.17668550902E+04  0.25500000920E-02 0. -1.
       -2   -1    0    0    0  501  0.00000000000E+00  0.00000000000E+00 -0.31699222933E+03  0.31699222934E+03  0.25500000920E-02 0.  1.
    10030    2    1    2    0    0  0.00000000000E+00  0.00000000000E+00  0.14498628609E+04  0.20838473196E+04  0.14967689654E+04 0.  0.
        4    1    3    3  502    0  0.50519920376E+03 -0.23454467840E+03  0.29038612407E+02  0.55774751954E+03  0.12699999809E+01 0.  1.
       -4    1    3    3    0  502 -0.50519920376E+03  0.23454467840E+03  0.14208242485E+04  0.15260998000E+04  0.12699999809E+01 0. -1.
</event>
<event>
 5   0  0.3907345E-04  0.1493952E+04  0.7818609E-02  0.8888485E-01
        1   -1    0    0  501    0  0.00000000000E+00  0.00000000000E+00  0.72523098053E+03  0.72523098055E+03  0.50400001928E-02 0. -1.
       -1   -1    0    0    0  501  0.00000000000E+00  0.00000000000E+00 -0.76937289373E+03  0.76937289375E+03  0.50400001928E-02 0.  1.
    10030    2    1    2    0    0  0.00000000000E+00  0.00000000000E+00 -0.44141913200E+02  0.14946038743E+04  0.14939518843E+04 0.  0.
        5    1    3    3  502    0  0.47547180334E+03 -0.22746780789E+03  0.50743871826E+03  0.73166329837E+03  0.46999998093E+01 0. -1.
       -5    1    3    3    0  502 -0.47547180334E+03  0.22746780789E+03 -0.55158063146E+03  0.76294057593E+03  0.46999998093E+01 0.  1.
</event>
<event>
 5   0  0.7454828E-04  0.1510205E+04  0.7818609E-02  0.8877695E-01
        2   -1    0    0  501    0  0.00000000000E+00  0.00000000000E+00  0.20267439678E+04  0.20267439678E+04  0.25500000920E-02 0.  1.
       -2   -1    0    0    0  501  0.00000000000E+00  0.00000000000E+00 -0.28132793580E+03  0.28132793581E+03  0.25500000920E-02 0. -1.
    10030    2    1    2    0    0  0.00000000000E+00  0.00000000000E+00  0.17454160320E+04  0.23080719036E+04  0.15102048826E+04 0.  0.
        3    1    3    3  502    0 -0.56623979229E+03 -0.49816509114E+03  0.81585695736E+03  0.11110438990E+04  0.10100000352E+00 0.  1.
       -3    1    3    3    0  502  0.56623979229E+03  0.49816509114E+03  0.92955907464E+03  0.11970280046E+04  0.10100000352E+00 0. -1.
</event>
<event>
 5   0  0.7454828E-04  0.1516151E+04  0.7818609E-02  0.8873783E-01
       -2   -1    0    0    0  501  0.00000000000E+00  0.00000000000E+00  0.76946991381E+03  0.76946991381E+03  0.25500000920E-02 0. -1.
        2   -1    0    0  501    0  0.00000000000E+00  0.00000000000E+00 -0.74684945101E+03  0.74684945101E+03  0.25500000920E-02 0.  1.
    10030    2    1    2    0    0  0.00000000000E+00  0.00000000000E+00  0.22620462797E+02  0.15163193648E+04  0.15161506293E+04 0.  0.
        3    1    3    3  502    0  0.55911665827E+03 -0.16764992088E+03 -0.47243796518E+03  0.75094312346E+03  0.10100000352E+00 0.  1.
       -3    1    3    3    0  502 -0.55911665827E+03  0.16764992088E+03  0.49505842798E+03  0.76537624136E+03  0.10100000352E+00 0. -1.
</event>
<event>
 5   0  0.2800375E-04  0.1489299E+04  0.7818609E-02  0.8891600E-01
       -3   -1    0    0    0  501  0.00000000000E+00  0.00000000000E+00  0.95903826055E+03  0.95903826587E+03  0.10100000352E+00 0.  1.
        3   -1    0    0  501    0  0.00000000000E+00  0.00000000000E+00 -0.57818664992E+03  0.57818665874E+03  0.10100000352E+00 0. -1.
    10030    2    1    2    0    0  0.00000000000E+00  0.00000000000E+00  0.38085161063E+03  0.15372249246E+04  0.14892993385E+04 0.  0.
        4    1    3    3  502    0  0.59023046502E+03  0.45396409073E+03  0.18341613525E+03  0.76687579769E+03  0.12699999809E+01 0. -1.
       -4    1    3    3    0  502 -0.59023046502E+03 -0.45396409073E+03  0.19743547538E+03  0.77034912693E+03  0.12699999809E+01 0.  1.
</event>
<event>
 5   0  0.3907345E-04  0.1501419E+04  0.7818609E-02  0.8883510E-01
       -1   -1    0    0    0  501  0.00000000000E+00  0.00000000000E+00  0.34154415807E+03  0.34154415811E+03  0.50400001928E-02 0. -1.
        1   -1    0    0  501    0  0.00000000000E+00  0.00000000000E+00 -0.16500505464E+04  0.16500505464E+04  0.50400001928E-02 0.  1.
    10030    2    1    2    0    0  0.00000000000E+00  0.00000000000E+00 -0.13085063883E+04  0.19915947045E+04  0.15014194946E+04 0.  0.
        5    1    3    3  502    0  0.66026316347E+03 -0.21183377841E+03 -0.27274002797E+03  0.74513771047E+03  0.46999998093E+01 0. -1.
       -5    1    3    3    0  502 -0.66026316347E+03  0.21183377841E+03 -0.10357663603E+04  0.12464569940E+04  0.46999998093E+01 0.  1.
</event>
<event>
 5   0  0.7454828E-04  0.1404636E+04  0.7818609E-02  0.8950469E-01
       -2   -1    0    0    0  501  0.00000000000E+00  0.00000000000E+00  0.43487478060E+03  0.43487478060E+03  0.25500000920E-02 0.  1.
        2   -1    0    0  501    0  0.00000000000E+00  0.00000000000E+00 -0.11342362147E+04  0.11342362147E+04  0.25500000920E-02 0. -1.
    10030    2    1    2    0    0  0.00000000000E+00  0.00000000000E+00 -0.69936143411E+03  0.15691109953E+04  0.14046362163E+04 0.  0.
        3    1    3    3  502    0  0.80976984743E+02  0.69341810250E+03 -0.43522984532E+03  0.82268521646E+03  0.10100000352E+00 0.  1.
       -3    1    3    3    0  502 -0.80976984743E+02 -0.69341810250E+03 -0.26413158879E+03  0.74642577885E+03  0.10100000352E+00 0. -1.
</event>
<event>
 5   0  0.2800375E-04  0.1462520E+04  0.7818609E-02  0.8909766E-01
        3   -1    0    0  501    0  0.00000000000E+00  0.00000000000E+00  0.22201884919E+03  0.22201887216E+03  0.10100000352E+00 0.  1.
       -3   -1    0    0    0  501  0.00000000000E+00  0.00000000000E+00 -0.24085400667E+04  0.24085400688E+04  0.10100000352E+00 0. -1.
    10030    2    1    2    0    0  0.00000000000E+00  0.00000000000E+00 -0.21865212175E+04  0.26305589410E+04  0.14625201904E+04 0.  0.
        1    1    3    3  502    0 -0.53498039997E+02 -0.50452141086E+03 -0.14604158407E+03  0.52795079184E+03  0.50400001928E-02 0.  1.
       -1    1    3    3    0  502  0.53498039997E+02  0.50452141086E+03 -0.20404796334E+04  0.21026081491E+04  0.50400001928E-02 0. -1.
</event>
<event>
 5   0  0.7634227E-04  0.1495896E+04  0.7818609E-02  0.8887187E-01
       -2   -1    0    0    0  501  0.00000000000E+00  0.00000000000E+00  0.87159148551E+03  0.87159148551E+03  0.25500000920E-02 0.  1.
        2   -1    0    0  501    0  0.00000000000E+00  0.00000000000E+00 -0.64184452379E+03  0.64184452379E+03  0.25500000920E-02 0. -1.
    10030    2    1    2    0    0  0.00000000000E+00  0.00000000000E+00  0.22974696172E+03  0.15134360093E+04  0.14958960151E+04 0.  0.
        2    1    3    3  502    0  0.41264018506E+03  0.70366431140E+02  0.74198237055E+03  0.85191619023E+03  0.25500000920E-02 0.  1.
       -2    1    3    3    0  502 -0.41264018506E+03 -0.70366431140E+02 -0.51223540884E+03  0.66151981908E+03  0.25500000920E-02 0. -1.
</event>
<event>
 5   0  0.7359897E-04  0.1501800E+04  0.7818609E-02  0.8883257E-01
       -2   -1    0    0    0  501  0.00000000000E+00  0.00000000000E+00  0.94426155472E+03  0.94426155472E+03  0.25500000920E-02 0. -1.
        2   -1    0    0  501    0  0.00000000000E+00  0.00000000000E+00 -0.59713441615E+03  0.59713441616E+03  0.25500000920E-02 0.  1.
    10030    2    1    2    0    0  0.00000000000E+00  0.00000000000E+00  0.34712713856E+03  0.15413959709E+04  0.15018003492E+04 0.  0.
        1    1    3    3  502    0  0.23928921735E+03  0.61924715222E+03 -0.18657913691E+03  0.68959273446E+03  0.50400001928E-02 0. -1.
       -1    1    3    3    0  502 -0.23928921735E+03 -0.61924715222E+03  0.53370627547E+03  0.85180323642E+03  0.50400001928E-02 0.  1.
</event>
<event>
 5   0  0.4084462E-04  0.1523425E+04  0.7818609E-02  0.8869023E-01
       -1   -1    0    0    0  501  0.00000000000E+00  0.00000000000E+00  0.26720009462E+03  0.26720009467E+03  0.50400001928E-02 0.  1.
        1   -1    0    0  501    0  0.00000000000E+00  0.00000000000E+00 -0.21714299026E+04  0.21714299026E+04  0.50400001928E-02 0. -1.
    10030    2    1    2    0    0  0.00000000000E+00  0.00000000000E+00 -0.19042298080E+04  0.24386299973E+04  0.15234254501E+04 0.  0.
        1    1    3    3  502    0 -0.28706915511E+03  0.38993179838E+03 -0.10862102047E+02  0.48432787705E+03  0.50400001928E-02 0.  1.
       -1    1    3    3    0  502  0.28706915511E+03 -0.38993179838E+03 -0.18933677059E+04  0.19543021202E+04  0.50400001928E-02 0. -1.
</event>
<event>
 5   0  0.7547580E-04  0.1547727E+04  0.7818609E-02  0.8853321E-01
       -2   -1    0    0    0  501  0.00000000000E+00  0.00000000000E+00  0.35729047589E+03  0.35729047590E+03  0.25500000920E-02 0.  1.
        2   -1    0    0  501    0  0.00000000000E+00  0.00000000000E+00 -0.16761277546E+04  0.16761277546E+04  0.25500000920E-02 0. -1.
    10030    2    1    2    0    0  0.00000000000E+00  0.00000000000E+00 -0.13188372787E+04  0.20334182305E+04  0.15477266982E+04 0.  0.
        4    1    3    3  502    0  0.46578837668E+03 -0.31601387909E+03  0.38311112966E+02  0.56417456332E+03  0.12699999809E+01 0.  1.
       -4    1    3    3    0  502 -0.46578837668E+03  0.31601387909E+03 -0.13571483917E+04  0.14692436672E+04  0.12699999809E+01 0. -1.
</event>
<event>
 5   0  0.7547580E-04  0.1500650E+04  0.7818609E-02  0.8884021E-01
       -2   -1    0    0    0  501  0.00000000000E+00  0.00000000000E+00  0.42455424796E+03  0.42455424797E+03  0.25500000920E-02 0.  1.
        2   -1    0    0  501    0  0.00000000000E+00  0.00000000000E+00 -0.13260680284E+04  0.13260680285E+04  0.25500000920E-02 0. -1.
    10030    2    1    2    0    0  0.00000000000E+00  0.00000000000E+00 -0.90151378049E+03  0.17506222764E+04  0.15006502785E+04 0.  0.
        4    1    3    3  502    0  0.48919304349E+03 -0.34180801114E+02  0.21173906448E+03  0.53414717569E+03  0.12699999809E+01 0.  1.
       -4    1    3    3    0  502 -0.48919304349E+03  0.34180801114E+02 -0.11132528450E+04  0.12164751007E+04  0.12699999809E+01 0. -1.
</event>
<event>
 5   0  0.7672251E-04  0.1517342E+04  0.7818609E-02  0.8873002E-01
       -2   -1    0    0    0  501  0.00000000000E+00  0.00000000000E+00  0.44799220748E+03  0.44799220749E+03  0.25500000920E-02 0. -1.
        2   -1    0    0  501    0  0.00000000000E+00  0.00000000000E+00 -0.12848032695E+04  0.12848032695E+04  0.25500000920E-02 0.  1.
    10030    2    1    2    0    0  0.00000000000E+00  0.00000000000E+00 -0.83681106202E+03  0.17327954770E+04  0.15173422197E+04 0.  0.
        5    1    3    3  502    0  0.15839333406E+02  0.55535119097E+03 -0.10083798592E+04  0.11513113655E+04  0.46999998093E+01 0.  1.
       -5    1    3    3    0  502 -0.15839333406E+02 -0.55535119097E+03  0.17156879719E+03  0.58148411153E+03  0.46999998093E+01 0. -1.
</event>
<event>
 5   0  0.4058874E-04  0.1475753E+04  0.7818609E-02  0.8900739E-01
        1   -1    0    0  501    0  0.00000000000E+00  0.00000000000E+00  0.70928731846E+03  0.70928731848E+03  0.50400001928E-02 0. -1.
       -1   -1    0    0    0  501  0.00000000000E+00  0.00000000000E+00 -0.76761800065E+03  0.76761800067E+03  0.50400001928E-02 0.  1.
    10030    2    1    2    0    0  0.00000000000E+00  0.00000000000E+00 -0.58330682194E+02  0.14769053191E+04  0.14757529784E+04 0.  0.
        4    1    3    3  502    0 -0.10923834596E+03  0.57138331240E+03 -0.48344510658E+03  0.75639453322E+03  0.12699999809E+01 0.  1.
       -4    1    3    3    0  502  0.10923834596E+03 -0.57138331240E+03  0.42511442439E+03  0.72051078593E+03  0.12699999809E+01 0. -1.
</event>
<event>
 5   0  0.4015204E-04  0.1504552E+04  0.7818609E-02  0.8881432E-01
       -1   -1    0    0    0  501  0.00000000000E+00  0.00000000000E+00  0.50996017043E+03  0.50996017045E+03  0.50400001928E-02 0.  1.
        1   -1    0    0  501    0  0.00000000000E+00  0.00000000000E+00 -0.11097314160E+04  0.11097314160E+04  0.50400001928E-02 0. -1.
    10030    2    1    2    0    0  0.00000000000E+00  0.00000000000E+00 -0.59977124555E+03  0.16196915864E+04  0.15045515239E+04 0.  0.
        2    1    3    3  502    0  0.21595338893E+02 -0.43679194196E+03  0.35905605287E+03  0.56583991404E+03  0.25500000920E-02 0.  1.
       -2    1    3    3    0  502 -0.21595338893E+02  0.43679194196E+03 -0.95882729842E+03  0.10538516724E+04  0.25500000920E-02 0. -1.
</event>
<event>
 5   0  0.7454828E-04  0.1503630E+04  0.7818609E-02  0.8882043E-01
       -2   -1    0    0    0  501  0.00000000000E+00  0.00000000000E+00  0.49541592489E+03  0.49541592490E+03  0.25500000920E-02 0.  1.
        2   -1    0    0  501    0  0.00000000000E+00  0.00000000000E+00 -0.11409116263E+04  0.11409116263E+04  0.25500000920E-02 0. -1.
    10030    2    1    2    0    0  0.00000000000E+00  0.00000000000E+00 -0.64549570139E+03  0.16363275512E+04  0.15036299925E+04 0.  0.
        3    1    3    3  502    0  0.49488421188E+03 -0.56173663011E+03 -0.24760841226E+03  0.78852289808E+03  0.10100000352E+00 0.  1.
       -3    1    3    3    0  502 -0.49488421188E+03  0.56173663011E+03 -0.39788728914E+03  0.84780465311E+03  0.10100000352E+00 0. -1.
</event>
<event>
 5   0  0.7359897E-04  0.1506219E+04  0.7818609E-02  0.8880328E-01
        2   -1    0    0  501    0  0.00000000000E+00  0.00000000000E+00  0.14768849538E+04  0.14768849538E+04  0.25500000920E-02 0.  1.
       -2   -1    0    0    0  501  0.00000000000E+00  0.00000000000E+00 -0.38403374960E+03  0.38403374961E+03  0.25500000920E-02 0. -1.
    10030    2    1    2    0    0  0.00000000000E+00  0.00000000000E+00  0.10928512042E+04  0.18609187034E+04  0.15062186648E+04 0.  0.
        1    1    3    3  502    0  0.68523157168E+03  0.29953204949E+03  0.65632114346E+03  0.99499708486E+03  0.50400001928E-02 0.  1.
       -1    1    3    3    0  502 -0.68523157168E+03 -0.29953204949E+03  0.43653006072E+03  0.86592161853E+03  0.50400001928E-02 0. -1.
</event>
<event>
 5   0  0.7547580E-04  0.1507215E+04  0.7818609E-02  0.8879669E-01
       -2   -1    0    0    0  501  0.00000000000E+00  0.00000000000E+00  0.31766824502E+03  0.31766824503E+03  0.25500000920E-02 0. -1.
        2   -1    0    0  501    0  0.00000000000E+00  0.00000000000E+00 -0.17877900972E+04  0.17877900972E+04  0.25500000920E-02 0.  1.
    10030    2    1    2    0    0  0.00000000000E+00  0.00000000000E+00 -0.14701218522E+04  0.21054583423E+04  0.15072148389E+04 0.  0.
        4    1    3    3  502    0  0.20357510984E+03 -0.30972230706E+03 -0.16516700902E+04  0.16927452355E+04  0.12699999809E+01 0.  1.
       -4    1    3    3    0  502 -0.20357510984E+03  0.30972230706E+03  0.18154823797E+03  0.41271310670E+03  0.12699999809E+01 0. -1.
</event>
<event>
 5   0  0.4086710E-04  0.1519930E+04  0.7818609E-02  0.8871307E-01
        1   -1    0    0  501    0  0.00000000000E+00  0.00000000000E+00  0.93741124766E+03  0.93741124768E+03  0.50400001928E-02 0. -1.
       -1   -1    0    0    0  501  0.00000000000E+00  0.00000000000E+00 -0.61610808911E+03  0.61610808913E+03  0.50400001928E-02 0.  1.
    10030    2    1    2    0    0  0.00000000000E+00  0.00000000000E+00  0.32130315855E+03  0.15535193368E+04  0.15199298043E+04 0.  0.
        3    1    3    3  502    0 -0.26220366413E+03  0.58451215406E+03 -0.25721263439E+03  0.69033583800E+03  0.10100000352E+00 0.  1.
       -3    1    3    3    0  502  0.26220366413E+03 -0.58451215406E+03  0.57851579294E+03  0.86318349881E+03  0.10100000352E+00 0. -1.
</event>
<event>
 5   0  0.4084462E-04  0.1547548E+04  0.7818609E-02  0.8853435E-01
       -1   -1    0    0    0  501  0.00000000000E+00  0.00000000000E+00  0.65490193039E+03  0.65490193041E+03  0.50400001928E-02 0.  1.
        1   -1    0    0  501    0  0.00000000000E+00  0.00000000000E+00 -0.91422284465E+03  0.91422284466E+03  0.50400001928E-02 0. -1.
    10030    2    1    2    0    0  0.00000000000E+00  0.00000000000E+00 -0.25932091426E+03  0.15691247751E+04  0.15475481327E+04 0.  0.
        1    1    3    3  502    0  0.51787291045E+03 -0.55059971025E+03 -0.29741788510E+03  0.81228676630E+03  0.50400001928E-02 0. -1.
       -1    1    3    3    0  502 -0.51787291045E+03  0.55059971025E+03  0.38096970840E+02  0.75683800877E+03  0.50400001928E-02 0.  1.
</event>
<event>
 5   0  0.4015204E-04  0.1500287E+04  0.7818609E-02  0.8884262E-01
        1   -1    0    0  501    0  0.00000000000E+00  0.00000000000E+00  0.15215747462E+04  0.15215747462E+04  0.50400001928E-02 0.  1.
       -1   -1    0    0    0  501  0.00000000000E+00  0.00000000000E+00 -0.36982426602E+03  0.36982426605E+03  0.50400001928E-02 0. -1.
    10030    2    1    2    0    0  0.00000000000E+00  0.00000000000E+00  0.11517504802E+04  0.18913990122E+04  0.15002869909E+04 0.  0.
        2    1    3    3  502    0 -0.13363267790E+03  0.26897328170E+03  0.14424673902E+04  0.14734030306E+04  0.25500000920E-02 0.  1.
       -2    1    3    3    0  502  0.13363267790E+03 -0.26897328170E+03 -0.29071691002E+03  0.41799598162E+03  0.25500000920E-02 0. -1.
</event>
<event>
 5   0  0.7359897E-04  0.1497329E+04  0.7818609E-02  0.8886231E-01
       -2   -1    0    0    0  501  0.00000000000E+00  0.00000000000E+00  0.39328181844E+03  0.39328181845E+03  0.25500000920E-02 0.  1.
        2   -1    0    0  501    0  0.00000000000E+00  0.00000000000E+00 -0.14251838712E+04  0.14251838712E+04  0.25500000920E-02 0. -1.
    10030    2    1    2    0    0  0.00000000000E+00  0.00000000000E+00 -0.10319020528E+04  0.18184656897E+04  0.14973294955E+04 0.  0.
        1    1    3    3  502    0 -0.50943881523E+03  0.36951665881E+01  0.15030354852E+03  0.53116166790E+03  0.50400001928E-02 0.  1.
       -1    1    3    3    0  502  0.50943881523E+03 -0.36951665881E+01 -0.11822056013E+04  0.12873040218E+04  0.50400001928E-02 0. -1.
</event>
<event>
 5   0  0.7547580E-04  0.1454956E+04  0.7818609E-02  0.8914972E-01
        2   -1    0    0  501    0  0.00000000000E+00  0.00000000000E+00  0.12662757768E+04  0.12662757768E+04  0.25500000920E-02 0. -1.
       -2   -1    0    0    0  501  0.00000000000E+00  0.00000000000E+00 -0.41793763433E+03  0.41793763434E+03  0.25500000920E-02 0.  1.
    10030    2    1    2    0    0  0.00000000000E+00  0.00000000000E+00  0.84833814246E+03  0.16842134111E+04  0.14549560853E+04 0.  0.
        4    1    3    3  502    0 -0.30224620497E+03 -0.26243982499E+03 -0.27899655009E+03  0.48792224587E+03  0.12699999809E+01 0.  1.
       -4    1    3    3    0  502  0.30224620497E+03  0.26243982499E+03  0.11273346925E+04  0.11962911653E+04  0.12699999809E+01 0. -1.
</event>
<event>
 5   0  0.3907345E-04  0.1528276E+04  0.7818609E-02  0.8865864E-01
       -1   -1    0    0    0  501  0.00000000000E+00  0.00000000000E+00  0.83913271064E+03  0.83913271065E+03  0.50400001928E-02 0.  1.
        1   -1    0    0  501    0  0.00000000000E+00  0.00000000000E+00 -0.69584614559E+03  0.69584614560E+03  0.50400001928E-02 0. -1.
    10030    2    1    2    0    0  0.00000000000E+00  0.00000000000E+00  0.14328656505E+03  0.15349788563E+04  0.15282764964E+04 0.  0.
        5    1    3    3  502    0 -0.37548595965E+02  0.76228576360E+03  0.10916605614E+03  0.77099208832E+03  0.46999998093E+01 0.  1.
       -5    1    3    3    0  502  0.37548595965E+02 -0.76228576360E+03  0.34120508911E+02  0.76398676793E+03  0.46999998093E+01 0. -1.
</event>
<event>
 5   0  0.7359897E-04  0.1473691E+04  0.7818609E-02  0.8902139E-01
        2   -1    0    0  501    0  0.00000000000E+00  0.00000000000E+00  0.68828378935E+03  0.68828378935E+03  0.25500000920E-02 0.  1.
       -2   -1    0    0    0  501  0.00000000000E+00  0.00000000000E+00 -0.78883301878E+03  0.78883301879E+03  0.25500000920E-02 0. -1.
    10030    2    1    2    0    0  0.00000000000E+00  0.00000000000E+00 -0.10054922944E+03  0.14771168081E+04  0.14736905772E+04 0.  0.
        1    1    3    3  502    0 -0.70179313824E+03 -0.18316162587E+03  0.79947374287E+02  0.72969402681E+03  0.50400001928E-02 0. -1.
       -1    1    3    3    0  502  0.70179313824E+03  0.18316162587E+03 -0.18049660372E+03  0.74742278133E+03  0.50400001928E-02 0.  1.
</event>
<event>
 5   0  0.4086710E-04  0.1485925E+04  0.7818609E-02  0.8893867E-01
        1   -1    0    0  501    0  0.00000000000E+00  0.00000000000E+00  0.78155148478E+03  0.78155148479E+03  0.50400001928E-02 0.  1.
       -1   -1    0    0    0  501  0.00000000000E+00  0.00000000000E+00 -0.70627887393E+03  0.70627887395E+03  0.50400001928E-02 0. -1.
    10030    2    1    2    0    0  0.00000000000E+00  0.00000000000E+00  0.75272610845E+02  0.14878303587E+04  0.14859250353E+04 0.  0.
        3    1    3    3  502    0 -0.34580808950E+03 -0.62010387449E+03  0.25673471346E+03  0.75499984982E+03  0.10100000352E+00 0.  1.
       -3    1    3    3    0  502  0.34580808950E+03  0.62010387449E+03 -0.18146210262E+03  0.73283050893E+03  0.10100000352E+00 0. -1.
</event>
<event>
 5   0  0.3907345E-04  0.1485184E+04  0.7818609E-02  0.8894366E-01
        1   -1    0    0  501    0  0.00000000000E+00  0.00000000000E+00  0.13309715789E+04  0.13309715789E+04  0.50400001928E-02 0.  1.
       -1   -1    0    0    0  501  0.00000000000E+00  0.00000000000E+00 -0.41431611037E+03  0.41431611040E+03  0.50400001928E-02 0. -1.
    10030    2    1    2    0    0  0.00000000000E+00  0.00000000000E+00  0.91665546853E+03  0.17452876893E+04  0.14851841200E+04 0.  0.
        5    1    3    3  502    0 -0.52201295755E+02 -0.11274078824E+03  0.13186540655E+04  0.13245022065E+04  0.46999998093E+01 0.  1.
       -5    1    3    3    0  502  0.52201295755E+02  0.11274078824E+03 -0.40199859694E+03  0.42078548282E+03  0.46999998093E+01 0. -1.
</event>
<event>
 5   0  0.3907345E-04  0.1528117E+04  0.7818609E-02  0.8865968E-01
        1   -1    0    0  501    0  0.00000000000E+00  0.00000000000E+00  0.98850266035E+03  0.98850266037E+03  0.50400001928E-02 0.  1.
       -1   -1    0    0    0  501  0.00000000000E+00  0.00000000000E+00 -0.59057535616E+03  0.59057535618E+03  0.50400001928E-02 0. -1.
    10030    2    1    2    0    0  0.00000000000E+00  0.00000000000E+00  0.39792730420E+03  0.15790780165E+04  0.15281168944E+04 0.  0.
        5    1    3    3  502    0 -0.71615897143E+03 -0.13368054839E+03  0.43687878082E+03  0.84949356708E+03  0.46999998093E+01 0.  1.
       -5    1    3    3    0  502  0.71615897143E+03  0.13368054839E+03 -0.38951476628E+02  0.72958444947E+03  0.46999998093E+01 0. -1.
</event>
<event>
 5   0  0.2800375E-04  0.1487768E+04  0.7818609E-02  0.8892628E-01
        4   -1    0    0  501    0  0.00000000000E+00  0.00000000000E+00  0.12086721650E+04  0.12086728322E+04  0.12699999809E+01 0. -1.
       -4   -1    0    0    0  501  0.00000000000E+00  0.00000000000E+00 -0.45782562182E+03  0.45782738330E+03  0.12699999809E+01 0.  1.
    10030    2    1    2    0    0  0.00000000000E+00  0.00000000000E+00  0.75084654319E+03  0.16665002155E+04  0.14877676018E+04 0.  0.
        4    1    3    3  502    0 -0.12385896936E+03  0.43910053874E+03 -0.28270825630E+03  0.53672702419E+03  0.12699999809E+01 0.  1.
       -4    1    3    3    0  502  0.12385896936E+03 -0.43910053874E+03  0.10335547995E+04  0.11297731913E+04  0.12699999809E+01 0. -1.
</event>
<event>
 5   0  0.7672251E-04  0.1515914E+04  0.7818609E-02  0.8873939E-01
        2   -1    0    0  501    0  0.00000000000E+00  0.00000000000E+00  0.25357722259E+04  0.25357722259E+04  0.25500000920E-02 0. -1.
       -2   -1    0    0    0  501  0.00000000000E+00  0.00000000000E+00 -0.22655772113E+03  0.22655772114E+03  0.25500000920E-02 0.  1.
    10030    2    1    2    0    0  0.00000000000E+00  0.00000000000E+00  0.23092145048E+04  0.27623299471E+04  0.15159139511E+04 0.  0.
        5    1    3    3  502    0 -0.64178121831E+03  0.39708691217E+03  0.12823648003E+04  0.14879659670E+04  0.46999998093E+01 0.  1.
       -5    1    3    3    0  502  0.64178121831E+03 -0.39708691217E+03  0.10268497045E+04  0.12743639801E+04  0.46999998093E+01 0. -1.
</event>
<event>
 5   0  0.7547580E-04  0.1499015E+04  0.7818609E-02  0.8885108E-01
       -2   -1    0    0    0  501  0.00000000000E+00  0.00000000000E+00  0.49035146391E+03  0.49035146391E+03  0.25500000920E-02 0. -1.
        2   -1    0    0  501    0  0.00000000000E+00  0.00000000000E+00 -0.11456306632E+04  0.11456306632E+04  0.25500000920E-02 0.  1.
    10030    2    1    2    0    0  0.00000000000E+00  0.00000000000E+00 -0.65527919932E+03  0.16359821271E+04  0.14990152405E+04 0.  0.
        4    1    3    3  502    0  0.54709823257E+03  0.22422076484E+03  0.17506527318E+03  0.61663675713E+03  0.12699999809E+01 0. -1.
       -4    1    3    3    0  502 -0.54709823257E+03 -0.22422076484E+03 -0.83034447249E+03  0.10193453700E+04  0.12699999809E+01 0.  1.
</event>
<event>
 5   0  0.4084462E-04  0.1484498E+04  0.7818609E-02  0.8894827E-01
       -1   -1    0    0    0  501  0.00000000000E+00  0.00000000000E+00  0.73861025287E+03  0.73861025288E+03  0.50400001928E-02 0.  1.
        1   -1    0    0  501    0  0.00000000000E+00  0.00000000000E+00 -0.74590610500E+03  0.74590610502E+03  0.50400001928E-02 0. -1.
    10030    2    1    2    0    0  0.00000000000E+00  0.00000000000E+00 -0.72958521336E+01  0.14845163579E+04  0.14844984296E+04 0.  0.
        1    1    3    3  502    0 -0.35310037733E+03  0.51591766330E+02 -0.65449548236E+03  0.74545685541E+03  0.50400001928E-02 0. -1.
       -1    1    3    3    0  502  0.35310037733E+03 -0.51591766330E+02  0.64719963023E+03  0.73905950249E+03  0.50400001928E-02 0.  1.
</event>
<event>
 5   0  0.7672251E-04  0.1493329E+04  0.7818609E-02  0.8888901E-01
        2   -1    0    0  501    0  0.00000000000E+00  0.00000000000E+00  0.76237806233E+03  0.76237806233E+03  0.25500000920E-02 0. -1.
       -2   -1    0    0    0  501  0.00000000000E+00  0.00000000000E+00 -0.73127459026E+03  0.73127459026E+03  0.25500000920E-02 0.  1.
    10030    2    1    2    0    0  0.00000000000E+00  0.00000000000E+00  0.31103472071E+02  0.14936526526E+04  0.14933287718E+04 0.  0.
        5    1    3    3  502    0 -0.75619742731E+02 -0.21865105625E+03 -0.69450291778E+03  0.73204031493E+03  0.46999998093E+01 0.  1.
       -5    1    3    3    0  502  0.75619742731E+02  0.21865105625E+03  0.72560638985E+03  0.76161233766E+03  0.46999998093E+01 0. -1.
</event>
<event>
 5   0  0.3907345E-04  0.1508136E+04  0.7818609E-02  0.8879061E-01
        1   -1    0    0  501    0  0.00000000000E+00  0.00000000000E+00  0.97206839940E+03  0.97206839942E+03  0.50400001928E-02 0. -1.
       -1   -1    0    0    0  501  0.00000000000E+00  0.00000000000E+00 -0.58495720448E+03  0.58495720450E+03  0.50400001928E-02 0.  1.
    10030    2    1    2    0    0  0.00000000000E+00  0.00000000000E+00  0.38711119493E+03  0.15570256039E+04  0.15081358208E+04 0.  0.
        5    1    3    3  502    0  0.50488500090E+03 -0.56672544518E+02  0.76882211033E+03  0.92153685155E+03  0.46999998093E+01 0. -1.
       -5    1    3    3    0  502 -0.50488500090E+03  0.56672544518E+02 -0.38171091541E+03  0.63548875236E+03  0.46999998093E+01 0.  1.
</event>
<event>
 5   0  0.7454828E-04  0.1513675E+04  0.7818609E-02  0.8875410E-01
        2   -1    0    0  501    0  0.00000000000E+00  0.00000000000E+00  0.13693748012E+04  0.13693748012E+04  0.25500000920E-02 0.  1.
       -2   -1    0    0    0  501  0.00000000000E+00  0.00000000000E+00 -0.41829524486E+03  0.41829524487E+03  0.25500000920E-02 0. -1.
    10030    2    1    2    0    0  0.00000000000E+00  0.00000000000E+00  0.95107955634E+03  0.17876700461E+04  0.15136749556E+04 0.  0.
        3    1    3    3  502    0  0.50293095830E+03 -0.48098026338E+03  0.82692125395E+03  0.10807776520E+04  0.10100000352E+00 0.  1.
       -3    1    3    3    0  502 -0.50293095830E+03  0.48098026338E+03  0.12415830238E+03  0.70689239410E+03  0.10100000352E+00 0. -1.
</event>
<event>
 5   0  0.7672251E-04  0.1497899E+04  0.7818609E-02  0.8885851E-01
       -2   -1    0    0    0  501  0.00000000000E+00  0.00000000000E+00  0.11581691245E+04  0.11581691245E+04  0.25500000920E-02 0.  1.
        2   -1    0    0  501    0  0.00000000000E+00  0.00000000000E+00 -0.48432060984E+03  0.48432060984E+03  0.25500000920E-02 0. -1.
    10030    2    1    2    0    0  0.00000000000E+00  0.00000000000E+00  0.67384851468E+03  0.16424897344E+04  0.14978987639E+04 0.  0.
        5    1    3    3  502    0 -0.29422779676E+02  0.20014128312E+03 -0.45377963702E+03  0.49685036193E+03  0.46999998093E+01 0. -1.
       -5    1    3    3    0  502  0.29422779676E+02 -0.20014128312E+03  0.11276281517E+04  0.11456393724E+04  0.46999998093E+01 0.  1.
</event>
<event>
 5   0  0.4058874E-04  0.1485276E+04  0.7818609E-02  0.8894304E-01
        1   -1    0    0  501    0  0.00000000000E+00  0.00000000000E+00  0.14073899870E+04  0.14073899871E+04  0.50400001928E-02 0. -1.
       -1   -1    0    0    0  501  0.00000000000E+00  0.00000000000E+00 -0.39186785615E+03  0.39186785619E+03  0.50400001928E-02 0.  1.
    10030    2    1    2    0    0  0.00000000000E+00  0.00000000000E+00  0.10155221309E+04  0.17992578432E+04  0.14852755933E+04 0.  0.
        4    1    3    3  502    0  0.25404931290E+03 -0.45876349886E+03  0.11447579250E+04  0.12591573853E+04  0.12699999809E+01 0. -1.
       -4    1    3    3    0  502 -0.25404931290E+03  0.45876349886E+03 -0.12923579410E+03  0.54010045792E+03  0.12699999809E+01 0.  1.
</event>
<event>
 5   0  0.7454828E-04  0.1524590E+04  0.7818609E-02  0.8868264E-01
       -2   -1    0    0    0  501  0.00000000000E+00  0.00000000000E+00  0.25495729030E+03  0.25495729031E+03  0.25500000920E-02 0.  1.
        2   -1    0    0  501    0  0.00000000000E+00  0.00000000000E+00 -0.22791795271E+04  0.22791795271E+04  0.25500000920E-02 0. -1.
    10030    2    1    2    0    0  0.00000000000E+00  0.00000000000E+00 -0.20242222368E+04  0.25341368174E+04  0.15245896974E+04 0.  0.
        3    1    3    3  502    0  0.46586937522E+03 -0.41138120537E+03 -0.27844403219E+03  0.68102853109E+03  0.10100000352E+00 0.  1.
       -3    1    3    3    0  502 -0.46586937522E+03  0.41138120537E+03 -0.17457782046E+04  0.18531082863E+04  0.10100000352E+00 0. -1.
</event>
<event>
 5   0  0.7634227E-04  0.1497289E+04  0.7818609E-02  0.8886257E-01
       -2   -1    0    0    0  501  0.00000000000E+00  0.00000000000E+00  0.27400078823E+03  0.27400078824E+03  0.25500000920E-02 0. -1.
        2   -1    0    0  501    0  0.00000000000E+00  0.00000000000E+00 -0.20455009151E+04  0.20455009151E+04  0.25500000920E-02 0.  1.
    10030    2    1    2    0    0  0.00000000000E+00  0.00000000000E+00 -0.17715001269E+04  0.23195017034E+04  0.14972893683E+04 0.  0.
        2    1    3    3  502    0  0.19818222108E+03  0.11908972923E+03 -0.19888055241E+04  0.20022002819E+04  0.25500000920E-02 0.  1.
       -2    1    3    3    0  502 -0.19818222108E+03 -0.11908972923E+03  0.21730539722E+03  0.31730142141E+03  0.25500000920E-02 0. -1.
</event>
<event>
 5   0  0.7547580E-04  0.1509206E+04  0.7818609E-02  0.8878354E-01
       -2   -1    0    0    0  501  0.00000000000E+00  0.00000000000E+00  0.57950880953E+03  0.57950880953E+03  0.25500000920E-02 0.  1.
        2   -1    0    0  501    0  0.00000000000E+00  0.00000000000E+00 -0.98260087642E+03  0.98260087643E+03  0.25500000920E-02 0. -1.
    10030    2    1    2    0    0  0.00000000000E+00  0.00000000000E+00 -0.40309206690E+03  0.15621096860E+04  0.15092062339E+04 0.  0.
        4    1    3    3  502    0  0.13536209920E+03 -0.59126271474E+03 -0.66618001886E+03  0.90095056811E+03  0.12699999809E+01 0. -1.
       -4    1    3    3    0  502 -0.13536209920E+03  0.59126271474E+03  0.26308795196E+03  0.66115911785E+03  0.12699999809E+01 0.  1.
</event>
<event>
 5   0  0.7672251E-04  0.1575057E+04  0.7818609E-02  0.8836020E-01
        2   -1    0    0  501    0  0.00000000000E+00  0.00000000000E+00  0.34178117081E+03  0.34178117082E+03  0.25500000920E-02 0. -1.
       -2   -1    0    0    0  501  0.00000000000E+00  0.00000000000E+00 -0.18146143335E+04  0.18146143335E+04  0.25500000920E-02 0.  1.
    10030    2    1    2    0    0  0.00000000000E+00  0.00000000000E+00 -0.14728331626E+04  0.21563955043E+04  0.15750568389E+04 0.  0.
        5    1    3    3  502    0 -0.34804684023E+03  0.48904188203E+03 -0.38475256374E+02  0.60149896153E+03  0.46999998093E+01 0. -1.
       -5    1    3    3    0  502  0.34804684023E+03 -0.48904188203E+03 -0.14343579063E+04  0.15548965427E+04  0.46999998093E+01 0.  1.
</event>
<event>
 5   0  0.7359897E-04  0.1464194E+04  0.7818609E-02  0.8908619E-01
        2   -1    0    0  501    0  0.00000000000E+00  0.00000000000E+00  0.84220547108E+03  0.84220547109E+03  0.25500000920E-02 0. -1.
       -2   -1    0    0    0  501  0.00000000000E+00  0.00000000000E+00 -0.63638382416E+03  0.63638382417E+03  0.25500000920E-02 0.  1.
    10030    2    1    2    0    0  0.00000000000E+00  0.00000000000E+00  0.20582164692E+03  0.14785892953E+04  0.14641938921E+04 0.  0.
        1    1    3    3  502    0 -0.12934676617E+03  0.99124273488E+02 -0.61783574799E+03  0.63896574167E+03  0.50400001928E-02 0.  1.
       -1    1    3    3    0  502  0.12934676617E+03 -0.99124273488E+02  0.82365739491E+03  0.83962355358E+03  0.50400001928E-02 0. -1.
</event>
<event>
 5   0  0.7359897E-04  0.1484599E+04  0.7818609E-02  0.8894760E-01
       -2   -1    0    0    0  501  0.00000000000E+00  0.00000000000E+00  0.27905855574E+03  0.27905855575E+03  0.25500000920E-02 0. -1.
        2   -1    0    0  501    0  0.00000000000E+00  0.00000000000E+00 -0.19745260085E+04  0.19745260085E+04  0.25500000920E-02 0.  1.
    10030    2    1    2    0    0  0.00000000000E+00  0.00000000000E+00 -0.16954674527E+04  0.22535845642E+04  0.14845987690E+04 0.  0.
        1    1    3    3  502    0 -0.57535419073E+03  0.25360447571E+03 -0.24883380703E+03  0.67621441750E+03  0.50400001928E-02 0.  1.
       -1    1    3    3    0  502  0.57535419073E+03 -0.25360447571E+03 -0.14466336457E+04  0.15773701467E+04  0.50400001928E-02 0. -1.
</event>
<event>
 5   0  0.4084462E-04  0.1664871E+04  0.7818609E-02  0.8781657E-01
       -1   -1    0    0    0  501  0.00000000000E+00  0.00000000000E+00  0.75765138177E+03  0.75765138179E+03  0.50400001928E-02 0.  1.
        1   -1    0    0  501    0  0.00000000000E+00  0.00000000000E+00 -0.91460113988E+03  0.91460113989E+03  0.50400001928E-02 0. -1.
    10030    2    1    2    0    0  0.00000000000E+00  0.00000000000E+00 -0.15694975811E+03  0.16722525217E+04  0.16648709469E+04 0.  0.
        1    1    3    3  502    0 -0.11492128369E+03 -0.16086600779E+03  0.73372891297E+03  0.75989663222E+03  0.50400001928E-02 0.  1.
       -1    1    3    3    0  502  0.11492128369E+03  0.16086600779E+03 -0.89067867107E+03  0.91235588946E+03  0.50400001928E-02 0. -1.
</event>
<event>
 5   0  0.4015204E-04  0.1507797E+04  0.7818609E-02  0.8879284E-01
        1   -1    0    0  501    0  0.00000000000E+00  0.00000000000E+00  0.99058823173E+03  0.99058823174E+03  0.50400001928E-02 0. -1.
       -1   -1    0    0    0  501  0.00000000000E+00  0.00000000000E+00 -0.57376310653E+03  0.57376310655E+03  0.50400001928E-02 0.  1.
    10030    2    1    2    0    0  0.00000000000E+00  0.00000000000E+00  0.41682512521E+03  0.15643513383E+04  0.15077970436E+04 0.  0.
        2    1    3    3  502    0 -0.63767389027E+03 -0.79882225618E+02 -0.20052064597E+03  0.67321444561E+03  0.25500000920E-02 0.  1.
       -2    1    3    3    0  502  0.63767389027E+03  0.79882225618E+02  0.61734577118E+03  0.89113689268E+03  0.25500000920E-02 0. -1.
</event>
<event>
 5   0  0.7359897E-04  0.1422373E+04  0.7818609E-02  0.8937781E-01
        2   -1    0    0  501    0  0.00000000000E+00  0.00000000000E+00  0.12754649352E+04  0.12754649352E+04  0.25500000920E-02 0.  1.
       -2   -1    0    0    0  501  0.00000000000E+00  0.00000000000E+00 -0.39655070831E+03  0.39655070832E+03  0.25500000920E-02 0. -1.
    10030    2    1    2    0    0  0.00000000000E+00  0.00000000000E+00  0.87891422685E+03  0.16720156435E+04  0.14223734017E+04 0.  0.
        1    1    3    3  502    0 -0.37224758527E+03  0.64295520185E+02  0.11477786974E+04  0.12083451978E+04  0.50400001928E-02 0.  1.
       -1    1    3    3    0  502  0.37224758527E+03 -0.64295520185E+02 -0.26886447059E+03  0.46367044571E+03  0.50400001928E-02 0. -1.
</event>
<event>
 5   0  0.3907345E-04  0.1510244E+04  0.7818609E-02  0.8877669E-01
       -1   -1    0    0    0  501  0.00000000000E+00  0.00000000000E+00  0.75930079612E+03  0.75930079614E+03  0.50400001928E-02 0. -1.
        1   -1    0    0  501    0  0.00000000000E+00  0.00000000000E+00 -0.75096625803E+03  0.75096625804E+03  0.50400001928E-02 0.  1.
    10030    2    1    2    0    0  0.00000000000E+00  0.00000000000E+00  0.83345380981E+01  0.15102670542E+04  0.15102440566E+04 0.  0.
        5    1    3    3  502    0  0.53771967635E+00 -0.70183739628E+03  0.28275932088E+03  0.75667096119E+03  0.46999998093E+01 0. -1.
       -5    1    3    3    0  502 -0.53771967635E+00  0.70183739628E+03 -0.27442478279E+03  0.75359609299E+03  0.46999998093E+01 0.  1.
</event>
<event>
 5   0  0.7672251E-04  0.1492674E+04  0.7818609E-02  0.8889339E-01
        2   -1    0    0  501    0  0.00000000000E+00  0.00000000000E+00  0.38423079941E+03  0.38423079942E+03  0.25500000920E-02 0. -1.
       -2   -1    0    0    0  501  0.00000000000E+00  0.00000000000E+00 -0.14496993243E+04  0.14496993243E+04  0.25500000920E-02 0.  1.
    10030    2    1    2    0    0  0.00000000000E+00  0.00000000000E+00 -0.10654685249E+04  0.18339301237E+04  0.14926742850E+04 0.  0.
        5    1    3    3  502    0  0.28930941676E+03  0.19349695162E+03 -0.13438620191E+04  0.13882104399E+04  0.46999998093E+01 0.  1.
       -5    1    3    3    0  502 -0.28930941676E+03 -0.19349695162E+03  0.27839349426E+03  0.44571968383E+03  0.46999998093E+01 0. -1.
</event>
<event>
 5   0  0.4086710E-04  0.1504978E+04  0.7818609E-02  0.8881149E-01
        1   -1    0    0  501    0  0.00000000000E+00  0.00000000000E+00  0.10902451227E+04  0.10902451227E+04  0.50400001928E-02 0.  1.
       -1   -1    0    0    0  501  0.00000000000E+00  0.00000000000E+00 -0.51936913062E+03  0.51936913065E+03  0.50400001928E-02 0. -1.
    10030    2    1    2    0    0  0.00000000000E+00  0.00000000000E+00  0.57087599206E+03  0.16096142533E+04  0.15049779554E+04 0.  0.
        3    1    3    3  502    0  0.16997505999E+03 -0.16051948071E+03 -0.47954034638E+03  0.53349505969E+03  0.10100000352E+00 0. -1.
       -3    1    3    3    0  502 -0.16997505999E+03  0.16051948071E+03  0.10504163384E+04  0.10761191937E+04  0.10100000352E+00 0.  1.
</event>
<event>
 5   0  0.7634227E-04  0.1505155E+04  0.7818609E-02  0.8881032E-01
        2   -1    0    0  501    0  0.00000000000E+00  0.00000000000E+00  0.62078983874E+03  0.62078983875E+03  0.25500000920E-02 0. -1.
       -2   -1    0    0    0  501  0.00000000000E+00  0.00000000000E+00 -0.91234261004E+03  0.91234261004E+03  0.25500000920E-02 0.  1.
    10030    2    1    2    0    0  0.00000000000E+00  0.00000000000E+00 -0.29155277130E+03  0.15331324488E+04  0.15051551704E+04 0.  0.
        2    1    3    3  502    0  0.97315225679E+02  0.37285942826E+03  0.51267463364E+03  0.64134989388E+03  0.25500000920E-02 0. -1.
       -2    1    3    3    0  502 -0.97315225679E+02 -0.37285942826E+03 -0.80422740494E+03  0.89178255492E+03  0.25500000920E-02 0.  1.
</event>
<event>
 5   0  0.4058874E-04  0.1495760E+04  0.7818609E-02  0.8887277E-01
        1   -1    0    0  501    0  0.00000000000E+00  0.00000000000E+00  0.53124259382E+03  0.53124259384E+03  0.50400001928E-02 0.  1.
       -1   -1    0    0    0  501  0.00000000000E+00  0.00000000000E+00 -0.10528610146E+04  0.10528610147E+04  0.50400001928E-02 0. -1.
    10030    2    1    2    0    0  0.00000000000E+00  0.00000000000E+00 -0.52161842082E+03  0.15841036085E+04  0.14957601631E+04 0.  0.
        4    1    3    3  502    0  0.30960351763E+03  0.55009354962E+03  0.16396037995E+03  0.65218239056E+03  0.12699999809E+01 0.  1.
       -4    1    3    3    0  502 -0.30960351763E+03 -0.55009354962E+03 -0.68557880077E+03  0.93192121793E+03  0.12699999809E+01 0. -1.
</event>
<event>
 5   0  0.3907345E-04  0.1494712E+04  0.7818609E-02  0.8887977E-01
       -1   -1    0    0    0  501  0.00000000000E+00  0.00000000000E+00  0.42902514237E+03  0.42902514240E+03  0.50400001928E-02 0.  1.
        1   -1    0    0  501    0  0.00000000000E+00  0.00000000000E+00 -0.13018836930E+04  0.13018836930E+04  0.50400001928E-02 0. -1.
    10030    2    1    2    0    0  0.00000000000E+00  0.00000000000E+00 -0.87285855063E+03  0.17309088354E+04  0.14947117940E+04 0.  0.
        5    1    3    3  502    0 -0.63820616574E+03  0.33909339282E+03 -0.21601751476E+03  0.75430570443E+03  0.46999998093E+01 0.  1.
       -5    1    3    3    0  502  0.63820616574E+03 -0.33909339282E+03 -0.65684103586E+03  0.97660313098E+03  0.46999998093E+01 0. -1.
</event>
<event>
 5   0  0.4084462E-04  0.1506877E+04  0.7818609E-02  0.8879892E-01
        1   -1    0    0  501    0  0.00000000000E+00  0.00000000000E+00  0.67083689289E+03  0.67083689291E+03  0.50400001928E-02 0.  1.
       -1   -1    0    0    0  501  0.00000000000E+00  0.00000000000E+00 -0.84621139344E+03  0.84621139345E+03  0.50400001928E-02 0. -1.
    10030    2    1    2    0    0  0.00000000000E+00  0.00000000000E+00 -0.17537450055E+03  0.15170482864E+04  0.15068773300E+04 0.  0.
        1    1    3    3  502    0 -0.49771682204E+03 -0.31007875727E+03 -0.56395429163E+03  0.81358178060E+03  0.50400001928E-02 0. -1.
       -1    1    3    3    0  502  0.49771682204E+03  0.31007875727E+03  0.38857979108E+03  0.70346650575E+03  0.50400001928E-02 0.  1.
</event>
<event>
 5   0  0.4015204E-04  0.1417661E+04  0.7818609E-02  0.8941133E-01
        1   -1    0    0  501    0  0.00000000000E+00  0.00000000000E+00  0.92404949040E+03  0.92404949041E+03  0.50400001928E-02 0. -1.
       -1   -1    0    0    0  501  0.00000000000E+00  0.00000000000E+00 -0.54373801548E+03  0.54373801550E+03  0.50400001928E-02 0.  1.
    10030    2    1    2    0    0  0.00000000000E+00  0.00000000000E+00  0.38031147492E+03  0.14677875059E+04  0.14176612235E+04 0.  0.
        2    1    3    3  502    0 -0.54490061414E+03  0.45003169956E+03  0.13348817413E+03  0.71921088878E+03  0.25500000920E-02 0.  1.
       -2    1    3    3    0  502  0.54490061414E+03 -0.45003169956E+03  0.24682330079E+03  0.74857661713E+03  0.25500000920E-02 0. -1.
</event>
<event>
 5   0  0.7454828E-04  0.1495618E+04  0.7818609E-02  0.8887372E-01
        2   -1    0    0  501    0  0.00000000000E+00  0.00000000000E+00  0.69751853885E+03  0.69751853886E+03  0.25500000920E-02 0.  1.
       -2   -1    0    0    0  501  0.00000000000E+00  0.00000000000E+00 -0.80172496317E+03  0.80172496317E+03  0.25500000920E-02 0. -1.
    10030    2    1    2    0    0  0.00000000000E+00  0.00000000000E+00 -0.10420642431E+03  0.14992435020E+04  0.14956176315E+04 0.  0.
        3    1    3    3  502    0  0.31469048275E+03  0.65145343623E+03  0.13755466352E+03  0.73643939002E+03  0.10100000352E+00 0.  1.
       -3    1    3    3    0  502 -0.31469048275E+03 -0.65145343623E+03 -0.24176108783E+03  0.76280411201E+03  0.10100000352E+00 0. -1.
</event>
<event>
 5   0  0.7359897E-04  0.1516537E+04  0.7818609E-02  0.8873530E-01
        2   -1    0    0  501    0  0.00000000000E+00  0.00000000000E+00  0.10418353194E+04  0.10418353194E+04  0.25500000920E-02 0.  1.
       -2   -1    0    0    0  501  0.00000000000E+00  0.00000000000E+00 -0.55188319131E+03  0.55188319132E+03  0.25500000920E-02 0. -1.
    10030    2    1    2    0    0  0.00000000000E+00  0.00000000000E+00  0.48995212810E+03  0.15937185107E+04  0.15165373730E+04 0.  0.
        1    1    3    3  502    0 -0.60670950241E+03  0.32655623874E+03  0.57768952418E+03  0.89914436201E+03  0.50400001928E-02 0.  1.
       -1    1    3    3    0  502  0.60670950241E+03 -0.32655623874E+03 -0.87737396083E+02  0.69457414872E+03  0.50400001928E-02 0. -1.
</event>
<event>
 5   0  0.4015204E-04  0.1535233E+04  0.7818609E-02  0.8861356E-01
       -1   -1    0    0    0  501  0.00000000000E+00  0.00000000000E+00  0.68260107541E+03  0.68260107542E+03  0.50400001928E-02 0.  1.
        1   -1    0    0  501    0  0.00000000000E+00  0.00000000000E+00 -0.86321977801E+03  0.86321977802E+03  0.50400001928E-02 0. -1.
    10030    2    1    2    0    0  0.00000000000E+00  0.00000000000E+00 -0.18061870260E+03  0.15458208534E+04  0.15352325541E+04 0.  0.
        2    1    3    3  502    0  0.18925128125E+03 -0.64319989975E+03  0.28605004493E+03  0.72893537896E+03  0.25500000920E-02 0.  1.
       -2    1    3    3    0  502 -0.18925128125E+03  0.64319989975E+03 -0.46666874754E+03  0.81688547448E+03  0.25500000920E-02 0. -1.
</event>
<event>
 5   0  0.4058874E-04  0.1469473E+04  0.7818609E-02  0.8905011E-01
       -1   -1    0    0    0  501  0.00000000000E+00  0.00000000000E+00  0.67944654491E+03  0.67944654493E+03  0.50400001928E-02 0. -1.
        1   -1    0    0  501    0  0.00000000000E+00  0.00000000000E+00 -0.79452535100E+03  0.79452535101E+03  0.50400001928E-02 0.  1.
    10030    2    1    2    0    0  0.00000000000E+00  0.00000000000E+00 -0.11507880609E+03  0.14739718959E+04  0.14694727008E+04 0.  0.
        4    1    3    3  502    0  0.50299929302E+03  0.48370725163E+03 -0.28814524156E+03  0.75499025636E+03  0.12699999809E+01 0.  1.
       -4    1    3    3    0  502 -0.50299929302E+03 -0.48370725163E+03  0.17306643547E+03  0.71898163958E+03  0.12699999809E+01 0. -1.
</event>
<event>
 5   0  0.4086710E-04  0.1499780E+04  0.7818609E-02  0.8884600E-01
        1   -1    0    0  501    0  0.00000000000E+00  0.00000000000E+00  0.12546646419E+04  0.12546646419E+04  0.50400001928E-02 0.  1.
       -1   -1    0    0    0  501  0.00000000000E+00  0.00000000000E+00 -0.44819521378E+03  0.44819521381E+03  0.50400001928E-02 0. -1.
    10030    2    1    2    0    0  0.00000000000E+00  0.00000000000E+00  0.80646942810E+03  0.17028598557E+04  0.14997795670E+04 0.  0.
        3    1    3    3  502    0  0.63952479167E+03  0.37293588409E+03  0.26764249939E+03  0.78721385308E+03  0.10100000352E+00 0. -1.
       -3    1    3    3    0  502 -0.63952479167E+03 -0.37293588409E+03  0.53882692871E+03  0.91564600262E+03  0.10100000352E+00 0.  1.
</event>
<event>
 5   0  0.4058874E-04  0.1503357E+04  0.7818609E-02  0.8882224E-01
       -1   -1    0    0    0  501  0.00000000000E+00  0.00000000000E+00  0.85049919638E+03  0.85049919639E+03  0.50400001928E-02 0. -1.
        1   -1    0    0  501    0  0.00000000000E+00  0.00000000000E+00 -0.66433958897E+03  0.66433958899E+03  0.50400001928E-02 0.  1.
    10030    2    1    2    0    0  0.00000000000E+00  0.00000000000E+00  0.18615960741E+03  0.15148387854E+04  0.15033566264E+04 0.  0.
        4    1    3    3  502    0 -0.28884381074E+03  0.37136934675E+03 -0.49763375508E+03  0.68482618656E+03  0.12699999809E+01 0.  1.
       -4    1    3    3    0  502  0.28884381074E+03 -0.37136934675E+03  0.68379336249E+03  0.83001259882E+03  0.12699999809E+01 0. -1.
</event>
<event>
 5   0  0.7634227E-04  0.1510140E+04  0.7818609E-02  0.8877738E-01
       -2   -1    0    0    0  501  0.00000000000E+00  0.00000000000E+00  0.26579987102E+03  0.26579987103E+03  0.25500000920E-02 0.  1.
        2   -1    0    0  501    0  0.00000000000E+00  0.00000000000E+00 -0.21449619840E+04  0.21449619840E+04  0.25500000920E-02 0. -1.
    10030    2    1    2    0    0  0.00000000000E+00  0.00000000000E+00 -0.18791621130E+04  0.24107618551E+04  0.15101398859E+04 0.  0.
        2    1    3    3  502    0  0.63393478931E+02  0.75223352917E+03 -0.96515325764E+03  0.12253141745E+04  0.25500000920E-02 0. -1.
       -2    1    3    3    0  502 -0.63393478931E+02 -0.75223352917E+03 -0.91400885538E+03  0.11854476805E+04  0.25500000920E-02 0.  1.
</event>
<event>
 5   0  0.7359897E-04  0.1526630E+04  0.7818609E-02  0.8866935E-01
       -2   -1    0    0    0  501  0.00000000000E+00  0.00000000000E+00  0.89496497954E+03  0.89496497954E+03  0.25500000920E-02 0. -1.
        2   -1    0    0  501    0  0.00000000000E+00  0.00000000000E+00 -0.65103049779E+03  0.65103049780E+03  0.25500000920E-02 0.  1.
    10030    2    1    2    0    0  0.00000000000E+00  0.00000000000E+00  0.24393448174E+03  0.15459954773E+04  0.15266296160E+04 0.  0.
        1    1    3    3  502    0 -0.16096215603E+02  0.56747039266E+03  0.63870255235E+03  0.85453068120E+03  0.50400001928E-02 0. -1.
       -1    1    3    3    0  502  0.16096215603E+02 -0.56747039266E+03 -0.39476807061E+03  0.69146479614E+03  0.50400001928E-02 0.  1.
</event>
<event>
 5   0  0.4084462E-04  0.1499906E+04  0.7818609E-02  0.8884516E-01
        1   -1    0    0  501    0  0.00000000000E+00  0.00000000000E+00  0.74670282552E+03  0.74670282554E+03  0.50400001928E-02 0. -1.
       -1   -1    0    0    0  501  0.00000000000E+00  0.00000000000E+00 -0.75321682289E+03  0.75321682291E+03  0.50400001928E-02 0.  1.
    10030    2    1    2    0    0  0.00000000000E+00  0.00000000000E+00 -0.65139973753E+01  0.14999196484E+04  0.14999055036E+04 0.  0.
        1    1    3    3  502    0  0.56028642282E+02  0.21074139993E+02  0.74430994962E+03  0.74671321755E+03  0.50400001928E-02 0. -1.
       -1    1    3    3    0  502 -0.56028642282E+02 -0.21074139993E+02 -0.75082394700E+03  0.75320643090E+03  0.50400001928E-02 0.  1.
</event>
<event>
 5   0  0.7634227E-04  0.1517825E+04  0.7818609E-02  0.8872685E-01
       -2   -1    0    0    0  501  0.00000000000E+00  0.00000000000E+00  0.62972181358E+03  0.62972181359E+03  0.25500000920E-02 0.  1.
        2   -1    0    0  501    0  0.00000000000E+00  0.00000000000E+00 -0.91460752129E+03  0.91460752130E+03  0.25500000920E-02 0. -1.
    10030    2    1    2    0    0  0.00000000000E+00  0.00000000000E+00 -0.28488570771E+03  0.15443293349E+04  0.15178251639E+04 0.  0.
        2    1    3    3  502    0 -0.68553125043E+03  0.29346490271E+03  0.99244274311E+00  0.74570485407E+03  0.25500000920E-02 0.  1.
       -2    1    3    3    0  502  0.68553125043E+03 -0.29346490271E+03 -0.28587815045E+03  0.79862448081E+03  0.25500000920E-02 0. -1.
</event>
<event>
 5   0  0.4086710E-04  0.1531729E+04  0.7818609E-02  0.8863623E-01
       -1   -1    0    0    0  501  0.00000000000E+00  0.00000000000E+00  0.11615293898E+04  0.11615293898E+04  0.50400001928E-02 0. -1.
        1   -1    0    0  501    0  0.00000000000E+00  0.00000000000E+00 -0.50497969264E+03  0.50497969267E+03  0.50400001928E-02 0.  1.
    10030    2    1    2    0    0  0.00000000000E+00  0.00000000000E+00  0.65654969717E+03  0.16665090825E+04  0.15317294204E+04 0.  0.
        3    1    3    3  502    0  0.63913381928E+03  0.14451872889E+03 -0.10305736808E+03  0.66332385247E+03  0.10100000352E+00 0.  1.
       -3    1    3    3    0  502 -0.63913381928E+03 -0.14451872889E+03  0.75960706525E+03  0.10031852300E+04  0.10100000352E+00 0. -1.
</event>
<event>
 5   0  0.7359897E-04  0.1512485E+04  0.7818609E-02  0.8876193E-01
        2   -1    0    0  501    0  0.00000000000E+00  0.00000000000E+00  0.11485476541E+04  0.11485476541E+04  0.25500000920E-02 0. -1.
       -2   -1    0    0    0  501  0.00000000000E+00  0.00000000000E+00 -0.49793560623E+03  0.49793560624E+03  0.25500000920E-02 0.  1.
    10030    2    1    2    0    0  0.00000000000E+00  0.00000000000E+00  0.65061204789E+03  0.16464832604E+04  0.15124850709E+04 0.  0.
        1    1    3    3  502    0  0.71572787501E+03  0.16495274490E+03  0.52133462024E+03  0.90070282857E+03  0.50400001928E-02 0. -1.
       -1    1    3    3    0  502 -0.71572787501E+03 -0.16495274490E+03  0.12927742765E+03  0.74578043179E+03  0.50400001928E-02 0.  1.
</event>
<event>
 5   0  0.4086710E-04  0.1508573E+04  0.7818609E-02  0.8878772E-01
       -1   -1    0    0    0  501  0.00000000000E+00  0.00000000000E+00  0.86562714491E+03  0.86562714493E+03  0.50400001928E-02 0. -1.
        1   -1    0    0  501    0  0.00000000000E+00  0.00000000000E+00 -0.65726659644E+03  0.65726659645E+03  0.50400001928E-02 0.  1.
    10030    2    1    2    0    0  0.00000000000E+00  0.00000000000E+00  0.20836054848E+03  0.15228937414E+04  0.15085725801E+04 0.  0.
        3    1    3    3  502    0  0.56342889540E+03 -0.49440149530E+03  0.19341765227E+02  0.74983936467E+03  0.10100000352E+00 0.  1.
       -3    1    3    3    0  502 -0.56342889540E+03  0.49440149530E+03  0.18901878325E+03  0.77305437671E+03  0.10100000352E+00 0. -1.
</event>
<event>
 5   0  0.7672251E-04  0.1496884E+04  0.7818609E-02  0.8886528E-01
        2   -1    0    0  501    0  0.00000000000E+00  0.00000000000E+00  0.16648175568E+04  0.16648175568E+04  0.25500000920E-02 0.  1.
       -2   -1    0    0    0  501  0.00000000000E+00  0.00000000000E+00 -0.33647253524E+03  0.33647253525E+03  0.25500000920E-02 0. -1.
    10030    2    1    2    0    0  0.00000000000E+00  0.00000000000E+00  0.13283450216E+04  0.20012900921E+04  0.14968839421E+04 0.  0.
        5    1    3    3  502    0 -0.46931419409E+03 -0.16097853007E+03 -0.84976723070E+02  0.50340146342E+03  0.46999998093E+01 0. -1.
       -5    1    3    3    0  502  0.46931419409E+03  0.16097853007E+03  0.14133217447E+04  0.14978886286E+04  0.46999998093E+01 0.  1.
</event>
<event>
 5   0  0.7359897E-04  0.1494886E+04  0.7818609E-02  0.8887861E-01
        2   -1    0    0  501    0  0.00000000000E+00  0.00000000000E+00  0.11164660928E+04  0.11164660928E+04  0.25500000920E-02 0.  1.
       -2   -1    0    0    0  501  0.00000000000E+00  0.00000000000E+00 -0.50039204920E+03  0.50039204921E+03  0.25500000920E-02 0. -1.
    10030    2    1    2    0    0  0.00000000000E+00  0.00000000000E+00  0.61607404364E+03  0.16168581421E+04  0.14948856225E+04 0.  0.
        1    1    3    3  502    0  0.73462936337E+03 -0.13770023449E+03  0.30220243598E+03  0.80620590945E+03  0.50400001928E-02 0.  1.
       -1    1    3    3    0  502 -0.73462936337E+03  0.13770023449E+03  0.31387160766E+03  0.81065223260E+03  0.50400001928E-02 0. -1.
</event>
<event>
 5   0  0.4015204E-04  0.1505968E+04  0.7818609E-02  0.8880494E-01
        1   -1    0    0  501    0  0.00000000000E+00  0.00000000000E+00  0.19534258286E+04  0.19534258286E+04  0.50400001928E-02 0.  1.
       -1   -1    0    0    0  501  0.00000000000E+00  0.00000000000E+00 -0.29025173282E+03  0.29025173287E+03  0.50400001928E-02 0. -1.
    10030    2    1    2    0    0  0.00000000000E+00  0.00000000000E+00  0.16631740958E+04  0.22436775614E+04  0.15059684349E+04 0.  0.
        2    1    3    3  502    0 -0.65632850280E+02 -0.45261428227E+03  0.17227878935E+04  0.17824605144E+04  0.25500000920E-02 0.  1.
       -2    1    3    3    0  502  0.65632850280E+02  0.45261428227E+03 -0.59613797755E+02  0.46121704700E+03  0.25500000920E-02 0. -1.
</event>
<event>
 5   0  0.7634227E-04  0.1475333E+04  0.7818609E-02  0.8901024E-01
        2   -1    0    0  501    0  0.00000000000E+00  0.00000000000E+00  0.19058374813E+04  0.19058374813E+04  0.25500000920E-02 0. -1.
       -2   -1    0    0    0  501  0.00000000000E+00  0.00000000000E+00 -0.28551839356E+03  0.28551839357E+03  0.25500000920E-02 0.  1.
    10030    2    1    2    0    0  0.00000000000E+00  0.00000000000E+00  0.16203190877E+04  0.21913558748E+04  0.14753327164E+04 0.  0.
        2    1    3    3  502    0 -0.33880998867E+03 -0.60837383813E+03  0.44863889665E+03  0.82836453023E+03  0.25500000920E-02 0. -1.
       -2    1    3    3    0  502  0.33880998867E+03  0.60837383813E+03  0.11716801911E+04  0.13629913446E+04  0.25500000920E-02 0.  1.
</event>
<event>
 5   0  0.7359897E-04  0.1533878E+04  0.7818609E-02  0.8862232E-01
       -2   -1    0    0    0  501  0.00000000000E+00  0.00000000000E+00  0.74325713873E+03  0.74325713873E+03  0.25500000920E-02 0. -1.
        2   -1    0    0  501    0  0.00000000000E+00  0.00000000000E+00 -0.79137571479E+03  0.79137571480E+03  0.25500000920E-02 0.  1.
    10030    2    1    2    0    0  0.00000000000E+00  0.00000000000E+00 -0.48118576066E+02  0.15346328535E+04  0.15338782865E+04 0.  0.
        1    1    3    3  502    0  0.53659477499E+03  0.54787894134E+03 -0.14548692175E+02  0.76701822102E+03  0.50400001928E-02 0. -1.
       -1    1    3    3    0  502 -0.53659477499E+03 -0.54787894134E+03 -0.33569883891E+02  0.76761463251E+03  0.50400001928E-02 0.  1.
</event>
<event>
 5   0  0.4015204E-04  0.1496247E+04  0.7818609E-02  0.8886953E-01
        1   -1    0    0  501    0  0.00000000000E+00  0.00000000000E+00  0.97299311030E+03  0.97299311031E+03  0.50400001928E-02 0.  1.
       -1   -1    0    0    0  501  0.00000000000E+00  0.00000000000E+00 -0.57522362055E+03  0.57522362057E+03  0.50400001928E-02 0. -1.
    10030    2    1    2    0    0  0.00000000000E+00  0.00000000000E+00  0.39776948975E+03  0.15482167309E+04  0.14962467974E+04 0.  0.
        2    1    3    3  502    0 -0.54903452357E+03  0.48732379438E+03  0.49778131458E+02  0.73579973568E+03  0.25500000920E-02 0.  1.
       -2    1    3    3    0  502  0.54903452357E+03 -0.48732379438E+03  0.34799135829E+03  0.81241699520E+03  0.25500000920E-02 0. -1.
</event>
<event>
 5   0  0.4058874E-04  0.1514731E+04  0.7818609E-02  0.8874715E-01
       -1   -1    0    0    0  501  0.00000000000E+00  0.00000000000E+00  0.53313953580E+03  0.53313953582E+03  0.50400001928E-02 0.  1.
        1   -1    0    0  501    0  0.00000000000E+00  0.00000000000E+00 -0.10758963286E+04  0.10758963286E+04  0.50400001928E-02 0. -1.
    10030    2    1    2    0    0  0.00000000000E+00  0.00000000000E+00 -0.54275679279E+03  0.16090358644E+04  0.15147314867E+04 0.  0.
        4    1    3    3  502    0 -0.19778582935E+03  0.45673272423E+03 -0.87777545539E+03  0.10090665878E+04  0.12699999809E+01 0. -1.
       -4    1    3    3    0  502  0.19778582935E+03 -0.45673272423E+03  0.33501866259E+03  0.59996927660E+03  0.12699999809E+01 0.  1.
</event>
<event>
 5   0  0.7672251E-04  0.1503915E+04  0.7818609E-02  0.8881854E-01
        2   -1    0    0  501    0  0.00000000000E+00  0.00000000000E+00  0.13199281811E+04  0.13199281811E+04  0.25500000920E-02 0. -1.
       -2   -1    0    0    0  501  0.00000000000E+00  0.00000000000E+00 -0.42838683500E+03  0.42838683501E+03  0.25500000920E-02 0.  1.
    10030    2    1    2    0    0  0.00000000000E+00  0.00000000000E+00  0.89154134608E+03  0.17483150161E+04  0.15039146996E+04 0.  0.
        5    1    3    3  502    0  0.34856212280E+03 -0.52180355314E+02 -0.32640115250E+03  0.48039373984E+03  0.46999998093E+01 0.  1.
       -5    1    3    3    0  502 -0.34856212280E+03  0.52180355314E+02  0.12179424986E+04  0.12679212763E+04  0.46999998093E+01 0. -1.
</event>
<event>
 5   0  0.4086710E-04  0.1500638E+04  0.7818609E-02  0.8884029E-01
        1   -1    0    0  501    0  0.00000000000E+00  0.00000000000E+00  0.38736928090E+03  0.38736928093E+03  0.50400001928E-02 0.  1.
       -1   -1    0    0    0  501  0.00000000000E+00  0.00000000000E+00 -0.14533375848E+04  0.14533375848E+04  0.50400001928E-02 0. -1.
    10030    2    1    2    0    0  0.00000000000E+00  0.00000000000E+00 -0.10659683039E+04  0.18407068657E+04  0.15006376447E+04 0.  0.
        3    1    3    3  502    0  0.34183619148E+03  0.66555059022E+03 -0.46393583034E+03  0.88036698872E+03  0.10100000352E+00 0.  1.
       -3    1    3    3    0  502 -0.34183619148E+03 -0.66555059022E+03 -0.60203247355E+03  0.96033987700E+03  0.10100000352E+00 0. -1.
</event>
<event>
 5   0  0.4086710E-04  0.1503106E+04  0.7818609E-02  0.8882390E-01
        1   -1    0    0  501    0  0.00000000000E+00  0.00000000000E+00  0.83698828112E+03  0.83698828114E+03  0.50400001928E-02 0. -1.
       -1   -1    0    0    0  501  0.00000000000E+00  0.00000000000E+00 -0.67483876632E+03  0.67483876634E+03  0.50400001928E-02 0.  1.
    10030    2    1    2    0    0  0.00000000000E+00  0.00000000000E+00  0.16214951480E+03  0.15118270475E+04  0.15031063024E+04 0.  0.
        3    1    3    3  502    0  0.64207446831E+03 -0.17200554595E+03  0.43380387315E+03  0.79374513620E+03  0.10100000352E+00 0. -1.
       -3    1    3    3    0  502 -0.64207446831E+03  0.17200554595E+03 -0.27165435834E+03  0.71808191127E+03  0.10100000352E+00 0.  1.
</event>
<event>
 5   0  0.7454828E-04  0.1483150E+04  0.7818609E-02  0.8895736E-01
       -2   -1    0    0    0  501  0.00000000000E+00  0.00000000000E+00  0.90704369906E+03  0.90704369906E+03  0.25500000920E-02 0.  1.
        2   -1    0    0  501    0  0.00000000000E+00  0.00000000000E+00 -0.60629224845E+03  0.60629224846E+03  0.25500000920E-02 0. -1.
    10030    2    1    2    0    0  0.00000000000E+00  0.00000000000E+00  0.30075145061E+03  0.15133359475E+04  0.14831501121E+04 0.  0.
        3    1    3    3  502    0 -0.14992125373E+03  0.72173014565E+03  0.67716036056E+02  0.74024067519E+03  0.10100000352E+00 0. -1.
       -3    1    3    3    0  502  0.14992125373E+03 -0.72173014565E+03  0.23303541455E+03  0.77309527233E+03  0.10100000352E+00 0.  1.
</event>
<event>
 5   0  0.7672251E-04  0.1488624E+04  0.7818609E-02  0.8892053E-01
        2   -1    0    0  501    0  0.00000000000E+00  0.00000000000E+00  0.17998778163E+04  0.17998778163E+04  0.25500000920E-02 0. -1.
       -2   -1    0    0    0  501  0.00000000000E+00  0.00000000000E+00 -0.30779890467E+03  0.30779890468E+03  0.25500000920E-02 0.  1.
    10030    2    1    2    0    0  0.00000000000E+00  0.00000000000E+00  0.14920789116E+04  0.21076767210E+04  0.14886240901E+04 0.  0.
        5    1    3    3  502    0  0.51939021757E+03  0.48316565181E+03  0.42703778291E+03  0.82800881833E+03  0.46999998093E+01 0. -1.
       -5    1    3    3    0  502 -0.51939021757E+03 -0.48316565181E+03  0.10650411287E+04  0.12796679026E+04  0.46999998093E+01 0.  1.
</event>
<event>
 5   0  0.3907345E-04  0.1497229E+04  0.7818609E-02  0.8886298E-01
        1   -1    0    0  501    0  0.00000000000E+00  0.00000000000E+00  0.72370741828E+03  0.72370741829E+03  0.50400001928E-02 0.  1.
       -1   -1    0    0    0  501  0.00000000000E+00  0.00000000000E+00 -0.77437850209E+03  0.77437850210E+03  0.50400001928E-02 0. -1.
    10030    2    1    2    0    0  0.00000000000E+00  0.00000000000E+00 -0.50671083812E+02  0.14980859204E+04  0.14972287287E+04 0.  0.
        5    1    3    3  502    0 -0.64357594608E+03  0.33668808665E+03 -0.20669192756E+03  0.75517713748E+03  0.46999998093E+01 0.  1.
       -5    1    3    3    0  502  0.64357594608E+03 -0.33668808665E+03  0.15602084375E+03  0.74290878292E+03  0.46999998093E+01 0. -1.
</event>
<event>
 5   0  0.4015204E-04  0.1497612E+04  0.7818609E-02  0.8886042E-01
       -1   -1    0    0    0  501  0.00000000000E+00  0.00000000000E+00  0.10745795256E+04  0.10745795256E+04  0.50400001928E-02 0.  1.
        1   -1    0    0  501    0  0.00000000000E+00  0.00000000000E+00 -0.52179536695E+03  0.52179536697E+03  0.50400001928E-02 0. -1.
    10030    2    1    2    0    0  0.00000000000E+00  0.00000000000E+00  0.55278415863E+03  0.15963748926E+04  0.14976122568E+04 0.  0.
        2    1    3    3  502    0 -0.80391597745E+02 -0.60748224789E+03 -0.18235296468E+03  0.63933566632E+03  0.25500000920E-02 0. -1.
       -2    1    3    3    0  502  0.80391597745E+02  0.60748224789E+03  0.73513712331E+03  0.95703922625E+03  0.25500000920E-02 0.  1.
</event>
<event>
 5   0  0.7547580E-04  0.1499490E+04  0.7818609E-02  0.8884792E-01
        2   -1    0    0  501    0  0.00000000000E+00  0.00000000000E+00  0.18777380681E+04  0.18777380681E+04  0.25500000920E-02 0. -1.
       -2   -1    0    0    0  501  0.00000000000E+00  0.00000000000E+00 -0.29935869305E+03  0.29935869306E+03  0.25500000920E-02 0.  1.
    10030    2    1    2    0    0  0.00000000000E+00  0.00000000000E+00  0.15783793750E+04  0.21770967611E+04  0.14994895318E+04 0.  0.
        4    1    3    3  502    0 -0.66669321141E+03  0.34243793068E+03  0.76118561071E+03  0.10682456278E+04  0.12699999809E+01 0.  1.
       -4    1    3    3    0  502  0.66669321141E+03 -0.34243793068E+03  0.81719376430E+03  0.11088511333E+04  0.12699999809E+01 0. -1.
</event>
<event>
 5   0  0.7672251E-04  0.1492506E+04  0.7818609E-02  0.8889452E-01
        2   -1    0    0  501    0  0.00000000000E+00  0.00000000000E+00  0.25328093854E+04  0.25328093854E+04  0.25500000920E-02 0. -1.
       -2   -1    0    0    0  501  0.00000000000E+00  0.00000000000E+00 -0.21987188964E+03  0.21987188965E+03  0.25500000920E-02 0.  1.
    10030    2    1    2    0    0  0.00000000000E+00  0.00000000000E+00  0.23129374958E+04  0.27526812751E+04  0.14925060612E+04 0.  0.
        5    1    3    3  502    0 -0.66711430126E+03  0.62110546718E+02  0.55043616999E+03  0.86712241246E+03  0.46999998093E+01 0.  1.
       -5    1    3    3    0  502  0.66711430126E+03 -0.62110546718E+02  0.17625013258E+04  0.18855588626E+04  0.46999998093E+01 0. -1.
</event>
<event>
 5   0  0.4084462E-04  0.1497958E+04  0.7818609E-02  0.8885812E-01
       -1   -1    0    0    0  501  0.00000000000E+00  0.00000000000E+00  0.35190474819E+03  0.35190474822E+03  0.50400001928E-02 0. -1.
        1   -1    0    0  501    0  0.00000000000E+00  0.00000000000E+00 -0.15940945525E+04  0.15940945525E+04  0.50400001928E-02 0.  1.
    10030    2    1    2    0    0  0.00000000000E+00  0.00000000000E+00 -0.12421898043E+04  0.19459993008E+04  0.14979578661E+04 0.  0.
        1    1    3    3  502    0 -0.74409476755E+03  0.70631049087E+02 -0.68344736093E+03  0.10128010976E+04  0.50400001928E-02 0.  1.
       -1    1    3    3    0  502  0.74409476755E+03 -0.70631049087E+02 -0.55874244341E+03  0.93319820311E+03  0.50400001928E-02 0. -1.
</event>
<event>
 5   0  0.7634227E-04  0.1497700E+04  0.7818609E-02  0.8885984E-01
        2   -1    0    0  501    0  0.00000000000E+00  0.00000000000E+00  0.19180036191E+04  0.19180036191E+04  0.25500000920E-02 0. -1.
       -2   -1    0    0    0  501  0.00000000000E+00  0.00000000000E+00 -0.29237518182E+03  0.29237518183E+03  0.25500000920E-02 0.  1.
    10030    2    1    2    0    0  0.00000000000E+00  0.00000000000E+00  0.16256284373E+04  0.22103788009E+04  0.14977004465E+04 0.  0.
        2    1    3    3  502    0  0.59652932371E+03 -0.17293253528E+03  0.14302478100E+04  0.15592824292E+04  0.25500000920E-02 0. -1.
       -2    1    3    3    0  502 -0.59652932371E+03  0.17293253528E+03  0.19538062725E+03  0.65109637176E+03  0.25500000920E-02 0.  1.
</event>
<event>
 5   0  0.4015204E-04  0.1514592E+04  0.7818609E-02  0.8874807E-01
       -1   -1    0    0    0  501  0.00000000000E+00  0.00000000000E+00  0.59516493271E+03  0.59516493274E+03  0.50400001928E-02 0. -1.
        1   -1    0    0  501    0  0.00000000000E+00  0.00000000000E+00 -0.96359440508E+03  0.96359440510E+03  0.50400001928E-02 0.  1.
    10030    2    1    2    0    0  0.00000000000E+00  0.00000000000E+00 -0.36842947237E+03  0.15587593378E+04  0.15145924855E+04 0.  0.
        2    1    3    3  502    0  0.64388743267E+03  0.31460424447E+02 -0.59319039295E+03  0.87604544777E+03  0.25500000920E-02 0.  1.
       -2    1    3    3    0  502 -0.64388743267E+03 -0.31460424447E+02  0.22476092058E+03  0.68271389007E+03  0.25500000920E-02 0. -1.
</event>
<event>
 5   0  0.7359897E-04  0.1499392E+04  0.7818609E-02  0.8884857E-01
        2   -1    0    0  501    0  0.00000000000E+00  0.00000000000E+00  0.17516873027E+04  0.17516873027E+04  0.25500000920E-02 0.  1.
       -2   -1    0    0    0  501  0.00000000000E+00  0.00000000000E+00 -0.32085885933E+03  0.32085885934E+03  0.25500000920E-02 0. -1.
    10030    2    1    2    0    0  0.00000000000E+00  0.00000000000E+00  0.14308284434E+04  0.20725461620E+04  0.14993923967E+04 0.  0.
        1    1    3    3  502    0 -0.38341344524E+03 -0.38000869077E+03  0.14344962145E+04  0.15327073642E+04  0.50400001928E-02 0.  1.
       -1    1    3    3    0  502  0.38341344524E+03  0.38000869077E+03 -0.36677710830E+01  0.53983879781E+03  0.50400001928E-02 0. -1.
</event>
<event>
 5   0  0.4086710E-04  0.1454472E+04  0.7818609E-02  0.8915306E-01
        1   -1    0    0  501    0  0.00000000000E+00  0.00000000000E+00  0.55012423671E+03  0.55012423673E+03  0.50400001928E-02 0. -1.
       -1   -1    0    0    0  501  0.00000000000E+00  0.00000000000E+00 -0.96136855200E+03  0.96136855201E+03  0.50400001928E-02 0.  1.
    10030    2    1    2    0    0  0.00000000000E+00  0.00000000000E+00 -0.41124431529E+03  0.15114927887E+04  0.14544719191E+04 0.  0.
        3    1    3    3  502    0  0.72857613689E+02  0.35826797690E+03  0.44767922567E+03  0.57799729622E+03  0.10100000352E+00 0. -1.
       -3    1    3    3    0  502 -0.72857613689E+02 -0.35826797690E+03 -0.85892354096E+03  0.93349549252E+03  0.10100000352E+00 0.  1.
</event>
<event>
 5   0  0.4086710E-04  0.1498240E+04  0.7818609E-02  0.8885624E-01
        1   -1    0    0  501    0  0.00000000000E+00  0.00000000000E+00  0.13965319873E+04  0.13965319873E+04  0.50400001928E-02 0.  1.
       -1   -1    0    0    0  501  0.00000000000E+00  0.00000000000E+00 -0.40183876303E+03  0.40183876306E+03  0.50400001928E-02 0. -1.
    10030    2    1    2    0    0  0.00000000000E+00  0.00000000000E+00  0.99469322427E+03  0.17983707504E+04  0.14982398825E+04 0.  0.
        3    1    3    3  502    0  0.56786452172E+03 -0.74857496190E+02 -0.82182765821E+02  0.57864304797E+03  0.10100000352E+00 0. -1.
       -3    1    3    3    0  502 -0.56786452172E+03  0.74857496190E+02  0.10768759901E+04  0.12197277024E+04  0.10100000352E+00 0.  1.
</event>
<event>
 5   0  0.7547580E-04  0.1494522E+04  0.7818609E-02  0.8888104E-01
        2   -1    0    0  501    0  0.00000000000E+00  0.00000000000E+00  0.14374252297E+04  0.14374252297E+04  0.25500000920E-02 0. -1.
       -2   -1    0    0    0  501  0.00000000000E+00  0.00000000000E+00 -0.38847146294E+03  0.38847146295E+03  0.25500000920E-02 0.  1.
    10030    2    1    2    0    0  0.00000000000E+00  0.00000000000E+00  0.10489537668E+04  0.18258966927E+04  0.14945215714E+04 0.  0.
        4    1    3    3  502    0  0.80585074131E+02  0.74262929925E+03  0.49989500762E+03  0.89882638024E+03  0.12699999809E+01 0. -1.
       -4    1    3    3    0  502 -0.80585074131E+02 -0.74262929925E+03  0.54905875916E+03  0.92707031243E+03  0.12699999809E+01 0.  1.
</event>
<event>
 5   0  0.7359897E-04  0.1551838E+04  0.7818609E-02  0.8850694E-01
       -2   -1    0    0    0  501  0.00000000000E+00  0.00000000000E+00  0.49044728952E+03  0.49044728952E+03  0.25500000920E-02 0. -1.
        2   -1    0    0  501    0  0.00000000000E+00  0.00000000000E+00 -0.12275541975E+04  0.12275541975E+04  0.25500000920E-02 0.  1.
    10030    2    1    2    0    0  0.00000000000E+00  0.00000000000E+00 -0.73710690796E+03  0.17180014870E+04  0.15518384309E+04 0.  0.
        1    1    3    3  502    0  0.65511141526E+03  0.22386285440E+03 -0.75644870874E+03  0.10254268345E+04  0.50400001928E-02 0.  1.
       -1    1    3    3    0  502 -0.65511141526E+03 -0.22386285440E+03  0.19341800778E+02  0.69257465248E+03  0.50400001928E-02 0. -1.
</event>
<event>
 5   0  0.2800375E-04  0.1497976E+04  0.7818609E-02  0.8885800E-01
       -4   -1    0    0    0  501  0.00000000000E+00  0.00000000000E+00  0.82704074819E+03  0.82704172329E+03  0.12699999809E+01 0.  1.
        4   -1    0    0  501    0  0.00000000000E+00  0.00000000000E+00 -0.67829996715E+03  0.67830115608E+03  0.12699999809E+01 0. -1.
    10030    2    1    2    0    0  0.00000000000E+00  0.00000000000E+00  0.14874078104E+03  0.15053428794E+04  0.14979764232E+04 0.  0.
        1    1    3    3  502    0  0.40795286765E+03 -0.48269123327E+03  0.47830098407E+03  0.79258324502E+03  0.50400001928E-02 0.  1.
       -1    1    3    3    0  502 -0.40795286765E+03  0.48269123327E+03 -0.32956020304E+03  0.71275963434E+03  0.50400001928E-02 0. -1.
</event>
<event>
 5   0  0.4058874E-04  0.1491172E+04  0.7818609E-02  0.8890345E-01
       -1   -1    0    0    0  501  0.00000000000E+00  0.00000000000E+00  0.35512619387E+03  0.35512619391E+03  0.50400001928E-02 0.  1.
        1   -1    0    0  501    0  0.00000000000E+00  0.00000000000E+00 -0.15653539060E+04  0.15653539060E+04  0.50400001928E-02 0. -1.
    10030    2    1    2    0    0  0.00000000000E+00  0.00000000000E+00 -0.12102277122E+04  0.19204801000E+04  0.14911715860E+04 0.  0.
        4    1    3    3  502    0  0.65488096207E+03 -0.80756309606E+02 -0.15803270804E+03  0.67850320982E+03  0.12699999809E+01 0.  1.
       -4    1    3    3    0  502 -0.65488096207E+03  0.80756309606E+02 -0.10521950041E+04  0.12419768901E+04  0.12699999809E+01 0. -1.
</event>
<event>
 5   0  0.3907345E-04  0.1503923E+04  0.7818609E-02  0.8881849E-01
        1   -1    0    0  501    0  0.00000000000E+00  0.00000000000E+00  0.19145679913E+04  0.19145679914E+04  0.50400001928E-02 0.  1.
       -1   -1    0    0    0  501  0.00000000000E+00  0.00000000000E+00 -0.29533860412E+03  0.29533860416E+03  0.50400001928E-02 0. -1.
    10030    2    1    2    0    0  0.00000000000E+00  0.00000000000E+00  0.16192293872E+04  0.22099065955E+04  0.15039226551E+04 0.  0.
        5    1    3    3  502    0 -0.37853173135E+03 -0.43087846713E+02  0.17622315247E+04  0.18029489374E+04  0.46999998093E+01 0.  1.
       -5    1    3    3    0  502  0.37853173135E+03  0.43087846713E+02 -0.14300213749E+03  0.40695765811E+03  0.46999998093E+01 0. -1.
</event>
<event>
 5   0  0.7634227E-04  0.1504724E+04  0.7818609E-02  0.8881317E-01
        2   -1    0    0  501    0  0.00000000000E+00  0.00000000000E+00  0.12403870121E+04  0.12403870121E+04  0.25500000920E-02 0.  1.
       -2   -1    0    0    0  501  0.00000000000E+00  0.00000000000E+00 -0.45634847140E+03  0.45634847141E+03  0.25500000920E-02 0. -1.
    10030    2    1    2    0    0  0.00000000000E+00  0.00000000000E+00  0.78403854068E+03  0.16967354835E+04  0.15047241833E+04 0.  0.
        2    1    3    3  502    0  0.11324392962E+03 -0.58517980365E+03  0.90972305957E+03  0.10875916676E+04  0.25500000920E-02 0.  1.
       -2    1    3    3    0  502 -0.11324392962E+03  0.58517980365E+03 -0.12568451889E+03  0.60914381594E+03  0.25500000920E-02 0. -1.
</event>
<event>
 5   0  0.4058874E-04  0.1528267E+04  0.7818609E-02  0.8865871E-01
       -1   -1    0    0    0  501  0.00000000000E+00  0.00000000000E+00  0.51547386948E+03  0.51547386950E+03  0.50400001928E-02 0. -1.
        1   -1    0    0  501    0  0.00000000000E+00  0.00000000000E+00 -0.11327435739E+04  0.11327435739E+04  0.50400001928E-02 0.  1.
    10030    2    1    2    0    0  0.00000000000E+00  0.00000000000E+00 -0.61726970443E+03  0.16482174434E+04  0.15282666170E+04 0.  0.
        4    1    3    3  502    0  0.70275594466E+02 -0.19291942349E+03 -0.11024354969E+04  0.11213929734E+04  0.12699999809E+01 0.  1.
       -4    1    3    3    0  502 -0.70275594466E+02  0.19291942349E+03  0.48516579245E+03  0.52682447001E+03  0.12699999809E+01 0. -1.
</event>
<event>
 5   0  0.7672251E-04  0.1478792E+04  0.7818609E-02  0.8898679E-01
        2   -1    0    0  501    0  0.00000000000E+00  0.00000000000E+00  0.73647581013E+03  0.73647581013E+03  0.25500000920E-02 0.  1.
       -2   -1    0    0    0  501  0.00000000000E+00  0.00000000000E+00 -0.74232823129E+03  0.74232823129E+03  0.25500000920E-02 0. -1.
    10030    2    1    2    0    0  0.00000000000E+00  0.00000000000E+00 -0.58524211621E+01  0.14788040414E+04  0.14787924608E+04 0.  0.
        5    1    3    3  502    0  0.62169531743E+02  0.16173138694E+03 -0.72172430147E+03  0.74224669048E+03  0.46999998093E+01 0. -1.
       -5    1    3    3    0  502 -0.62169531743E+02 -0.16173138694E+03  0.71587188031E+03  0.73655735094E+03  0.46999998093E+01 0.  1.
</event>
<event>
 5   0  0.3907345E-04  0.1449940E+04  0.7818609E-02  0.8918442E-01
        1   -1    0    0  501    0  0.00000000000E+00  0.00000000000E+00  0.20019774012E+04  0.20019774012E+04  0.50400001928E-02 0.  1.
       -1   -1    0    0    0  501  0.00000000000E+00  0.00000000000E+00 -0.26253104319E+03  0.26253104324E+03  0.50400001928E-02 0. -1.
    10030    2    1    2    0    0  0.00000000000E+00  0.00000000000E+00  0.17394463580E+04  0.22645084444E+04  0.14499396065E+04 0.  0.
        5    1    3    3  502    0  0.24250947213E+03 -0.46045453525E+03  0.81473148841E+02  0.52677242438E+03  0.46999998093E+01 0. -1.
       -5    1    3    3    0  502 -0.24250947213E+03  0.46045453525E+03  0.16579732091E+04  0.17377360200E+04  0.46999998093E+01 0.  1.
</event>
<event>
 5   0  0.4084462E-04  0.1495240E+04  0.7818609E-02  0.8887625E-01
       -1   -1    0    0    0  501  0.00000000000E+00  0.00000000000E+00  0.45452352986E+03  0.45452352989E+03  0.50400001928E-02 0.  1.
        1   -1    0    0  501    0  0.00000000000E+00  0.00000000000E+00 -0.12297172384E+04  0.12297172385E+04  0.50400001928E-02 0. -1.
    10030    2    1    2    0    0  0.00000000000E+00  0.00000000000E+00 -0.77519370858E+03  0.16842407684E+04  0.14952396731E+04 0.  0.
        1    1    3    3  502    0 -0.47535669475E+03 -0.22652966993E+03  0.21019868244E+03  0.56697721712E+03  0.50400001928E-02 0.  1.
       -1    1    3    3    0  502  0.47535669475E+03  0.22652966993E+03 -0.98539239102E+03  0.11172635512E+04  0.50400001928E-02 0. -1.
</event>
<event>
 5   0  0.7634227E-04  0.1508576E+04  0.7818609E-02  0.8878770E-01
        2   -1    0    0  501    0  0.00000000000E+00  0.00000000000E+00  0.13368930151E+04  0.13368930151E+04  0.25500000920E-02 0.  1.
       -2   -1    0    0    0  501  0.00000000000E+00  0.00000000000E+00 -0.42557682237E+03  0.42557682238E+03  0.25500000920E-02 0. -1.
    10030    2    1    2    0    0  0.00000000000E+00  0.00000000000E+00  0.91131619270E+03  0.17624698375E+04  0.15085763901E+04 0.  0.
        2    1    3    3  502    0  0.50141426043E+03 -0.56111570995E+03  0.39513631305E+03  0.84994106055E+03  0.25500000920E-02 0. -1.
       -2    1    3    3    0  502 -0.50141426043E+03  0.56111570995E+03  0.51617987965E+03  0.91252877690E+03  0.25500000920E-02 0.  1.
</event>
<event>
 5   0  0.3907345E-04  0.1273030E+04  0.7818609E-02  0.9051231E-01
        1   -1    0    0  501    0  0.00000000000E+00  0.00000000000E+00  0.60043303811E+03  0.60043303813E+03  0.50400001928E-02 0. -1.
       -1   -1    0    0    0  501  0.00000000000E+00  0.00000000000E+00 -0.67476478677E+03  0.67476478678E+03  0.50400001928E-02 0.  1.
    10030    2    1    2    0    0  0.00000000000E+00  0.00000000000E+00 -0.74331748658E+02  0.12751978249E+04  0.12730295691E+04 0.  0.
        5    1    3    3  502    0 -0.21861617467E+03 -0.37109419365E+03  0.43227403391E+03  0.61023508812E+03  0.46999998093E+01 0. -1.
       -5    1    3    3    0  502  0.21861617467E+03  0.37109419365E+03 -0.50660578257E+03  0.66496273679E+03  0.46999998093E+01 0.  1.
</event>
<event>
 5   0  0.7359897E-04  0.1503838E+04  0.7818609E-02  0.8881905E-01
        2   -1    0    0  501    0  0.00000000000E+00  0.00000000000E+00  0.57169915218E+03  0.57169915219E+03  0.25500000920E-02 0.  1.
       -2   -1    0    0    0  501  0.00000000000E+00  0.00000000000E+00 -0.98895025808E+03  0.98895025808E+03  0.25500000920E-02 0. -1.
    10030    2    1    2    0    0  0.00000000000E+00  0.00000000000E+00 -0.41725110590E+03  0.15606494103E+04  0.15038377893E+04 0.  0.
        1    1    3    3  502    0 -0.29057304260E+03 -0.47904888123E+03 -0.72902893463E+03  0.91945837929E+03  0.50400001928E-02 0. -1.
       -1    1    3    3    0  502  0.29057304260E+03  0.47904888123E+03  0.31177782874E+03  0.64119103098E+03  0.50400001928E-02 0.  1.
</event>
<event>
 5   0  0.4084462E-04  0.1498552E+04  0.7818609E-02  0.8885416E-01
       -1   -1    0    0    0  501  0.00000000000E+00  0.00000000000E+00  0.58219647382E+03  0.58219647384E+03  0.50400001928E-02 0. -1.
        1   -1    0    0  501    0  0.00000000000E+00  0.00000000000E+00 -0.96430463092E+03  0.96430463093E+03  0.50400001928E-02 0.  1.
    10030    2    1    2    0    0  0.00000000000E+00  0.00000000000E+00 -0.38210815710E+03  0.15465011048E+04  0.14985523092E+04 0.  0.
        1    1    3    3  502    0  0.31793784200E+03 -0.67318601700E+03 -0.27832263607E+03  0.79481279219E+03  0.50400001928E-02 0. -1.
       -1    1    3    3    0  502 -0.31793784200E+03  0.67318601700E+03 -0.10378552103E+03  0.75168831257E+03  0.50400001928E-02 0.  1.
</event>
<event>
 5   0  0.4015204E-04  0.1499141E+04  0.7818609E-02  0.8885025E-01
        1   -1    0    0  501    0  0.00000000000E+00  0.00000000000E+00  0.54793521024E+03  0.54793521026E+03  0.50400001928E-02 0. -1.
       -1   -1    0    0    0  501  0.00000000000E+00  0.00000000000E+00 -0.10254053932E+04  0.10254053932E+04  0.50400001928E-02 0.  1.
    10030    2    1    2    0    0  0.00000000000E+00  0.00000000000E+00 -0.47747018296E+03  0.15733406035E+04  0.14991407135E+04 0.  0.
        2    1    3    3  502    0 -0.64752794476E+03 -0.33859983780E+03 -0.63392687207E+02  0.73345819390E+03  0.25500000920E-02 0. -1.
       -2    1    3    3    0  502  0.64752794476E+03  0.33859983780E+03 -0.41407749575E+03  0.83988240957E+03  0.25500000920E-02 0.  1.
</event>
<event>
 5   0  0.7547580E-04  0.1490146E+04  0.7818609E-02  0.8891032E-01
       -2   -1    0    0    0  501  0.00000000000E+00  0.00000000000E+00  0.25100619081E+03  0.25100619082E+03  0.25500000920E-02 0. -1.
        2   -1    0    0  501    0  0.00000000000E+00  0.00000000000E+00 -0.22116328912E+04  0.22116328912E+04  0.25500000920E-02 0.  1.
    10030    2    1    2    0    0  0.00000000000E+00  0.00000000000E+00 -0.19606267003E+04  0.24626390820E+04  0.14901456942E+04 0.  0.
        4    1    3    3  502    0 -0.22824860464E+03  0.34901997796E+02  0.19038348142E+03  0.29927087708E+03  0.12699999809E+01 0. -1.
       -4    1    3    3    0  502  0.22824860464E+03 -0.34901997796E+02 -0.21510101818E+04  0.21633682049E+04  0.12699999809E+01 0.  1.
</event>
<event>
 5   0  0.7634227E-04  0.1498872E+04  0.7818609E-02  0.8885204E-01
        2   -1    0    0  501    0  0.00000000000E+00  0.00000000000E+00  0.80354309651E+03  0.80354309651E+03  0.25500000920E-02 0. -1.
       -2   -1    0    0    0  501  0.00000000000E+00  0.00000000000E+00 -0.69897186175E+03  0.69897186175E+03  0.25500000920E-02 0.  1.
    10030    2    1    2    0    0  0.00000000000E+00  0.00000000000E+00  0.10457123476E+03  0.15025149583E+04  0.14988715945E+04 0.  0.
        2    1    3    3  502    0  0.34441278993E+03 -0.60392053571E+03  0.33281193404E+03  0.77078140011E+03  0.25500000920E-02 0. -1.
       -2    1    3    3    0  502 -0.34441278993E+03  0.60392053571E+03 -0.22824069928E+03  0.73173355815E+03  0.25500000920E-02 0.  1.
</event>
<event>
 5   0  0.7547580E-04  0.1489115E+04  0.7818609E-02  0.8891723E-01
        2   -1    0    0  501    0  0.00000000000E+00  0.00000000000E+00  0.19094297070E+04  0.19094297070E+04  0.25500000920E-02 0. -1.
       -2   -1    0    0    0  501  0.00000000000E+00  0.00000000000E+00 -0.29033078261E+03  0.29033078263E+03  0.25500000920E-02 0.  1.
    10030    2    1    2    0    0  0.00000000000E+00  0.00000000000E+00  0.16190989244E+04  0.21997604897E+04  0.14891154706E+04 0.  0.
        4    1    3    3  502    0 -0.44689665762E+02 -0.47623331490E+03  0.16524352398E+04  0.17202729932E+04  0.12699999809E+01 0. -1.
       -4    1    3    3    0  502  0.44689665762E+02  0.47623331490E+03 -0.33336315386E+02  0.47948749647E+03  0.12699999809E+01 0.  1.
</event>
<event>
 5   0  0.4015204E-04  0.1507319E+04  0.7818609E-02  0.8879600E-01
        1   -1    0    0  501    0  0.00000000000E+00  0.00000000000E+00  0.10322647174E+04  0.10322647175E+04  0.50400001928E-02 0. -1.
       -1   -1    0    0    0  501  0.00000000000E+00  0.00000000000E+00 -0.55024913230E+03  0.55024913233E+03  0.50400001928E-02 0.  1.
    10030    2    1    2    0    0  0.00000000000E+00  0.00000000000E+00  0.48201558515E+03  0.15825138498E+04  0.15073191634E+04 0.  0.
        2    1    3    3  502    0 -0.12419177197E+03 -0.33028458406E+02 -0.53866153002E+03  0.55377858320E+03  0.25500000920E-02 0.  1.
       -2    1    3    3    0  502  0.12419177197E+03  0.33028458406E+02  0.10206771152E+04  0.10287352666E+04  0.25500000920E-02 0. -1.
</event>
<event>
 5   0  0.7359897E-04  0.1495163E+04  0.7818609E-02  0.8887676E-01
       -2   -1    0    0    0  501  0.00000000000E+00  0.00000000000E+00  0.30132150068E+03  0.30132150069E+03  0.25500000920E-02 0. -1.
        2   -1    0    0  501    0  0.00000000000E+00  0.00000000000E+00 -0.18547563766E+04  0.18547563766E+04  0.25500000920E-02 0.  1.
    10030    2    1    2    0    0  0.00000000000E+00  0.00000000000E+00 -0.15534348759E+04  0.21560778773E+04  0.14951628337E+04 0.  0.
        1    1    3    3  502    0  0.32665143970E+03  0.57093415453E+02  0.18946480347E+03  0.38191325314E+03  0.50400001928E-02 0. -1.
       -1    1    3    3    0  502 -0.32665143970E+03 -0.57093415453E+02 -0.17428996794E+04  0.17741646242E+04  0.50400001928E-02 0.  1.
</event>
<event>
 5   0  0.4058874E-04  0.1501824E+04  0.7818609E-02  0.8883241E-01
        1   -1    0    0  501    0  0.00000000000E+00  0.00000000000E+00  0.52483633676E+03  0.52483633678E+03  0.50400001928E-02 0.  1.
       -1   -1    0    0    0  501  0.00000000000E+00  0.00000000000E+00 -0.10743713642E+04  0.10743713642E+04  0.50400001928E-02 0. -1.
    10030    2    1    2    0    0  0.00000000000E+00  0.00000000000E+00 -0.54953502743E+03  0.15992077010E+04  0.15018243987E+04 0.  0.
        4    1    3    3  502    0 -0.30006910235E+03  0.22706422524E+03  0.41719050382E+03  0.56182662624E+03  0.12699999809E+01 0.  1.
       -4    1    3    3    0  502  0.30006910235E+03 -0.22706422524E+03 -0.96672553126E+03  0.10373810748E+04  0.12699999809E+01 0. -1.
</event>
<event>
 5   0  0.4015204E-04  0.1509457E+04  0.7818609E-02  0.8878188E-01
        1   -1    0    0  501    0  0.00000000000E+00  0.00000000000E+00  0.88056268899E+03  0.88056268901E+03  0.50400001928E-02 0. -1.
       -1   -1    0    0    0  501  0.00000000000E+00  0.00000000000E+00 -0.64687664940E+03  0.64687664942E+03  0.50400001928E-02 0.  1.
    10030    2    1    2    0    0  0.00000000000E+00  0.00000000000E+00  0.23368603959E+03  0.15274393384E+04  0.15094574414E+04 0.  0.
        2    1    3    3  502    0  0.32149296248E+03  0.15016013706E+02  0.80764103010E+03  0.86940625665E+03  0.25500000920E-02 0. -1.
       -2    1    3    3    0  502 -0.32149296248E+03 -0.15016013706E+02 -0.57395499050E+03  0.65803308178E+03  0.25500000920E-02 0.  1.
</event>
<event>
 5   0  0.4084462E-04  0.1499508E+04  0.7818609E-02  0.8884780E-01
       -1   -1    0    0    0  501  0.00000000000E+00  0.00000000000E+00  0.27418323012E+03  0.27418323017E+03  0.50400001928E-02 0.  1.
        1   -1    0    0  501    0  0.00000000000E+00  0.00000000000E+00 -0.20502014144E+04  0.20502014145E+04  0.50400001928E-02 0. -1.
    10030    2    1    2    0    0  0.00000000000E+00  0.00000000000E+00 -0.17760181843E+04  0.23243846446E+04  0.14995077142E+04 0.  0.
        1    1    3    3  502    0 -0.18112415483E+03  0.57758238939E+03 -0.20223551606E+03  0.63820575051E+03  0.50400001928E-02 0.  1.
       -1    1    3    3    0  502  0.18112415483E+03 -0.57758238939E+03 -0.15737826683E+04  0.16861788941E+04  0.50400001928E-02 0. -1.
</event>
<event>
 5   0  0.7359897E-04  0.1470589E+04  0.7818609E-02  0.8904250E-01
       -2   -1    0    0    0  501  0.00000000000E+00  0.00000000000E+00  0.49765441077E+03  0.49765441078E+03  0.25500000920E-02 0.  1.
        2   -1    0    0  501    0  0.00000000000E+00  0.00000000000E+00 -0.10864123412E+04  0.10864123412E+04  0.25500000920E-02 0. -1.
    10030    2    1    2    0    0  0.00000000000E+00  0.00000000000E+00 -0.58875793046E+03  0.15840667520E+04  0.14705888529E+04 0.  0.
        1    1    3    3  502    0  0.59078240266E+03  0.24425652384E+02  0.17642644699E+03  0.61704679808E+03  0.50400001928E-02 0.  1.
       -1    1    3    3    0  502 -0.59078240266E+03 -0.24425652384E+02 -0.76518437745E+03  0.96701995394E+03  0.50400001928E-02 0. -1.
</event>
<event>
 5   0  0.4086710E-04  0.1499482E+04  0.7818609E-02  0.8884797E-01
        1   -1    0    0  501    0  0.00000000000E+00  0.00000000000E+00  0.79315487361E+03  0.79315487363E+03  0.50400001928E-02 0.  1.
       -1   -1    0    0    0  501  0.00000000000E+00  0.00000000000E+00 -0.70870388433E+03  0.70870388435E+03  0.50400001928E-02 0. -1.
    10030    2    1    2    0    0  0.00000000000E+00  0.00000000000E+00  0.84450989282E+02  0.15018587580E+04  0.14994824972E+04 0.  0.
        3    1    3    3  502    0 -0.43254597760E+03 -0.60226687079E+03 -0.68812823933E+02  0.74468558555E+03  0.10100000352E+00 0.  1.
       -3    1    3    3    0  502  0.43254597760E+03  0.60226687079E+03  0.15326381321E+03  0.75717317242E+03  0.10100000352E+00 0. -1.
</event>
<event>
 5   0  0.3907345E-04  0.1520175E+04  0.7818609E-02  0.8871147E-01
        1   -1    0    0  501    0  0.00000000000E+00  0.00000000000E+00  0.16644141262E+04  0.16644141262E+04  0.50400001928E-02 0. -1.
       -1   -1    0    0    0  501  0.00000000000E+00  0.00000000000E+00 -0.34710879630E+03  0.34710879634E+03  0.50400001928E-02 0.  1.
    10030    2    1    2    0    0  0.00000000000E+00  0.00000000000E+00  0.13173053299E+04  0.20115229226E+04  0.15201747057E+04 0.  0.
        5    1    3    3  502    0  0.41095187872E+03  0.60666558366E+03  0.39142115598E+03  0.83075699718E+03  0.46999998093E+01 0.  1.
       -5    1    3    3    0  502 -0.41095187872E+03 -0.60666558366E+03  0.92588417395E+03  0.11807659254E+04  0.46999998093E+01 0. -1.
</event>
<event>
 5   0  0.4086710E-04  0.1509666E+04  0.7818609E-02  0.8878050E-01
       -1   -1    0    0    0  501  0.00000000000E+00  0.00000000000E+00  0.35731744150E+03  0.35731744154E+03  0.50400001928E-02 0.  1.
        1   -1    0    0  501    0  0.00000000000E+00  0.00000000000E+00 -0.15945846923E+04  0.15945846923E+04  0.50400001928E-02 0. -1.
    10030    2    1    2    0    0  0.00000000000E+00  0.00000000000E+00 -0.12372672508E+04  0.19519021338E+04  0.15096660857E+04 0.  0.
        3    1    3    3  502    0  0.25282497174E+03 -0.48367498940E+03 -0.12928363281E+04  0.14033131308E+04  0.10100000352E+00 0. -1.
       -3    1    3    3    0  502 -0.25282497174E+03  0.48367498940E+03  0.55569077274E+02  0.54858900304E+03  0.10100000352E+00 0.  1.
</event>
<event>
 5   0  0.7634227E-04  0.1499438E+04  0.7818609E-02  0.8884826E-01
        2   -1    0    0  501    0  0.00000000000E+00  0.00000000000E+00  0.53308034857E+03  0.53308034858E+03  0.25500000920E-02 0. -1.
       -2   -1    0    0    0  501  0.00000000000E+00  0.00000000000E+00 -0.10543980666E+04  0.10543980666E+04  0.25500000920E-02 0.  1.
    10030    2    1    2    0    0  0.00000000000E+00  0.00000000000E+00 -0.52131771807E+03  0.15874784152E+04  0.14994384134E+04 0.  0.
        2    1    3    3  502    0 -0.48904731792E+03  0.43733288111E+03  0.12348350303E+03  0.66758932256E+03  0.25500000920E-02 0. -1.
       -2    1    3    3    0  502  0.48904731792E+03 -0.43733288111E+03 -0.64480122110E+03  0.91988909267E+03  0.25500000920E-02 0.  1.
</event>
<event>
 5   0  0.7634227E-04  0.1477224E+04  0.7818609E-02  0.8899742E-01
        2   -1    0    0  501    0  0.00000000000E+00  0.00000000000E+00  0.16796180065E+04  0.16796180065E+04  0.25500000920E-02 0. -1.
       -2   -1    0    0    0  501  0.00000000000E+00  0.00000000000E+00 -0.32480458592E+03  0.32480458593E+03  0.25500000920E-02 0.  1.
    10030    2    1    2    0    0  0.00000000000E+00  0.00000000000E+00  0.13548134206E+04  0.20044225925E+04  0.14772239250E+04 0.  0.
        2    1    3    3  502    0  0.42997637924E+03 -0.38500569869E+03  0.52004189934E+02  0.57949418505E+03  0.25500000920E-02 0.  1.
       -2    1    3    3    0  502 -0.42997637924E+03  0.38500569869E+03  0.13028092307E+04  0.14249284074E+04  0.25500000920E-02 0. -1.
</event>
<event>
 5   0  0.7547580E-04  0.1483670E+04  0.7818609E-02  0.8895386E-01
        2   -1    0    0  501    0  0.00000000000E+00  0.00000000000E+00  0.16375971479E+04  0.16375971479E+04  0.25500000920E-02 0. -1.
       -2   -1    0    0    0  501  0.00000000000E+00  0.00000000000E+00 -0.33605269729E+03  0.33605269730E+03  0.25500000920E-02 0.  1.
    10030    2    1    2    0    0  0.00000000000E+00  0.00000000000E+00  0.13015444506E+04  0.19736498452E+04  0.14836696919E+04 0.  0.
        4    1    3    3  502    0  0.55362545869E+03 -0.43387544799E+03  0.33719368870E+03  0.78003221054E+03  0.12699999809E+01 0.  1.
       -4    1    3    3    0  502 -0.55362545869E+03  0.43387544799E+03  0.96435076192E+03  0.11936176347E+04  0.12699999809E+01 0. -1.
</event>
<event>
 5   0  0.2800375E-04  0.1502508E+04  0.7818609E-02  0.8882787E-01
       -3   -1    0    0    0  501  0.00000000000E+00  0.00000000000E+00  0.73458340244E+03  0.73458340938E+03  0.10100000352E+00 0. -1.
        3   -1    0    0  501    0  0.00000000000E+00  0.00000000000E+00 -0.76830336717E+03  0.76830337381E+03  0.10100000352E+00 0.  1.
    10030    2    1    2    0    0  0.00000000000E+00  0.00000000000E+00 -0.33719964738E+02  0.15028867832E+04  0.15025084516E+04 0.  0.
        4    1    3    3  502    0 -0.30005296957E+03 -0.58007765088E+03  0.35452777729E+03  0.74311064005E+03  0.12699999809E+01 0.  1.
       -4    1    3    3    0  502  0.30005296957E+03  0.58007765088E+03 -0.38824774202E+03  0.75977614314E+03  0.12699999809E+01 0. -1.
</event>
<event>
 5   0  0.4086710E-04  0.1501075E+04  0.7818609E-02  0.8883738E-01
       -1   -1    0    0    0  501  0.00000000000E+00  0.00000000000E+00  0.73958271592E+03  0.73958271594E+03  0.50400001928E-02 0.  1.
        1   -1    0    0  501    0  0.00000000000E+00  0.00000000000E+00 -0.76165505133E+03  0.76165505135E+03  0.50400001928E-02 0. -1.
    10030    2    1    2    0    0  0.00000000000E+00  0.00000000000E+00 -0.22072335406E+02  0.15012377673E+04  0.15010754964E+04 0.  0.
        3    1    3    3  502    0 -0.26338174630E+02  0.74618582886E+03  0.65260418218E+02  0.74949711341E+03  0.10100000352E+00 0.  1.
       -3    1    3    3    0  502  0.26338174630E+02 -0.74618582886E+03 -0.87332753624E+02  0.75174065387E+03  0.10100000352E+00 0. -1.
</event>
<event>
 5   0  0.4058874E-04  0.1560479E+04  0.7818609E-02  0.8845202E-01
        1   -1    0    0  501    0  0.00000000000E+00  0.00000000000E+00  0.10714282064E+04  0.10714282064E+04  0.50400001928E-02 0. -1.
       -1   -1    0    0    0  501  0.00000000000E+00  0.00000000000E+00 -0.56818894808E+03  0.56818894811E+03  0.50400001928E-02 0.  1.
    10030    2    1    2    0    0  0.00000000000E+00  0.00000000000E+00  0.50323925831E+03  0.16396171545E+04  0.15604789849E+04 0.  0.
        4    1    3    3  502    0 -0.49977863118E+03 -0.59586623867E+03  0.31754553408E+03  0.84004287610E+03  0.12699999809E+01 0. -1.
       -4    1    3    3    0  502  0.49977863118E+03  0.59586623867E+03  0.18569372423E+03  0.79957427841E+03  0.12699999809E+01 0.  1.
</event>
<event>
 5   0  0.7672251E-04  0.1495390E+04  0.7818609E-02  0.8887524E-01
       -2   -1    0    0    0  501  0.00000000000E+00  0.00000000000E+00  0.56122347394E+03  0.56122347394E+03  0.25500000920E-02 0. -1.
        2   -1    0    0  501    0  0.00000000000E+00  0.00000000000E+00 -0.99612370661E+03  0.99612370661E+03  0.25500000920E-02 0.  1.
    10030    2    1    2    0    0  0.00000000000E+00  0.00000000000E+00 -0.43490023267E+03  0.15573471806E+04  0.14953902596E+04 0.  0.
        5    1    3    3  502    0  0.73058883328E+02  0.40949358588E+03  0.42958285720E+03  0.59798504873E+03  0.46999998093E+01 0. -1.
       -5    1    3    3    0  502 -0.73058883328E+02 -0.40949358588E+03 -0.86448308987E+03  0.95936213182E+03  0.46999998093E+01 0.  1.
</event>
<event>
 5   0  0.3907345E-04  0.1490471E+04  0.7818609E-02  0.8890815E-01
        1   -1    0    0  501    0  0.00000000000E+00  0.00000000000E+00  0.83945704230E+03  0.83945704231E+03  0.50400001928E-02 0.  1.
       -1   -1    0    0    0  501  0.00000000000E+00  0.00000000000E+00 -0.66158933205E+03  0.66158933207E+03  0.50400001928E-02 0. -1.
    10030    2    1    2    0    0  0.00000000000E+00  0.00000000000E+00  0.17786771025E+03  0.15010463744E+04  0.14904708302E+04 0.  0.
        5    1    3    3  502    0 -0.14474158197E+03 -0.34304699162E+03 -0.56118690738E+03  0.67348659899E+03  0.46999998093E+01 0. -1.
       -5    1    3    3    0  502  0.14474158197E+03  0.34304699162E+03  0.73905461763E+03  0.82755977539E+03  0.46999998093E+01 0.  1.
</event>
<event>
 5   0  0.4015204E-04  0.1503089E+04  0.7818609E-02  0.8882401E-01
        1   -1    0    0  501    0  0.00000000000E+00  0.00000000000E+00  0.12022782484E+04  0.12022782484E+04  0.50400001928E-02 0.  1.
       -1   -1    0    0    0  501  0.00000000000E+00  0.00000000000E+00 -0.46979077080E+03  0.46979077083E+03  0.50400001928E-02 0. -1.
    10030    2    1    2    0    0  0.00000000000E+00  0.00000000000E+00  0.73248747761E+03  0.16720690193E+04  0.15030891192E+04 0.  0.
        2    1    3    3  502    0  0.11720633156E+03  0.54239837293E+03  0.93006261016E+03  0.10830280596E+04  0.25500000920E-02 0.  1.
       -2    1    3    3    0  502 -0.11720633156E+03 -0.54239837293E+03 -0.19757513255E+03  0.58904095963E+03  0.25500000920E-02 0. -1.
</event>
<event>
 5   0  0.7454828E-04  0.1489315E+04  0.7818609E-02  0.8891589E-01
       -2   -1    0    0    0  501  0.00000000000E+00  0.00000000000E+00  0.36486141964E+03  0.36486141965E+03  0.25500000920E-02 0.  1.
        2   -1    0    0  501    0  0.00000000000E+00  0.00000000000E+00 -0.15197961085E+04  0.15197961085E+04  0.25500000920E-02 0. -1.
    10030    2    1    2    0    0  0.00000000000E+00  0.00000000000E+00 -0.11549346888E+04  0.18846575281E+04  0.14893152329E+04 0.  0.
        3    1    3    3  502    0  0.11296124656E+03 -0.19394752021E+03 -0.14759733633E+04  0.14929411453E+04  0.10100000352E+00 0. -1.
       -3    1    3    3    0  502 -0.11296124656E+03  0.19394752021E+03  0.32103867453E+03  0.39171638281E+03  0.10100000352E+00 0.  1.
</event>
<event>
 5   0  0.4086710E-04  0.1492283E+04  0.7818609E-02  0.8889601E-01
       -1   -1    0    0    0  501  0.00000000000E+00  0.00000000000E+00  0.75534896474E+03  0.75534896476E+03  0.50400001928E-02 0.  1.
        1   -1    0    0  501    0  0.00000000000E+00  0.00000000000E+00 -0.73704612411E+03  0.73704612413E+03  0.50400001928E-02 0. -1.
    10030    2    1    2    0    0  0.00000000000E+00  0.00000000000E+00  0.18302840630E+02  0.14923950889E+04  0.14922828510E+04 0.  0.
        3    1    3    3  502    0 -0.28042076834E+03  0.66307226932E+03  0.20519262890E+03  0.74860180791E+03  0.10100000352E+00 0.  1.
       -3    1    3    3    0  502  0.28042076834E+03 -0.66307226932E+03 -0.18688978827E+03  0.74379328097E+03  0.10100000352E+00 0. -1.
</event>
<event>
 5   0  0.4086710E-04  0.1508041E+04  0.7818609E-02  0.8879123E-01
        1   -1    0    0  501    0  0.00000000000E+00  0.00000000000E+00  0.55711932434E+03  0.55711932436E+03  0.50400001928E-02 0.  1.
       -1   -1    0    0    0  501  0.00000000000E+00  0.00000000000E+00 -0.10205121135E+04  0.10205121135E+04  0.50400001928E-02 0. -1.
    10030    2    1    2    0    0  0.00000000000E+00  0.00000000000E+00 -0.46339278911E+03  0.15776314378E+04  0.15080411389E+04 0.  0.
        3    1    3    3  502    0  0.28356459133E+03 -0.83886754601E+02  0.49392579937E+03  0.57568096246E+03  0.10100000352E+00 0.  1.
       -3    1    3    3    0  502 -0.28356459133E+03  0.83886754601E+02 -0.95731858848E+03  0.10019504754E+04  0.10100000352E+00 0. -1.
</event>
<event>
 5   0  0.4086710E-04  0.1496283E+04  0.7818609E-02  0.8886929E-01
       -1   -1    0    0    0  501  0.00000000000E+00  0.00000000000E+00  0.52793960536E+03  0.52793960538E+03  0.50400001928E-02 0.  1.
        1   -1    0    0  501    0  0.00000000000E+00  0.00000000000E+00 -0.10601886573E+04  0.10601886573E+04  0.50400001928E-02 0. -1.
    10030    2    1    2    0    0  0.00000000000E+00  0.00000000000E+00 -0.53224905190E+03  0.15881282626E+04  0.14962828360E+04 0.  0.
        3    1    3    3  502    0  0.26200997516E+03  0.62834003267E+03  0.63169507856E+02  0.68370375212E+03  0.10100000352E+00 0.  1.
       -3    1    3    3    0  502 -0.26200997516E+03 -0.62834003267E+03 -0.59541855976E+03  0.90442451053E+03  0.10100000352E+00 0. -1.
</event>
<event>
 5   0  0.2800375E-04  0.1288447E+04  0.7818609E-02  0.9038777E-01
        4   -1    0    0  501    0  0.00000000000E+00  0.00000000000E+00  0.75960466965E+03  0.75960573132E+03  0.12699999809E+01 0.  1.
       -4   -1    0    0    0  501  0.00000000000E+00  0.00000000000E+00 -0.54636632800E+03  0.54636780402E+03  0.12699999809E+01 0. -1.
    10030    2    1    2    0    0  0.00000000000E+00  0.00000000000E+00  0.21323834165E+03  0.13059735353E+04  0.12884472378E+04 0.  0.
        3    1    3    3  502    0  0.43047710850E+03 -0.59402207846E+02 -0.37543910100E+03  0.57427666852E+03  0.10100000352E+00 0. -1.
       -3    1    3    3    0  502 -0.43047710850E+03  0.59402207846E+02  0.58867744265E+03  0.73169686683E+03  0.10100000352E+00 0.  1.
</event>
<event>
 5   0  0.4058874E-04  0.1466790E+04  0.7818609E-02  0.8906842E-01
       -1   -1    0    0    0  501  0.00000000000E+00  0.00000000000E+00  0.12623725513E+04  0.12623725513E+04  0.50400001928E-02 0.  1.
        1   -1    0    0  501    0  0.00000000000E+00  0.00000000000E+00 -0.42607744402E+03  0.42607744405E+03  0.50400001928E-02 0. -1.
    10030    2    1    2    0    0  0.00000000000E+00  0.00000000000E+00  0.83629510727E+03  0.16884499954E+04  0.14667903328E+04 0.  0.
        4    1    3    3  502    0 -0.25144337635E+03  0.67948435788E+03  0.28718233329E+03  0.77935747226E+03  0.12699999809E+01 0. -1.
       -4    1    3    3    0  502  0.25144337635E+03 -0.67948435788E+03  0.54911277398E+03  0.90909252310E+03  0.12699999809E+01 0.  1.
</event>
<event>
 5   0  0.4058874E-04  0.1487766E+04  0.7818609E-02  0.8892629E-01
        1   -1    0    0  501    0  0.00000000000E+00  0.00000000000E+00  0.13901403524E+04  0.13901403524E+04  0.50400001928E-02 0.  1.
       -1   -1    0    0    0  501  0.00000000000E+00  0.00000000000E+00 -0.39806216962E+03  0.39806216965E+03  0.50400001928E-02 0. -1.
    10030    2    1    2    0    0  0.00000000000E+00  0.00000000000E+00  0.99207818280E+03  0.17882025221E+04  0.14877664935E+04 0.  0.
        4    1    3    3  502    0 -0.99580664555E+02 -0.55121031965E+03 -0.92310966756E+02  0.56769010272E+03  0.12699999809E+01 0. -1.
       -4    1    3    3    0  502  0.99580664555E+02  0.55121031965E+03  0.10843891496E+04  0.12205124194E+04  0.12699999809E+01 0.  1.
</event>
<event>
 5   0  0.7454828E-04  0.1511379E+04  0.7818609E-02  0.8876921E-01
       -2   -1    0    0    0  501  0.00000000000E+00  0.00000000000E+00  0.43912955435E+03  0.43912955435E+03  0.25500000920E-02 0.  1.
        2   -1    0    0  501    0  0.00000000000E+00  0.00000000000E+00 -0.13004519136E+04  0.13004519136E+04  0.25500000920E-02 0. -1.
    10030    2    1    2    0    0  0.00000000000E+00  0.00000000000E+00 -0.86132235921E+03  0.17395814679E+04  0.15113793293E+04 0.  0.
        3    1    3    3  502    0 -0.23753507825E+03  0.50138171057E+03 -0.10212211438E+04  0.11621958389E+04  0.10100000352E+00 0. -1.
       -3    1    3    3    0  502  0.23753507825E+03 -0.50138171057E+03  0.15989878462E+03  0.57738562903E+03  0.10100000352E+00 0.  1.
</event>
<event>
 5   0  0.7547580E-04  0.1515904E+04  0.7818609E-02  0.8873946E-01
       -2   -1    0    0    0  501  0.00000000000E+00  0.00000000000E+00  0.60514376121E+03  0.60514376122E+03  0.25500000920E-02 0. -1.
        2   -1    0    0  501    0  0.00000000000E+00  0.00000000000E+00 -0.94934609098E+03  0.94934609098E+03  0.25500000920E-02 0.  1.
    10030    2    1    2    0    0  0.00000000000E+00  0.00000000000E+00 -0.34420232977E+03  0.15544898522E+04  0.15159035117E+04 0.  0.
        4    1    3    3  502    0 -0.17275590887E+02  0.26383886263E+03  0.55631787333E+03  0.61595501505E+03  0.12699999809E+01 0. -1.
       -4    1    3    3    0  502  0.17275590887E+02 -0.26383886263E+03 -0.90052020310E+03  0.93853483716E+03  0.12699999809E+01 0.  1.
</event>
<event>
 5   0  0.7547580E-04  0.1509778E+04  0.7818609E-02  0.8877977E-01
       -2   -1    0    0    0  501  0.00000000000E+00  0.00000000000E+00  0.27796756758E+03  0.27796756759E+03  0.25500000920E-02 0. -1.
        2   -1    0    0  501    0  0.00000000000E+00  0.00000000000E+00 -0.20500855031E+04  0.20500855031E+04  0.25500000920E-02 0.  1.
    10030    2    1    2    0    0  0.00000000000E+00  0.00000000000E+00 -0.17721179356E+04  0.23280530707E+04  0.15097778388E+04 0.  0.
        4    1    3    3  502    0  0.23169777796E+03 -0.62954824917E+03 -0.14198634263E+04  0.15703593922E+04  0.12699999809E+01 0.  1.
       -4    1    3    3    0  502 -0.23169777796E+03  0.62954824917E+03 -0.35225450928E+03  0.75769367858E+03  0.12699999809E+01 0. -1.
</event>
<event>
 5   0  0.3907345E-04  0.1507231E+04  0.7818609E-02  0.8879659E-01
        1   -1    0    0  501    0  0.00000000000E+00  0.00000000000E+00  0.50890206271E+03  0.50890206274E+03  0.50400001928E-02 0.  1.
       -1   -1    0    0    0  501  0.00000000000E+00  0.00000000000E+00 -0.11160027985E+04  0.11160027985E+04  0.50400001928E-02 0. -1.
    10030    2    1    2    0    0  0.00000000000E+00  0.00000000000E+00 -0.60710073576E+03  0.16249048612E+04  0.15072307404E+04 0.  0.
        5    1    3    3  502    0 -0.61305783956E+03 -0.61333443841E+02 -0.77137983541E+03  0.98724396502E+03  0.46999998093E+01 0. -1.
       -5    1    3    3    0  502  0.61305783956E+03  0.61333443841E+02  0.16427909965E+03  0.63766089621E+03  0.46999998093E+01 0.  1.
</event>
<event>
 5   0  0.4086710E-04  0.1497389E+04  0.7818609E-02  0.8886191E-01
        1   -1    0    0  501    0  0.00000000000E+00  0.00000000000E+00  0.99643826669E+03  0.99643826671E+03  0.50400001928E-02 0. -1.
       -1   -1    0    0    0  501  0.00000000000E+00  0.00000000000E+00 -0.56254702499E+03  0.56254702501E+03  0.50400001928E-02 0.  1.
    10030    2    1    2    0    0  0.00000000000E+00  0.00000000000E+00  0.43389124171E+03  0.15589852917E+04  0.14973889041E+04 0.  0.
        3    1    3    3  502    0  0.57893072700E+03  0.47442304529E+03  0.23513899796E+03  0.78455616187E+03  0.10100000352E+00 0. -1.
       -3    1    3    3    0  502 -0.57893072700E+03 -0.47442304529E+03  0.19875224375E+03  0.77442912985E+03  0.10100000352E+00 0.  1.
</event>
<event>
 5   0  0.7547580E-04  0.1508619E+04  0.7818609E-02  0.8878741E-01
        2   -1    0    0  501    0  0.00000000000E+00  0.00000000000E+00  0.10057750443E+04  0.10057750443E+04  0.25500000920E-02 0. -1.
       -2   -1    0    0    0  501  0.00000000000E+00  0.00000000000E+00 -0.56571585745E+03  0.56571585746E+03  0.25500000920E-02 0.  1.
    10030    2    1    2    0    0  0.00000000000E+00  0.00000000000E+00  0.44005918680E+03  0.15714909017E+04  0.15086190925E+04 0.  0.
        4    1    3    3  502    0  0.60234443696E+03 -0.12051356735E+03  0.67603936501E+03  0.91344029723E+03  0.12699999809E+01 0. -1.
       -4    1    3    3    0  502 -0.60234443696E+03  0.12051356735E+03 -0.23598017821E+03  0.65805060448E+03  0.12699999809E+01 0.  1.
</event>
<event>
 5   0  0.7672251E-04  0.1505616E+04  0.7818609E-02  0.8880727E-01
        2   -1    0    0  501    0  0.00000000000E+00  0.00000000000E+00  0.37209189797E+03  0.37209189798E+03  0.25500000920E-02 0. -1.
       -2   -1    0    0    0  501  0.00000000000E+00  0.00000000000E+00 -0.15230633754E+04  0.15230633754E+04  0.25500000920E-02 0.  1.
    10030    2    1    2    0    0  0.00000000000E+00  0.00000000000E+00 -0.11509714774E+04  0.18951552734E+04  0.15056155447E+04 0.  0.
        5    1    3    3  502    0 -0.31194549735E+03  0.16049855588E+03  0.26289254918E+03  0.43841117934E+03  0.46999998093E+01 0. -1.
       -5    1    3    3    0  502  0.31194549735E+03 -0.16049855588E+03 -0.14138640266E+04  0.14567440940E+04  0.46999998093E+01 0.  1.
</event>
<event>
 5   0  0.3907345E-04  0.1542680E+04  0.7818609E-02  0.8856557E-01
       -1   -1    0    0    0  501  0.00000000000E+00  0.00000000000E+00  0.13307645032E+04  0.13307645032E+04  0.50400001928E-02 0. -1.
        1   -1    0    0  501    0  0.00000000000E+00  0.00000000000E+00 -0.44708513632E+03  0.44708513635E+03  0.50400001928E-02 0.  1.
    10030    2    1    2    0    0  0.00000000000E+00  0.00000000000E+00  0.88367936688E+03  0.17778496395E+04  0.15426795252E+04 0.  0.
        5    1    3    3  502    0 -0.60037956862E+03 -0.28909085904E+02 -0.11522249279E+03  0.61203731464E+03  0.46999998093E+01 0.  1.
       -5    1    3    3    0  502  0.60037956862E+03  0.28909085904E+02  0.99890185966E+03  0.11658123249E+04  0.46999998093E+01 0. -1.
</event>
<event>
 5   0  0.4086710E-04  0.1376029E+04  0.7818609E-02  0.8971355E-01
       -1   -1    0    0    0  501  0.00000000000E+00  0.00000000000E+00  0.51159369923E+03  0.51159369926E+03  0.50400001928E-02 0.  1.
        1   -1    0    0  501    0  0.00000000000E+00  0.00000000000E+00 -0.92527325235E+03  0.92527325236E+03  0.50400001928E-02 0. -1.
    10030    2    1    2    0    0  0.00000000000E+00  0.00000000000E+00 -0.41367955312E+03  0.14368669516E+04  0.13760290200E+04 0.  0.
        3    1    3    3  502    0 -0.17409096136E+03 -0.45557126632E+03  0.29991128422E+03  0.57253788532E+03  0.10100000352E+00 0.  1.
       -3    1    3    3    0  502  0.17409096136E+03  0.45557126632E+03 -0.71359083733E+03  0.86432906630E+03  0.10100000352E+00 0. -1.
</event>
<event>
 5   0  0.7634227E-04  0.1502228E+04  0.7818609E-02  0.8882973E-01
       -2   -1    0    0    0  501  0.00000000000E+00  0.00000000000E+00  0.67896643919E+03  0.67896643919E+03  0.25500000920E-02 0. -1.
        2   -1    0    0  501    0  0.00000000000E+00  0.00000000000E+00 -0.83092774639E+03  0.83092774639E+03  0.25500000920E-02 0.  1.
    10030    2    1    2    0    0  0.00000000000E+00  0.00000000000E+00 -0.15196130720E+03  0.15098941856E+04  0.15022277500E+04 0.  0.
        2    1    3    3  502    0  0.90394497278E+02  0.74468874358E+03 -0.37845446804E+02  0.75110902524E+03  0.25500000920E-02 0.  1.
       -2    1    3    3    0  502 -0.90394497278E+02 -0.74468874358E+03 -0.11411586039E+03  0.75878516034E+03  0.25500000920E-02 0. -1.
</event>
<event>
 5   0  0.7672251E-04  0.1505455E+04  0.7818609E-02  0.8880833E-01
       -2   -1    0    0    0  501  0.00000000000E+00  0.00000000000E+00  0.61764363847E+03  0.61764363848E+03  0.25500000920E-02 0.  1.
        2   -1    0    0  501    0  0.00000000000E+00  0.00000000000E+00 -0.91735558765E+03  0.91735558765E+03  0.25500000920E-02 0. -1.
    10030    2    1    2    0    0  0.00000000000E+00  0.00000000000E+00 -0.29971194918E+03  0.15349992261E+04  0.15054552042E+04 0.  0.
        5    1    3    3  502    0  0.28593904329E+03 -0.63709530862E+03  0.13659356308E+03  0.71156971563E+03  0.46999998093E+01 0. -1.
       -5    1    3    3    0  502 -0.28593904329E+03  0.63709530862E+03 -0.43630551225E+03  0.82342951049E+03  0.46999998093E+01 0.  1.
</event>
<event>
 5   0  0.7359897E-04  0.1551012E+04  0.7818609E-02  0.8851222E-01
        2   -1    0    0  501    0  0.00000000000E+00  0.00000000000E+00  0.67107864115E+03  0.67107864116E+03  0.25500000920E-02 0.  1.
       -2   -1    0    0    0  501  0.00000000000E+00  0.00000000000E+00 -0.89618332452E+03  0.89618332452E+03  0.25500000920E-02 0. -1.
    10030    2    1    2    0    0  0.00000000000E+00  0.00000000000E+00 -0.22510468336E+03  0.15672619657E+04  0.15510119118E+04 0.  0.
        1    1    3    3  502    0 -0.56693820201E+03  0.22003874744E+03  0.37371029700E+03  0.71378943771E+03  0.50400001928E-02 0.  1.
       -1    1    3    3    0  502  0.56693820201E+03 -0.22003874744E+03 -0.59881498037E+03  0.85347252797E+03  0.50400001928E-02 0. -1.
</event>
<event>
 5   0  0.7547580E-04  0.1505503E+04  0.7818609E-02  0.8880802E-01
        2   -1    0    0  501    0  0.00000000000E+00  0.00000000000E+00  0.46038695755E+03  0.46038695756E+03  0.25500000920E-02 0.  1.
       -2   -1    0    0    0  501  0.00000000000E+00  0.00000000000E+00 -0.12307796540E+04  0.12307796540E+04  0.25500000920E-02 0. -1.
    10030    2    1    2    0    0  0.00000000000E+00  0.00000000000E+00 -0.77039269647E+03  0.16911666116E+04  0.15055031057E+04 0.  0.
        4    1    3    3  502    0  0.12621960161E+03 -0.74202081754E+03 -0.37357627920E+03  0.84028990876E+03  0.12699999809E+01 0. -1.
       -4    1    3    3    0  502 -0.12621960161E+03  0.74202081754E+03 -0.39681641727E+03  0.85087670282E+03  0.12699999809E+01 0.  1.
</event>
<event>
 5   0  0.7672251E-04  0.1588077E+04  0.7818609E-02  0.8827906E-01
       -2   -1    0    0    0  501  0.00000000000E+00  0.00000000000E+00  0.32096983444E+03  0.32096983445E+03  0.25500000920E-02 0. -1.
        2   -1    0    0  501    0  0.00000000000E+00  0.00000000000E+00 -0.19643501567E+04  0.19643501567E+04  0.25500000920E-02 0.  1.
    10030    2    1    2    0    0  0.00000000000E+00  0.00000000000E+00 -0.16433803223E+04  0.22853199912E+04  0.15880770064E+04 0.  0.
        5    1    3    3  502    0  0.34601647905E+03 -0.64782097473E+03 -0.12559768980E+04  0.14549568644E+04  0.46999998093E+01 0.  1.
       -5    1    3    3    0  502 -0.34601647905E+03  0.64782097473E+03 -0.38740342427E+03  0.83036312671E+03  0.46999998093E+01 0. -1.
</event>
<event>
 5   0  0.7454828E-04  0.1508287E+04  0.7818609E-02  0.8878961E-01
        2   -1    0    0  501    0  0.00000000000E+00  0.00000000000E+00  0.10446508147E+04  0.10446508147E+04  0.25500000920E-02 0. -1.
       -2   -1    0    0    0  501  0.00000000000E+00  0.00000000000E+00 -0.54442378214E+03  0.54442378215E+03  0.25500000920E-02 0.  1.
    10030    2    1    2    0    0  0.00000000000E+00  0.00000000000E+00  0.50022703254E+03  0.15890745968E+04  0.15082874362E+04 0.  0.
        3    1    3    3  502    0  0.39885451708E+00 -0.36983291938E+03  0.94255012787E+03  0.10125103955E+04  0.10100000352E+00 0. -1.
       -3    1    3    3    0  502 -0.39885451708E+00  0.36983291938E+03 -0.44232309533E+03  0.57656420128E+03  0.10100000352E+00 0.  1.
</event>
<event>
 5   0  0.4058874E-04  0.1495698E+04  0.7818609E-02  0.8887319E-01
       -1   -1    0    0    0  501  0.00000000000E+00  0.00000000000E+00  0.54064281822E+03  0.54064281824E+03  0.50400001928E-02 0.  1.
        1   -1    0    0  501    0  0.00000000000E+00  0.00000000000E+00 -0.10344686910E+04  0.10344686910E+04  0.50400001928E-02 0. -1.
    10030    2    1    2    0    0  0.00000000000E+00  0.00000000000E+00 -0.49382587277E+03  0.15751115092E+04  0.14956979220E+04 0.  0.
        4    1    3    3  502    0 -0.63700251975E+03  0.33821845934E+03 -0.38643611579E+02  0.72225956416E+03  0.12699999809E+01 0.  1.
       -4    1    3    3    0  502  0.63700251975E+03 -0.33821845934E+03 -0.45518226119E+03  0.85285194507E+03  0.12699999809E+01 0. -1.
</event>
<event>
 5   0  0.7672251E-04  0.1487097E+04  0.7818609E-02  0.8893079E-01
       -2   -1    0    0    0  501  0.00000000000E+00  0.00000000000E+00  0.33272286167E+03  0.33272286168E+03  0.25500000920E-02 0. -1.
        2   -1    0    0  501    0  0.00000000000E+00  0.00000000000E+00 -0.16616356902E+04  0.16616356902E+04  0.25500000920E-02 0.  1.
    10030    2    1    2    0    0  0.00000000000E+00  0.00000000000E+00 -0.13289128286E+04  0.19943585519E+04  0.14870967445E+04 0.  0.
        5    1    3    3  502    0 -0.43093006987E+03  0.47222020871E+03 -0.15527739692E+03  0.65789498449E+03  0.46999998093E+01 0. -1.
       -5    1    3    3    0  502  0.43093006987E+03 -0.47222020871E+03 -0.11736354316E+04  0.13364635674E+04  0.46999998093E+01 0.  1.
</event>
<event>
 5   0  0.3907345E-04  0.1512507E+04  0.7818609E-02  0.8876179E-01
        1   -1    0    0  501    0  0.00000000000E+00  0.00000000000E+00  0.11743187801E+04  0.11743187801E+04  0.50400001928E-02 0.  1.
       -1   -1    0    0    0  501  0.00000000000E+00  0.00000000000E+00 -0.48702193845E+03  0.48702193848E+03  0.50400001928E-02 0. -1.
    10030    2    1    2    0    0  0.00000000000E+00  0.00000000000E+00  0.68729684169E+03  0.16613407186E+04  0.15125065404E+04 0.  0.
        5    1    3    3  502    0  0.36543370900E+03  0.65269332595E+03  0.22159943498E+03  0.78017868017E+03  0.46999998093E+01 0. -1.
       -5    1    3    3    0  502 -0.36543370900E+03 -0.65269332595E+03  0.46569740671E+03  0.88116203846E+03  0.46999998093E+01 0.  1.
</event>
<event>
 5   0  0.3907345E-04  0.1506286E+04  0.7818609E-02  0.8880284E-01
        1   -1    0    0  501    0  0.00000000000E+00  0.00000000000E+00  0.12221993464E+04  0.12221993464E+04  0.50400001928E-02 0. -1.
       -1   -1    0    0    0  501  0.00000000000E+00  0.00000000000E+00 -0.46410108783E+03  0.46410108786E+03  0.50400001928E-02 0.  1.
    10030    2    1    2    0    0  0.00000000000E+00  0.00000000000E+00  0.75809825858E+03  0.16863004343E+04  0.15062855589E+04 0.  0.
        5    1    3    3  502    0 -0.22850427926E+03  0.18049953475E+03 -0.39851235637E+03  0.49358735383E+03  0.46999998093E+01 0.  1.
       -5    1    3    3    0  502  0.22850427926E+03 -0.18049953475E+03  0.11566106149E+04  0.11927130805E+04  0.46999998093E+01 0. -1.
</event>
<event>
 5   0  0.3907345E-04  0.1483719E+04  0.7818609E-02  0.8895353E-01
        1   -1    0    0  501    0  0.00000000000E+00  0.00000000000E+00  0.10807948851E+04  0.10807948851E+04  0.50400001928E-02 0.  1.
       -1   -1    0    0    0  501  0.00000000000E+00  0.00000000000E+00 -0.50921343227E+03  0.50921343230E+03  0.50400001928E-02 0. -1.
    10030    2    1    2    0    0  0.00000000000E+00  0.00000000000E+00  0.57158145280E+03  0.15900083174E+04  0.14837186702E+04 0.  0.
        5    1    3    3  502    0  0.39973449006E+03  0.57843056777E+03  0.32277482961E+02  0.70387037882E+03  0.46999998093E+01 0. -1.
       -5    1    3    3    0  502 -0.39973449006E+03 -0.57843056777E+03  0.53930396984E+03  0.88613793857E+03  0.46999998093E+01 0.  1.
</event>
<event>
 5   0  0.4084462E-04  0.1519410E+04  0.7818609E-02  0.8871647E-01
       -1   -1    0    0    0  501  0.00000000000E+00  0.00000000000E+00  0.28930548928E+03  0.28930548933E+03  0.50400001928E-02 0. -1.
        1   -1    0    0  501    0  0.00000000000E+00  0.00000000000E+00 -0.19949547845E+04  0.19949547845E+04  0.50400001928E-02 0.  1.
    10030    2    1    2    0    0  0.00000000000E+00  0.00000000000E+00 -0.17056492952E+04  0.22842602738E+04  0.15194095828E+04 0.  0.
        1    1    3    3  502    0 -0.72355702941E+03  0.14862098845E+03 -0.11197695742E+04  0.13414569961E+04  0.50400001928E-02 0.  1.
       -1    1    3    3    0  502  0.72355702941E+03 -0.14862098845E+03 -0.58587972101E+03  0.94280327775E+03  0.50400001928E-02 0. -1.
</event>
<event>
 5   0  0.7454828E-04  0.1502789E+04  0.7818609E-02  0.8882600E-01
        2   -1    0    0  501    0  0.00000000000E+00  0.00000000000E+00  0.20345072626E+04  0.20345072626E+04  0.25500000920E-02 0. -1.
       -2   -1    0    0    0  501  0.00000000000E+00  0.00000000000E+00 -0.27750877657E+03  0.27750877658E+03  0.25500000920E-02 0.  1.
    10030    2    1    2    0    0  0.00000000000E+00  0.00000000000E+00  0.17569984860E+04  0.23120160391E+04  0.15027889025E+04 0.  0.
        3    1    3    3  502    0 -0.51926956829E+03 -0.20685743708E+03  0.16510611845E+04  0.17431104179E+04  0.10100000352E+00 0. -1.
       -3    1    3    3    0  502  0.51926956829E+03  0.20685743708E+03  0.10593730149E+03  0.56890562124E+03  0.10100000352E+00 0.  1.
</event>
<event>
 5   0  0.2800375E-04  0.1498113E+04  0.7818609E-02  0.8885709E-01
        4   -1    0    0  501    0  0.00000000000E+00  0.00000000000E+00  0.50499737222E+03  0.50499896915E+03  0.12699999809E+01 0. -1.
       -4   -1    0    0    0  501  0.00000000000E+00  0.00000000000E+00 -0.11110622760E+04  0.11110630019E+04  0.12699999809E+01 0.  1.
    10030    2    1    2    0    0  0.00000000000E+00  0.00000000000E+00 -0.60606490382E+03  0.16160619710E+04  0.14981126882E+04 0.  0.
        4    1    3    3  502    0 -0.70922043121E+03 -0.23678374828E+03 -0.35155896759E+03  0.82622967998E+03  0.12699999809E+01 0.  1.
       -4    1    3    3    0  502  0.70922043121E+03  0.23678374828E+03 -0.25450593624E+03  0.78983229104E+03  0.12699999809E+01 0. -1.
</event>
<event>
 5   0  0.4058874E-04  0.1493006E+04  0.7818609E-02  0.8889117E-01
        1   -1    0    0  501    0  0.00000000000E+00  0.00000000000E+00  0.45863948947E+03  0.45863948949E+03  0.50400001928E-02 0. -1.
       -1   -1    0    0    0  501  0.00000000000E+00  0.00000000000E+00 -0.12150426783E+04  0.12150426783E+04  0.50400001928E-02 0.  1.
    10030    2    1    2    0    0  0.00000000000E+00  0.00000000000E+00 -0.75640318885E+03  0.16736821678E+04  0.14930057652E+04 0.  0.
        4    1    3    3  502    0  0.14689528699E+03  0.73039953662E+03 -0.43082048117E+03  0.86062164063E+03  0.12699999809E+01 0. -1.
       -4    1    3    3    0  502 -0.14689528699E+03 -0.73039953662E+03 -0.32558270768E+03  0.81306052719E+03  0.12699999809E+01 0.  1.
</event>
<event>
 5   0  0.7547580E-04  0.1494196E+04  0.7818609E-02  0.8888322E-01
        2   -1    0    0  501    0  0.00000000000E+00  0.00000000000E+00  0.89707269073E+03  0.89707269073E+03  0.25500000920E-02 0.  1.
       -2   -1    0    0    0  501  0.00000000000E+00  0.00000000000E+00 -0.62219666598E+03  0.62219666599E+03  0.25500000920E-02 0. -1.
    10030    2    1    2    0    0  0.00000000000E+00  0.00000000000E+00  0.27487602474E+03  0.15192693567E+04  0.14941962887E+04 0.  0.
        4    1    3    3  502    0 -0.57268596803E+03 -0.28589897023E+03  0.52919092213E+03  0.83051314506E+03  0.12699999809E+01 0.  1.
       -4    1    3    3    0  502  0.57268596803E+03  0.28589897023E+03 -0.25431489739E+03  0.68875621165E+03  0.12699999809E+01 0. -1.
</event>
<event>
 5   0  0.7634227E-04  0.1489772E+04  0.7818609E-02  0.8891283E-01
       -2   -1    0    0    0  501  0.00000000000E+00  0.00000000000E+00  0.30564573305E+03  0.30564573306E+03  0.25500000920E-02 0.  1.
        2   -1    0    0  501    0  0.00000000000E+00  0.00000000000E+00 -0.18153545210E+04  0.18153545210E+04  0.25500000920E-02 0. -1.
    10030    2    1    2    0    0  0.00000000000E+00  0.00000000000E+00 -0.15097087880E+04  0.21210002541E+04  0.14897722824E+04 0.  0.
        2    1    3    3  502    0 -0.50206224162E+03  0.39231548845E+03 -0.13041868475E+04  0.14515099965E+04  0.25500000920E-02 0. -1.
       -2    1    3    3    0  502  0.50206224162E+03 -0.39231548845E+03 -0.20552194052E+03  0.66949025757E+03  0.25500000920E-02 0.  1.
</event>
<event>
 5   0  0.4084462E-04  0.1520282E+04  0.7818609E-02  0.8871077E-01
        1   -1    0    0  501    0  0.00000000000E+00  0.00000000000E+00  0.48067903855E+03  0.48067903857E+03  0.50400001928E-02 0.  1.
       -1   -1    0    0    0  501  0.00000000000E+00  0.00000000000E+00 -0.12020786571E+04  0.12020786572E+04  0.50400001928E-02 0. -1.
    10030    2    1    2    0    0  0.00000000000E+00  0.00000000000E+00 -0.72139961860E+03  0.16827576957E+04  0.15202815702E+04 0.  0.
        1    1    3    3  502    0 -0.63310514941E+03 -0.32929326544E+03 -0.70881325120E+02  0.71713342353E+03  0.50400001928E-02 0.  1.
       -1    1    3    3    0  502  0.63310514941E+03  0.32929326544E+03 -0.65051829348E+03  0.96562427219E+03  0.50400001928E-02 0. -1.
</event>
<event>
 5   0  0.7672251E-04  0.1505614E+04  0.7818609E-02  0.8880728E-01
        2   -1    0    0  501    0  0.00000000000E+00  0.00000000000E+00  0.18591642864E+04  0.18591642864E+04  0.25500000920E-02 0.  1.
       -2   -1    0    0    0  501  0.00000000000E+00  0.00000000000E+00 -0.30482421073E+03  0.30482421074E+03  0.25500000920E-02 0. -1.
    10030    2    1    2    0    0  0.00000000000E+00  0.00000000000E+00  0.15543400756E+04  0.21639884971E+04  0.15056138764E+04 0.  0.
        5    1    3    3  502    0 -0.69449562474E+03 -0.29043873382E+03  0.77118064259E+03  0.10776922123E+04  0.46999998093E+01 0. -1.
       -5    1    3    3    0  502  0.69449562474E+03  0.29043873382E+03  0.78315943305E+03  0.10862962848E+04  0.46999998093E+01 0.  1.
</event>
<event>
 5   0  0.4086710E-04  0.1502068E+04  0.7818609E-02  0.8883079E-01
        1   -1    0    0  501    0  0.00000000000E+00  0.00000000000E+00  0.24474338923E+04  0.24474338923E+04  0.50400001928E-02 0. -1.
       -1   -1    0    0    0  501  0.00000000000E+00  0.00000000000E+00 -0.23046666707E+03  0.23046666712E+03  0.50400001928E-02 0.  1.
    10030    2    1    2    0    0  0.00000000000E+00  0.00000000000E+00  0.22169672253E+04  0.26779005595E+04  0.15020678175E+04 0.  0.
        3    1    3    3  502    0 -0.42811335293E+03 -0.61137112962E+03  0.95936335013E+03  0.12154973257E+04  0.10100000352E+00 0. -1.
       -3    1    3    3    0  502  0.42811335293E+03  0.61137112962E+03  0.12576038751E+04  0.14624032337E+04  0.10100000352E+00 0.  1.
</event>
<event>
 5   0  0.7547580E-04  0.1462312E+04  0.7818609E-02  0.8909909E-01
       -2   -1    0    0    0  501  0.00000000000E+00  0.00000000000E+00  0.79949783290E+03  0.79949783290E+03  0.25500000920E-02 0.  1.
        2   -1    0    0  501    0  0.00000000000E+00  0.00000000000E+00 -0.66865611402E+03  0.66865611402E+03  0.25500000920E-02 0. -1.
    10030    2    1    2    0    0  0.00000000000E+00  0.00000000000E+00  0.13084171888E+03  0.14681539469E+04  0.14623120243E+04 0.  0.
        4    1    3    3  502    0 -0.28213744409E+02 -0.41823718092E+03 -0.53602924781E+03  0.68047580581E+03  0.12699999809E+01 0. -1.
       -4    1    3    3    0  502  0.28213744409E+02  0.41823718092E+03  0.66687096669E+03  0.78767814112E+03  0.12699999809E+01 0.  1.
</event>
<event>
 5   0  0.2800375E-04  0.1413295E+04  0.7818609E-02  0.8944251E-01
        3   -1    0    0  501    0  0.00000000000E+00  0.00000000000E+00  0.57850477648E+03  0.57850478529E+03  0.10100000352E+00 0.  1.
       -3   -1    0    0    0  501  0.00000000000E+00  0.00000000000E+00 -0.86317465206E+03  0.86317465797E+03  0.10100000352E+00 0. -1.
    10030    2    1    2    0    0  0.00000000000E+00  0.00000000000E+00 -0.28466987559E+03  0.14416794433E+04  0.14132949724E+04 0.  0.
        3    1    3    3  502    0 -0.25492779621E+03 -0.65663261691E+03 -0.84665591035E+02  0.70945249832E+03  0.10100000352E+00 0. -1.
       -3    1    3    3    0  502  0.25492779621E+03  0.65663261691E+03 -0.20000428455E+03  0.73222694495E+03  0.10100000352E+00 0.  1.
</event>
<event>
 5   0  0.2800375E-04  0.1634239E+04  0.7818609E-02  0.8799785E-01
       -4   -1    0    0    0  501  0.00000000000E+00  0.00000000000E+00  0.10919773431E+04  0.10919780817E+04  0.12699999809E+01 0.  1.
        4   -1    0    0  501    0  0.00000000000E+00  0.00000000000E+00 -0.61144386306E+03  0.61144518198E+03  0.12699999809E+01 0. -1.
    10030    2    1    2    0    0  0.00000000000E+00  0.00000000000E+00  0.48053348008E+03  0.17034232636E+04  0.16342393918E+04 0.  0.
        4    1    3    3  502    0  0.77416317792E+03  0.48850184481E+02 -0.27448822181E+02  0.77618942103E+03  0.12699999809E+01 0. -1.
       -4    1    3    3    0  502 -0.77416317792E+03 -0.48850184481E+02  0.50798230226E+03  0.92723384261E+03  0.12699999809E+01 0.  1.
</event>
<event>
 5   0  0.4084462E-04  0.1555850E+04  0.7818609E-02  0.8848140E-01
       -1   -1    0    0    0  501  0.00000000000E+00  0.00000000000E+00  0.96602167539E+03  0.96602167540E+03  0.50400001928E-02 0.  1.
        1   -1    0    0  501    0  0.00000000000E+00  0.00000000000E+00 -0.62645330213E+03  0.62645330215E+03  0.50400001928E-02 0. -1.
    10030    2    1    2    0    0  0.00000000000E+00  0.00000000000E+00  0.33956837326E+03  0.15924749776E+04  0.15558502094E+04 0.  0.
        1    1    3    3  502    0  0.77127091130E+03 -0.72590303673E+02  0.97125115604E+02  0.78074416995E+03  0.50400001928E-02 0.  1.
       -1    1    3    3    0  502 -0.77127091130E+03  0.72590303673E+02  0.24244325765E+03  0.81173080760E+03  0.50400001928E-02 0. -1.
</event>
<event>
 5   0  0.4084462E-04  0.1444026E+04  0.7818609E-02  0.8922553E-01
        1   -1    0    0  501    0  0.00000000000E+00  0.00000000000E+00  0.36724754498E+03  0.36724754501E+03  0.50400001928E-02 0. -1.
       -1   -1    0    0    0  501  0.00000000000E+00  0.00000000000E+00 -0.14194858729E+04  0.14194858730E+04  0.50400001928E-02 0.  1.
    10030    2    1    2    0    0  0.00000000000E+00  0.00000000000E+00 -0.10522383280E+04  0.17867334180E+04  0.14440259028E+04 0.  0.
        1    1    3    3  502    0 -0.25952570174E+03  0.59816800201E+03 -0.14245943417E+03  0.66742283366E+03  0.50400001928E-02 0. -1.
       -1    1    3    3    0  502  0.25952570174E+03 -0.59816800201E+03 -0.90977889380E+03  0.11193105843E+04  0.50400001928E-02 0.  1.
</event>
<event>
 5   0  0.4086710E-04  0.1505265E+04  0.7818609E-02  0.8880959E-01
        1   -1    0    0  501    0  0.00000000000E+00  0.00000000000E+00  0.94193421440E+03  0.94193421441E+03  0.50400001928E-02 0. -1.
       -1   -1    0    0    0  501  0.00000000000E+00  0.00000000000E+00 -0.60137520711E+03  0.60137520713E+03  0.50400001928E-02 0.  1.
    10030    2    1    2    0    0  0.00000000000E+00  0.00000000000E+00  0.34055900729E+03  0.15433094215E+04  0.15052652700E+04 0.  0.
        3    1    3    3  502    0 -0.62701144261E+03 -0.29361792309E+02  0.59604658492E+03  0.86560788213E+03  0.10100000352E+00 0. -1.
       -3    1    3    3    0  502  0.62701144261E+03  0.29361792309E+02 -0.25548757763E+03  0.67770153942E+03  0.10100000352E+00 0.  1.
</event>
<event>
 5   0  0.7547580E-04  0.1531638E+04  0.7818609E-02  0.8863682E-01
        2   -1    0    0  501    0  0.00000000000E+00  0.00000000000E+00  0.17806633434E+04  0.17806633434E+04  0.25500000920E-02 0.  1.
       -2   -1    0    0    0  501  0.00000000000E+00  0.00000000000E+00 -0.32935970339E+03  0.32935970340E+03  0.25500000920E-02 0. -1.
    10030    2    1    2    0    0  0.00000000000E+00  0.00000000000E+00  0.14513036400E+04  0.21100230468E+04  0.15316380129E+04 0.  0.
        4    1    3    3  502    0 -0.78213553887E+02 -0.53979212872E+03 -0.14921630558E+02  0.54563464900E+03  0.12699999809E+01 0. -1.
       -4    1    3    3    0  502  0.78213553887E+02  0.53979212872E+03  0.14662252706E+04  0.15643883978E+04  0.12699999809E+01 0.  1.
</event>
<event>
 5   0  0.7359897E-04  0.1507890E+04  0.7818609E-02  0.8879223E-01
       -2   -1    0    0    0  501  0.00000000000E+00  0.00000000000E+00  0.49822431142E+03  0.49822431143E+03  0.25500000920E-02 0.  1.
        2   -1    0    0  501    0  0.00000000000E+00  0.00000000000E+00 -0.11409173804E+04  0.11409173804E+04  0.25500000920E-02 0. -1.
    10030    2    1    2    0    0  0.00000000000E+00  0.00000000000E+00 -0.64269306902E+03  0.16391416919E+04  0.15078896197E+04 0.  0.
        1    1    3    3  502    0  0.41192564976E+03 -0.19302362434E+03 -0.97492275104E+03  0.10758323434E+04  0.50400001928E-02 0. -1.
       -1    1    3    3    0  502 -0.41192564976E+03  0.19302362434E+03  0.33222968202E+03  0.56330934851E+03  0.50400001928E-02 0.  1.
</event>
<event>
 5   0  0.2800375E-04  0.1507042E+04  0.7818609E-02  0.8879783E-01
        4   -1    0    0  501    0  0.00000000000E+00  0.00000000000E+00  0.62192754711E+03  0.62192884381E+03  0.12699999809E+01 0. -1.
       -4   -1    0    0    0  501  0.00000000000E+00  0.00000000000E+00 -0.91295595561E+03  0.91295683895E+03  0.12699999809E+01 0.  1.
    10030    2    1    2    0    0  0.00000000000E+00  0.00000000000E+00 -0.29102840850E+03  0.15348856828E+04  0.15070423102E+04 0.  0.
        1    1    3    3  502    0  0.14366582853E+03 -0.91662598289E+02 -0.89307261096E+03  0.90918677437E+03  0.50400001928E-02 0.  1.
       -1    1    3    3    0  502 -0.14366582853E+03  0.91662598289E+02  0.60204420247E+03  0.62569890839E+03  0.50400001928E-02 0. -1.
</event>
<event>
 5   0  0.4015204E-04  0.1501398E+04  0.7818609E-02  0.8883524E-01
        1   -1    0    0  501    0  0.00000000000E+00  0.00000000000E+00  0.46773203239E+03  0.46773203242E+03  0.50400001928E-02 0.  1.
       -1   -1    0    0    0  501  0.00000000000E+00  0.00000000000E+00 -0.12048539849E+04  0.12048539850E+04  0.50400001928E-02 0. -1.
    10030    2    1    2    0    0  0.00000000000E+00  0.00000000000E+00 -0.73712195256E+03  0.16725860174E+04  0.15013977530E+04 0.  0.
        2    1    3    3  502    0 -0.64937319466E+03  0.35515674382E+03 -0.50826691811E+03  0.89786252772E+03  0.25500000920E-02 0. -1.
       -2    1    3    3    0  502  0.64937319466E+03 -0.35515674382E+03 -0.22885503445E+03  0.77472348966E+03  0.25500000920E-02 0.  1.
</event>
<event>
 5   0  0.3907345E-04  0.1515235E+04  0.7818609E-02  0.8874385E-01
       -1   -1    0    0    0  501  0.00000000000E+00  0.00000000000E+00  0.62751608994E+03  0.62751608996E+03  0.50400001928E-02 0.  1.
        1   -1    0    0  501    0  0.00000000000E+00  0.00000000000E+00 -0.91469211518E+03  0.91469211519E+03  0.50400001928E-02 0. -1.
    10030    2    1    2    0    0  0.00000000000E+00  0.00000000000E+00 -0.28717602523E+03  0.15422082052E+04  0.15152346612E+04 0.  0.
        5    1    3    3  502    0  0.64908741515E+03  0.14381762042E+03  0.22614715865E+03  0.70225537222E+03  0.46999998093E+01 0.  1.
       -5    1    3    3    0  502 -0.64908741515E+03 -0.14381762042E+03 -0.51332318388E+03  0.83995283293E+03  0.46999998093E+01 0. -1.
</event>
<event>
 5   0  0.7547580E-04  0.1524888E+04  0.7818609E-02  0.8868069E-01
       -2   -1    0    0    0  501  0.00000000000E+00  0.00000000000E+00  0.31623017589E+03  0.31623017590E+03  0.25500000920E-02 0.  1.
        2   -1    0    0  501    0  0.00000000000E+00  0.00000000000E+00 -0.18382849070E+04  0.18382849070E+04  0.25500000920E-02 0. -1.
    10030    2    1    2    0    0  0.00000000000E+00  0.00000000000E+00 -0.15220547311E+04  0.21545150829E+04  0.15248884018E+04 0.  0.
        4    1    3    3  502    0  0.26950294948E+03  0.60321061071E+02 -0.17651303737E+04  0.17866049701E+04  0.12699999809E+01 0. -1.
       -4    1    3    3    0  502 -0.26950294948E+03 -0.60321061071E+02  0.24307564258E+03  0.36791011280E+03  0.12699999809E+01 0.  1.
</event>
<event>
 5   0  0.4086710E-04  0.1507890E+04  0.7818609E-02  0.8879223E-01
       -1   -1    0    0    0  501  0.00000000000E+00  0.00000000000E+00  0.12275603760E+04  0.12275603760E+04  0.50400001928E-02 0. -1.
        1   -1    0    0  501    0  0.00000000000E+00  0.00000000000E+00 -0.46305945546E+03  0.46305945549E+03  0.50400001928E-02 0.  1.
    10030    2    1    2    0    0  0.00000000000E+00  0.00000000000E+00  0.76450092056E+03  0.16906198315E+04  0.15078904991E+04 0.  0.
        3    1    3    3  502    0 -0.16046671639E+02 -0.74328005329E+03  0.24171890129E+03  0.78176132594E+03  0.10100000352E+00 0.  1.
       -3    1    3    3    0  502  0.16046671639E+02  0.74328005329E+03  0.52278201927E+03  0.90885850558E+03  0.10100000352E+00 0. -1.
</event>
<event>
 5   0  0.7547580E-04  0.1458420E+04  0.7818609E-02  0.8912584E-01
        2   -1    0    0  501    0  0.00000000000E+00  0.00000000000E+00  0.25072692544E+04  0.25072692544E+04  0.25500000920E-02 0. -1.
       -2   -1    0    0    0  501  0.00000000000E+00  0.00000000000E+00 -0.21208223430E+03  0.21208223431E+03  0.25500000920E-02 0.  1.
    10030    2    1    2    0    0  0.00000000000E+00  0.00000000000E+00  0.22951870201E+04  0.27193514887E+04  0.14584200567E+04 0.  0.
        4    1    3    3  502    0 -0.32587184591E+01  0.44660510633E+03  0.72777547739E+02  0.45250958510E+03  0.12699999809E+01 0.  1.
       -4    1    3    3    0  502  0.32587184591E+01 -0.44660510633E+03  0.22224094723E+04  0.22668419036E+04  0.12699999809E+01 0. -1.
</event>
<event>
 5   0  0.4086710E-04  0.1511403E+04  0.7818609E-02  0.8876905E-01
       -1   -1    0    0    0  501  0.00000000000E+00  0.00000000000E+00  0.84863801987E+03  0.84863801989E+03  0.50400001928E-02 0.  1.
        1   -1    0    0  501    0  0.00000000000E+00  0.00000000000E+00 -0.67294265768E+03  0.67294265770E+03  0.50400001928E-02 0. -1.
    10030    2    1    2    0    0  0.00000000000E+00  0.00000000000E+00  0.17569536219E+03  0.15215806776E+04  0.15114029569E+04 0.  0.
        3    1    3    3  502    0  0.78417496746E+02  0.54413487719E+03  0.60984932961E+03  0.82106533443E+03  0.10100000352E+00 0.  1.
       -3    1    3    3    0  502 -0.78417496746E+02 -0.54413487719E+03 -0.43415396742E+03  0.70051534316E+03  0.10100000352E+00 0. -1.
</event>
<event>
 5   0  0.4084462E-04  0.1494223E+04  0.7818609E-02  0.8888304E-01
       -1   -1    0    0    0  501  0.00000000000E+00  0.00000000000E+00  0.39063246389E+03  0.39063246392E+03  0.50400001928E-02 0. -1.
        1   -1    0    0  501    0  0.00000000000E+00  0.00000000000E+00 -0.14289014341E+04  0.14289014341E+04  0.50400001928E-02 0.  1.
    10030    2    1    2    0    0  0.00000000000E+00  0.00000000000E+00 -0.10382689702E+04  0.18195338981E+04  0.14942225911E+04 0.  0.
        1    1    3    3  502    0 -0.73949047802E+03 -0.84190512051E+01 -0.38992924979E+03  0.83603939343E+03  0.50400001928E-02 0.  1.
       -1    1    3    3    0  502  0.73949047802E+03  0.84190512051E+01 -0.64833972045E+03  0.98349450463E+03  0.50400001928E-02 0. -1.
</event>
<event>
 5   0  0.7547580E-04  0.1505785E+04  0.7818609E-02  0.8880615E-01
        2   -1    0    0  501    0  0.00000000000E+00  0.00000000000E+00  0.21602428921E+04  0.21602428921E+04  0.25500000920E-02 0.  1.
       -2   -1    0    0    0  501  0.00000000000E+00  0.00000000000E+00 -0.26239965235E+03  0.26239965236E+03  0.25500000920E-02 0. -1.
    10030    2    1    2    0    0  0.00000000000E+00  0.00000000000E+00  0.18978432397E+04  0.24226425444E+04  0.15057848238E+04 0.  0.
        4    1    3    3  502    0  0.19185585309E+03 -0.72301680467E+03  0.10862289074E+04  0.13188846880E+04  0.12699999809E+01 0.  1.
       -4    1    3    3    0  502 -0.19185585309E+03  0.72301680467E+03  0.81161433233E+03  0.11037578564E+04  0.12699999809E+01 0. -1.
</event>
<event>
 5   0  0.7359897E-04  0.1512710E+04  0.7818609E-02  0.8876045E-01
        2   -1    0    0  501    0  0.00000000000E+00  0.00000000000E+00  0.20143211487E+04  0.20143211487E+04  0.25500000920E-02 0. -1.
       -2   -1    0    0    0  501  0.00000000000E+00  0.00000000000E+00 -0.28400269803E+03  0.28400269804E+03  0.25500000920E-02 0.  1.
    10030    2    1    2    0    0  0.00000000000E+00  0.00000000000E+00  0.17303184506E+04  0.22983238467E+04  0.15127096760E+04 0.  0.
        1    1    3    3  502    0 -0.54457735861E+03  0.88409004530E+02  0.16512511337E+04  0.17409798845E+04  0.50400001928E-02 0. -1.
       -1    1    3    3    0  502  0.54457735861E+03 -0.88409004530E+02  0.79067316932E+02  0.55734396222E+03  0.50400001928E-02 0.  1.
</event>
<event>
 5   0  0.7547580E-04  0.1531186E+04  0.7818609E-02  0.8863975E-01
        2   -1    0    0  501    0  0.00000000000E+00  0.00000000000E+00  0.19552436980E+04  0.19552436980E+04  0.25500000920E-02 0. -1.
       -2   -1    0    0    0  501  0.00000000000E+00  0.00000000000E+00 -0.29977477794E+03  0.29977477795E+03  0.25500000920E-02 0.  1.
    10030    2    1    2    0    0  0.00000000000E+00  0.00000000000E+00  0.16554689200E+04  0.22550184759E+04  0.15311861355E+04 0.  0.
        4    1    3    3  502    0 -0.12780238400E+03 -0.26722850847E+03  0.18674278867E+04  0.18907757800E+04  0.12699999809E+01 0. -1.
       -4    1    3    3    0  502  0.12780238400E+03  0.26722850847E+03 -0.21195896669E+03  0.36424269596E+03  0.12699999809E+01 0.  1.
</event>
<event>
 5   0  0.7547580E-04  0.1500139E+04  0.7818609E-02  0.8884361E-01
        2   -1    0    0  501    0  0.00000000000E+00  0.00000000000E+00  0.15168575913E+04  0.15168575913E+04  0.25500000920E-02 0.  1.
       -2   -1    0    0    0  501  0.00000000000E+00  0.00000000000E+00 -0.37090115385E+03  0.37090115386E+03  0.25500000920E-02 0. -1.
    10030    2    1    2    0    0  0.00000000000E+00  0.00000000000E+00  0.11459564374E+04  0.18877587451E+04  0.15001389680E+04 0.  0.
        4    1    3    3  502    0  0.23675738423E+03  0.62299661159E+03  0.13993179177E+03  0.68100026159E+03  0.12699999809E+01 0. -1.
       -4    1    3    3    0  502 -0.23675738423E+03 -0.62299661159E+03  0.10060246456E+04  0.12067584835E+04  0.12699999809E+01 0.  1.
</event>
<event>
 5   0  0.4084462E-04  0.1490701E+04  0.7818609E-02  0.8890660E-01
        1   -1    0    0  501    0  0.00000000000E+00  0.00000000000E+00  0.12399897829E+04  0.12399897829E+04  0.50400001928E-02 0.  1.
       -1   -1    0    0    0  501  0.00000000000E+00  0.00000000000E+00 -0.44802566298E+03  0.44802566300E+03  0.50400001928E-02 0. -1.
    10030    2    1    2    0    0  0.00000000000E+00  0.00000000000E+00  0.79196411990E+03  0.16880154459E+04  0.14907008346E+04 0.  0.
        1    1    3    3  502    0  0.13590661891E+03 -0.43680658918E+02  0.12243651941E+04  0.12326592139E+04  0.50400001928E-02 0.  1.
       -1    1    3    3    0  502 -0.13590661891E+03  0.43680658918E+02 -0.43240107420E+03  0.45535623200E+03  0.50400001928E-02 0. -1.
</event>
<event>
 5   0  0.4086710E-04  0.1526864E+04  0.7818609E-02  0.8866782E-01
        1   -1    0    0  501    0  0.00000000000E+00  0.00000000000E+00  0.94101683083E+03  0.94101683085E+03  0.50400001928E-02 0. -1.
       -1   -1    0    0    0  501  0.00000000000E+00  0.00000000000E+00 -0.61936061707E+03  0.61936061709E+03  0.50400001928E-02 0.  1.
    10030    2    1    2    0    0  0.00000000000E+00  0.00000000000E+00  0.32165621376E+03  0.15603774479E+04  0.15268644538E+04 0.  0.
        3    1    3    3  502    0 -0.34780370562E+03 -0.32800583747E+03  0.76910107820E+03  0.90557811687E+03  0.10100000352E+00 0. -1.
       -3    1    3    3    0  502  0.34780370562E+03  0.32800583747E+03 -0.44744486444E+03  0.65479933107E+03  0.10100000352E+00 0.  1.
</event>
<event>
 5   0  0.7634227E-04  0.1501494E+04  0.7818609E-02  0.8883460E-01
        2   -1    0    0  501    0  0.00000000000E+00  0.00000000000E+00  0.81326768570E+03  0.81326768570E+03  0.25500000920E-02 0. -1.
       -2   -1    0    0    0  501  0.00000000000E+00  0.00000000000E+00 -0.69303225897E+03  0.69303225898E+03  0.25500000920E-02 0.  1.
    10030    2    1    2    0    0  0.00000000000E+00  0.00000000000E+00  0.12023542672E+03  0.15062999447E+04  0.15014935782E+04 0.  0.
        2    1    3    3  502    0  0.25663224707E+03  0.63565908947E+02 -0.64478363937E+03  0.69688354596E+03  0.25500000920E-02 0.  1.
       -2    1    3    3    0  502 -0.25663224707E+03 -0.63565908947E+02  0.76501906610E+03  0.80941639872E+03  0.25500000920E-02 0. -1.
</event>
<event>
 5   0  0.4015204E-04  0.1441082E+04  0.7818609E-02  0.8924607E-01
        1   -1    0    0  501    0  0.00000000000E+00  0.00000000000E+00  0.51265484951E+03  0.51265484954E+03  0.50400001928E-02 0.  1.
       -1   -1    0    0    0  501  0.00000000000E+00  0.00000000000E+00 -0.10127266597E+04  0.10127266597E+04  0.50400001928E-02 0. -1.
    10030    2    1    2    0    0  0.00000000000E+00  0.00000000000E+00 -0.50007181022E+03  0.15253815093E+04  0.14410818622E+04 0.  0.
        2    1    3    3  502    0 -0.17471265172E+03 -0.58716789048E+03 -0.65155204324E+03  0.89432136692E+03  0.25500000920E-02 0. -1.
       -2    1    3    3    0  502  0.17471265172E+03  0.58716789048E+03  0.15148023302E+03  0.63106014236E+03  0.25500000920E-02 0.  1.
</event>
<event>
 5   0  0.4058874E-04  0.1486323E+04  0.7818609E-02  0.8893599E-01
       -1   -1    0    0    0  501  0.00000000000E+00  0.00000000000E+00  0.10490385805E+04  0.10490385805E+04  0.50400001928E-02 0.  1.
        1   -1    0    0  501    0  0.00000000000E+00  0.00000000000E+00 -0.52647172894E+03  0.52647172896E+03  0.50400001928E-02 0. -1.
    10030    2    1    2    0    0  0.00000000000E+00  0.00000000000E+00  0.52256685151E+03  0.15755103094E+04  0.14863231885E+04 0.  0.
        4    1    3    3  502    0  0.11444356328E+03 -0.63830610130E+03 -0.12347880056E+03  0.66013683068E+03  0.12699999809E+01 0. -1.
       -4    1    3    3    0  502 -0.11444356328E+03  0.63830610130E+03  0.64604565208E+03  0.91537347875E+03  0.12699999809E+01 0.  1.
</event>
<event>
 5   0  0.4058874E-04  0.1484836E+04  0.7818609E-02  0.8894600E-01
        1   -1    0    0  501    0  0.00000000000E+00  0.00000000000E+00  0.10043259945E+04  0.10043259946E+04  0.50400001928E-02 0.  1.
       -1   -1    0    0    0  501  0.00000000000E+00  0.00000000000E+00 -0.54881030187E+03  0.54881030189E+03  0.50400001928E-02 0. -1.
    10030    2    1    2    0    0  0.00000000000E+00  0.00000000000E+00  0.45551569267E+03  0.15531362964E+04  0.14848359536E+04 0.  0.
        4    1    3    3  502    0  0.53218369422E+02  0.71487047827E+03  0.25712603322E+02  0.71731077394E+03  0.12699999809E+01 0. -1.
       -4    1    3    3    0  502 -0.53218369422E+02 -0.71487047827E+03  0.42980308935E+03  0.83582552250E+03  0.12699999809E+01 0.  1.
</event>
<event>
 5   0  0.7634227E-04  0.1468140E+04  0.7818609E-02  0.8905920E-01
       -2   -1    0    0    0  501  0.00000000000E+00  0.00000000000E+00  0.62929124056E+03  0.62929124056E+03  0.25500000920E-02 0. -1.
        2   -1    0    0  501    0  0.00000000000E+00  0.00000000000E+00 -0.85629500578E+03  0.85629500578E+03  0.25500000920E-02 0.  1.
    10030    2    1    2    0    0  0.00000000000E+00  0.00000000000E+00 -0.22700376522E+03  0.14855862463E+04  0.14681402474E+04 0.  0.
        2    1    3    3  502    0  0.22107744295E+03  0.43517982675E+03 -0.66828907158E+03  0.82756691608E+03  0.25500000920E-02 0.  1.
       -2    1    3    3    0  502 -0.22107744295E+03 -0.43517982675E+03  0.44128530635E+03  0.65801933027E+03  0.25500000920E-02 0. -1.
</event>
<event>
 5   0  0.4084462E-04  0.1478340E+04  0.7818609E-02  0.8898985E-01
       -1   -1    0    0    0  501  0.00000000000E+00  0.00000000000E+00  0.41930326217E+03  0.41930326220E+03  0.50400001928E-02 0.  1.
        1   -1    0    0  501    0  0.00000000000E+00  0.00000000000E+00 -0.13030488294E+04  0.13030488294E+04  0.50400001928E-02 0. -1.
    10030    2    1    2    0    0  0.00000000000E+00  0.00000000000E+00 -0.88374556726E+03  0.17223520916E+04  0.14783404547E+04 0.  0.
        1    1    3    3  502    0  0.60301176554E+03 -0.23750732336E+03 -0.85598439491E+03  0.10736583266E+04  0.50400001928E-02 0. -1.
       -1    1    3    3    0  502 -0.60301176554E+03  0.23750732336E+03 -0.27761172353E+02  0.64869376500E+03  0.50400001928E-02 0.  1.
</event>
<event>
 5   0  0.7634227E-04  0.1543968E+04  0.7818609E-02  0.8855730E-01
        2   -1    0    0  501    0  0.00000000000E+00  0.00000000000E+00  0.51469753999E+03  0.51469754000E+03  0.25500000920E-02 0.  1.
       -2   -1    0    0    0  501  0.00000000000E+00  0.00000000000E+00 -0.11578828102E+04  0.11578828102E+04  0.25500000920E-02 0. -1.
    10030    2    1    2    0    0  0.00000000000E+00  0.00000000000E+00 -0.64318527016E+03  0.16725803502E+04  0.15439681784E+04 0.  0.
        2    1    3    3  502    0  0.28980491597E+03  0.48307922894E+03  0.25020803450E+03  0.61640610906E+03  0.25500000920E-02 0.  1.
       -2    1    3    3    0  502 -0.28980491597E+03 -0.48307922894E+03 -0.89339330466E+03  0.10561742411E+04  0.25500000920E-02 0. -1.
</event>
<event>
 5   0  0.7634227E-04  0.1512861E+04  0.7818609E-02  0.8875945E-01
        2   -1    0    0  501    0  0.00000000000E+00  0.00000000000E+00  0.80698046310E+03  0.80698046311E+03  0.25500000920E-02 0. -1.
       -2   -1    0    0    0  501  0.00000000000E+00  0.00000000000E+00 -0.70904745578E+03  0.70904745579E+03  0.25500000920E-02 0.  1.
    10030    2    1    2    0    0  0.00000000000E+00  0.00000000000E+00  0.97933007319E+02  0.15160279189E+04  0.15128614533E+04 0.  0.
        2    1    3    3  502    0  0.26417919195E+03 -0.70352383884E+03  0.13546638785E+03  0.76360171524E+03  0.25500000920E-02 0. -1.
       -2    1    3    3    0  502 -0.26417919195E+03  0.70352383884E+03 -0.37533380535E+02  0.75242620365E+03  0.25500000920E-02 0.  1.
</event>
<event>
 5   0  0.7634227E-04  0.1510693E+04  0.7818609E-02  0.8877373E-01
        2   -1    0    0  501    0  0.00000000000E+00  0.00000000000E+00  0.11698041046E+04  0.11698041046E+04  0.25500000920E-02 0.  1.
       -2   -1    0    0    0  501  0.00000000000E+00  0.00000000000E+00 -0.48772981531E+03  0.48772981531E+03  0.25500000920E-02 0. -1.
    10030    2    1    2    0    0  0.00000000000E+00  0.00000000000E+00  0.68207428926E+03  0.16575339199E+04  0.15106930064E+04 0.  0.
        2    1    3    3  502    0 -0.27169889332E+02  0.75202872232E+03  0.41267469113E+03  0.85824577062E+03  0.25500000920E-02 0.  1.
       -2    1    3    3    0  502  0.27169889332E+02 -0.75202872232E+03  0.26939959813E+03  0.79928814927E+03  0.25500000920E-02 0. -1.
</event>
<event>
 5   0  0.7359897E-04  0.1534960E+04  0.7818609E-02  0.8861532E-01
        2   -1    0    0  501    0  0.00000000000E+00  0.00000000000E+00  0.64357853703E+03  0.64357853704E+03  0.25500000920E-02 0. -1.
       -2   -1    0    0    0  501  0.00000000000E+00  0.00000000000E+00 -0.91523436496E+03  0.91523436497E+03  0.25500000920E-02 0.  1.
    10030    2    1    2    0    0  0.00000000000E+00  0.00000000000E+00 -0.27165582793E+03  0.15588129020E+04  0.15349595352E+04 0.  0.
        1    1    3    3  502    0  0.23238710893E+02 -0.75559884417E+03 -0.12715665092E+01  0.75595718655E+03  0.50400001928E-02 0. -1.
       -1    1    3    3    0  502 -0.23238710893E+02  0.75559884417E+03 -0.27038426142E+03  0.80285571546E+03  0.50400001928E-02 0.  1.
</event>
<event>
 5   0  0.4015204E-04  0.1480739E+04  0.7818609E-02  0.8897363E-01
       -1   -1    0    0    0  501  0.00000000000E+00  0.00000000000E+00  0.45158824499E+03  0.45158824502E+03  0.50400001928E-02 0. -1.
        1   -1    0    0  501    0  0.00000000000E+00  0.00000000000E+00 -0.12138197596E+04  0.12138197596E+04  0.50400001928E-02 0.  1.
    10030    2    1    2    0    0  0.00000000000E+00  0.00000000000E+00 -0.76223151464E+03  0.16654080047E+04  0.14807386468E+04 0.  0.
        2    1    3    3  502    0  0.36065310430E+03  0.31988759042E+03 -0.10131091566E+04  0.11219576174E+04  0.25500000920E-02 0.  1.
       -2    1    3    3    0  502 -0.36065310430E+03 -0.31988759042E+03  0.25087764195E+03  0.54345038723E+03  0.25500000920E-02 0. -1.
</event>
<event>
 5   0  0.7547580E-04  0.1491685E+04  0.7818609E-02  0.8890001E-01
        2   -1    0    0  501    0  0.00000000000E+00  0.00000000000E+00  0.24226865478E+04  0.24226865478E+04  0.25500000920E-02 0.  1.
       -2   -1    0    0    0  501  0.00000000000E+00  0.00000000000E+00 -0.22961340456E+03  0.22961340457E+03  0.25500000920E-02 0. -1.
    10030    2    1    2    0    0  0.00000000000E+00  0.00000000000E+00  0.21930731432E+04  0.26522999524E+04  0.14916853642E+04 0.  0.
        4    1    3    3  502    0 -0.71349817433E+02 -0.58313964401E+03  0.19135470684E+04  0.20017009359E+04  0.12699999809E+01 0. -1.
       -4    1    3    3    0  502  0.71349817433E+02  0.58313964401E+03  0.27952607489E+03  0.65059901653E+03  0.12699999809E+01 0.  1.
</event>
<event>
 5   0  0.7672251E-04  0.1438151E+04  0.7818609E-02  0.8926656E-01
       -2   -1    0    0    0  501  0.00000000000E+00  0.00000000000E+00  0.80128447250E+03  0.80128447250E+03  0.25500000920E-02 0. -1.
        2   -1    0    0  501    0  0.00000000000E+00  0.00000000000E+00 -0.64530112336E+03  0.64530112337E+03  0.25500000920E-02 0.  1.
    10030    2    1    2    0    0  0.00000000000E+00  0.00000000000E+00  0.15598334914E+03  0.14465855959E+04  0.14381512719E+04 0.  0.
        5    1    3    3  502    0 -0.22915679263E+03 -0.40583151852E+03 -0.47279215523E+03  0.66390252980E+03  0.46999998093E+01 0.  1.
       -5    1    3    3    0  502  0.22915679263E+03  0.40583151852E+03  0.62877550437E+03  0.78268306607E+03  0.46999998093E+01 0. -1.
</event>
<event>
 5   0  0.4086710E-04  0.1486754E+04  0.7818609E-02  0.8893309E-01
        1   -1    0    0  501    0  0.00000000000E+00  0.00000000000E+00  0.10075084579E+04  0.10075084579E+04  0.50400001928E-02 0. -1.
       -1   -1    0    0    0  501  0.00000000000E+00  0.00000000000E+00 -0.54849111050E+03  0.54849111052E+03  0.50400001928E-02 0.  1.
    10030    2    1    2    0    0  0.00000000000E+00  0.00000000000E+00  0.45901734742E+03  0.15559995685E+04  0.14867540926E+04 0.  0.
        3    1    3    3  502    0  0.64273622993E+03 -0.35685609711E+03  0.34488513492E+03  0.81203565304E+03  0.10100000352E+00 0. -1.
       -3    1    3    3    0  502 -0.64273622993E+03  0.35685609711E+03  0.11413221250E+03  0.74396391542E+03  0.10100000352E+00 0.  1.
</event>
<event>
 5   0  0.7672251E-04  0.1506954E+04  0.7818609E-02  0.8879841E-01
       -2   -1    0    0    0  501  0.00000000000E+00  0.00000000000E+00  0.74375834964E+03  0.74375834965E+03  0.25500000920E-02 0.  1.
        2   -1    0    0  501    0  0.00000000000E+00  0.00000000000E+00 -0.76332307722E+03  0.76332307722E+03  0.25500000920E-02 0. -1.
    10030    2    1    2    0    0  0.00000000000E+00  0.00000000000E+00 -0.19564727574E+02  0.15070814269E+04  0.15069544282E+04 0.  0.
        5    1    3    3  502    0 -0.21108740981E+02  0.27963473744E+03  0.68960815103E+03  0.74446132021E+03  0.46999998093E+01 0.  1.
       -5    1    3    3    0  502  0.21108740981E+02 -0.27963473744E+03 -0.70917287860E+03  0.76262010665E+03  0.46999998093E+01 0. -1.
</event>
<event>
 5   0  0.3907345E-04  0.1527295E+04  0.7818609E-02  0.8866502E-01
       -1   -1    0    0    0  501  0.00000000000E+00  0.00000000000E+00  0.30276293245E+03  0.30276293249E+03  0.50400001928E-02 0.  1.
        1   -1    0    0  501    0  0.00000000000E+00  0.00000000000E+00 -0.19261192237E+04  0.19261192237E+04  0.50400001928E-02 0. -1.
    10030    2    1    2    0    0  0.00000000000E+00  0.00000000000E+00 -0.16233562913E+04  0.22288821562E+04  0.15272950003E+04 0.  0.
        5    1    3    3  502    0 -0.60208431491E+03  0.12113139089E+03 -0.14739747655E+04  0.15968099559E+04  0.46999998093E+01 0. -1.
       -5    1    3    3    0  502  0.60208431491E+03 -0.12113139089E+03 -0.14938152579E+03  0.63207220027E+03  0.46999998093E+01 0.  1.
</event>
<event>
 5   0  0.7672251E-04  0.1499349E+04  0.7818609E-02  0.8884886E-01
        2   -1    0    0  501    0  0.00000000000E+00  0.00000000000E+00  0.94032798734E+03  0.94032798735E+03  0.25500000920E-02 0. -1.
       -2   -1    0    0    0  501  0.00000000000E+00  0.00000000000E+00 -0.59767627642E+03  0.59767627643E+03  0.25500000920E-02 0.  1.
    10030    2    1    2    0    0  0.00000000000E+00  0.00000000000E+00  0.34265171092E+03  0.15380042638E+04  0.14993488321E+04 0.  0.
        5    1    3    3  502    0  0.10619995943E+03  0.34007532996E+02 -0.58910602422E+03  0.59958564147E+03  0.46999998093E+01 0.  1.
       -5    1    3    3    0  502 -0.10619995943E+03 -0.34007532996E+02  0.93175773515E+03  0.93841862230E+03  0.46999998093E+01 0. -1.
</event>
<event>
 5   0  0.7634227E-04  0.1505428E+04  0.7818609E-02  0.8880851E-01
       -2   -1    0    0    0  501  0.00000000000E+00  0.00000000000E+00  0.48316347733E+03  0.48316347733E+03  0.25500000920E-02 0.  1.
        2   -1    0    0  501    0  0.00000000000E+00  0.00000000000E+00 -0.11726433036E+04  0.11726433036E+04  0.25500000920E-02 0. -1.
    10030    2    1    2    0    0  0.00000000000E+00  0.00000000000E+00 -0.68947982631E+03  0.16558067810E+04  0.15054280670E+04 0.  0.
        2    1    3    3  502    0 -0.56868669941E+03  0.18101601325E+03 -0.84926155357E+03  0.10379867752E+04  0.25500000920E-02 0. -1.
       -2    1    3    3    0  502  0.56868669941E+03 -0.18101601325E+03  0.15978172726E+03  0.61782000576E+03  0.25500000920E-02 0.  1.
</event>
<event>
 5   0  0.4084462E-04  0.1510080E+04  0.7818609E-02  0.8877778E-01
       -1   -1    0    0    0  501  0.00000000000E+00  0.00000000000E+00  0.24956577080E+03  0.24956577085E+03  0.50400001928E-02 0.  1.
        1   -1    0    0  501    0  0.00000000000E+00  0.00000000000E+00 -0.22843081610E+04  0.22843081610E+04  0.50400001928E-02 0. -1.
    10030    2    1    2    0    0  0.00000000000E+00  0.00000000000E+00 -0.20347423902E+04  0.25338739318E+04  0.15100796363E+04 0.  0.
        1    1    3    3  502    0  0.34413353904E+03 -0.55124710049E+03 -0.16624290498E+04  0.17849290193E+04  0.50400001928E-02 0. -1.
       -1    1    3    3    0  502 -0.34413353904E+03  0.55124710049E+03 -0.37231334041E+03  0.74894491251E+03  0.50400001928E-02 0.  1.
</event>
<event>
 5   0  0.4086710E-04  0.1512984E+04  0.7818609E-02  0.8875864E-01
        1   -1    0    0  501    0  0.00000000000E+00  0.00000000000E+00  0.76296642577E+03  0.76296642578E+03  0.50400001928E-02 0. -1.
       -1   -1    0    0    0  501  0.00000000000E+00  0.00000000000E+00 -0.75007251660E+03  0.75007251661E+03  0.50400001928E-02 0.  1.
    10030    2    1    2    0    0  0.00000000000E+00  0.00000000000E+00  0.12893909172E+02  0.15130389424E+04  0.15129840013E+04 0.  0.
        3    1    3    3  502    0  0.30908322360E+03 -0.64147287016E+03 -0.24902318907E+03  0.75434238987E+03  0.10100000352E+00 0.  1.
       -3    1    3    3    0  502 -0.30908322360E+03  0.64147287016E+03  0.26191709824E+03  0.75869655253E+03  0.10100000352E+00 0. -1.
</event>
<event>
 5   0  0.7547580E-04  0.1496256E+04  0.7818609E-02  0.8886946E-01
       -2   -1    0    0    0  501  0.00000000000E+00  0.00000000000E+00  0.69926718343E+03  0.69926718343E+03  0.25500000920E-02 0.  1.
        2   -1    0    0  501    0  0.00000000000E+00  0.00000000000E+00 -0.80040330390E+03  0.80040330390E+03  0.25500000920E-02 0. -1.
    10030    2    1    2    0    0  0.00000000000E+00  0.00000000000E+00 -0.10113612047E+03  0.14996704873E+04  0.14962563469E+04 0.  0.
        4    1    3    3  502    0  0.18568116032E+02 -0.26909755805E+03  0.64883210056E+03  0.70266846969E+03  0.12699999809E+01 0.  1.
       -4    1    3    3    0  502 -0.18568116032E+02  0.26909755805E+03 -0.74996822103E+03  0.79700201765E+03  0.12699999809E+01 0. -1.
</event>
<event>
 5   0  0.7547580E-04  0.1483395E+04  0.7818609E-02  0.8895571E-01
        2   -1    0    0  501    0  0.00000000000E+00  0.00000000000E+00  0.12701212746E+04  0.12701212746E+04  0.25500000920E-02 0.  1.
       -2   -1    0    0    0  501  0.00000000000E+00  0.00000000000E+00 -0.43311998236E+03  0.43311998237E+03  0.25500000920E-02 0. -1.
    10030    2    1    2    0    0  0.00000000000E+00  0.00000000000E+00  0.83700129228E+03  0.17032412570E+04  0.14833946260E+04 0.  0.
        4    1    3    3  502    0 -0.33604106085E+03 -0.11604793853E+03 -0.32891169952E+03  0.48432967862E+03  0.12699999809E+01 0. -1.
       -4    1    3    3    0  502  0.33604106085E+03  0.11604793853E+03  0.11659129918E+04  0.12189115784E+04  0.12699999809E+01 0.  1.
</event>
<event>
 5   0  0.7359897E-04  0.1498073E+04  0.7818609E-02  0.8885735E-01
       -2   -1    0    0    0  501  0.00000000000E+00  0.00000000000E+00  0.31664982334E+03  0.31664982335E+03  0.25500000920E-02 0. -1.
        2   -1    0    0  501    0  0.00000000000E+00  0.00000000000E+00 -0.17718493169E+04  0.17718493169E+04  0.25500000920E-02 0.  1.
    10030    2    1    2    0    0  0.00000000000E+00  0.00000000000E+00 -0.14551994936E+04  0.20884991403E+04  0.14980731267E+04 0.  0.
        1    1    3    3  502    0  0.63857942339E+03  0.39065334984E+03 -0.69172838913E+03  0.10192555539E+04  0.50400001928E-02 0.  1.
       -1    1    3    3    0  502 -0.63857942339E+03 -0.39065334984E+03 -0.76347110443E+03  0.10692435864E+04  0.50400001928E-02 0. -1.
</event>
<event>
 5   0  0.2800375E-04  0.1478476E+04  0.7818609E-02  0.8898893E-01
       -4   -1    0    0    0  501  0.00000000000E+00  0.00000000000E+00  0.86256432514E+03  0.86256526008E+03  0.12699999809E+01 0.  1.
        4   -1    0    0  501    0  0.00000000000E+00  0.00000000000E+00 -0.63354275009E+03  0.63354402301E+03  0.12699999809E+01 0. -1.
    10030    2    1    2    0    0  0.00000000000E+00  0.00000000000E+00  0.22902157504E+03  0.14961092831E+04  0.14784762782E+04 0.  0.
        2    1    3    3  502    0  0.47852969015E+03  0.50205911004E+03 -0.14431106845E+03  0.70843468211E+03  0.25500000920E-02 0. -1.
       -2    1    3    3    0  502 -0.47852969015E+03 -0.50205911004E+03  0.37333264349E+03  0.78767460098E+03  0.25500000920E-02 0.  1.
</event>
<event>
 5   0  0.4086710E-04  0.1501907E+04  0.7818609E-02  0.8883186E-01
       -1   -1    0    0    0  501  0.00000000000E+00  0.00000000000E+00  0.41619944110E+03  0.41619944114E+03  0.50400001928E-02 0.  1.
        1   -1    0    0  501    0  0.00000000000E+00  0.00000000000E+00 -0.13549542011E+04  0.13549542012E+04  0.50400001928E-02 0. -1.
    10030    2    1    2    0    0  0.00000000000E+00  0.00000000000E+00 -0.93875476004E+03  0.17711536423E+04  0.15019070294E+04 0.  0.
        3    1    3    3  502    0 -0.29706961436E+03  0.16314180384E+03  0.32087909812E+03  0.46672155484E+03  0.10100000352E+00 0.  1.
       -3    1    3    3    0  502  0.29706961436E+03 -0.16314180384E+03 -0.12596338582E+04  0.13044320875E+04  0.10100000352E+00 0. -1.
</event>
<event>
 5   0  0.4084462E-04  0.1356725E+04  0.7818609E-02  0.8985753E-01
        1   -1    0    0  501    0  0.00000000000E+00  0.00000000000E+00  0.18918312024E+04  0.18918312024E+04  0.50400001928E-02 0.  1.
       -1   -1    0    0    0  501  0.00000000000E+00  0.00000000000E+00 -0.24324342839E+03  0.24324342844E+03  0.50400001928E-02 0. -1.
    10030    2    1    2    0    0  0.00000000000E+00  0.00000000000E+00  0.16485877740E+04  0.21350746308E+04  0.13567247439E+04 0.  0.
        1    1    3    3  502    0 -0.16562512991E+03  0.39318233420E+03 -0.56753567761E+01  0.42668049087E+03  0.50400001928E-02 0. -1.
       -1    1    3    3    0  502  0.16562512991E+03 -0.39318233420E+03  0.16542631308E+04  0.17083941400E+04  0.50400001928E-02 0.  1.
</event>
<event>
 5   0  0.7634227E-04  0.1499990E+04  0.7818609E-02  0.8884459E-01
        2   -1    0    0  501    0  0.00000000000E+00  0.00000000000E+00  0.47682633814E+03  0.47682633815E+03  0.25500000920E-02 0.  1.
       -2   -1    0    0    0  501  0.00000000000E+00  0.00000000000E+00 -0.11796597025E+04  0.11796597025E+04  0.25500000920E-02 0. -1.
    10030    2    1    2    0    0  0.00000000000E+00  0.00000000000E+00 -0.70283336437E+03  0.16564860407E+04  0.14999904216E+04 0.  0.
        2    1    3    3  502    0  0.56459047084E+03 -0.96939624476E+02 -0.88600090502E+03  0.10550626968E+04  0.25500000920E-02 0. -1.
       -2    1    3    3    0  502 -0.56459047084E+03  0.96939624476E+02  0.18316754064E+03  0.60142334383E+03  0.25500000920E-02 0.  1.
</event>
<event>
 5   0  0.3907345E-04  0.1502921E+04  0.7818609E-02  0.8882513E-01
        1   -1    0    0  501    0  0.00000000000E+00  0.00000000000E+00  0.12387972489E+04  0.12387972489E+04  0.50400001928E-02 0.  1.
       -1   -1    0    0    0  501  0.00000000000E+00  0.00000000000E+00 -0.45583937677E+03  0.45583937680E+03  0.50400001928E-02 0. -1.
    10030    2    1    2    0    0  0.00000000000E+00  0.00000000000E+00  0.78295787214E+03  0.16946366257E+04  0.15029205780E+04 0.  0.
        5    1    3    3  502    0 -0.66835652839E+03  0.33083437297E+03  0.28740887586E+03  0.79923574951E+03  0.46999998093E+01 0. -1.
       -5    1    3    3    0  502  0.66835652839E+03 -0.33083437297E+03  0.49554899628E+03  0.89540087620E+03  0.46999998093E+01 0.  1.
</event>
<event>
 5   0  0.4086710E-04  0.1498382E+04  0.7818609E-02  0.8885530E-01
        1   -1    0    0  501    0  0.00000000000E+00  0.00000000000E+00  0.11704978067E+04  0.11704978067E+04  0.50400001928E-02 0.  1.
       -1   -1    0    0    0  501  0.00000000000E+00  0.00000000000E+00 -0.47952864804E+03  0.47952864807E+03  0.50400001928E-02 0. -1.
    10030    2    1    2    0    0  0.00000000000E+00  0.00000000000E+00  0.69096915864E+03  0.16500264548E+04  0.14983821019E+04 0.  0.
        3    1    3    3  502    0 -0.27076366873E+03 -0.31091444003E+03 -0.34336887947E+03  0.53654724947E+03  0.10100000352E+00 0. -1.
       -3    1    3    3    0  502  0.27076366873E+03  0.31091444003E+03  0.10343380381E+04  0.11134792053E+04  0.10100000352E+00 0.  1.
</event>
<event>
 5   0  0.4015204E-04  0.1507652E+04  0.7818609E-02  0.8879381E-01
       -1   -1    0    0    0  501  0.00000000000E+00  0.00000000000E+00  0.45054104545E+03  0.45054104548E+03  0.50400001928E-02 0.  1.
        1   -1    0    0  501    0  0.00000000000E+00  0.00000000000E+00 -0.12612688910E+04  0.12612688910E+04  0.50400001928E-02 0. -1.
    10030    2    1    2    0    0  0.00000000000E+00  0.00000000000E+00 -0.81072784557E+03  0.17118099365E+04  0.15076516903E+04 0.  0.
        2    1    3    3  502    0  0.20475548219E+03  0.37617423153E+02 -0.12279822979E+04  0.12455040755E+04  0.25500000920E-02 0. -1.
       -2    1    3    3    0  502 -0.20475548219E+03 -0.37617423153E+02  0.41725445236E+03  0.46630586103E+03  0.25500000920E-02 0.  1.
</event>
<event>
 5   0  0.7634227E-04  0.1499690E+04  0.7818609E-02  0.8884659E-01
       -2   -1    0    0    0  501  0.00000000000E+00  0.00000000000E+00  0.70809187794E+03  0.70809187794E+03  0.25500000920E-02 0. -1.
        2   -1    0    0  501    0  0.00000000000E+00  0.00000000000E+00 -0.79406014942E+03  0.79406014942E+03  0.25500000920E-02 0.  1.
    10030    2    1    2    0    0  0.00000000000E+00  0.00000000000E+00 -0.85968271484E+02  0.15021520274E+04  0.14996900245E+04 0.  0.
        2    1    3    3  502    0  0.35095891147E+03  0.69632775284E+02  0.61707163094E+03  0.71330097340E+03  0.25500000920E-02 0. -1.
       -2    1    3    3    0  502 -0.35095891147E+03 -0.69632775284E+02 -0.70303990242E+03  0.78885105397E+03  0.25500000920E-02 0.  1.
</event>
<event>
 5   0  0.7454828E-04  0.1511914E+04  0.7818609E-02  0.8876569E-01
       -2   -1    0    0    0  501  0.00000000000E+00  0.00000000000E+00  0.28506145860E+03  0.28506145861E+03  0.25500000920E-02 0. -1.
        2   -1    0    0  501    0  0.00000000000E+00  0.00000000000E+00 -0.20047277983E+04  0.20047277983E+04  0.25500000920E-02 0.  1.
    10030    2    1    2    0    0  0.00000000000E+00  0.00000000000E+00 -0.17196663397E+04  0.22897892569E+04  0.15119135297E+04 0.  0.
        3    1    3    3  502    0 -0.27712308285E+03 -0.63553205857E+03 -0.13161279661E+04  0.14875789169E+04  0.10100000352E+00 0.  1.
       -3    1    3    3    0  502  0.27712308285E+03  0.63553205857E+03 -0.40353837358E+03  0.80221034004E+03  0.10100000352E+00 0. -1.
</event>
<event>
 5   0  0.3907345E-04  0.1490594E+04  0.7818609E-02  0.8890732E-01
       -1   -1    0    0    0  501  0.00000000000E+00  0.00000000000E+00  0.41067888344E+03  0.41067888347E+03  0.50400001928E-02 0. -1.
        1   -1    0    0  501    0  0.00000000000E+00  0.00000000000E+00 -0.13525595625E+04  0.13525595625E+04  0.50400001928E-02 0.  1.
    10030    2    1    2    0    0  0.00000000000E+00  0.00000000000E+00 -0.94188067904E+03  0.17632384460E+04  0.14905940439E+04 0.  0.
        5    1    3    3  502    0 -0.95784992860E+02  0.72838936608E+03 -0.61925161553E+03  0.96084363286E+03  0.46999998093E+01 0.  1.
       -5    1    3    3    0  502  0.95784992860E+02 -0.72838936608E+03 -0.32262906351E+03  0.80239481310E+03  0.46999998093E+01 0. -1.
</event>
<event>
 5   0  0.4084462E-04  0.1554182E+04  0.7818609E-02  0.8849201E-01
       -1   -1    0    0    0  501  0.00000000000E+00  0.00000000000E+00  0.53144858153E+03  0.53144858155E+03  0.50400001928E-02 0.  1.
        1   -1    0    0  501    0  0.00000000000E+00  0.00000000000E+00 -0.11362732363E+04  0.11362732363E+04  0.50400001928E-02 0. -1.
    10030    2    1    2    0    0  0.00000000000E+00  0.00000000000E+00 -0.60482465476E+03  0.16677218178E+04  0.15541824857E+04 0.  0.
        1    1    3    3  502    0 -0.45313991931E+02 -0.70533875495E+03  0.44160349105E+02  0.70817106236E+03  0.50400001928E-02 0.  1.
       -1    1    3    3    0  502  0.45313991931E+02  0.70533875495E+03 -0.64898500386E+03  0.95955075549E+03  0.50400001928E-02 0. -1.
</event>
<event>
 5   0  0.4086710E-04  0.1462778E+04  0.7818609E-02  0.8909589E-01
       -1   -1    0    0    0  501  0.00000000000E+00  0.00000000000E+00  0.52499307499E+03  0.52499307502E+03  0.50400001928E-02 0.  1.
        1   -1    0    0  501    0  0.00000000000E+00  0.00000000000E+00 -0.10189275185E+04  0.10189275185E+04  0.50400001928E-02 0. -1.
    10030    2    1    2    0    0  0.00000000000E+00  0.00000000000E+00 -0.49393444347E+03  0.15439205935E+04  0.14627780298E+04 0.  0.
        3    1    3    3  502    0 -0.35534689188E+03 -0.23229716869E+03 -0.87556809257E+03  0.97306365828E+03  0.10100000352E+00 0. -1.
       -3    1    3    3    0  502  0.35534689188E+03  0.23229716869E+03  0.38163364910E+03  0.57085693521E+03  0.10100000352E+00 0.  1.
</event>
<event>
 5   0  0.7672251E-04  0.1517442E+04  0.7818609E-02  0.8872936E-01
       -2   -1    0    0    0  501  0.00000000000E+00  0.00000000000E+00  0.11101614248E+04  0.11101614248E+04  0.25500000920E-02 0. -1.
        2   -1    0    0  501    0  0.00000000000E+00  0.00000000000E+00 -0.51853514334E+03  0.51853514335E+03  0.25500000920E-02 0.  1.
    10030    2    1    2    0    0  0.00000000000E+00  0.00000000000E+00  0.59162628148E+03  0.16286965682E+04  0.15174422079E+04 0.  0.
        5    1    3    3  502    0  0.39811399280E+03 -0.55098444105E+03 -0.65875618040E+02  0.68296434211E+03  0.46999998093E+01 0.  1.
       -5    1    3    3    0  502 -0.39811399280E+03  0.55098444105E+03  0.65750189952E+03  0.94573222606E+03  0.46999998093E+01 0. -1.
</event>
<event>
 5   0  0.2800375E-04  0.1494751E+04  0.7818609E-02  0.8887951E-01
       -3   -1    0    0    0  501  0.00000000000E+00  0.00000000000E+00  0.90829083931E+03  0.90829084493E+03  0.10100000352E+00 0. -1.
        3   -1    0    0  501    0  0.00000000000E+00  0.00000000000E+00 -0.61496808591E+03  0.61496809421E+03  0.10100000352E+00 0.  1.
    10030    2    1    2    0    0  0.00000000000E+00  0.00000000000E+00  0.29332275340E+03  0.15232589391E+04  0.14947506675E+04 0.  0.
        4    1    3    3  502    0  0.34372632731E+03 -0.39422051220E+03 -0.39738452577E+03  0.65686655764E+03  0.12699999809E+01 0.  1.
       -4    1    3    3    0  502 -0.34372632731E+03  0.39422051220E+03  0.69070727917E+03  0.86639238150E+03  0.12699999809E+01 0. -1.
</event>
<event>
 5   0  0.7634227E-04  0.1498988E+04  0.7818609E-02  0.8885126E-01
        2   -1    0    0  501    0  0.00000000000E+00  0.00000000000E+00  0.11661269502E+04  0.11661269502E+04  0.25500000920E-02 0.  1.
       -2   -1    0    0    0  501  0.00000000000E+00  0.00000000000E+00 -0.48171506239E+03  0.48171506239E+03  0.25500000920E-02 0. -1.
    10030    2    1    2    0    0  0.00000000000E+00  0.00000000000E+00  0.68441188778E+03  0.16478420126E+04  0.14989875471E+04 0.  0.
        2    1    3    3  502    0  0.65322111126E+02 -0.22436768823E+03 -0.44064398401E+03  0.49877345396E+03  0.25500000920E-02 0. -1.
       -2    1    3    3    0  502 -0.65322111126E+02  0.22436768823E+03  0.11250558718E+04  0.11490685586E+04  0.25500000920E-02 0.  1.
</event>
<event>
 5   0  0.7634227E-04  0.1495345E+04  0.7818609E-02  0.8887554E-01
        2   -1    0    0  501    0  0.00000000000E+00  0.00000000000E+00  0.68107158583E+03  0.68107158583E+03  0.25500000920E-02 0.  1.
       -2   -1    0    0    0  501  0.00000000000E+00  0.00000000000E+00 -0.82078654709E+03  0.82078654710E+03  0.25500000920E-02 0. -1.
    10030    2    1    2    0    0  0.00000000000E+00  0.00000000000E+00 -0.13971496127E+03  0.15018581329E+04  0.14953453050E+04 0.  0.
        2    1    3    3  502    0 -0.28765681335E+03  0.68610244183E+03 -0.14455473687E+03  0.75787800793E+03  0.25500000920E-02 0. -1.
       -2    1    3    3    0  502  0.28765681335E+03 -0.68610244183E+03  0.48397756064E+01  0.74398012499E+03  0.25500000920E-02 0.  1.
</event>
<event>
 5   0  0.7672251E-04  0.1495941E+04  0.7818609E-02  0.8887156E-01
       -2   -1    0    0    0  501  0.00000000000E+00  0.00000000000E+00  0.37203658346E+03  0.37203658347E+03  0.25500000920E-02 0.  1.
        2   -1    0    0  501    0  0.00000000000E+00  0.00000000000E+00 -0.15037772575E+04  0.15037772575E+04  0.25500000920E-02 0. -1.
    10030    2    1    2    0    0  0.00000000000E+00  0.00000000000E+00 -0.11317406741E+04  0.18758138410E+04  0.14959413801E+04 0.  0.
        5    1    3    3  502    0 -0.57497452430E+02  0.83526287394E+02 -0.14950994664E+04  0.14985416585E+04  0.46999998093E+01 0. -1.
       -5    1    3    3    0  502  0.57497452430E+02 -0.83526287394E+02  0.36335879236E+03  0.37727218252E+03  0.46999998093E+01 0.  1.
</event>
<event>
 5   0  0.7359897E-04  0.1500767E+04  0.7818609E-02  0.8883943E-01
        2   -1    0    0  501    0  0.00000000000E+00  0.00000000000E+00  0.22983068003E+04  0.22983068003E+04  0.25500000920E-02 0.  1.
       -2   -1    0    0    0  501  0.00000000000E+00  0.00000000000E+00 -0.24499560293E+03  0.24499560294E+03  0.25500000920E-02 0. -1.
    10030    2    1    2    0    0  0.00000000000E+00  0.00000000000E+00  0.20533111974E+04  0.25433024032E+04  0.15007665512E+04 0.  0.
        1    1    3    3  502    0 -0.66663678684E+03  0.16418677759E+03  0.51343901546E+03  0.85731063572E+03  0.50400001928E-02 0. -1.
       -1    1    3    3    0  502  0.66663678684E+03 -0.16418677759E+03  0.15398721819E+04  0.16859917675E+04  0.50400001928E-02 0.  1.
</event>
<event>
 5   0  0.7634227E-04  0.1534221E+04  0.7818609E-02  0.8862010E-01
        2   -1    0    0  501    0  0.00000000000E+00  0.00000000000E+00  0.12918941724E+04  0.12918941725E+04  0.25500000920E-02 0. -1.
       -2   -1    0    0    0  501  0.00000000000E+00  0.00000000000E+00 -0.45550064322E+03  0.45550064323E+03  0.25500000920E-02 0.  1.
    10030    2    1    2    0    0  0.00000000000E+00  0.00000000000E+00  0.83639352923E+03  0.17473948157E+04  0.15342211399E+04 0.  0.
        2    1    3    3  502    0  0.30416365829E+02  0.60764633863E+03 -0.11394745586E+03  0.61898566289E+03  0.25500000920E-02 0. -1.
       -2    1    3    3    0  502 -0.30416365829E+02 -0.60764633863E+03  0.95034098509E+03  0.11284091528E+04  0.25500000920E-02 0.  1.
</event>
<event>
 5   0  0.7359897E-04  0.1612050E+04  0.7818609E-02  0.8813179E-01
       -2   -1    0    0    0  501  0.00000000000E+00  0.00000000000E+00  0.66522480956E+03  0.66522480956E+03  0.25500000920E-02 0. -1.
        2   -1    0    0  501    0  0.00000000000E+00  0.00000000000E+00 -0.97662722282E+03  0.97662722283E+03  0.25500000920E-02 0.  1.
    10030    2    1    2    0    0  0.00000000000E+00  0.00000000000E+00 -0.31140241327E+03  0.16418520324E+04  0.16120504438E+04 0.  0.
        1    1    3    3  502    0  0.77293804236E+03  0.22829243094E+03 -0.16713400711E+03  0.82309442211E+03  0.50400001928E-02 0. -1.
       -1    1    3    3    0  502 -0.77293804236E+03 -0.22829243094E+03 -0.14426840616E+03  0.81875761028E+03  0.50400001928E-02 0.  1.
</event>
<event>
 5   0  0.4058874E-04  0.1486838E+04  0.7818609E-02  0.8893253E-01
       -1   -1    0    0    0  501  0.00000000000E+00  0.00000000000E+00  0.46723490592E+03  0.46723490595E+03  0.50400001928E-02 0.  1.
        1   -1    0    0  501    0  0.00000000000E+00  0.00000000000E+00 -0.11828570558E+04  0.11828570558E+04  0.50400001928E-02 0. -1.
    10030    2    1    2    0    0  0.00000000000E+00  0.00000000000E+00 -0.71562214990E+03  0.16500919618E+04  0.14868383977E+04 0.  0.
        4    1    3    3  502    0  0.57741169741E+03  0.23885947036E+03 -0.80478930885E+03  0.10188942828E+04  0.12699999809E+01 0. -1.
       -4    1    3    3    0  502 -0.57741169741E+03 -0.23885947036E+03  0.89167158949E+02  0.63119767904E+03  0.12699999809E+01 0.  1.
</event>
<event>
 5   0  0.4058874E-04  0.1493272E+04  0.7818609E-02  0.8888939E-01
        1   -1    0    0  501    0  0.00000000000E+00  0.00000000000E+00  0.43661374830E+03  0.43661374833E+03  0.50400001928E-02 0. -1.
       -1   -1    0    0    0  501  0.00000000000E+00  0.00000000000E+00 -0.12767925433E+04  0.12767925433E+04  0.50400001928E-02 0.  1.
    10030    2    1    2    0    0  0.00000000000E+00  0.00000000000E+00 -0.84017879501E+03  0.17134062916E+04  0.14932718147E+04 0.  0.
        4    1    3    3  502    0  0.20540396580E+03 -0.67273893470E+03 -0.13278763158E+03  0.71582304478E+03  0.12699999809E+01 0. -1.
       -4    1    3    3    0  502 -0.20540396580E+03  0.67273893470E+03 -0.70739116343E+03  0.99758324687E+03  0.12699999809E+01 0.  1.
</event>
<event>
 5   0  0.4058874E-04  0.1496666E+04  0.7818609E-02  0.8886673E-01
       -1   -1    0    0    0  501  0.00000000000E+00  0.00000000000E+00  0.70226026273E+03  0.70226026274E+03  0.50400001928E-02 0.  1.
        1   -1    0    0  501    0  0.00000000000E+00  0.00000000000E+00 -0.79742799603E+03  0.79742799604E+03  0.50400001928E-02 0. -1.
    10030    2    1    2    0    0  0.00000000000E+00  0.00000000000E+00 -0.95167733299E+02  0.14996882588E+04  0.14966656193E+04 0.  0.
        4    1    3    3  502    0  0.57119305808E+03 -0.46168972290E+03 -0.19133603946E+03  0.75896640421E+03  0.12699999809E+01 0. -1.
       -4    1    3    3    0  502 -0.57119305808E+03  0.46168972290E+03  0.96168306165E+02  0.74072185457E+03  0.12699999809E+01 0.  1.
</event>
<event>
 5   0  0.7547580E-04  0.1493151E+04  0.7818609E-02  0.8889020E-01
       -2   -1    0    0    0  501  0.00000000000E+00  0.00000000000E+00  0.38470168459E+03  0.38470168460E+03  0.25500000920E-02 0. -1.
        2   -1    0    0  501    0  0.00000000000E+00  0.00000000000E+00 -0.14488502033E+04  0.14488502033E+04  0.25500000920E-02 0.  1.
    10030    2    1    2    0    0  0.00000000000E+00  0.00000000000E+00 -0.10641485187E+04  0.18335518879E+04  0.14931511832E+04 0.  0.
        4    1    3    3  502    0  0.13671288101E+03  0.51159397305E+03  0.11416567027E+03  0.54171414811E+03  0.12699999809E+01 0. -1.
       -4    1    3    3    0  502 -0.13671288101E+03 -0.51159397305E+03 -0.11783141890E+04  0.12918377398E+04  0.12699999809E+01 0.  1.
</event>
<event>
 5   0  0.3907345E-04  0.1487842E+04  0.7818609E-02  0.8892579E-01
        1   -1    0    0  501    0  0.00000000000E+00  0.00000000000E+00  0.99129175310E+03  0.99129175311E+03  0.50400001928E-02 0. -1.
       -1   -1    0    0    0  501  0.00000000000E+00  0.00000000000E+00 -0.55827975322E+03  0.55827975324E+03  0.50400001928E-02 0.  1.
    10030    2    1    2    0    0  0.00000000000E+00  0.00000000000E+00  0.43301199988E+03  0.15495715064E+04  0.14878415444E+04 0.  0.
        5    1    3    3  502    0  0.31484254487E+03  0.58102855565E+03  0.57225667607E+03  0.87419666200E+03  0.46999998093E+01 0.  1.
       -5    1    3    3    0  502 -0.31484254487E+03 -0.58102855565E+03 -0.13924467619E+03  0.67537484435E+03  0.46999998093E+01 0. -1.
</event>
<event>
 5   0  0.4015204E-04  0.1506992E+04  0.7818609E-02  0.8879817E-01
       -1   -1    0    0    0  501  0.00000000000E+00  0.00000000000E+00  0.41192927076E+03  0.41192927079E+03  0.50400001928E-02 0. -1.
        1   -1    0    0  501    0  0.00000000000E+00  0.00000000000E+00 -0.13782853730E+04  0.13782853730E+04  0.50400001928E-02 0.  1.
    10030    2    1    2    0    0  0.00000000000E+00  0.00000000000E+00 -0.96635610228E+03  0.17902146438E+04  0.15069918230E+04 0.  0.
        2    1    3    3  502    0 -0.37953840370E+03  0.82720144544E+02  0.28381501858E+03  0.48108521799E+03  0.25500000920E-02 0. -1.
       -2    1    3    3    0  502  0.37953840370E+03 -0.82720144544E+02 -0.12501711209E+04  0.13091294258E+04  0.25500000920E-02 0.  1.
</event>
<event>
 5   0  0.4058874E-04  0.1490906E+04  0.7818609E-02  0.8890523E-01
       -1   -1    0    0    0  501  0.00000000000E+00  0.00000000000E+00  0.59311076563E+03  0.59311076565E+03  0.50400001928E-02 0. -1.
        1   -1    0    0  501    0  0.00000000000E+00  0.00000000000E+00 -0.93692473397E+03  0.93692473399E+03  0.50400001928E-02 0.  1.
    10030    2    1    2    0    0  0.00000000000E+00  0.00000000000E+00 -0.34381396835E+03  0.15300354996E+04  0.14909059613E+04 0.  0.
        4    1    3    3  502    0 -0.11885896106E+03  0.55946874851E+03 -0.66254012521E+03  0.87526782392E+03  0.12699999809E+01 0.  1.
       -4    1    3    3    0  502  0.11885896106E+03 -0.55946874851E+03  0.31872615686E+03  0.65476767571E+03  0.12699999809E+01 0. -1.
</event>
<event>
 5   0  0.4058874E-04  0.1504336E+04  0.7818609E-02  0.8881575E-01
       -1   -1    0    0    0  501  0.00000000000E+00  0.00000000000E+00  0.11011520157E+04  0.11011520158E+04  0.50400001928E-02 0.  1.
        1   -1    0    0  501    0  0.00000000000E+00  0.00000000000E+00 -0.51378600524E+03  0.51378600526E+03  0.50400001928E-02 0. -1.
    10030    2    1    2    0    0  0.00000000000E+00  0.00000000000E+00  0.58736601050E+03  0.16149380210E+04  0.15043357276E+04 0.  0.
        4    1    3    3  502    0  0.81419287989E+02  0.68487729554E+03 -0.28496901434E+02  0.69028957452E+03  0.12699999809E+01 0. -1.
       -4    1    3    3    0  502 -0.81419287989E+02 -0.68487729554E+03  0.61586291193E+03  0.92464844649E+03  0.12699999809E+01 0.  1.
</event>
<event>
 5   0  0.7454828E-04  0.1469719E+04  0.7818609E-02  0.8904843E-01
        2   -1    0    0  501    0  0.00000000000E+00  0.00000000000E+00  0.46547301519E+03  0.46547301520E+03  0.25500000920E-02 0.  1.
       -2   -1    0    0    0  501  0.00000000000E+00  0.00000000000E+00 -0.11601496006E+04  0.11601496006E+04  0.25500000920E-02 0. -1.
    10030    2    1    2    0    0  0.00000000000E+00  0.00000000000E+00 -0.69467658537E+03  0.16256226158E+04  0.14697187930E+04 0.  0.
        3    1    3    3  502    0 -0.51981235563E+03  0.21452175059E+03  0.17591210211E+03  0.58921095069E+03  0.10100000352E+00 0.  1.
       -3    1    3    3    0  502  0.51981235563E+03 -0.21452175059E+03 -0.87058868748E+03  0.10364116651E+04  0.10100000352E+00 0. -1.
</event>
<event>
 5   0  0.4015204E-04  0.1504136E+04  0.7818609E-02  0.8881707E-01
       -1   -1    0    0    0  501  0.00000000000E+00  0.00000000000E+00  0.38060657302E+03  0.38060657305E+03  0.50400001928E-02 0.  1.
        1   -1    0    0  501    0  0.00000000000E+00  0.00000000000E+00 -0.14860658171E+04  0.14860658171E+04  0.50400001928E-02 0. -1.
    10030    2    1    2    0    0  0.00000000000E+00  0.00000000000E+00 -0.11054592441E+04  0.18666723901E+04  0.15041361879E+04 0.  0.
        2    1    3    3  502    0 -0.38427761997E+03 -0.42290424964E+03  0.54091731154E+02  0.57397143566E+03  0.25500000920E-02 0.  1.
       -2    1    3    3    0  502  0.38427761997E+03  0.42290424964E+03 -0.11595509752E+04  0.12927009545E+04  0.25500000920E-02 0. -1.
</event>
<event>
 5   0  0.7454828E-04  0.1490901E+04  0.7818609E-02  0.8890526E-01
       -2   -1    0    0    0  501  0.00000000000E+00  0.00000000000E+00  0.75495774479E+03  0.75495774479E+03  0.25500000920E-02 0. -1.
        2   -1    0    0  501    0  0.00000000000E+00  0.00000000000E+00 -0.73606328933E+03  0.73606328933E+03  0.25500000920E-02 0.  1.
    10030    2    1    2    0    0  0.00000000000E+00  0.00000000000E+00  0.18894455459E+02  0.14910210341E+04  0.14909013125E+04 0.  0.
        3    1    3    3  502    0  0.45242763878E+03 -0.29495906921E+02 -0.58232310694E+03  0.73801150935E+03  0.10100000352E+00 0.  1.
       -3    1    3    3    0  502 -0.45242763878E+03  0.29495906921E+02  0.60121756240E+03  0.75300952477E+03  0.10100000352E+00 0. -1.
</event>
<event>
 5   0  0.3907345E-04  0.1508136E+04  0.7818609E-02  0.8879061E-01
        1   -1    0    0  501    0  0.00000000000E+00  0.00000000000E+00  0.90919415288E+03  0.90919415290E+03  0.50400001928E-02 0.  1.
       -1   -1    0    0    0  501  0.00000000000E+00  0.00000000000E+00 -0.62540923072E+03  0.62540923074E+03  0.50400001928E-02 0. -1.
    10030    2    1    2    0    0  0.00000000000E+00  0.00000000000E+00  0.28378492216E+03  0.15346033836E+04  0.15081358238E+04 0.  0.
        5    1    3    3  502    0  0.46684698810E+03  0.71418283297E+02  0.74004358125E+03  0.87791416074E+03  0.46999998093E+01 0.  1.
       -5    1    3    3    0  502 -0.46684698810E+03 -0.71418283297E+02 -0.45625865909E+03  0.65668922290E+03  0.46999998093E+01 0. -1.
</event>
<event>
 5   0  0.7454828E-04  0.1500627E+04  0.7818609E-02  0.8884036E-01
        2   -1    0    0  501    0  0.00000000000E+00  0.00000000000E+00  0.96610561994E+03  0.96610561995E+03  0.25500000920E-02 0. -1.
       -2   -1    0    0    0  501  0.00000000000E+00  0.00000000000E+00 -0.58272166661E+03  0.58272166662E+03  0.25500000920E-02 0.  1.
    10030    2    1    2    0    0  0.00000000000E+00  0.00000000000E+00  0.38338395333E+03  0.15488272866E+04  0.15006274381E+04 0.  0.
        3    1    3    3  502    0 -0.37457301725E+03  0.48943782337E+03  0.63335765961E+03  0.88373992972E+03  0.10100000352E+00 0.  1.
       -3    1    3    3    0  502  0.37457301725E+03 -0.48943782337E+03 -0.24997370627E+03  0.66508735684E+03  0.10100000352E+00 0. -1.
</event>
<event>
 5   0  0.4086710E-04  0.1492499E+04  0.7818609E-02  0.8889456E-01
        1   -1    0    0  501    0  0.00000000000E+00  0.00000000000E+00  0.42027642043E+03  0.42027642046E+03  0.50400001928E-02 0. -1.
       -1   -1    0    0    0  501  0.00000000000E+00  0.00000000000E+00 -0.13250528282E+04  0.13250528283E+04  0.50400001928E-02 0.  1.
    10030    2    1    2    0    0  0.00000000000E+00  0.00000000000E+00 -0.90477640782E+03  0.17453292487E+04  0.14924991921E+04 0.  0.
        3    1    3    3  502    0  0.43442243979E+03  0.38945677614E+03  0.91714885697E+02  0.59060229185E+03  0.10100000352E+00 0. -1.
       -3    1    3    3    0  502 -0.43442243979E+03 -0.38945677614E+03 -0.99649129351E+03  0.11547269569E+04  0.10100000352E+00 0.  1.
</event>
<event>
 5   0  0.3907345E-04  0.1501073E+04  0.7818609E-02  0.8883739E-01
       -1   -1    0    0    0  501  0.00000000000E+00  0.00000000000E+00  0.37381727931E+03  0.37381727934E+03  0.50400001928E-02 0.  1.
        1   -1    0    0  501    0  0.00000000000E+00  0.00000000000E+00 -0.15069003982E+04  0.15069003982E+04  0.50400001928E-02 0. -1.
    10030    2    1    2    0    0  0.00000000000E+00  0.00000000000E+00 -0.11330831189E+04  0.18807176776E+04  0.15010734920E+04 0.  0.
        5    1    3    3  502    0  0.26308354159E+03  0.86046848503E+01  0.31406823347E+03  0.40981451381E+03  0.46999998093E+01 0.  1.
       -5    1    3    3    0  502 -0.26308354159E+03 -0.86046848503E+01 -0.14471513524E+04  0.14709031637E+04  0.46999998093E+01 0. -1.
</event>
<event>
 5   0  0.7672251E-04  0.1487046E+04  0.7818609E-02  0.8893113E-01
        2   -1    0    0  501    0  0.00000000000E+00  0.00000000000E+00  0.11034536061E+04  0.11034536061E+04  0.25500000920E-02 0. -1.
       -2   -1    0    0    0  501  0.00000000000E+00  0.00000000000E+00 -0.50099623264E+03  0.50099623264E+03  0.25500000920E-02 0.  1.
    10030    2    1    2    0    0  0.00000000000E+00  0.00000000000E+00  0.60245737350E+03  0.16044498388E+04  0.14870455266E+04 0.  0.
        5    1    3    3  502    0 -0.10237787795E+03 -0.55626415327E+03 -0.21946231208E+03  0.60670984377E+03  0.46999998093E+01 0.  1.
       -5    1    3    3    0  502  0.10237787795E+03  0.55626415327E+03  0.82191968558E+03  0.99773999501E+03  0.46999998093E+01 0. -1.
</event>
<event>
 5   0  0.4086710E-04  0.1500995E+04  0.7818609E-02  0.8883792E-01
        1   -1    0    0  501    0  0.00000000000E+00  0.00000000000E+00  0.17836206933E+04  0.17836206933E+04  0.50400001928E-02 0.  1.
       -1   -1    0    0    0  501  0.00000000000E+00  0.00000000000E+00 -0.31578812224E+03  0.31578812228E+03  0.50400001928E-02 0. -1.
    10030    2    1    2    0    0  0.00000000000E+00  0.00000000000E+00  0.14678325711E+04  0.20994088156E+04  0.15009946430E+04 0.  0.
        3    1    3    3  502    0 -0.50458294862E+03  0.20826123620E+02  0.15104140474E+04  0.15926042460E+04  0.10100000352E+00 0.  1.
       -3    1    3    3    0  502  0.50458294862E+03 -0.20826123620E+02 -0.42581476346E+02  0.50680456962E+03  0.10100000352E+00 0. -1.
</event>
<event>
 5   0  0.4015204E-04  0.1492751E+04  0.7818609E-02  0.8889288E-01
       -1   -1    0    0    0  501  0.00000000000E+00  0.00000000000E+00  0.37465939379E+03  0.37465939382E+03  0.50400001928E-02 0.  1.
        1   -1    0    0  501    0  0.00000000000E+00  0.00000000000E+00 -0.14868873665E+04  0.14868873665E+04  0.50400001928E-02 0. -1.
    10030    2    1    2    0    0  0.00000000000E+00  0.00000000000E+00 -0.11122279727E+04  0.18615467604E+04  0.14927509095E+04 0.  0.
        2    1    3    3  502    0  0.64230007993E+03 -0.16999020255E+03 -0.13205882632E+03  0.67741095006E+03  0.25500000920E-02 0.  1.
       -2    1    3    3    0  502 -0.64230007993E+03  0.16999020255E+03 -0.98016914642E+03  0.11841358103E+04  0.25500000920E-02 0. -1.
</event>
<event>
 5   0  0.7634227E-04  0.1522229E+04  0.7818609E-02  0.8869804E-01
        2   -1    0    0  501    0  0.00000000000E+00  0.00000000000E+00  0.95234411236E+03  0.95234411236E+03  0.25500000920E-02 0. -1.
       -2   -1    0    0    0  501  0.00000000000E+00  0.00000000000E+00 -0.60828393315E+03  0.60828393316E+03  0.25500000920E-02 0.  1.
    10030    2    1    2    0    0  0.00000000000E+00  0.00000000000E+00  0.34406017921E+03  0.15606280455E+04  0.15222294471E+04 0.  0.
        2    1    3    3  502    0  0.47936693401E+03  0.19840830482E+03  0.74297756338E+03  0.90618661022E+03  0.25500000920E-02 0. -1.
       -2    1    3    3    0  502 -0.47936693401E+03 -0.19840830482E+03 -0.39891738417E+03  0.65444143531E+03  0.25500000920E-02 0.  1.
</event>
<event>
 5   0  0.7634227E-04  0.1499459E+04  0.7818609E-02  0.8884813E-01
       -2   -1    0    0    0  501  0.00000000000E+00  0.00000000000E+00  0.41309657077E+03  0.41309657078E+03  0.25500000920E-02 0.  1.
        2   -1    0    0  501    0  0.00000000000E+00  0.00000000000E+00 -0.13606854745E+04  0.13606854745E+04  0.25500000920E-02 0. -1.
    10030    2    1    2    0    0  0.00000000000E+00  0.00000000000E+00 -0.94758890372E+03  0.17737820453E+04  0.14994592404E+04 0.  0.
        2    1    3    3  502    0  0.33698978914E+03 -0.14112400442E+03 -0.12482562179E+04  0.13006235766E+04  0.25500000920E-02 0. -1.
       -2    1    3    3    0  502 -0.33698978914E+03  0.14112400442E+03  0.30066731418E+03  0.47315846862E+03  0.25500000920E-02 0.  1.
</event>
<event>
 5   0  0.7547580E-04  0.1491037E+04  0.7818609E-02  0.8890435E-01
        2   -1    0    0  501    0  0.00000000000E+00  0.00000000000E+00  0.14763679693E+04  0.14763679693E+04  0.25500000920E-02 0.  1.
       -2   -1    0    0    0  501  0.00000000000E+00  0.00000000000E+00 -0.37646294641E+03  0.37646294641E+03  0.25500000920E-02 0. -1.
    10030    2    1    2    0    0  0.00000000000E+00  0.00000000000E+00  0.10999050229E+04  0.18528309157E+04  0.14910370025E+04 0.  0.
        4    1    3    3  502    0  0.20093928295E+03  0.71687067010E+03  0.50156793372E+03  0.89769268579E+03  0.12699999809E+01 0. -1.
       -4    1    3    3    0  502 -0.20093928295E+03 -0.71687067010E+03  0.59833708916E+03  0.95513822992E+03  0.12699999809E+01 0.  1.
</event>
<event>
 5   0  0.7359897E-04  0.1485134E+04  0.7818609E-02  0.8894399E-01
       -2   -1    0    0    0  501  0.00000000000E+00  0.00000000000E+00  0.61887488464E+03  0.61887488464E+03  0.25500000920E-02 0. -1.
        2   -1    0    0  501    0  0.00000000000E+00  0.00000000000E+00 -0.89098105028E+03  0.89098105028E+03  0.25500000920E-02 0.  1.
    10030    2    1    2    0    0  0.00000000000E+00  0.00000000000E+00 -0.27210616564E+03  0.15098559349E+04  0.14851340609E+04 0.  0.
        1    1    3    3  502    0  0.60226065550E+03 -0.39729801035E+03  0.42489759959E+02  0.72275098473E+03  0.50400001928E-02 0. -1.
       -1    1    3    3    0  502 -0.60226065550E+03  0.39729801035E+03 -0.31459592560E+03  0.78710495020E+03  0.50400001928E-02 0.  1.
</event>
<event>
 5   0  0.2800375E-04  0.1501828E+04  0.7818609E-02  0.8883238E-01
        4   -1    0    0  501    0  0.00000000000E+00  0.00000000000E+00  0.44742996645E+03  0.44743176886E+03  0.12699999809E+01 0.  1.
       -4   -1    0    0    0  501  0.00000000000E+00  0.00000000000E+00 -0.12602421909E+04  0.12602428308E+04  0.12699999809E+01 0. -1.
    10030    2    1    2    0    0  0.00000000000E+00  0.00000000000E+00 -0.81281222447E+03  0.17076745997E+04  0.15018284943E+04 0.  0.
        1    1    3    3  502    0  0.37361857687E+02 -0.14024702444E+03  0.43133055883E+03  0.45509470144E+03  0.50400001928E-02 0.  1.
       -1    1    3    3    0  502 -0.37361857687E+02  0.14024702444E+03 -0.12441427833E+04  0.12525798983E+04  0.50400001928E-02 0. -1.
</event>
<event>
 5   0  0.7547580E-04  0.1499256E+04  0.7818609E-02  0.8884948E-01
        2   -1    0    0  501    0  0.00000000000E+00  0.00000000000E+00  0.16009425402E+04  0.16009425402E+04  0.25500000920E-02 0. -1.
       -2   -1    0    0    0  501  0.00000000000E+00  0.00000000000E+00 -0.35100717118E+03  0.35100717119E+03  0.25500000920E-02 0.  1.
    10030    2    1    2    0    0  0.00000000000E+00  0.00000000000E+00  0.12499353690E+04  0.19519497114E+04  0.14992562320E+04 0.  0.
        4    1    3    3  502    0  0.58253358686E+03 -0.45767512641E+03  0.77414584535E+03  0.10715014251E+04  0.12699999809E+01 0. -1.
       -4    1    3    3    0  502 -0.58253358686E+03  0.45767512641E+03  0.47578952366E+03  0.88044828632E+03  0.12699999809E+01 0.  1.
</event>
<event>
 5   0  0.7454828E-04  0.1556592E+04  0.7818609E-02  0.8847668E-01
       -2   -1    0    0    0  501  0.00000000000E+00  0.00000000000E+00  0.84655167531E+03  0.84655167531E+03  0.25500000920E-02 0.  1.
        2   -1    0    0  501    0  0.00000000000E+00  0.00000000000E+00 -0.71554372449E+03  0.71554372449E+03  0.25500000920E-02 0. -1.
    10030    2    1    2    0    0  0.00000000000E+00  0.00000000000E+00  0.13100795082E+03  0.15620953998E+04  0.15565920965E+04 0.  0.
        3    1    3    3  502    0 -0.90419228690E+02 -0.67906095412E+03 -0.30518702476E+03  0.74995902995E+03  0.10100000352E+00 0. -1.
       -3    1    3    3    0  502  0.90419228690E+02  0.67906095412E+03  0.43619497557E+03  0.81213636985E+03  0.10100000352E+00 0.  1.
</event>
<event>
 5   0  0.2800375E-04  0.1505044E+04  0.7818609E-02  0.8881106E-01
        3   -1    0    0  501    0  0.00000000000E+00  0.00000000000E+00  0.57110552180E+03  0.57110553073E+03  0.10100000352E+00 0.  1.
       -3   -1    0    0    0  501  0.00000000000E+00  0.00000000000E+00 -0.99156718336E+03  0.99156718850E+03  0.10100000352E+00 0. -1.
    10030    2    1    2    0    0  0.00000000000E+00  0.00000000000E+00 -0.42046166156E+03  0.15626727192E+04  0.15050441916E+04 0.  0.
        1    1    3    3  502    0  0.11190800872E+03  0.70880121307E+03 -0.44555180445E+03  0.84465316701E+03  0.50400001928E-02 0. -1.
       -1    1    3    3    0  502 -0.11190800872E+03 -0.70880121307E+03  0.25090142889E+02  0.71801955222E+03  0.50400001928E-02 0.  1.
</event>
<event>
 5   0  0.2800375E-04  0.1505977E+04  0.7818609E-02  0.8880488E-01
        3   -1    0    0  501    0  0.00000000000E+00  0.00000000000E+00  0.35538450747E+03  0.35538452182E+03  0.10100000352E+00 0.  1.
       -3   -1    0    0    0  501  0.00000000000E+00  0.00000000000E+00 -0.15954322754E+04  0.15954322786E+04  0.10100000352E+00 0. -1.
    10030    2    1    2    0    0  0.00000000000E+00  0.00000000000E+00 -0.12400477680E+04  0.19508168005E+04  0.15059773312E+04 0.  0.
        1    1    3    3  502    0 -0.45435501066E+03  0.31559581202E+03 -0.12817510765E+04  0.13960390447E+04  0.50400001928E-02 0.  1.
       -1    1    3    3    0  502  0.45435501066E+03 -0.31559581202E+03  0.41703308544E+02  0.55477775572E+03  0.50400001928E-02 0. -1.
</event>
<event>
 5   0  0.4086710E-04  0.1493037E+04  0.7818609E-02  0.8889096E-01
       -1   -1    0    0    0  501  0.00000000000E+00  0.00000000000E+00  0.66424553508E+03  0.66424553510E+03  0.50400001928E-02 0. -1.
        1   -1    0    0  501    0  0.00000000000E+00  0.00000000000E+00 -0.83898200188E+03  0.83898200190E+03  0.50400001928E-02 0.  1.
    10030    2    1    2    0    0  0.00000000000E+00  0.00000000000E+00 -0.17473646681E+03  0.15032275370E+04  0.14930372384E+04 0.  0.
        3    1    3    3  502    0  0.49176560857E+03  0.44472559545E+03  0.25801210178E+03  0.71146646013E+03  0.10100000352E+00 0.  1.
       -3    1    3    3    0  502 -0.49176560857E+03 -0.44472559545E+03 -0.43274856859E+03  0.79176107686E+03  0.10100000352E+00 0. -1.
</event>
<event>
 5   0  0.7672251E-04  0.1514431E+04  0.7818609E-02  0.8874913E-01
        2   -1    0    0  501    0  0.00000000000E+00  0.00000000000E+00  0.17902030593E+04  0.17902030593E+04  0.25500000920E-02 0. -1.
       -2   -1    0    0    0  501  0.00000000000E+00  0.00000000000E+00 -0.32028495863E+03  0.32028495864E+03  0.25500000920E-02 0.  1.
    10030    2    1    2    0    0  0.00000000000E+00  0.00000000000E+00  0.14699181007E+04  0.21104880179E+04  0.15144307350E+04 0.  0.
        5    1    3    3  502    0  0.49349319177E+03 -0.53912728146E+03  0.45918667995E+03  0.86317336207E+03  0.46999998093E+01 0. -1.
       -5    1    3    3    0  502 -0.49349319177E+03  0.53912728146E+03  0.10107314207E+04  0.12473146559E+04  0.46999998093E+01 0.  1.
</event>
<event>
 5   0  0.4058874E-04  0.1503078E+04  0.7818609E-02  0.8882409E-01
       -1   -1    0    0    0  501  0.00000000000E+00  0.00000000000E+00  0.67726346190E+03  0.67726346192E+03  0.50400001928E-02 0.  1.
        1   -1    0    0  501    0  0.00000000000E+00  0.00000000000E+00 -0.83396058912E+03  0.83396058913E+03  0.50400001928E-02 0. -1.
    10030    2    1    2    0    0  0.00000000000E+00  0.00000000000E+00 -0.15669712722E+03  0.15112240511E+04  0.15030782225E+04 0.  0.
        4    1    3    3  502    0 -0.66042312046E+03 -0.19624895144E+03 -0.38020399997E+03  0.78691107723E+03  0.12699999809E+01 0. -1.
       -4    1    3    3    0  502  0.66042312046E+03  0.19624895144E+03  0.22350687276E+03  0.72431297382E+03  0.12699999809E+01 0.  1.
</event>
<event>
 5   0  0.7359897E-04  0.1501312E+04  0.7818609E-02  0.8883581E-01
       -2   -1    0    0    0  501  0.00000000000E+00  0.00000000000E+00  0.31198715047E+03  0.31198715048E+03  0.25500000920E-02 0.  1.
        2   -1    0    0  501    0  0.00000000000E+00  0.00000000000E+00 -0.18061142491E+04  0.18061142491E+04  0.25500000920E-02 0. -1.
    10030    2    1    2    0    0  0.00000000000E+00  0.00000000000E+00 -0.14941270986E+04  0.21181013996E+04  0.15013120102E+04 0.  0.
        1    1    3    3  502    0  0.47615581140E+03  0.37367779991E+03 -0.12067094299E+03  0.61718792226E+03  0.50400001928E-02 0.  1.
       -1    1    3    3    0  502 -0.47615581140E+03 -0.37367779991E+03 -0.13734561556E+04  0.15009134773E+04  0.50400001928E-02 0. -1.
</event>
<event>
 5   0  0.7634227E-04  0.1504883E+04  0.7818609E-02  0.8881212E-01
       -2   -1    0    0    0  501  0.00000000000E+00  0.00000000000E+00  0.55408025719E+03  0.55408025719E+03  0.25500000920E-02 0. -1.
        2   -1    0    0  501    0  0.00000000000E+00  0.00000000000E+00 -0.10218168388E+04  0.10218168389E+04  0.25500000920E-02 0.  1.
    10030    2    1    2    0    0  0.00000000000E+00  0.00000000000E+00 -0.46773658166E+03  0.15758970960E+04  0.15048834332E+04 0.  0.
        2    1    3    3  502    0 -0.49729570072E+03 -0.14299816717E+02  0.35727052513E+03  0.61249467495E+03  0.25500000920E-02 0. -1.
       -2    1    3    3    0  502  0.49729570072E+03  0.14299816717E+02 -0.82500710679E+03  0.96340242109E+03  0.25500000920E-02 0.  1.
</event>
<event>
 5   0  0.3907345E-04  0.1519418E+04  0.7818609E-02  0.8871642E-01
        1   -1    0    0  501    0  0.00000000000E+00  0.00000000000E+00  0.47072496014E+03  0.47072496017E+03  0.50400001928E-02 0.  1.
       -1   -1    0    0    0  501  0.00000000000E+00  0.00000000000E+00 -0.12261037966E+04  0.12261037967E+04  0.50400001928E-02 0. -1.
    10030    2    1    2    0    0  0.00000000000E+00  0.00000000000E+00 -0.75537883650E+03  0.16968287568E+04  0.15194178633E+04 0.  0.
        5    1    3    3  502    0  0.34082217646E+03 -0.43533971516E+02  0.37897839739E+03  0.51156786288E+03  0.46999998093E+01 0.  1.
       -5    1    3    3    0  502 -0.34082217646E+03  0.43533971516E+02 -0.11343572339E+04  0.11852608939E+04  0.46999998093E+01 0. -1.
</event>
<event>
 5   0  0.7547580E-04  0.1514115E+04  0.7818609E-02  0.8875120E-01
        2   -1    0    0  501    0  0.00000000000E+00  0.00000000000E+00  0.93559294933E+03  0.93559294933E+03  0.25500000920E-02 0. -1.
       -2   -1    0    0    0  501  0.00000000000E+00  0.00000000000E+00 -0.61259145806E+03  0.61259145807E+03  0.25500000920E-02 0.  1.
    10030    2    1    2    0    0  0.00000000000E+00  0.00000000000E+00  0.32300149126E+03  0.15481844074E+04  0.15141152519E+04 0.  0.
        4    1    3    3  502    0  0.26962836122E+03 -0.41862820141E+03  0.74458245161E+03  0.89574196303E+03  0.12699999809E+01 0. -1.
       -4    1    3    3    0  502 -0.26962836122E+03  0.41862820141E+03 -0.42158096035E+03  0.65244244437E+03  0.12699999809E+01 0.  1.
</event>
<event>
 5   0  0.7672251E-04  0.1493549E+04  0.7818609E-02  0.8888754E-01
       -2   -1    0    0    0  501  0.00000000000E+00  0.00000000000E+00  0.25278077158E+03  0.25278077159E+03  0.25500000920E-02 0.  1.
        2   -1    0    0  501    0  0.00000000000E+00  0.00000000000E+00 -0.22061486845E+04  0.22061486845E+04  0.25500000920E-02 0. -1.
    10030    2    1    2    0    0  0.00000000000E+00  0.00000000000E+00 -0.19533679129E+04  0.24589294561E+04  0.14935487494E+04 0.  0.
        5    1    3    3  502    0 -0.43494956567E+03  0.43689000954E+03 -0.28286989097E+03  0.67830042778E+03  0.46999998093E+01 0.  1.
       -5    1    3    3    0  502  0.43494956567E+03 -0.43689000954E+03 -0.16704980219E+04  0.17806290283E+04  0.46999998093E+01 0. -1.
</event>
<event>
 5   0  0.4058874E-04  0.1493303E+04  0.7818609E-02  0.8888919E-01
        1   -1    0    0  501    0  0.00000000000E+00  0.00000000000E+00  0.61200284386E+03  0.61200284388E+03  0.50400001928E-02 0. -1.
       -1   -1    0    0    0  501  0.00000000000E+00  0.00000000000E+00 -0.91092470120E+03  0.91092470122E+03  0.50400001928E-02 0.  1.
    10030    2    1    2    0    0  0.00000000000E+00  0.00000000000E+00 -0.29892185734E+03  0.15229275451E+04  0.14933030606E+04 0.  0.
        4    1    3    3  502    0  0.55805153359E+03  0.49570047976E+03 -0.16844239020E+03  0.76518947424E+03  0.12699999809E+01 0.  1.
       -4    1    3    3    0  502 -0.55805153359E+03 -0.49570047976E+03 -0.13047946714E+03  0.75773807085E+03  0.12699999809E+01 0. -1.
</event>
<event>
 5   0  0.7454828E-04  0.1528220E+04  0.7818609E-02  0.8865901E-01
        2   -1    0    0  501    0  0.00000000000E+00  0.00000000000E+00  0.53731679135E+03  0.53731679135E+03  0.25500000920E-02 0. -1.
       -2   -1    0    0    0  501  0.00000000000E+00  0.00000000000E+00 -0.10866285472E+04  0.10866285472E+04  0.25500000920E-02 0.  1.
    10030    2    1    2    0    0  0.00000000000E+00  0.00000000000E+00 -0.54931175589E+03  0.16239453386E+04  0.15282195711E+04 0.  0.
        3    1    3    3  502    0 -0.16772933562E+02 -0.72548904313E+03 -0.52890887401E+03  0.89797566237E+03  0.10100000352E+00 0.  1.
       -3    1    3    3    0  502  0.16772933562E+02  0.72548904313E+03 -0.20402881882E+02  0.72596967622E+03  0.10100000352E+00 0. -1.
</event>
<event>
 5   0  0.3907345E-04  0.1500138E+04  0.7818609E-02  0.8884361E-01
       -1   -1    0    0    0  501  0.00000000000E+00  0.00000000000E+00  0.20653086165E+03  0.20653086171E+03  0.50400001928E-02 0. -1.
        1   -1    0    0  501    0  0.00000000000E+00  0.00000000000E+00 -0.27240650544E+04  0.27240650544E+04  0.50400001928E-02 0.  1.
    10030    2    1    2    0    0  0.00000000000E+00  0.00000000000E+00 -0.25175341927E+04  0.29305959161E+04  0.15001379976E+04 0.  0.
        5    1    3    3  502    0 -0.57710556804E+03  0.17718544590E+03 -0.38919357306E+03  0.71828911046E+03  0.46999998093E+01 0. -1.
       -5    1    3    3    0  502  0.57710556804E+03 -0.17718544590E+03 -0.21283406197E+04  0.22123068056E+04  0.46999998093E+01 0.  1.
</event>
<event>
 5   0  0.4086710E-04  0.1494699E+04  0.7818609E-02  0.8887986E-01
        1   -1    0    0  501    0  0.00000000000E+00  0.00000000000E+00  0.11720984441E+04  0.11720984442E+04  0.50400001928E-02 0. -1.
       -1   -1    0    0    0  501  0.00000000000E+00  0.00000000000E+00 -0.47652226346E+03  0.47652226348E+03  0.50400001928E-02 0.  1.
    10030    2    1    2    0    0  0.00000000000E+00  0.00000000000E+00  0.69557618069E+03  0.16486207076E+04  0.14946986367E+04 0.  0.
        3    1    3    3  502    0  0.11687800593E+03 -0.59328224361E+03 -0.13662766379E+03  0.61992855844E+03  0.10100000352E+00 0.  1.
       -3    1    3    3    0  502 -0.11687800593E+03  0.59328224361E+03  0.83220384448E+03  0.10286921492E+04  0.10100000352E+00 0. -1.
</event>
<event>
 5   0  0.4086710E-04  0.1507209E+04  0.7818609E-02  0.8879673E-01
       -1   -1    0    0    0  501  0.00000000000E+00  0.00000000000E+00  0.84510851262E+03  0.84510851264E+03  0.50400001928E-02 0. -1.
        1   -1    0    0  501    0  0.00000000000E+00  0.00000000000E+00 -0.67200850991E+03  0.67200850993E+03  0.50400001928E-02 0.  1.
    10030    2    1    2    0    0  0.00000000000E+00  0.00000000000E+00  0.17310000271E+03  0.15171170226E+04  0.15072094908E+04 0.  0.
        3    1    3    3  502    0 -0.74487957773E+03  0.96008746271E+02  0.14906167513E+03  0.76569096761E+03  0.10100000352E+00 0. -1.
       -3    1    3    3    0  502  0.74487957773E+03 -0.96008746271E+02  0.24038327576E+02  0.75142605496E+03  0.10100000352E+00 0.  1.
</event>
<event>
 5   0  0.4084462E-04  0.1529684E+04  0.7818609E-02  0.8864950E-01
       -1   -1    0    0    0  501  0.00000000000E+00  0.00000000000E+00  0.15156465871E+04  0.15156465871E+04  0.50400001928E-02 0.  1.
        1   -1    0    0  501    0  0.00000000000E+00  0.00000000000E+00 -0.38596304658E+03  0.38596304661E+03  0.50400001928E-02 0. -1.
    10030    2    1    2    0    0  0.00000000000E+00  0.00000000000E+00  0.11296835405E+04  0.19016096337E+04  0.15296843783E+04 0.  0.
        1    1    3    3  502    0  0.32487451195E+03 -0.14707490112E+02 -0.29573324588E+03  0.43956559411E+03  0.50400001928E-02 0. -1.
       -1    1    3    3    0  502 -0.32487451195E+03  0.14707490112E+02  0.14254167864E+04  0.14620440396E+04  0.50400001928E-02 0.  1.
</event>
<event>
 5   0  0.7454828E-04  0.1500390E+04  0.7818609E-02  0.8884193E-01
       -2   -1    0    0    0  501  0.00000000000E+00  0.00000000000E+00  0.42592277280E+03  0.42592277281E+03  0.25500000920E-02 0. -1.
        2   -1    0    0  501    0  0.00000000000E+00  0.00000000000E+00 -0.13213493540E+04  0.13213493540E+04  0.25500000920E-02 0.  1.
    10030    2    1    2    0    0  0.00000000000E+00  0.00000000000E+00 -0.89542658122E+03  0.17472721268E+04  0.15003903235E+04 0.  0.
        3    1    3    3  502    0 -0.40375185066E+03  0.42456049176E+03 -0.99334409764E+03  0.11532561184E+04  0.10100000352E+00 0.  1.
       -3    1    3    3    0  502  0.40375185066E+03 -0.42456049176E+03  0.97917516415E+02  0.59401600845E+03  0.10100000352E+00 0. -1.
</event>
<event>
 5   0  0.2800375E-04  0.1494977E+04  0.7818609E-02  0.8887800E-01
        3   -1    0    0  501    0  0.00000000000E+00  0.00000000000E+00  0.41911409508E+03  0.41911410725E+03  0.10100000352E+00 0. -1.
       -3   -1    0    0    0  501  0.00000000000E+00  0.00000000000E+00 -0.13331439314E+04  0.13331439352E+04  0.10100000352E+00 0.  1.
    10030    2    1    2    0    0  0.00000000000E+00  0.00000000000E+00 -0.91402983629E+03  0.17522580424E+04  0.14949774934E+04 0.  0.
        4    1    3    3  502    0  0.28125109898E+03 -0.40191818455E+03 -0.11180788633E+04  0.12209596083E+04  0.12699999809E+01 0.  1.
       -4    1    3    3    0  502 -0.28125109898E+03  0.40191818455E+03  0.20404902701E+03  0.53129843410E+03  0.12699999809E+01 0. -1.
</event>
<event>
 5   0  0.7454828E-04  0.1506712E+04  0.7818609E-02  0.8880001E-01
       -2   -1    0    0    0  501  0.00000000000E+00  0.00000000000E+00  0.19789670828E+03  0.19789670830E+03  0.25500000920E-02 0.  1.
        2   -1    0    0  501    0  0.00000000000E+00  0.00000000000E+00 -0.28678879442E+04  0.28678879442E+04  0.25500000920E-02 0. -1.
    10030    2    1    2    0    0  0.00000000000E+00  0.00000000000E+00 -0.26699912360E+04  0.30657846525E+04  0.15067124263E+04 0.  0.
        3    1    3    3  502    0 -0.24461202795E+03 -0.54368785562E+03 -0.22721173058E+04  0.23490314153E+04  0.10100000352E+00 0. -1.
       -3    1    3    3    0  502  0.24461202795E+03  0.54368785562E+03 -0.39787393013E+03  0.71675323720E+03  0.10100000352E+00 0.  1.
</event>
<event>
 5   0  0.7672251E-04  0.1548453E+04  0.7818609E-02  0.8852856E-01
       -2   -1    0    0    0  501  0.00000000000E+00  0.00000000000E+00  0.39585289390E+03  0.39585289391E+03  0.25500000920E-02 0. -1.
        2   -1    0    0  501    0  0.00000000000E+00  0.00000000000E+00 -0.15142667314E+04  0.15142667314E+04  0.25500000920E-02 0.  1.
    10030    2    1    2    0    0  0.00000000000E+00  0.00000000000E+00 -0.11184138375E+04  0.19101196253E+04  0.15484532512E+04 0.  0.
        5    1    3    3  502    0  0.21318995761E+03 -0.61706651556E+03 -0.45854019083E+02  0.65448126307E+03  0.46999998093E+01 0. -1.
       -5    1    3    3    0  502 -0.21318995761E+03  0.61706651556E+03 -0.10725598184E+04  0.12556383622E+04  0.46999998093E+01 0.  1.
</event>
<event>
 5   0  0.4015204E-04  0.1485760E+04  0.7818609E-02  0.8893978E-01
        1   -1    0    0  501    0  0.00000000000E+00  0.00000000000E+00  0.95460862774E+03  0.95460862775E+03  0.50400001928E-02 0.  1.
       -1   -1    0    0    0  501  0.00000000000E+00  0.00000000000E+00 -0.57811184196E+03  0.57811184198E+03  0.50400001928E-02 0. -1.
    10030    2    1    2    0    0  0.00000000000E+00  0.00000000000E+00  0.37649678578E+03  0.15327204697E+04  0.14857598085E+04 0.  0.
        2    1    3    3  502    0 -0.28478177867E+03 -0.21698785825E+03  0.85973366312E+03  0.93130358294E+03  0.25500000920E-02 0.  1.
       -2    1    3    3    0  502  0.28478177867E+03  0.21698785825E+03 -0.48323687734E+03  0.60141688679E+03  0.25500000920E-02 0. -1.
</event>
<event>
 5   0  0.4058874E-04  0.1457098E+04  0.7818609E-02  0.8913495E-01
        1   -1    0    0  501    0  0.00000000000E+00  0.00000000000E+00  0.68972912501E+03  0.68972912503E+03  0.50400001928E-02 0.  1.
       -1   -1    0    0    0  501  0.00000000000E+00  0.00000000000E+00 -0.76955326517E+03  0.76955326519E+03  0.50400001928E-02 0. -1.
    10030    2    1    2    0    0  0.00000000000E+00  0.00000000000E+00 -0.79824140155E+02  0.14592823902E+04  0.14570975263E+04 0.  0.
        4    1    3    3  502    0 -0.63191083914E+03  0.35398362800E+03 -0.11855350313E+03  0.73394295659E+03  0.12699999809E+01 0. -1.
       -4    1    3    3    0  502  0.63191083914E+03 -0.35398362800E+03  0.38729362973E+02  0.72533943363E+03  0.12699999809E+01 0.  1.
</event>
<event>
 5   0  0.7634227E-04  0.1492580E+04  0.7818609E-02  0.8889402E-01
       -2   -1    0    0    0  501  0.00000000000E+00  0.00000000000E+00  0.46104069356E+03  0.46104069357E+03  0.25500000920E-02 0. -1.
        2   -1    0    0  501    0  0.00000000000E+00  0.00000000000E+00 -0.12080252313E+04  0.12080252313E+04  0.25500000920E-02 0.  1.
    10030    2    1    2    0    0  0.00000000000E+00  0.00000000000E+00 -0.74698453776E+03  0.16690659249E+04  0.14925800354E+04 0.  0.
        2    1    3    3  502    0 -0.89808211777E+02  0.70378726221E+03 -0.11468076709E+03  0.71870279232E+03  0.25500000920E-02 0.  1.
       -2    1    3    3    0  502  0.89808211777E+02 -0.70378726221E+03 -0.63230377067E+03  0.95036313257E+03  0.25500000920E-02 0. -1.
</event>
<event>
 5   0  0.7454828E-04  0.1500558E+04  0.7818609E-02  0.8884082E-01
        2   -1    0    0  501    0  0.00000000000E+00  0.00000000000E+00  0.18536858131E+04  0.18536858131E+04  0.25500000920E-02 0.  1.
       -2   -1    0    0    0  501  0.00000000000E+00  0.00000000000E+00 -0.30367524684E+03  0.30367524685E+03  0.25500000920E-02 0. -1.
    10030    2    1    2    0    0  0.00000000000E+00  0.00000000000E+00  0.15500105663E+04  0.21573610600E+04  0.15005578921E+04 0.  0.
        3    1    3    3  502    0 -0.33668061860E+03 -0.59756790744E+03  0.12122126980E+04  0.13928032447E+04  0.10100000352E+00 0.  1.
       -3    1    3    3    0  502  0.33668061860E+03  0.59756790744E+03  0.33779786829E+03  0.76455781532E+03  0.10100000352E+00 0. -1.
</event>
<event>
 5   0  0.4084462E-04  0.1466572E+04  0.7818609E-02  0.8906992E-01
        1   -1    0    0  501    0  0.00000000000E+00  0.00000000000E+00  0.46069194319E+03  0.46069194322E+03  0.50400001928E-02 0.  1.
       -1   -1    0    0    0  501  0.00000000000E+00  0.00000000000E+00 -0.11671748162E+04  0.11671748162E+04  0.50400001928E-02 0. -1.
    10030    2    1    2    0    0  0.00000000000E+00  0.00000000000E+00 -0.70648287302E+03  0.16278667594E+04  0.14665715586E+04 0.  0.
        1    1    3    3  502    0 -0.60330148830E+02  0.25264752642E+03  0.40791555797E+03  0.48359652803E+03  0.50400001928E-02 0.  1.
       -1    1    3    3    0  502  0.60330148830E+02 -0.25264752642E+03 -0.11143984310E+04  0.11442702314E+04  0.50400001928E-02 0. -1.
</event>
<event>
 5   0  0.7672251E-04  0.1495625E+04  0.7818609E-02  0.8887367E-01
       -2   -1    0    0    0  501  0.00000000000E+00  0.00000000000E+00  0.70545125454E+03  0.70545125454E+03  0.25500000920E-02 0.  1.
        2   -1    0    0  501    0  0.00000000000E+00  0.00000000000E+00 -0.79271751098E+03  0.79271751099E+03  0.25500000920E-02 0. -1.
    10030    2    1    2    0    0  0.00000000000E+00  0.00000000000E+00 -0.87266256443E+02  0.14981687655E+04  0.14956250367E+04 0.  0.
        5    1    3    3  502    0  0.16753076576E+03  0.28343624070E+03 -0.71619058719E+03  0.78825992362E+03  0.46999998093E+01 0. -1.
       -5    1    3    3    0  502 -0.16753076576E+03 -0.28343624070E+03  0.62892433074E+03  0.70990884191E+03  0.46999998093E+01 0.  1.
</event>
<event>
 5   0  0.4058874E-04  0.1393557E+04  0.7818609E-02  0.8958496E-01
       -1   -1    0    0    0  501  0.00000000000E+00  0.00000000000E+00  0.47674145821E+03  0.47674145824E+03  0.50400001928E-02 0.  1.
        1   -1    0    0  501    0  0.00000000000E+00  0.00000000000E+00 -0.10183721818E+04  0.10183721818E+04  0.50400001928E-02 0. -1.
    10030    2    1    2    0    0  0.00000000000E+00  0.00000000000E+00 -0.54163072359E+03  0.14951136401E+04  0.13935569439E+04 0.  0.
        4    1    3    3  502    0 -0.18007227183E+02  0.86653004856E+02  0.47068518760E+03  0.47893544681E+03  0.12699999809E+01 0.  1.
       -4    1    3    3    0  502  0.18007227183E+02 -0.86653004856E+02 -0.10123159112E+04  0.10161781932E+04  0.12699999809E+01 0. -1.
</event>
<event>
 5   0  0.3907345E-04  0.1485668E+04  0.7818609E-02  0.8894040E-01
       -1   -1    0    0    0  501  0.00000000000E+00  0.00000000000E+00  0.56345846600E+03  0.56345846602E+03  0.50400001928E-02 0.  1.
        1   -1    0    0  501    0  0.00000000000E+00  0.00000000000E+00 -0.97931300260E+03  0.97931300262E+03  0.50400001928E-02 0. -1.
    10030    2    1    2    0    0  0.00000000000E+00  0.00000000000E+00 -0.41585453661E+03  0.15427714686E+04  0.14856677989E+04 0.  0.
        5    1    3    3  502    0 -0.11574887516E+03  0.72705794842E+03 -0.31056476443E+03  0.79905170382E+03  0.46999998093E+01 0. -1.
       -5    1    3    3    0  502  0.11574887516E+03 -0.72705794842E+03 -0.10528977217E+03  0.74371976482E+03  0.46999998093E+01 0.  1.
</event>
<event>
 5   0  0.7634227E-04  0.1469999E+04  0.7818609E-02  0.8904652E-01
       -2   -1    0    0    0  501  0.00000000000E+00  0.00000000000E+00  0.59403484268E+03  0.59403484268E+03  0.25500000920E-02 0.  1.
        2   -1    0    0  501    0  0.00000000000E+00  0.00000000000E+00 -0.90941533971E+03  0.90941533972E+03  0.25500000920E-02 0. -1.
    10030    2    1    2    0    0  0.00000000000E+00  0.00000000000E+00 -0.31538049703E+03  0.15034501824E+04  0.14699991813E+04 0.  0.
        2    1    3    3  502    0 -0.67316044314E+03 -0.76869640674E+02 -0.44907779812E+03  0.81284979709E+03  0.25500000920E-02 0. -1.
       -2    1    3    3    0  502  0.67316044314E+03  0.76869640674E+02  0.13369730109E+03  0.69060038531E+03  0.25500000920E-02 0.  1.
</event>
<event>
 5   0  0.4084462E-04  0.1480728E+04  0.7818609E-02  0.8897370E-01
       -1   -1    0    0    0  501  0.00000000000E+00  0.00000000000E+00  0.11877380611E+04  0.11877380611E+04  0.50400001928E-02 0. -1.
        1   -1    0    0  501    0  0.00000000000E+00  0.00000000000E+00 -0.46149837859E+03  0.46149837862E+03  0.50400001928E-02 0.  1.
    10030    2    1    2    0    0  0.00000000000E+00  0.00000000000E+00  0.72623968250E+03  0.16492364397E+04  0.14807284551E+04 0.  0.
        1    1    3    3  502    0  0.64280685146E+03  0.16434276450E+03  0.72903346699E+03  0.98574793357E+03  0.50400001928E-02 0. -1.
       -1    1    3    3    0  502 -0.64280685146E+03 -0.16434276450E+03 -0.27937844860E+01  0.66348850614E+03  0.50400001928E-02 0.  1.
</event>
<event>
 5   0  0.4015204E-04  0.1514014E+04  0.7818609E-02  0.8875187E-01
        1   -1    0    0  501    0  0.00000000000E+00  0.00000000000E+00  0.44739426274E+03  0.44739426277E+03  0.50400001928E-02 0.  1.
       -1   -1    0    0    0  501  0.00000000000E+00  0.00000000000E+00 -0.12808835274E+04  0.12808835274E+04  0.50400001928E-02 0. -1.
    10030    2    1    2    0    0  0.00000000000E+00  0.00000000000E+00 -0.83348926469E+03  0.17282777902E+04  0.15140144536E+04 0.  0.
        2    1    3    3  502    0  0.72688008290E+03 -0.18026917545E+03 -0.54287257690E+03  0.92496608872E+03  0.25500000920E-02 0. -1.
       -2    1    3    3    0  502 -0.72688008290E+03  0.18026917545E+03 -0.29061668780E+03  0.80331170150E+03  0.25500000920E-02 0.  1.
</event>
<event>
 5   0  0.7672251E-04  0.1509290E+04  0.7818609E-02  0.8878298E-01
       -2   -1    0    0    0  501  0.00000000000E+00  0.00000000000E+00  0.57924101383E+03  0.57924101384E+03  0.25500000920E-02 0. -1.
        2   -1    0    0  501    0  0.00000000000E+00  0.00000000000E+00 -0.98316462305E+03  0.98316462305E+03  0.25500000920E-02 0.  1.
    10030    2    1    2    0    0  0.00000000000E+00  0.00000000000E+00 -0.40392360922E+03  0.15624056369E+04  0.15092902610E+04 0.  0.
        5    1    3    3  502    0  0.42061067633E+03 -0.53318376872E+03  0.13866036528E+03  0.69314288510E+03  0.46999998093E+01 0. -1.
       -5    1    3    3    0  502 -0.42061067633E+03  0.53318376872E+03 -0.54258397450E+03  0.86926275179E+03  0.46999998093E+01 0.  1.
</event>
<event>
 5   0  0.7547580E-04  0.1496086E+04  0.7818609E-02  0.8887060E-01
       -2   -1    0    0    0  501  0.00000000000E+00  0.00000000000E+00  0.45477875907E+03  0.45477875908E+03  0.25500000920E-02 0.  1.
        2   -1    0    0  501    0  0.00000000000E+00  0.00000000000E+00 -0.12304186881E+04  0.12304186881E+04  0.25500000920E-02 0. -1.
    10030    2    1    2    0    0  0.00000000000E+00  0.00000000000E+00 -0.77563992900E+03  0.16851974472E+04  0.14960859389E+04 0.  0.
        4    1    3    3  502    0  0.30785286508E+03 -0.67583325945E+03 -0.28680285937E+03  0.79610393427E+03  0.12699999809E+01 0. -1.
       -4    1    3    3    0  502 -0.30785286508E+03  0.67583325945E+03 -0.48883706963E+03  0.88909351289E+03  0.12699999809E+01 0.  1.
</event>
<event>
 5   0  0.4015204E-04  0.1272395E+04  0.7818609E-02  0.9051747E-01
       -1   -1    0    0    0  501  0.00000000000E+00  0.00000000000E+00  0.84837085298E+03  0.84837085299E+03  0.50400001928E-02 0.  1.
        1   -1    0    0  501    0  0.00000000000E+00  0.00000000000E+00 -0.47708773590E+03  0.47708773593E+03  0.50400001928E-02 0. -1.
    10030    2    1    2    0    0  0.00000000000E+00  0.00000000000E+00  0.37128311707E+03  0.13254585889E+04  0.12723951108E+04 0.  0.
        2    1    3    3  502    0 -0.16034171458E+03  0.10665024686E+03  0.81728135240E+03  0.83966216395E+03  0.25500000920E-02 0.  1.
       -2    1    3    3    0  502  0.16034171458E+03 -0.10665024686E+03 -0.44599823533E+03  0.48579642497E+03  0.25500000920E-02 0. -1.
</event>
<event>
 5   0  0.4086710E-04  0.1442976E+04  0.7818609E-02  0.8923285E-01
        1   -1    0    0  501    0  0.00000000000E+00  0.00000000000E+00  0.81410511229E+03  0.81410511231E+03  0.50400001928E-02 0. -1.
       -1   -1    0    0    0  501  0.00000000000E+00  0.00000000000E+00 -0.63940725384E+03  0.63940725386E+03  0.50400001928E-02 0.  1.
    10030    2    1    2    0    0  0.00000000000E+00  0.00000000000E+00  0.17469785845E+03  0.14535123662E+04  0.14429756952E+04 0.  0.
        3    1    3    3  502    0 -0.23634617374E+03  0.53003975079E+03  0.51913157056E+03  0.77865220029E+03  0.10100000352E+00 0. -1.
       -3    1    3    3    0  502  0.23634617374E+03 -0.53003975079E+03 -0.34443371212E+03  0.67486016588E+03  0.10100000352E+00 0.  1.
</event>
<event>
 5   0  0.4015204E-04  0.1458782E+04  0.7818609E-02  0.8912335E-01
        1   -1    0    0  501    0  0.00000000000E+00  0.00000000000E+00  0.53719881307E+03  0.53719881309E+03  0.50400001928E-02 0.  1.
       -1   -1    0    0    0  501  0.00000000000E+00  0.00000000000E+00 -0.99034342728E+03  0.99034342729E+03  0.50400001928E-02 0. -1.
    10030    2    1    2    0    0  0.00000000000E+00  0.00000000000E+00 -0.45314461421E+03  0.15275422404E+04  0.14587821135E+04 0.  0.
        2    1    3    3  502    0 -0.61093736462E+03  0.30335959779E+03 -0.49708974418E+03  0.84401997775E+03  0.25500000920E-02 0. -1.
       -2    1    3    3    0  502  0.61093736462E+03 -0.30335959779E+03  0.43945129978E+02  0.68352226263E+03  0.25500000920E-02 0.  1.
</event>
<event>
 5   0  0.7454828E-04  0.1519099E+04  0.7818609E-02  0.8871850E-01
       -2   -1    0    0    0  501  0.00000000000E+00  0.00000000000E+00  0.43677211358E+03  0.43677211359E+03  0.25500000920E-02 0. -1.
        2   -1    0    0  501    0  0.00000000000E+00  0.00000000000E+00 -0.13208622271E+04  0.13208622271E+04  0.25500000920E-02 0.  1.
    10030    2    1    2    0    0  0.00000000000E+00  0.00000000000E+00 -0.88409011347E+03  0.17576343406E+04  0.15190994525E+04 0.  0.
        3    1    3    3  502    0  0.10582441392E+02  0.68521535560E+03 -0.63071241999E+02  0.68819333286E+03  0.10100000352E+00 0. -1.
       -3    1    3    3    0  502 -0.10582441392E+02 -0.68521535560E+03 -0.82101887147E+03  0.10694410078E+04  0.10100000352E+00 0.  1.
</event>
<event>
 5   0  0.3907345E-04  0.1485809E+04  0.7818609E-02  0.8893945E-01
       -1   -1    0    0    0  501  0.00000000000E+00  0.00000000000E+00  0.50682271557E+03  0.50682271559E+03  0.50400001928E-02 0. -1.
        1   -1    0    0  501    0  0.00000000000E+00  0.00000000000E+00 -0.10889548372E+04  0.10889548372E+04  0.50400001928E-02 0.  1.
    10030    2    1    2    0    0  0.00000000000E+00  0.00000000000E+00 -0.58213212163E+03  0.15957775528E+04  0.14858089349E+04 0.  0.
        5    1    3    3  502    0 -0.55767877745E+03 -0.11606171467E+03  0.22110286656E+03  0.61105196835E+03  0.46999998093E+01 0. -1.
       -5    1    3    3    0  502  0.55767877745E+03  0.11606171467E+03 -0.80323498818E+03  0.98472558445E+03  0.46999998093E+01 0.  1.
</event>
<event>
 5   0  0.4058874E-04  0.1493328E+04  0.7818609E-02  0.8888902E-01
       -1   -1    0    0    0  501  0.00000000000E+00  0.00000000000E+00  0.91515202277E+03  0.91515202278E+03  0.50400001928E-02 0.  1.
        1   -1    0    0  501    0  0.00000000000E+00  0.00000000000E+00 -0.60919625195E+03  0.60919625197E+03  0.50400001928E-02 0. -1.
    10030    2    1    2    0    0  0.00000000000E+00  0.00000000000E+00  0.30595577082E+03  0.15243482748E+04  0.14933280715E+04 0.  0.
        4    1    3    3  502    0 -0.11671939921E+03  0.62000835818E+03 -0.25465658805E+03  0.68035679838E+03  0.12699999809E+01 0. -1.
       -4    1    3    3    0  502  0.11671939921E+03 -0.62000835818E+03  0.56061235887E+03  0.84399147637E+03  0.12699999809E+01 0.  1.
</event>
<event>
 5   0  0.4086710E-04  0.1419499E+04  0.7818609E-02  0.8939824E-01
       -1   -1    0    0    0  501  0.00000000000E+00  0.00000000000E+00  0.49703056614E+03  0.49703056616E+03  0.50400001928E-02 0.  1.
        1   -1    0    0  501    0  0.00000000000E+00  0.00000000000E+00 -0.10135070917E+04  0.10135070917E+04  0.50400001928E-02 0. -1.
    10030    2    1    2    0    0  0.00000000000E+00  0.00000000000E+00 -0.51647652556E+03  0.15105376579E+04  0.14194985081E+04 0.  0.
        3    1    3    3  502    0 -0.56643790107E+03  0.42166944132E+03 -0.33413561527E+03  0.78121932458E+03  0.10100000352E+00 0. -1.
       -3    1    3    3    0  502  0.56643790107E+03 -0.42166944132E+03 -0.18234091029E+03  0.72931833329E+03  0.10100000352E+00 0.  1.
</event>
<event>
 5   0  0.7359897E-04  0.1490063E+04  0.7818609E-02  0.8891088E-01
       -2   -1    0    0    0  501  0.00000000000E+00  0.00000000000E+00  0.37386246397E+03  0.37386246398E+03  0.25500000920E-02 0.  1.
        2   -1    0    0  501    0  0.00000000000E+00  0.00000000000E+00 -0.14846958080E+04  0.14846958080E+04  0.25500000920E-02 0. -1.
    10030    2    1    2    0    0  0.00000000000E+00  0.00000000000E+00 -0.11108333440E+04  0.18585582720E+04  0.14900631302E+04 0.  0.
        1    1    3    3  502    0 -0.16440642307E+03  0.45978102300E+03  0.14645404876E+03  0.50978117803E+03  0.50400001928E-02 0.  1.
       -1    1    3    3    0  502  0.16440642307E+03 -0.45978102300E+03 -0.12572873928E+04  0.13487770939E+04  0.50400001928E-02 0. -1.
</event>
<event>
 5   0  0.4084462E-04  0.1258590E+04  0.7818609E-02  0.9063064E-01
       -1   -1    0    0    0  501  0.00000000000E+00  0.00000000000E+00  0.59962064402E+03  0.59962064404E+03  0.50400001928E-02 0.  1.
        1   -1    0    0  501    0  0.00000000000E+00  0.00000000000E+00 -0.66043832361E+03  0.66043832363E+03  0.50400001928E-02 0. -1.
    10030    2    1    2    0    0  0.00000000000E+00  0.00000000000E+00 -0.60817679591E+02  0.12600589677E+04  0.12585904067E+04 0.  0.
        1    1    3    3  502    0 -0.49599676562E+02  0.55686081807E+03  0.25881984372E+03  0.61606964715E+03  0.50400001928E-02 0.  1.
       -1    1    3    3    0  502  0.49599676562E+02 -0.55686081807E+03 -0.31963752331E+03  0.64398932052E+03  0.50400001928E-02 0. -1.
</event>
<event>
 5   0  0.7454828E-04  0.1520538E+04  0.7818609E-02  0.8870909E-01
       -2   -1    0    0    0  501  0.00000000000E+00  0.00000000000E+00  0.50780353082E+03  0.50780353082E+03  0.25500000920E-02 0.  1.
        2   -1    0    0  501    0  0.00000000000E+00  0.00000000000E+00 -0.11382530714E+04  0.11382530714E+04  0.25500000920E-02 0. -1.
    10030    2    1    2    0    0  0.00000000000E+00  0.00000000000E+00 -0.63044954058E+03  0.16460566022E+04  0.15205379688E+04 0.  0.
        3    1    3    3  502    0 -0.71583342551E+03  0.25581910730E+03 -0.32839497616E+03  0.82807256887E+03  0.10100000352E+00 0.  1.
       -3    1    3    3    0  502  0.71583342551E+03 -0.25581910730E+03 -0.30205456442E+03  0.81798403336E+03  0.10100000352E+00 0. -1.
</event>
<event>
 5   0  0.7454828E-04  0.1510483E+04  0.7818609E-02  0.8877512E-01
       -2   -1    0    0    0  501  0.00000000000E+00  0.00000000000E+00  0.86903065615E+03  0.86903065615E+03  0.25500000920E-02 0.  1.
        2   -1    0    0  501    0  0.00000000000E+00  0.00000000000E+00 -0.65635131734E+03  0.65635131734E+03  0.25500000920E-02 0. -1.
    10030    2    1    2    0    0  0.00000000000E+00  0.00000000000E+00  0.21267933881E+03  0.15253819735E+04  0.15104825930E+04 0.  0.
        3    1    3    3  502    0  0.33858525894E+03  0.11271147245E+03 -0.56584263528E+03  0.66897066580E+03  0.10100000352E+00 0. -1.
       -3    1    3    3    0  502 -0.33858525894E+03 -0.11271147245E+03  0.77852197410E+03  0.85641130769E+03  0.10100000352E+00 0.  1.
</event>
<event>
 5   0  0.7547580E-04  0.1493751E+04  0.7818609E-02  0.8888619E-01
       -2   -1    0    0    0  501  0.00000000000E+00  0.00000000000E+00  0.52718130276E+03  0.52718130277E+03  0.25500000920E-02 0. -1.
        2   -1    0    0  501    0  0.00000000000E+00  0.00000000000E+00 -0.10581235741E+04  0.10581235741E+04  0.25500000920E-02 0.  1.
    10030    2    1    2    0    0  0.00000000000E+00  0.00000000000E+00 -0.53094227136E+03  0.15853048769E+04  0.14937509355E+04 0.  0.
        4    1    3    3  502    0 -0.49314339824E+03 -0.54764063955E+03 -0.39423630255E+03  0.83577781525E+03  0.12699999809E+01 0.  1.
       -4    1    3    3    0  502  0.49314339824E+03  0.54764063955E+03 -0.13670596881E+03  0.74952706164E+03  0.12699999809E+01 0. -1.
</event>
<event>
 5   0  0.4086710E-04  0.1538518E+04  0.7818609E-02  0.8859235E-01
       -1   -1    0    0    0  501  0.00000000000E+00  0.00000000000E+00  0.40068787997E+03  0.40068788000E+03  0.50400001928E-02 0.  1.
        1   -1    0    0  501    0  0.00000000000E+00  0.00000000000E+00 -0.14768585753E+04  0.14768585753E+04  0.50400001928E-02 0. -1.
    10030    2    1    2    0    0  0.00000000000E+00  0.00000000000E+00 -0.10761706953E+04  0.18775464553E+04  0.15385178992E+04 0.  0.
        3    1    3    3  502    0 -0.23854120604E+03 -0.50016055781E+03 -0.11892329631E+04  0.13119975386E+04  0.10100000352E+00 0. -1.
       -3    1    3    3    0  502  0.23854120604E+03  0.50016055781E+03  0.11306226779E+03  0.56554891669E+03  0.10100000352E+00 0.  1.
</event>
<event>
 5   0  0.7547580E-04  0.1586356E+04  0.7818609E-02  0.8828974E-01
        2   -1    0    0  501    0  0.00000000000E+00  0.00000000000E+00  0.87958439949E+03  0.87958439950E+03  0.25500000920E-02 0. -1.
       -2   -1    0    0    0  501  0.00000000000E+00  0.00000000000E+00 -0.71525952504E+03  0.71525952505E+03  0.25500000920E-02 0.  1.
    10030    2    1    2    0    0  0.00000000000E+00  0.00000000000E+00  0.16432487445E+03  0.15948439245E+04  0.15863557228E+04 0.  0.
        4    1    3    3  502    0  0.15338766315E+02 -0.79238372767E+03  0.11430627433E+03  0.80073390516E+03  0.12699999809E+01 0. -1.
       -4    1    3    3    0  502 -0.15338766315E+02  0.79238372767E+03  0.50018600121E+02  0.79411001938E+03  0.12699999809E+01 0.  1.
</event>
<event>
 5   0  0.3907345E-04  0.1418466E+04  0.7818609E-02  0.8940559E-01
        1   -1    0    0  501    0  0.00000000000E+00  0.00000000000E+00  0.62567983448E+03  0.62567983451E+03  0.50400001928E-02 0.  1.
       -1   -1    0    0    0  501  0.00000000000E+00  0.00000000000E+00 -0.80394403693E+03  0.80394403694E+03  0.50400001928E-02 0. -1.
    10030    2    1    2    0    0  0.00000000000E+00  0.00000000000E+00 -0.17826420244E+03  0.14296238714E+04  0.14184661744E+04 0.  0.
        5    1    3    3  502    0  0.54139456158E+03  0.37012015975E+03 -0.36124188972E+03  0.74874214310E+03  0.46999998093E+01 0. -1.
       -5    1    3    3    0  502 -0.54139456158E+03 -0.37012015975E+03  0.18297768728E+03  0.68088172835E+03  0.46999998093E+01 0.  1.
</event>
<event>
 5   0  0.7359897E-04  0.1496153E+04  0.7818609E-02  0.8887015E-01
        2   -1    0    0  501    0  0.00000000000E+00  0.00000000000E+00  0.15241963134E+04  0.15241963134E+04  0.25500000920E-02 0. -1.
       -2   -1    0    0    0  501  0.00000000000E+00  0.00000000000E+00 -0.36715619877E+03  0.36715619878E+03  0.25500000920E-02 0.  1.
    10030    2    1    2    0    0  0.00000000000E+00  0.00000000000E+00  0.11570401146E+04  0.18913525122E+04  0.14961525652E+04 0.  0.
        1    1    3    3  502    0  0.51983654864E+03  0.35226626162E+03  0.10924791073E+04  0.12600921221E+04  0.50400001928E-02 0.  1.
       -1    1    3    3    0  502 -0.51983654864E+03 -0.35226626162E+03  0.64561007370E+02  0.63126039007E+03  0.50400001928E-02 0. -1.
</event>
<event>
 5   0  0.4015204E-04  0.1488193E+04  0.7818609E-02  0.8892343E-01
       -1   -1    0    0    0  501  0.00000000000E+00  0.00000000000E+00  0.98550612698E+03  0.98550612700E+03  0.50400001928E-02 0.  1.
        1   -1    0    0  501    0  0.00000000000E+00  0.00000000000E+00 -0.56182221007E+03  0.56182221009E+03  0.50400001928E-02 0. -1.
    10030    2    1    2    0    0  0.00000000000E+00  0.00000000000E+00  0.42368391691E+03  0.15473283371E+04  0.14881925014E+04 0.  0.
        2    1    3    3  502    0  0.24556267630E+03  0.13079410001E+03 -0.50570525876E+03  0.57718795321E+03  0.25500000920E-02 0. -1.
       -2    1    3    3    0  502 -0.24556267630E+03 -0.13079410001E+03  0.92938917567E+03  0.97014038388E+03  0.25500000920E-02 0.  1.
</event>
<event>
 5   0  0.7672251E-04  0.1485993E+04  0.7818609E-02  0.8893821E-01
        2   -1    0    0  501    0  0.00000000000E+00  0.00000000000E+00  0.24737622313E+04  0.24737622313E+04  0.25500000920E-02 0. -1.
       -2   -1    0    0    0  501  0.00000000000E+00  0.00000000000E+00 -0.22315953356E+03  0.22315953357E+03  0.25500000920E-02 0.  1.
    10030    2    1    2    0    0  0.00000000000E+00  0.00000000000E+00  0.22506026977E+04  0.26969217648E+04  0.14859927667E+04 0.  0.
        5    1    3    3  502    0 -0.72225217016E+03 -0.17155985584E+03  0.10696413008E+04  0.13020121289E+04  0.46999998093E+01 0. -1.
       -5    1    3    3    0  502  0.72225217016E+03  0.17155985584E+03  0.11809613969E+04  0.13949096359E+04  0.46999998093E+01 0.  1.
</event>
<event>
 5   0  0.4086710E-04  0.1525554E+04  0.7818609E-02  0.8867635E-01
        1   -1    0    0  501    0  0.00000000000E+00  0.00000000000E+00  0.64644653449E+03  0.64644653451E+03  0.50400001928E-02 0.  1.
       -1   -1    0    0    0  501  0.00000000000E+00  0.00000000000E+00 -0.90004160229E+03  0.90004160231E+03  0.50400001928E-02 0. -1.
    10030    2    1    2    0    0  0.00000000000E+00  0.00000000000E+00 -0.25359506780E+03  0.15464881368E+04  0.15255540301E+04 0.  0.
        3    1    3    3  502    0 -0.11094145766E+03 -0.72942592627E+03 -0.32299555771E+03  0.80541686687E+03  0.10100000352E+00 0. -1.
       -3    1    3    3    0  502  0.11094145766E+03  0.72942592627E+03  0.69400489908E+02  0.74107126995E+03  0.10100000352E+00 0.  1.
</event>
<event>
 5   0  0.4086710E-04  0.1452461E+04  0.7818609E-02  0.8916696E-01
       -1   -1    0    0    0  501  0.00000000000E+00  0.00000000000E+00  0.76198973839E+03  0.76198973841E+03  0.50400001928E-02 0.  1.
        1   -1    0    0  501    0  0.00000000000E+00  0.00000000000E+00 -0.69214918003E+03  0.69214918005E+03  0.50400001928E-02 0. -1.
    10030    2    1    2    0    0  0.00000000000E+00  0.00000000000E+00  0.69840558357E+02  0.14541389185E+04  0.14524607708E+04 0.  0.
        3    1    3    3  502    0 -0.61418217639E+03  0.38667144549E+03  0.60950509645E+02  0.72831966016E+03  0.10100000352E+00 0.  1.
       -3    1    3    3    0  502  0.61418217639E+03 -0.38667144549E+03  0.88900487121E+01  0.72581925830E+03  0.10100000352E+00 0. -1.
</event>
<event>
 5   0  0.2800375E-04  0.1499461E+04  0.7818609E-02  0.8884811E-01
        3   -1    0    0  501    0  0.00000000000E+00  0.00000000000E+00  0.48525314332E+03  0.48525315383E+03  0.10100000352E+00 0.  1.
       -3   -1    0    0    0  501  0.00000000000E+00  0.00000000000E+00 -0.11583563247E+04  0.11583563291E+04  0.10100000352E+00 0. -1.
    10030    2    1    2    0    0  0.00000000000E+00  0.00000000000E+00 -0.67310318138E+03  0.16436094829E+04  0.14994613165E+04 0.  0.
        4    1    3    3  502    0  0.29368711708E+02 -0.49402247682E+03 -0.95387389524E+03  0.10746151636E+04  0.12699999809E+01 0. -1.
       -4    1    3    3    0  502 -0.29368711708E+02  0.49402247682E+03  0.28077071386E+03  0.56899431938E+03  0.12699999809E+01 0.  1.
</event>
<event>
 5   0  0.4084462E-04  0.1513156E+04  0.7818609E-02  0.8875751E-01
       -1   -1    0    0    0  501  0.00000000000E+00  0.00000000000E+00  0.55768089924E+03  0.55768089927E+03  0.50400001928E-02 0. -1.
        1   -1    0    0  501    0  0.00000000000E+00  0.00000000000E+00 -0.10264123655E+04  0.10264123655E+04  0.50400001928E-02 0.  1.
    10030    2    1    2    0    0  0.00000000000E+00  0.00000000000E+00 -0.46873146623E+03  0.15840932648E+04  0.15131563977E+04 0.  0.
        1    1    3    3  502    0 -0.39860560514E+03  0.62418987146E+02  0.43566041750E+03  0.59378662650E+03  0.50400001928E-02 0. -1.
       -1    1    3    3    0  502  0.39860560514E+03 -0.62418987146E+02 -0.90439188372E+03  0.99030663826E+03  0.50400001928E-02 0.  1.
</event>
<event>
 5   0  0.4015204E-04  0.1487005E+04  0.7818609E-02  0.8893141E-01
       -1   -1    0    0    0  501  0.00000000000E+00  0.00000000000E+00  0.97778580628E+03  0.97778580629E+03  0.50400001928E-02 0.  1.
        1   -1    0    0  501    0  0.00000000000E+00  0.00000000000E+00 -0.56535482739E+03  0.56535482741E+03  0.50400001928E-02 0. -1.
    10030    2    1    2    0    0  0.00000000000E+00  0.00000000000E+00  0.41243097889E+03  0.15431406337E+04  0.14870049438E+04 0.  0.
        2    1    3    3  502    0 -0.20933124104E+03  0.53540028108E+03  0.69552672770E+03  0.90234719393E+03  0.25500000920E-02 0. -1.
       -2    1    3    3    0  502  0.20933124104E+03 -0.53540028108E+03 -0.28309574880E+03  0.64079343977E+03  0.25500000920E-02 0.  1.
</event>
<event>
 5   0  0.3907345E-04  0.1498924E+04  0.7818609E-02  0.8885168E-01
        1   -1    0    0  501    0  0.00000000000E+00  0.00000000000E+00  0.73006809744E+03  0.73006809746E+03  0.50400001928E-02 0.  1.
       -1   -1    0    0    0  501  0.00000000000E+00  0.00000000000E+00 -0.76937150639E+03  0.76937150641E+03  0.50400001928E-02 0. -1.
    10030    2    1    2    0    0  0.00000000000E+00  0.00000000000E+00 -0.39303408954E+02  0.14994396039E+04  0.14989244036E+04 0.  0.
        5    1    3    3  502    0 -0.18897646389E+03  0.49306595137E+03  0.51236317733E+03  0.73577459306E+03  0.46999998093E+01 0.  1.
       -5    1    3    3    0  502  0.18897646389E+03 -0.49306595137E+03 -0.55166658629E+03  0.76366501080E+03  0.46999998093E+01 0. -1.
</event>
<event>
 5   0  0.7672251E-04  0.1490966E+04  0.7818609E-02  0.8890483E-01
        2   -1    0    0  501    0  0.00000000000E+00  0.00000000000E+00  0.11254820392E+04  0.11254820392E+04  0.25500000920E-02 0.  1.
       -2   -1    0    0    0  501  0.00000000000E+00  0.00000000000E+00 -0.49378369651E+03  0.49378369652E+03  0.25500000920E-02 0. -1.
    10030    2    1    2    0    0  0.00000000000E+00  0.00000000000E+00  0.63169834264E+03  0.16192657357E+04  0.14909657027E+04 0.  0.
        5    1    3    3  502    0  0.89640193075E+02 -0.27909292211E+03 -0.42854742032E+03  0.51923328557E+03  0.46999998093E+01 0. -1.
       -5    1    3    3    0  502 -0.89640193075E+02  0.27909292211E+03  0.10602457630E+04  0.11000324501E+04  0.46999998093E+01 0.  1.
</event>
<event>
 5   0  0.3907345E-04  0.1488956E+04  0.7818609E-02  0.8891831E-01
       -1   -1    0    0    0  501  0.00000000000E+00  0.00000000000E+00  0.12232020097E+04  0.12232020097E+04  0.50400001928E-02 0. -1.
        1   -1    0    0  501    0  0.00000000000E+00  0.00000000000E+00 -0.45311169573E+03  0.45311169576E+03  0.50400001928E-02 0.  1.
    10030    2    1    2    0    0  0.00000000000E+00  0.00000000000E+00  0.77009031401E+03  0.16763137055E+04  0.14889555223E+04 0.  0.
        5    1    3    3  502    0  0.57017762663E+03  0.16435610935E+03 -0.12109061377E+03  0.60564055621E+03  0.46999998093E+01 0.  1.
       -5    1    3    3    0  502 -0.57017762663E+03 -0.16435610935E+03  0.89118092778E+03  0.10706731493E+04  0.46999998093E+01 0. -1.
</event>
<event>
 5   0  0.7359897E-04  0.1502380E+04  0.7818609E-02  0.8882872E-01
       -2   -1    0    0    0  501  0.00000000000E+00  0.00000000000E+00  0.33703898752E+03  0.33703898753E+03  0.25500000920E-02 0.  1.
        2   -1    0    0  501    0  0.00000000000E+00  0.00000000000E+00 -0.16742456725E+04  0.16742456725E+04  0.25500000920E-02 0. -1.
    10030    2    1    2    0    0  0.00000000000E+00  0.00000000000E+00 -0.13372066850E+04  0.20112846601E+04  0.15023795344E+04 0.  0.
        1    1    3    3  502    0  0.35398563438E+03  0.60405991096E+03 -0.30420270021E+03  0.76336982402E+03  0.50400001928E-02 0.  1.
       -1    1    3    3    0  502 -0.35398563438E+03 -0.60405991096E+03 -0.10330039848E+04  0.12479148360E+04  0.50400001928E-02 0. -1.
</event>
<event>
 5   0  0.4084462E-04  0.1515128E+04  0.7818609E-02  0.8874455E-01
        1   -1    0    0  501    0  0.00000000000E+00  0.00000000000E+00  0.60651744684E+03  0.60651744687E+03  0.50400001928E-02 0.  1.
       -1   -1    0    0    0  501  0.00000000000E+00  0.00000000000E+00 -0.94622682128E+03  0.94622682129E+03  0.50400001928E-02 0. -1.
    10030    2    1    2    0    0  0.00000000000E+00  0.00000000000E+00 -0.33970937443E+03  0.15527442682E+04  0.15151278175E+04 0.  0.
        1    1    3    3  502    0 -0.51106529416E+03  0.53897586734E+03 -0.32262049556E+03  0.80979423600E+03  0.50400001928E-02 0. -1.
       -1    1    3    3    0  502  0.51106529416E+03 -0.53897586734E+03 -0.17088878871E+02  0.74295003216E+03  0.50400001928E-02 0.  1.
</event>
<event>
 5   0  0.7547580E-04  0.1453258E+04  0.7818609E-02  0.8916145E-01
        2   -1    0    0  501    0  0.00000000000E+00  0.00000000000E+00  0.74021827691E+03  0.74021827692E+03  0.25500000920E-02 0.  1.
       -2   -1    0    0    0  501  0.00000000000E+00  0.00000000000E+00 -0.71328938558E+03  0.71328938559E+03  0.25500000920E-02 0. -1.
    10030    2    1    2    0    0  0.00000000000E+00  0.00000000000E+00  0.26928891333E+02  0.14535076625E+04  0.14532581876E+04 0.  0.
        4    1    3    3  502    0 -0.22965045295E+03  0.57546120765E+03  0.39312583566E+03  0.73378775380E+03  0.12699999809E+01 0.  1.
       -4    1    3    3    0  502  0.22965045295E+03 -0.57546120765E+03 -0.36619694433E+03  0.71971990871E+03  0.12699999809E+01 0. -1.
</event>
<event>
 5   0  0.7454828E-04  0.1506605E+04  0.7818609E-02  0.8880072E-01
       -2   -1    0    0    0  501  0.00000000000E+00  0.00000000000E+00  0.37157109342E+03  0.37157109343E+03  0.25500000920E-02 0.  1.
        2   -1    0    0  501    0  0.00000000000E+00  0.00000000000E+00 -0.15272044295E+04  0.15272044295E+04  0.25500000920E-02 0. -1.
    10030    2    1    2    0    0  0.00000000000E+00  0.00000000000E+00 -0.11556333361E+04  0.18987755229E+04  0.15066054822E+04 0.  0.
        3    1    3    3  502    0 -0.16869959285E+03  0.77066701182E+02  0.34234607807E+03  0.38935803116E+03  0.10100000352E+00 0.  1.
       -3    1    3    3    0  502  0.16869959285E+03 -0.77066701182E+02 -0.14979794141E+04  0.15094174918E+04  0.10100000352E+00 0. -1.
</event>
<event>
 5   0  0.4086710E-04  0.1555964E+04  0.7818609E-02  0.8848067E-01
        1   -1    0    0  501    0  0.00000000000E+00  0.00000000000E+00  0.10663130415E+04  0.10663130415E+04  0.50400001928E-02 0.  1.
       -1   -1    0    0    0  501  0.00000000000E+00  0.00000000000E+00 -0.56761583458E+03  0.56761583460E+03  0.50400001928E-02 0. -1.
    10030    2    1    2    0    0  0.00000000000E+00  0.00000000000E+00  0.49869720688E+03  0.16339288761E+04  0.15559642245E+04 0.  0.
        3    1    3    3  502    0 -0.25001230637E+02  0.10225429901E+03 -0.56010280735E+03  0.56990891220E+03  0.10100000352E+00 0. -1.
       -3    1    3    3    0  502  0.25001230637E+02 -0.10225429901E+03  0.10588000142E+04  0.10640199639E+04  0.10100000352E+00 0.  1.
</event>
<event>
 5   0  0.3907345E-04  0.1507964E+04  0.7818609E-02  0.8879174E-01
       -1   -1    0    0    0  501  0.00000000000E+00  0.00000000000E+00  0.44236009156E+03  0.44236009159E+03  0.50400001928E-02 0. -1.
        1   -1    0    0  501    0  0.00000000000E+00  0.00000000000E+00 -0.12851266943E+04  0.12851266943E+04  0.50400001928E-02 0.  1.
    10030    2    1    2    0    0  0.00000000000E+00  0.00000000000E+00 -0.84276660277E+03  0.17274867859E+04  0.15079638752E+04 0.  0.
        5    1    3    3  502    0 -0.56879976548E+03  0.17361768199E+03  0.10953931902E+03  0.60472905099E+03  0.46999998093E+01 0. -1.
       -5    1    3    3    0  502  0.56879976548E+03 -0.17361768199E+03 -0.95230592179E+03  0.11227577349E+04  0.46999998093E+01 0.  1.
</event>
<event>
 5   0  0.2800375E-04  0.1487026E+04  0.7818609E-02  0.8893127E-01
       -3   -1    0    0    0  501  0.00000000000E+00  0.00000000000E+00  0.29829839273E+04  0.29829839290E+04  0.10100000352E+00 0. -1.
        3   -1    0    0  501    0  0.00000000000E+00  0.00000000000E+00 -0.18532155089E+03  0.18532157842E+03  0.10100000352E+00 0.  1.
    10030    2    1    2    0    0  0.00000000000E+00  0.00000000000E+00  0.27976623764E+04  0.31683055074E+04  0.14870255600E+04 0.  0.
        3    1    3    3  502    0  0.66125476843E+03  0.29691833141E+03  0.10461945259E+04  0.12727691701E+04  0.10100000352E+00 0.  1.
       -3    1    3    3    0  502 -0.66125476843E+03 -0.29691833141E+03  0.17514678506E+04  0.18955363373E+04  0.10100000352E+00 0. -1.
</event>
<event>
 5   0  0.4058874E-04  0.1500788E+04  0.7818609E-02  0.8883929E-01
        1   -1    0    0  501    0  0.00000000000E+00  0.00000000000E+00  0.96269039176E+03  0.96269039177E+03  0.50400001928E-02 0.  1.
       -1   -1    0    0    0  501  0.00000000000E+00  0.00000000000E+00 -0.58491425331E+03  0.58491425333E+03  0.50400001928E-02 0. -1.
    10030    2    1    2    0    0  0.00000000000E+00  0.00000000000E+00  0.37777613845E+03  0.15476046451E+04  0.15007882351E+04 0.  0.
        4    1    3    3  502    0  0.13396254601E+03  0.51112901372E+03 -0.36054694609E+03  0.63968316035E+03  0.12699999809E+01 0. -1.
       -4    1    3    3    0  502 -0.13396254601E+03 -0.51112901372E+03  0.73832308454E+03  0.90792148475E+03  0.12699999809E+01 0.  1.
</event>
<event>
 5   0  0.7672251E-04  0.1501008E+04  0.7818609E-02  0.8883783E-01
       -2   -1    0    0    0  501  0.00000000000E+00  0.00000000000E+00  0.11826384403E+04  0.11826384403E+04  0.25500000920E-02 0.  1.
        2   -1    0    0  501    0  0.00000000000E+00  0.00000000000E+00 -0.47627076660E+03  0.47627076661E+03  0.25500000920E-02 0. -1.
    10030    2    1    2    0    0  0.00000000000E+00  0.00000000000E+00  0.70636767368E+03  0.16589092069E+04  0.15010078169E+04 0.  0.
        5    1    3    3  502    0  0.48728744642E+03 -0.57033515158E+03  0.37796554605E+03  0.84000671698E+03  0.46999998093E+01 0. -1.
       -5    1    3    3    0  502 -0.48728744642E+03  0.57033515158E+03  0.32840212763E+03  0.81890248992E+03  0.46999998093E+01 0.  1.
</event>
<event>
 5   0  0.7634227E-04  0.1529735E+04  0.7818609E-02  0.8864917E-01
        2   -1    0    0  501    0  0.00000000000E+00  0.00000000000E+00  0.18906967657E+04  0.18906967657E+04  0.25500000920E-02 0. -1.
       -2   -1    0    0    0  501  0.00000000000E+00  0.00000000000E+00 -0.30942134061E+03  0.30942134062E+03  0.25500000920E-02 0.  1.
    10030    2    1    2    0    0  0.00000000000E+00  0.00000000000E+00  0.15812754251E+04  0.22001181064E+04  0.15297345233E+04 0.  0.
        2    1    3    3  502    0 -0.60318457235E+03  0.43308280531E+03  0.52688880430E+03  0.91049665385E+03  0.25500000920E-02 0. -1.
       -2    1    3    3    0  502  0.60318457235E+03 -0.43308280531E+03  0.10543866208E+04  0.12896214525E+04  0.25500000920E-02 0.  1.
</event>
<event>
 5   0  0.7454828E-04  0.1490885E+04  0.7818609E-02  0.8890537E-01
       -2   -1    0    0    0  501  0.00000000000E+00  0.00000000000E+00  0.82904924693E+03  0.82904924693E+03  0.25500000920E-02 0. -1.
        2   -1    0    0  501    0  0.00000000000E+00  0.00000000000E+00 -0.67026677605E+03  0.67026677605E+03  0.25500000920E-02 0.  1.
    10030    2    1    2    0    0  0.00000000000E+00  0.00000000000E+00  0.15878247088E+03  0.14993160230E+04  0.14908845239E+04 0.  0.
        3    1    3    3  502    0  0.23831987096E+03 -0.23536990810E+03  0.74910697304E+03  0.82058309865E+03  0.10100000352E+00 0. -1.
       -3    1    3    3    0  502 -0.23831987096E+03  0.23536990810E+03 -0.59032450216E+03  0.67873292434E+03  0.10100000352E+00 0.  1.
</event>
<event>
 5   0  0.7634227E-04  0.1489438E+04  0.7818609E-02  0.8891507E-01
        2   -1    0    0  501    0  0.00000000000E+00  0.00000000000E+00  0.43992566538E+03  0.43992566539E+03  0.25500000920E-02 0.  1.
       -2   -1    0    0    0  501  0.00000000000E+00  0.00000000000E+00 -0.12606816813E+04  0.12606816813E+04  0.25500000920E-02 0. -1.
    10030    2    1    2    0    0  0.00000000000E+00  0.00000000000E+00 -0.82075601595E+03  0.17006073467E+04  0.14894377832E+04 0.  0.
        2    1    3    3  502    0  0.26959906500E+03  0.18429016859E+03  0.35381165631E+03  0.48148645903E+03  0.25500000920E-02 0.  1.
       -2    1    3    3    0  502 -0.26959906500E+03 -0.18429016859E+03 -0.11745676723E+04  0.12191208877E+04  0.25500000920E-02 0. -1.
</event>
<event>
 5   0  0.7454828E-04  0.1507175E+04  0.7818609E-02  0.8879695E-01
       -2   -1    0    0    0  501  0.00000000000E+00  0.00000000000E+00  0.63719960182E+03  0.63719960183E+03  0.25500000920E-02 0.  1.
        2   -1    0    0  501    0  0.00000000000E+00  0.00000000000E+00 -0.89123463462E+03  0.89123463462E+03  0.25500000920E-02 0. -1.
    10030    2    1    2    0    0  0.00000000000E+00  0.00000000000E+00 -0.25403503280E+03  0.15284342365E+04  0.15071753107E+04 0.  0.
        3    1    3    3  502    0  0.66510282558E+03  0.15511760920E+02  0.23194127055E+03  0.70455599245E+03  0.10100000352E+00 0.  1.
       -3    1    3    3    0  502 -0.66510282558E+03 -0.15511760920E+02 -0.48597630335E+03  0.82387824400E+03  0.10100000352E+00 0. -1.
</event>
<event>
 5   0  0.7672251E-04  0.1490786E+04  0.7818609E-02  0.8890603E-01
       -2   -1    0    0    0  501  0.00000000000E+00  0.00000000000E+00  0.73116451367E+03  0.73116451368E+03  0.25500000920E-02 0.  1.
        2   -1    0    0  501    0  0.00000000000E+00  0.00000000000E+00 -0.75989848907E+03  0.75989848907E+03  0.25500000920E-02 0. -1.
    10030    2    1    2    0    0  0.00000000000E+00  0.00000000000E+00 -0.28733975396E+02  0.14910630028E+04  0.14907861137E+04 0.  0.
        5    1    3    3  502    0  0.47794163076E+03 -0.54608979142E+03 -0.18453516969E+03  0.74881077820E+03  0.46999998093E+01 0. -1.
       -5    1    3    3    0  502 -0.47794163076E+03  0.54608979142E+03  0.15580119429E+03  0.74225222455E+03  0.46999998093E+01 0.  1.
</event>
<event>
 5   0  0.7547580E-04  0.1488340E+04  0.7818609E-02  0.8892244E-01
       -2   -1    0    0    0  501  0.00000000000E+00  0.00000000000E+00  0.38327905067E+03  0.38327905068E+03  0.25500000920E-02 0.  1.
        2   -1    0    0  501    0  0.00000000000E+00  0.00000000000E+00 -0.14448706042E+04  0.14448706042E+04  0.25500000920E-02 0. -1.
    10030    2    1    2    0    0  0.00000000000E+00  0.00000000000E+00 -0.10615915536E+04  0.18281496549E+04  0.14883395225E+04 0.  0.
        4    1    3    3  502    0  0.85743120827E+02  0.64952897268E+03 -0.96428350199E+03  0.11657976043E+04  0.12699999809E+01 0. -1.
       -4    1    3    3    0  502 -0.85743120827E+02 -0.64952897268E+03 -0.97308051566E+02  0.66235205059E+03  0.12699999809E+01 0.  1.
</event>
<event>
 5   0  0.7547580E-04  0.1502915E+04  0.7818609E-02  0.8882517E-01
       -2   -1    0    0    0  501  0.00000000000E+00  0.00000000000E+00  0.38480811358E+03  0.38480811359E+03  0.25500000920E-02 0.  1.
        2   -1    0    0  501    0  0.00000000000E+00  0.00000000000E+00 -0.14674549975E+04  0.14674549975E+04  0.25500000920E-02 0. -1.
    10030    2    1    2    0    0  0.00000000000E+00  0.00000000000E+00 -0.10826468839E+04  0.18522631111E+04  0.15029152862E+04 0.  0.
        4    1    3    3  502    0  0.43365317175E+02 -0.25636411269E+03 -0.14102498778E+04  0.14340186330E+04  0.12699999809E+01 0. -1.
       -4    1    3    3    0  502 -0.43365317175E+02  0.25636411269E+03  0.32760299386E+03  0.41824447814E+03  0.12699999809E+01 0.  1.
</event>
<event>
 5   0  0.4084462E-04  0.1500665E+04  0.7818609E-02  0.8884011E-01
       -1   -1    0    0    0  501  0.00000000000E+00  0.00000000000E+00  0.28055763708E+04  0.28055763708E+04  0.50400001928E-02 0.  1.
        1   -1    0    0  501    0  0.00000000000E+00  0.00000000000E+00 -0.20067146880E+03  0.20067146886E+03  0.50400001928E-02 0. -1.
    10030    2    1    2    0    0  0.00000000000E+00  0.00000000000E+00  0.26049049020E+04  0.30062478397E+04  0.15006653608E+04 0.  0.
        1    1    3    3  502    0  0.56557907398E+03  0.64096569143E+02  0.32307537677E+03  0.65449656852E+03  0.50400001928E-02 0. -1.
       -1    1    3    3    0  502 -0.56557907398E+03 -0.64096569143E+02  0.22818295253E+04  0.23517512712E+04  0.50400001928E-02 0.  1.
</event>
<event>
 5   0  0.7634227E-04  0.1614751E+04  0.7818609E-02  0.8811537E-01
        2   -1    0    0  501    0  0.00000000000E+00  0.00000000000E+00  0.80144134770E+03  0.80144134771E+03  0.25500000920E-02 0. -1.
       -2   -1    0    0    0  501  0.00000000000E+00  0.00000000000E+00 -0.81335362151E+03  0.81335362152E+03  0.25500000920E-02 0.  1.
    10030    2    1    2    0    0  0.00000000000E+00  0.00000000000E+00 -0.11912273812E+02  0.16147949692E+04  0.16147510305E+04 0.  0.
        2    1    3    3  502    0  0.77251911094E+03  0.11925135127E+03 -0.20807190599E+03  0.80888848404E+03  0.25500000920E-02 0.  1.
       -2    1    3    3    0  502 -0.77251911094E+03 -0.11925135127E+03  0.19615963217E+03  0.80590648518E+03  0.25500000920E-02 0. -1.
</event>
<event>
 5   0  0.3907345E-04  0.1508584E+04  0.7818609E-02  0.8878765E-01
        1   -1    0    0  501    0  0.00000000000E+00  0.00000000000E+00  0.20027578689E+03  0.20027578695E+03  0.50400001928E-02 0. -1.
       -1   -1    0    0    0  501  0.00000000000E+00  0.00000000000E+00 -0.28408643331E+04  0.28408643331E+04  0.50400001928E-02 0.  1.
    10030    2    1    2    0    0  0.00000000000E+00  0.00000000000E+00 -0.26405885462E+04  0.30411401201E+04  0.15085838921E+04 0.  0.
        5    1    3    3  502    0 -0.34061176725E+03 -0.53726246522E+03 -0.21373318258E+04  0.22299947883E+04  0.46999998093E+01 0.  1.
       -5    1    3    3    0  502  0.34061176725E+03  0.53726246522E+03 -0.50325672045E+03  0.81114533174E+03  0.46999998093E+01 0. -1.
</event>
<event>
 5   0  0.4058874E-04  0.1534234E+04  0.7818609E-02  0.8862002E-01
       -1   -1    0    0    0  501  0.00000000000E+00  0.00000000000E+00  0.81487873561E+03  0.81487873563E+03  0.50400001928E-02 0. -1.
        1   -1    0    0  501    0  0.00000000000E+00  0.00000000000E+00 -0.72215445519E+03  0.72215445521E+03  0.50400001928E-02 0.  1.
    10030    2    1    2    0    0  0.00000000000E+00  0.00000000000E+00  0.92724280416E+02  0.15370331908E+04  0.15342337624E+04 0.  0.
        4    1    3    3  502    0  0.12138112281E+03 -0.12825444560E+03 -0.70151462832E+03  0.72339958974E+03  0.12699999809E+01 0.  1.
       -4    1    3    3    0  502 -0.12138112281E+03  0.12825444560E+03  0.79423890873E+03  0.81363360110E+03  0.12699999809E+01 0. -1.
</event>
<event>
 5   0  0.3907345E-04  0.1493414E+04  0.7818609E-02  0.8888844E-01
        1   -1    0    0  501    0  0.00000000000E+00  0.00000000000E+00  0.66972721533E+03  0.66972721535E+03  0.50400001928E-02 0. -1.
       -1   -1    0    0    0  501  0.00000000000E+00  0.00000000000E+00 -0.83253546347E+03  0.83253546349E+03  0.50400001928E-02 0.  1.
    10030    2    1    2    0    0  0.00000000000E+00  0.00000000000E+00 -0.16280824814E+03  0.15022626788E+04  0.14934144202E+04 0.  0.
        5    1    3    3  502    0 -0.35878480295E+03 -0.19185784877E+03  0.54841537750E+03  0.68287442860E+03  0.46999998093E+01 0. -1.
       -5    1    3    3    0  502  0.35878480295E+03  0.19185784877E+03 -0.71122362564E+03  0.81938825024E+03  0.46999998093E+01 0.  1.
</event>
<event>
 5   0  0.7359897E-04  0.1600230E+04  0.7818609E-02  0.8820407E-01
        2   -1    0    0  501    0  0.00000000000E+00  0.00000000000E+00  0.18110956096E+04  0.18110956096E+04  0.25500000920E-02 0. -1.
       -2   -1    0    0    0  501  0.00000000000E+00  0.00000000000E+00 -0.35347871771E+03  0.35347871772E+03  0.25500000920E-02 0.  1.
    10030    2    1    2    0    0  0.00000000000E+00  0.00000000000E+00  0.14576168918E+04  0.21645743273E+04  0.16002296757E+04 0.  0.
        1    1    3    3  502    0 -0.14695140439E+03 -0.39082981279E+03 -0.19441979894E+03  0.46058844543E+03  0.50400001928E-02 0.  1.
       -1    1    3    3    0  502  0.14695140439E+03  0.39082981279E+03  0.16520366908E+04  0.17039858818E+04  0.50400001928E-02 0. -1.
</event>
<event>
 5   0  0.7454828E-04  0.1497540E+04  0.7818609E-02  0.8886090E-01
       -2   -1    0    0    0  501  0.00000000000E+00  0.00000000000E+00  0.10629946382E+04  0.10629946382E+04  0.25500000920E-02 0. -1.
        2   -1    0    0  501    0  0.00000000000E+00  0.00000000000E+00 -0.52743120371E+03  0.52743120371E+03  0.25500000920E-02 0.  1.
    10030    2    1    2    0    0  0.00000000000E+00  0.00000000000E+00  0.53556343452E+03  0.15904258419E+04  0.14975400383E+04 0.  0.
        3    1    3    3  502    0 -0.32055471237E+03 -0.63089137329E+03  0.52765762747E+03  0.88272409650E+03  0.10100000352E+00 0.  1.
       -3    1    3    3    0  502  0.32055471237E+03  0.63089137329E+03  0.79058070510E+01  0.70770174544E+03  0.10100000352E+00 0. -1.
</event>
<event>
 5   0  0.7672251E-04  0.1493436E+04  0.7818609E-02  0.8888830E-01
        2   -1    0    0  501    0  0.00000000000E+00  0.00000000000E+00  0.14407077451E+04  0.14407077451E+04  0.25500000920E-02 0. -1.
       -2   -1    0    0    0  501  0.00000000000E+00  0.00000000000E+00 -0.38702342158E+03  0.38702342159E+03  0.25500000920E-02 0.  1.
    10030    2    1    2    0    0  0.00000000000E+00  0.00000000000E+00  0.10536843235E+04  0.18277311667E+04  0.14934358252E+04 0.  0.
        5    1    3    3  502    0  0.62960262551E+03 -0.12209136581E+03  0.58796509602E+02  0.64403795478E+03  0.46999998093E+01 0.  1.
       -5    1    3    3    0  502 -0.62960262551E+03  0.12209136581E+03  0.99488781389E+03  0.11836932119E+04  0.46999998093E+01 0. -1.
</event>
<event>
 5   0  0.3907345E-04  0.1501517E+04  0.7818609E-02  0.8883445E-01
        1   -1    0    0  501    0  0.00000000000E+00  0.00000000000E+00  0.10074890388E+04  0.10074890388E+04  0.50400001928E-02 0. -1.
       -1   -1    0    0    0  501  0.00000000000E+00  0.00000000000E+00 -0.55944847888E+03  0.55944847891E+03  0.50400001928E-02 0.  1.
    10030    2    1    2    0    0  0.00000000000E+00  0.00000000000E+00  0.44804055991E+03  0.15669375177E+04  0.15015168468E+04 0.  0.
        5    1    3    3  502    0 -0.47544322131E+03  0.23380256280E+03  0.77908384647E+03  0.94218025074E+03  0.46999998093E+01 0. -1.
       -5    1    3    3    0  502  0.47544322131E+03 -0.23380256280E+03 -0.33104328656E+03  0.62475726697E+03  0.46999998093E+01 0.  1.
</event>
<event>
 5   0  0.7454828E-04  0.1487707E+04  0.7818609E-02  0.8892669E-01
       -2   -1    0    0    0  501  0.00000000000E+00  0.00000000000E+00  0.82081613477E+03  0.82081613478E+03  0.25500000920E-02 0.  1.
        2   -1    0    0  501    0  0.00000000000E+00  0.00000000000E+00 -0.67410679657E+03  0.67410679658E+03  0.25500000920E-02 0. -1.
    10030    2    1    2    0    0  0.00000000000E+00  0.00000000000E+00  0.14670933820E+03  0.14949229314E+04  0.14877066044E+04 0.  0.
        3    1    3    3  502    0  0.37795681113E+03  0.58424839101E+03  0.33753712869E+03  0.77338790844E+03  0.10100000352E+00 0.  1.
       -3    1    3    3    0  502 -0.37795681113E+03 -0.58424839101E+03 -0.19082779049E+03  0.72153502292E+03  0.10100000352E+00 0. -1.
</event>
<event>
 5   0  0.7547580E-04  0.1495987E+04  0.7818609E-02  0.8887126E-01
       -2   -1    0    0    0  501  0.00000000000E+00  0.00000000000E+00  0.67432613806E+03  0.67432613806E+03  0.25500000920E-02 0. -1.
        2   -1    0    0  501    0  0.00000000000E+00  0.00000000000E+00 -0.82970901450E+03  0.82970901450E+03  0.25500000920E-02 0.  1.
    10030    2    1    2    0    0  0.00000000000E+00  0.00000000000E+00 -0.15538287644E+03  0.15040351526E+04  0.14959872666E+04 0.  0.
        4    1    3    3  502    0  0.14825100815E+03  0.20089707983E+03  0.63119380600E+03  0.67878216811E+03  0.12699999809E+01 0. -1.
       -4    1    3    3    0  502 -0.14825100815E+03 -0.20089707983E+03 -0.78657668244E+03  0.82525298446E+03  0.12699999809E+01 0.  1.
</event>
<event>
 5   0  0.7672251E-04  0.1480447E+04  0.7818609E-02  0.8897560E-01
        2   -1    0    0  501    0  0.00000000000E+00  0.00000000000E+00  0.38975001745E+03  0.38975001746E+03  0.25500000920E-02 0.  1.
       -2   -1    0    0    0  501  0.00000000000E+00  0.00000000000E+00 -0.14058523968E+04  0.14058523968E+04  0.25500000920E-02 0. -1.
    10030    2    1    2    0    0  0.00000000000E+00  0.00000000000E+00 -0.10161023794E+04  0.17956024143E+04  0.14804472246E+04 0.  0.
        5    1    3    3  502    0  0.59454094414E+03 -0.41200867678E+03 -0.31751412736E+03  0.78997936370E+03  0.46999998093E+01 0. -1.
       -5    1    3    3    0  502 -0.59454094414E+03  0.41200867678E+03 -0.69858825199E+03  0.10056230506E+04  0.46999998093E+01 0.  1.
</event>
<event>
 5   0  0.3907345E-04  0.1493150E+04  0.7818609E-02  0.8889021E-01
        1   -1    0    0  501    0  0.00000000000E+00  0.00000000000E+00  0.56790899491E+03  0.56790899493E+03  0.50400001928E-02 0. -1.
       -1   -1    0    0    0  501  0.00000000000E+00  0.00000000000E+00 -0.98145013863E+03  0.98145013864E+03  0.50400001928E-02 0.  1.
    10030    2    1    2    0    0  0.00000000000E+00  0.00000000000E+00 -0.41354114372E+03  0.15493591336E+04  0.14931501757E+04 0.  0.
        5    1    3    3  502    0  0.22197976888E+03  0.21245539362E+03 -0.91278071696E+03  0.96312150807E+03  0.46999998093E+01 0.  1.
       -5    1    3    3    0  502 -0.22197976888E+03 -0.21245539362E+03  0.49923957323E+03  0.58623762550E+03  0.46999998093E+01 0. -1.
</event>
<event>
 5   0  0.7454828E-04  0.1505873E+04  0.7818609E-02  0.8880557E-01
       -2   -1    0    0    0  501  0.00000000000E+00  0.00000000000E+00  0.81061122903E+03  0.81061122904E+03  0.25500000920E-02 0.  1.
        2   -1    0    0  501    0  0.00000000000E+00  0.00000000000E+00 -0.69936522205E+03  0.69936522205E+03  0.25500000920E-02 0. -1.
    10030    2    1    2    0    0  0.00000000000E+00  0.00000000000E+00  0.11124600699E+03  0.15099764511E+04  0.15058729059E+04 0.  0.
        3    1    3    3  502    0 -0.28197737333E+03 -0.96559808735E+02 -0.63769320086E+03  0.70390884662E+03  0.10100000352E+00 0. -1.
       -3    1    3    3    0  502  0.28197737333E+03  0.96559808735E+02  0.74893920784E+03  0.80606760447E+03  0.10100000352E+00 0.  1.
</event>
<event>
 5   0  0.7359897E-04  0.1493370E+04  0.7818609E-02  0.8888874E-01
        2   -1    0    0  501    0  0.00000000000E+00  0.00000000000E+00  0.45862376949E+03  0.45862376950E+03  0.25500000920E-02 0. -1.
       -2   -1    0    0    0  501  0.00000000000E+00  0.00000000000E+00 -0.12156768046E+04  0.12156768046E+04  0.25500000920E-02 0.  1.
    10030    2    1    2    0    0  0.00000000000E+00  0.00000000000E+00 -0.75705303510E+03  0.16743005741E+04  0.14933697179E+04 0.  0.
        1    1    3    3  502    0  0.72560932330E+03 -0.17375137993E+03 -0.34603529565E+03  0.82245903116E+03  0.50400001928E-02 0.  1.
       -1    1    3    3    0  502 -0.72560932330E+03  0.17375137993E+03 -0.41101773945E+03  0.85184154293E+03  0.50400001928E-02 0. -1.
</event>
<event>
 5   0  0.7547580E-04  0.1504940E+04  0.7818609E-02  0.8881174E-01
        2   -1    0    0  501    0  0.00000000000E+00  0.00000000000E+00  0.12531476727E+04  0.12531476727E+04  0.25500000920E-02 0. -1.
       -2   -1    0    0    0  501  0.00000000000E+00  0.00000000000E+00 -0.45183126153E+03  0.45183126154E+03  0.25500000920E-02 0.  1.
    10030    2    1    2    0    0  0.00000000000E+00  0.00000000000E+00  0.80131641113E+03  0.17049789342E+04  0.15049402564E+04 0.  0.
        4    1    3    3  502    0 -0.65267952151E+03 -0.37442155359E+03  0.40661260381E+03  0.85528795155E+03  0.12699999809E+01 0.  1.
       -4    1    3    3    0  502  0.65267952151E+03  0.37442155359E+03  0.39470380731E+03  0.84969098265E+03  0.12699999809E+01 0. -1.
</event>
<event>
 5   0  0.7359897E-04  0.1501428E+04  0.7818609E-02  0.8883504E-01
       -2   -1    0    0    0  501  0.00000000000E+00  0.00000000000E+00  0.84182196676E+03  0.84182196676E+03  0.25500000920E-02 0.  1.
        2   -1    0    0  501    0  0.00000000000E+00  0.00000000000E+00 -0.66946616140E+03  0.66946616140E+03  0.25500000920E-02 0. -1.
    10030    2    1    2    0    0  0.00000000000E+00  0.00000000000E+00  0.17235580536E+03  0.15112881282E+04  0.15014277481E+04 0.  0.
        1    1    3    3  502    0  0.56974343523E+03 -0.80132317809E+02 -0.39921570032E+03  0.70028704526E+03  0.50400001928E-02 0. -1.
       -1    1    3    3    0  502 -0.56974343523E+03  0.80132317809E+02  0.57157150568E+03  0.81100108291E+03  0.50400001928E-02 0.  1.
</event>
<event>
 5   0  0.7454828E-04  0.1564571E+04  0.7818609E-02  0.8842614E-01
       -2   -1    0    0    0  501  0.00000000000E+00  0.00000000000E+00  0.57310551849E+03  0.57310551850E+03  0.25500000920E-02 0.  1.
        2   -1    0    0  501    0  0.00000000000E+00  0.00000000000E+00 -0.10678144557E+04  0.10678144557E+04  0.25500000920E-02 0. -1.
    10030    2    1    2    0    0  0.00000000000E+00  0.00000000000E+00 -0.49470893725E+03  0.16409199742E+04  0.15645706853E+04 0.  0.
        3    1    3    3  502    0  0.43520366006E+03 -0.35828237520E+03 -0.81622694319E+03  0.99196518039E+03  0.10100000352E+00 0. -1.
       -3    1    3    3    0  502 -0.43520366006E+03  0.35828237520E+03  0.32151800594E+03  0.64895479385E+03  0.10100000352E+00 0.  1.
</event>
<event>
 5   0  0.7634227E-04  0.1461680E+04  0.7818609E-02  0.8910343E-01
        2   -1    0    0  501    0  0.00000000000E+00  0.00000000000E+00  0.13835663243E+04  0.13835663243E+04  0.25500000920E-02 0. -1.
       -2   -1    0    0    0  501  0.00000000000E+00  0.00000000000E+00 -0.38605086964E+03  0.38605086965E+03  0.25500000920E-02 0.  1.
    10030    2    1    2    0    0  0.00000000000E+00  0.00000000000E+00  0.99751545467E+03  0.17696171940E+04  0.14616798319E+04 0.  0.
        2    1    3    3  502    0 -0.46043155587E+03 -0.53341666968E+03  0.26401057638E+03  0.75248398360E+03  0.25500000920E-02 0.  1.
       -2    1    3    3    0  502  0.46043155587E+03  0.53341666968E+03  0.73350487829E+03  0.10171332104E+04  0.25500000920E-02 0. -1.
</event>
<event>
 5   0  0.7359897E-04  0.1497656E+04  0.7818609E-02  0.8886013E-01
       -2   -1    0    0    0  501  0.00000000000E+00  0.00000000000E+00  0.47383821049E+03  0.47383821050E+03  0.25500000920E-02 0. -1.
        2   -1    0    0  501    0  0.00000000000E+00  0.00000000000E+00 -0.11834069784E+04  0.11834069784E+04  0.25500000920E-02 0.  1.
    10030    2    1    2    0    0  0.00000000000E+00  0.00000000000E+00 -0.70956876792E+03  0.16572451889E+04  0.14976560953E+04 0.  0.
        1    1    3    3  502    0 -0.56441839512E+03  0.20684222903E+02  0.18928670540E+03  0.59567224099E+03  0.50400001928E-02 0. -1.
       -1    1    3    3    0  502  0.56441839512E+03 -0.20684222903E+02 -0.89885547332E+03  0.10615729479E+04  0.50400001928E-02 0.  1.
</event>
<event>
 5   0  0.7634227E-04  0.1499524E+04  0.7818609E-02  0.8884769E-01
        2   -1    0    0  501    0  0.00000000000E+00  0.00000000000E+00  0.13910316068E+04  0.13910316068E+04  0.25500000920E-02 0. -1.
       -2   -1    0    0    0  501  0.00000000000E+00  0.00000000000E+00 -0.40411962978E+03  0.40411962979E+03  0.25500000920E-02 0.  1.
    10030    2    1    2    0    0  0.00000000000E+00  0.00000000000E+00  0.98691197702E+03  0.17951512366E+04  0.14995241618E+04 0.  0.
        2    1    3    3  502    0 -0.71649163376E+01  0.42251398263E+02  0.13895642216E+04  0.13902248893E+04  0.25500000920E-02 0. -1.
       -2    1    3    3    0  502  0.71649163376E+01 -0.42251398263E+02 -0.40265224460E+03  0.40492634734E+03  0.25500000920E-02 0.  1.
</event>
<event>
 5   0  0.4084462E-04  0.1499529E+04  0.7818609E-02  0.8884766E-01
        1   -1    0    0  501    0  0.00000000000E+00  0.00000000000E+00  0.16609117140E+04  0.16609117140E+04  0.50400001928E-02 0. -1.
       -1   -1    0    0    0  501  0.00000000000E+00  0.00000000000E+00 -0.33845680996E+03  0.33845681000E+03  0.50400001928E-02 0.  1.
    10030    2    1    2    0    0  0.00000000000E+00  0.00000000000E+00  0.13224549040E+04  0.19993685240E+04  0.14995290999E+04 0.  0.
        1    1    3    3  502    0  0.46174744787E+03  0.21556573086E+03 -0.72065272203E+02  0.51465784111E+03  0.50400001928E-02 0.  1.
       -1    1    3    3    0  502 -0.46174744787E+03 -0.21556573086E+03  0.13945201762E+04  0.14847106829E+04  0.50400001928E-02 0. -1.
</event>
<event>
 5   0  0.4015204E-04  0.1539936E+04  0.7818609E-02  0.8858322E-01
        1   -1    0    0  501    0  0.00000000000E+00  0.00000000000E+00  0.56245248108E+03  0.56245248110E+03  0.50400001928E-02 0. -1.
       -1   -1    0    0    0  501  0.00000000000E+00  0.00000000000E+00 -0.10540463946E+04  0.10540463946E+04  0.50400001928E-02 0.  1.
    10030    2    1    2    0    0  0.00000000000E+00  0.00000000000E+00 -0.49159391353E+03  0.16164988757E+04  0.15399363751E+04 0.  0.
        2    1    3    3  502    0 -0.13334330577E+03 -0.43478953492E+03 -0.89799935088E+03  0.10065908856E+04  0.25500000920E-02 0.  1.
       -2    1    3    3    0  502  0.13334330577E+03  0.43478953492E+03  0.40640543735E+03  0.60990799009E+03  0.25500000920E-02 0. -1.
</event>
<event>
 5   0  0.4058874E-04  0.1499048E+04  0.7818609E-02  0.8885086E-01
        1   -1    0    0  501    0  0.00000000000E+00  0.00000000000E+00  0.19342379254E+04  0.19342379254E+04  0.50400001928E-02 0. -1.
       -1   -1    0    0    0  501  0.00000000000E+00  0.00000000000E+00 -0.29044330549E+03  0.29044330554E+03  0.50400001928E-02 0.  1.
    10030    2    1    2    0    0  0.00000000000E+00  0.00000000000E+00  0.16437946199E+04  0.22246812309E+04  0.14990483070E+04 0.  0.
        4    1    3    3  502    0 -0.37894952122E+03 -0.64303639522E+03  0.72030352475E+03  0.10372739879E+04  0.12699999809E+01 0.  1.
       -4    1    3    3    0  502  0.37894952122E+03  0.64303639522E+03  0.92349109514E+03  0.11874072431E+04  0.12699999809E+01 0. -1.
</event>
<event>
 5   0  0.3907345E-04  0.1504451E+04  0.7818609E-02  0.8881498E-01
       -1   -1    0    0    0  501  0.00000000000E+00  0.00000000000E+00  0.11209130088E+04  0.11209130088E+04  0.50400001928E-02 0.  1.
        1   -1    0    0  501    0  0.00000000000E+00  0.00000000000E+00 -0.50480596094E+03  0.50480596097E+03  0.50400001928E-02 0. -1.
    10030    2    1    2    0    0  0.00000000000E+00  0.00000000000E+00  0.61610704788E+03  0.16257189698E+04  0.15044514862E+04 0.  0.
        5    1    3    3  502    0  0.63683230346E+03  0.39973541399E+03  0.28443555914E+03  0.80390886376E+03  0.46999998093E+01 0. -1.
       -5    1    3    3    0  502 -0.63683230346E+03 -0.39973541399E+03  0.33167148874E+03  0.82181010604E+03  0.46999998093E+01 0.  1.
</event>
<event>
 5   0  0.7454828E-04  0.1495602E+04  0.7818609E-02  0.8887383E-01
       -2   -1    0    0    0  501  0.00000000000E+00  0.00000000000E+00  0.71024859697E+03  0.71024859697E+03  0.25500000920E-02 0. -1.
        2   -1    0    0  501    0  0.00000000000E+00  0.00000000000E+00 -0.78733867019E+03  0.78733867020E+03  0.25500000920E-02 0.  1.
    10030    2    1    2    0    0  0.00000000000E+00  0.00000000000E+00 -0.77090073225E+02  0.14975872672E+04  0.14956017997E+04 0.  0.
        3    1    3    3  502    0  0.36608997764E+03 -0.65029958927E+03  0.94220864421E+01  0.74632446928E+03  0.10100000352E+00 0.  1.
       -3    1    3    3    0  502 -0.36608997764E+03  0.65029958927E+03 -0.86512159667E+02  0.75126279789E+03  0.10100000352E+00 0. -1.
</event>
<event>
 5   0  0.2800375E-04  0.1524732E+04  0.7818609E-02  0.8868171E-01
        3   -1    0    0  501    0  0.00000000000E+00  0.00000000000E+00  0.85345371306E+03  0.85345371904E+03  0.10100000352E+00 0. -1.
       -3   -1    0    0    0  501  0.00000000000E+00  0.00000000000E+00 -0.68099989266E+03  0.68099990015E+03  0.10100000352E+00 0.  1.
    10030    2    1    2    0    0  0.00000000000E+00  0.00000000000E+00  0.17245382040E+03  0.15344536192E+04  0.15247319729E+04 0.  0.
        5    1    3    3  502    0 -0.24078455081E+03  0.72210255686E+03  0.43881259561E+02  0.76246767635E+03  0.46999998093E+01 0. -1.
       -5    1    3    3    0  502  0.24078455081E+03 -0.72210255686E+03  0.12857256084E+03  0.77198594283E+03  0.46999998093E+01 0.  1.
</event>
<event>
 5   0  0.7454828E-04  0.1678395E+04  0.7818609E-02  0.8773783E-01
       -2   -1    0    0    0  501  0.00000000000E+00  0.00000000000E+00  0.15224646011E+04  0.15224646011E+04  0.25500000920E-02 0. -1.
        2   -1    0    0  501    0  0.00000000000E+00  0.00000000000E+00 -0.46257375096E+03  0.46257375097E+03  0.25500000920E-02 0.  1.
    10030    2    1    2    0    0  0.00000000000E+00  0.00000000000E+00  0.10598908501E+04  0.19850383520E+04  0.16783946630E+04 0.  0.
        3    1    3    3  502    0 -0.12694514344E+03  0.43732182699E+03 -0.30374247594E+03  0.54738007974E+03  0.10100000352E+00 0.  1.
       -3    1    3    3    0  502  0.12694514344E+03 -0.43732182699E+03  0.13636333261E+04  0.14376582723E+04  0.10100000352E+00 0. -1.
</event>
<event>
 5   0  0.4086710E-04  0.1498640E+04  0.7818609E-02  0.8885358E-01
        1   -1    0    0  501    0  0.00000000000E+00  0.00000000000E+00  0.17802920041E+04  0.17802920041E+04  0.50400001928E-02 0. -1.
       -1   -1    0    0    0  501  0.00000000000E+00  0.00000000000E+00 -0.31538681309E+03  0.31538681313E+03  0.50400001928E-02 0.  1.
    10030    2    1    2    0    0  0.00000000000E+00  0.00000000000E+00  0.14649051910E+04  0.20956788172E+04  0.14986402125E+04 0.  0.
        3    1    3    3  502    0 -0.58971788768E+03  0.38981292301E+03  0.38493359262E+03  0.80491936424E+03  0.10100000352E+00 0.  1.
       -3    1    3    3    0  502  0.58971788768E+03 -0.38981292301E+03  0.10799715984E+04  0.12907594530E+04  0.10100000352E+00 0. -1.
</event>
<event>
 5   0  0.4058874E-04  0.1506441E+04  0.7818609E-02  0.8880181E-01
        1   -1    0    0  501    0  0.00000000000E+00  0.00000000000E+00  0.75269850961E+03  0.75269850963E+03  0.50400001928E-02 0.  1.
       -1   -1    0    0    0  501  0.00000000000E+00  0.00000000000E+00 -0.75374252881E+03  0.75374252882E+03  0.50400001928E-02 0. -1.
    10030    2    1    2    0    0  0.00000000000E+00  0.00000000000E+00 -0.10440191971E+01  0.15064410385E+04  0.15064406767E+04 0.  0.
        4    1    3    3  502    0  0.18894961574E+03  0.53230157831E+03  0.49776752158E+03  0.75287518620E+03  0.12699999809E+01 0.  1.
       -4    1    3    3    0  502 -0.18894961574E+03 -0.53230157831E+03 -0.49881154078E+03  0.75356585225E+03  0.12699999809E+01 0. -1.
</event>
<event>
 5   0  0.3907345E-04  0.1499264E+04  0.7818609E-02  0.8884943E-01
       -1   -1    0    0    0  501  0.00000000000E+00  0.00000000000E+00  0.27268395032E+03  0.27268395037E+03  0.50400001928E-02 0. -1.
        1   -1    0    0  501    0  0.00000000000E+00  0.00000000000E+00 -0.20608035797E+04  0.20608035797E+04  0.50400001928E-02 0.  1.
    10030    2    1    2    0    0  0.00000000000E+00  0.00000000000E+00 -0.17881196294E+04  0.23334875301E+04  0.14992639007E+04 0.  0.
        5    1    3    3  502    0 -0.31883196440E+03  0.26870843916E+03  0.75514884155E+02  0.42377191333E+03  0.46999998093E+01 0. -1.
       -5    1    3    3    0  502  0.31883196440E+03 -0.26870843916E+03 -0.18636345136E+04  0.19097156168E+04  0.46999998093E+01 0.  1.
</event>
<event>
 5   0  0.7547580E-04  0.1508929E+04  0.7818609E-02  0.8878537E-01
        2   -1    0    0  501    0  0.00000000000E+00  0.00000000000E+00  0.60640477850E+03  0.60640477851E+03  0.25500000920E-02 0.  1.
       -2   -1    0    0    0  501  0.00000000000E+00  0.00000000000E+00 -0.93867418795E+03  0.93867418796E+03  0.25500000920E-02 0. -1.
    10030    2    1    2    0    0  0.00000000000E+00  0.00000000000E+00 -0.33226940945E+03  0.15450789665E+04  0.15089287764E+04 0.  0.
        4    1    3    3  502    0  0.84748694188E+02  0.65414598069E+03  0.20887090995E+03  0.69189448266E+03  0.12699999809E+01 0.  1.
       -4    1    3    3    0  502 -0.84748694188E+02 -0.65414598069E+03 -0.54114031940E+03  0.85318448380E+03  0.12699999809E+01 0. -1.
</event>
<event>
 5   0  0.7547580E-04  0.1498798E+04  0.7818609E-02  0.8885253E-01
        2   -1    0    0  501    0  0.00000000000E+00  0.00000000000E+00  0.18864700724E+04  0.18864700724E+04  0.25500000920E-02 0.  1.
       -2   -1    0    0    0  501  0.00000000000E+00  0.00000000000E+00 -0.29769820864E+03  0.29769820866E+03  0.25500000920E-02 0. -1.
    10030    2    1    2    0    0  0.00000000000E+00  0.00000000000E+00  0.15887718638E+04  0.21841682811E+04  0.14987978666E+04 0.  0.
        4    1    3    3  502    0  0.20751041906E+03  0.34555547173E+03  0.17150456088E+04  0.17617753010E+04  0.12699999809E+01 0.  1.
       -4    1    3    3    0  502 -0.20751041906E+03 -0.34555547173E+03 -0.12627374500E+03  0.42239298010E+03  0.12699999809E+01 0. -1.
</event>
<event>
 5   0  0.7454828E-04  0.1502734E+04  0.7818609E-02  0.8882637E-01
       -2   -1    0    0    0  501  0.00000000000E+00  0.00000000000E+00  0.19837693039E+03  0.19837693040E+03  0.25500000920E-02 0.  1.
        2   -1    0    0  501    0  0.00000000000E+00  0.00000000000E+00 -0.28458569847E+04  0.28458569847E+04  0.25500000920E-02 0. -1.
    10030    2    1    2    0    0  0.00000000000E+00  0.00000000000E+00 -0.26474800543E+04  0.30442339151E+04  0.15027340057E+04 0.  0.
        3    1    3    3  502    0 -0.43255461465E+03 -0.51551601822E+03 -0.64671123257E+03  0.93332507104E+03  0.10100000352E+00 0.  1.
       -3    1    3    3    0  502  0.43255461465E+03  0.51551601822E+03 -0.20007688217E+04  0.21109088440E+04  0.10100000352E+00 0. -1.
</event>
<event>
 5   0  0.4084462E-04  0.1520875E+04  0.7818609E-02  0.8870689E-01
       -1   -1    0    0    0  501  0.00000000000E+00  0.00000000000E+00  0.97773602936E+03  0.97773602938E+03  0.50400001928E-02 0. -1.
        1   -1    0    0  501    0  0.00000000000E+00  0.00000000000E+00 -0.59143285589E+03  0.59143285591E+03  0.50400001928E-02 0.  1.
    10030    2    1    2    0    0  0.00000000000E+00  0.00000000000E+00  0.38630317347E+03  0.15691688853E+04  0.15208750273E+04 0.  0.
        1    1    3    3  502    0 -0.59155457175E+02  0.72746161518E+03  0.41339044917E+03  0.83880357245E+03  0.50400001928E-02 0.  1.
       -1    1    3    3    0  502  0.59155457175E+02 -0.72746161518E+03 -0.27087275693E+02  0.73036531284E+03  0.50400001928E-02 0. -1.
</event>
<event>
 5   0  0.7547580E-04  0.1495461E+04  0.7818609E-02  0.8887477E-01
       -2   -1    0    0    0  501  0.00000000000E+00  0.00000000000E+00  0.48795627660E+03  0.48795627661E+03  0.25500000920E-02 0.  1.
        2   -1    0    0  501    0  0.00000000000E+00  0.00000000000E+00 -0.11458017054E+04  0.11458017054E+04  0.25500000920E-02 0. -1.
    10030    2    1    2    0    0  0.00000000000E+00  0.00000000000E+00 -0.65784542883E+03  0.16337579820E+04  0.14954613120E+04 0.  0.
        4    1    3    3  502    0  0.45926966986E+03 -0.58016563283E+03 -0.44647822736E+03  0.86421363769E+03  0.12699999809E+01 0.  1.
       -4    1    3    3    0  502 -0.45926966986E+03  0.58016563283E+03 -0.21136720147E+03  0.76954434435E+03  0.12699999809E+01 0. -1.
</event>
<event>
 5   0  0.4058874E-04  0.1501654E+04  0.7818609E-02  0.8883354E-01
       -1   -1    0    0    0  501  0.00000000000E+00  0.00000000000E+00  0.14050055824E+04  0.14050055825E+04  0.50400001928E-02 0. -1.
        1   -1    0    0  501    0  0.00000000000E+00  0.00000000000E+00 -0.40123779023E+03  0.40123779026E+03  0.50400001928E-02 0.  1.
    10030    2    1    2    0    0  0.00000000000E+00  0.00000000000E+00  0.10037677922E+04  0.18062433727E+04  0.15016542015E+04 0.  0.
        4    1    3    3  502    0 -0.22033300423E+03 -0.69286086932E+03  0.72735354329E+03  0.10284199564E+04  0.12699999809E+01 0. -1.
       -4    1    3    3    0  502  0.22033300423E+03  0.69286086932E+03  0.27641424893E+03  0.77782341627E+03  0.12699999809E+01 0.  1.
</event>
<event>
 5   0  0.7359897E-04  0.1496326E+04  0.7818609E-02  0.8886900E-01
       -2   -1    0    0    0  501  0.00000000000E+00  0.00000000000E+00  0.61782032051E+03  0.61782032051E+03  0.25500000920E-02 0. -1.
        2   -1    0    0  501    0  0.00000000000E+00  0.00000000000E+00 -0.90600421082E+03  0.90600421082E+03  0.25500000920E-02 0.  1.
    10030    2    1    2    0    0  0.00000000000E+00  0.00000000000E+00 -0.28818389031E+03  0.15238245313E+04  0.14963259163E+04 0.  0.
        1    1    3    3  502    0 -0.14769580224E+03  0.32506017320E+03 -0.81364675299E+03  0.88853767780E+03  0.50400001928E-02 0.  1.
       -1    1    3    3    0  502  0.14769580224E+03 -0.32506017320E+03  0.52546286267E+03  0.63528685353E+03  0.50400001928E-02 0. -1.
</event>
<event>
 5   0  0.7672251E-04  0.1500476E+04  0.7818609E-02  0.8884137E-01
       -2   -1    0    0    0  501  0.00000000000E+00  0.00000000000E+00  0.34451307944E+03  0.34451307945E+03  0.25500000920E-02 0.  1.
        2   -1    0    0  501    0  0.00000000000E+00  0.00000000000E+00 -0.16337753590E+04  0.16337753590E+04  0.25500000920E-02 0. -1.
    10030    2    1    2    0    0  0.00000000000E+00  0.00000000000E+00 -0.12892622795E+04  0.19782884384E+04  0.15004758979E+04 0.  0.
        5    1    3    3  502    0  0.32856582717E+03 -0.16966942698E+03  0.21599020391E+03  0.42827219782E+03  0.46999998093E+01 0.  1.
       -5    1    3    3    0  502 -0.32856582717E+03  0.16966942698E+03 -0.15052524834E+04  0.15500162406E+04  0.46999998093E+01 0. -1.
</event>
<event>
 5   0  0.4084462E-04  0.1495583E+04  0.7818609E-02  0.8887396E-01
        1   -1    0    0  501    0  0.00000000000E+00  0.00000000000E+00  0.18651073317E+04  0.18651073317E+04  0.50400001928E-02 0. -1.
       -1   -1    0    0    0  501  0.00000000000E+00  0.00000000000E+00 -0.29981748499E+03  0.29981748504E+03  0.50400001928E-02 0.  1.
    10030    2    1    2    0    0  0.00000000000E+00  0.00000000000E+00  0.15652898467E+04  0.21649248168E+04  0.14955825480E+04 0.  0.
        1    1    3    3  502    0 -0.33241093166E+03 -0.66967280783E+03  0.80474513935E+03  0.10984413668E+04  0.50400001928E-02 0. -1.
       -1    1    3    3    0  502  0.33241093166E+03  0.66967280783E+03  0.76054470737E+03  0.10664834499E+04  0.50400001928E-02 0.  1.
</event>
<event>
 5   0  0.4084462E-04  0.1505173E+04  0.7818609E-02  0.8881020E-01
       -1   -1    0    0    0  501  0.00000000000E+00  0.00000000000E+00  0.51119871857E+03  0.51119871860E+03  0.50400001928E-02 0. -1.
        1   -1    0    0  501    0  0.00000000000E+00  0.00000000000E+00 -0.11079570059E+04  0.11079570059E+04  0.50400001928E-02 0.  1.
    10030    2    1    2    0    0  0.00000000000E+00  0.00000000000E+00 -0.59675828730E+03  0.16191557245E+04  0.15051726833E+04 0.  0.
        1    1    3    3  502    0  0.16671862399E+03 -0.57354187586E+03  0.19415939241E+03  0.62804717389E+03  0.50400001928E-02 0. -1.
       -1    1    3    3    0  502 -0.16671862399E+03  0.57354187586E+03 -0.79091767972E+03  0.99110855059E+03  0.50400001928E-02 0.  1.
</event>
<event>
 5   0  0.4058874E-04  0.1485967E+04  0.7818609E-02  0.8893839E-01
       -1   -1    0    0    0  501  0.00000000000E+00  0.00000000000E+00  0.29937977661E+03  0.29937977665E+03  0.50400001928E-02 0.  1.
        1   -1    0    0  501    0  0.00000000000E+00  0.00000000000E+00 -0.18438925072E+04  0.18438925072E+04  0.50400001928E-02 0. -1.
    10030    2    1    2    0    0  0.00000000000E+00  0.00000000000E+00 -0.15445127306E+04  0.21432722838E+04  0.14859665231E+04 0.  0.
        4    1    3    3  502    0 -0.33543824351E+03 -0.23691143860E+03 -0.16653174437E+04  0.17152054239E+04  0.12699999809E+01 0. -1.
       -4    1    3    3    0  502  0.33543824351E+03  0.23691143860E+03  0.12080471315E+03  0.42806685992E+03  0.12699999809E+01 0.  1.
</event>
<event>
 5   0  0.7547580E-04  0.1492375E+04  0.7818609E-02  0.8889539E-01
        2   -1    0    0  501    0  0.00000000000E+00  0.00000000000E+00  0.20909298319E+04  0.20909298319E+04  0.25500000920E-02 0. -1.
       -2   -1    0    0    0  501  0.00000000000E+00  0.00000000000E+00 -0.26629117092E+03  0.26629117094E+03  0.25500000920E-02 0.  1.
    10030    2    1    2    0    0  0.00000000000E+00  0.00000000000E+00  0.18246386610E+04  0.23572210028E+04  0.14923754933E+04 0.  0.
        4    1    3    3  502    0 -0.53987845462E+03 -0.11811348040E+03  0.12039582194E+03  0.56561144512E+03  0.12699999809E+01 0.  1.
       -4    1    3    3    0  502  0.53987845462E+03  0.11811348040E+03  0.17042428390E+04  0.17916095577E+04  0.12699999809E+01 0. -1.
</event>
<event>
 5   0  0.4084462E-04  0.1467690E+04  0.7818609E-02  0.8906227E-01
        1   -1    0    0  501    0  0.00000000000E+00  0.00000000000E+00  0.73963536347E+03  0.73963536349E+03  0.50400001928E-02 0. -1.
       -1   -1    0    0    0  501  0.00000000000E+00  0.00000000000E+00 -0.72810010199E+03  0.72810010200E+03  0.50400001928E-02 0.  1.
    10030    2    1    2    0    0  0.00000000000E+00  0.00000000000E+00  0.11535261483E+02  0.14677354655E+04  0.14676901357E+04 0.  0.
        1    1    3    3  502    0  0.69190729659E+03 -0.79714587515E+02  0.23694237415E+03  0.73568458679E+03  0.50400001928E-02 0. -1.
       -1    1    3    3    0  502 -0.69190729659E+03  0.79714587515E+02 -0.22540711267E+03  0.73205087870E+03  0.50400001928E-02 0.  1.
</event>
<event>
 5   0  0.7359897E-04  0.1492598E+04  0.7818609E-02  0.8889390E-01
       -2   -1    0    0    0  501  0.00000000000E+00  0.00000000000E+00  0.34673834465E+03  0.34673834466E+03  0.25500000920E-02 0.  1.
        2   -1    0    0  501    0  0.00000000000E+00  0.00000000000E+00 -0.16062888017E+04  0.16062888017E+04  0.25500000920E-02 0. -1.
    10030    2    1    2    0    0  0.00000000000E+00  0.00000000000E+00 -0.12595504571E+04  0.19530271464E+04  0.14925976285E+04 0.  0.
        1    1    3    3  502    0 -0.55057328245E+02 -0.74426473548E+03 -0.63080073911E+03  0.97717494767E+03  0.50400001928E-02 0.  1.
       -1    1    3    3    0  502  0.55057328245E+02  0.74426473548E+03 -0.62874971796E+03  0.97585219871E+03  0.50400001928E-02 0. -1.
</event>
<event>
 5   0  0.2800375E-04  0.1480775E+04  0.7818609E-02  0.8897339E-01
        3   -1    0    0  501    0  0.00000000000E+00  0.00000000000E+00  0.39711100470E+03  0.39711101754E+03  0.10100000352E+00 0.  1.
       -3   -1    0    0    0  501  0.00000000000E+00  0.00000000000E+00 -0.13804039496E+04  0.13804039533E+04  0.10100000352E+00 0. -1.
    10030    2    1    2    0    0  0.00000000000E+00  0.00000000000E+00 -0.98329294487E+03  0.17775149708E+04  0.14807749512E+04 0.  0.
        1    1    3    3  502    0 -0.45528032000E+02  0.22786231296E+02 -0.13783002433E+04  0.13792402165E+04  0.50400001928E-02 0. -1.
       -1    1    3    3    0  502  0.45528032000E+02 -0.22786231296E+02  0.39500729847E+03  0.39827475429E+03  0.50400001928E-02 0.  1.
</event>
<event>
 5   0  0.3907345E-04  0.1463809E+04  0.7818609E-02  0.8908883E-01
        1   -1    0    0  501    0  0.00000000000E+00  0.00000000000E+00  0.28021795949E+04  0.28021795949E+04  0.50400001928E-02 0.  1.
       -1   -1    0    0    0  501  0.00000000000E+00  0.00000000000E+00 -0.19116685666E+03  0.19116685673E+03  0.50400001928E-02 0. -1.
    10030    2    1    2    0    0  0.00000000000E+00  0.00000000000E+00  0.26110127382E+04  0.29933464516E+04  0.14638085463E+04 0.  0.
        5    1    3    3  502    0  0.17305111507E+03  0.20082409239E+03  0.27005210896E+04  0.27135057122E+04  0.46999998093E+01 0.  1.
       -5    1    3    3    0  502 -0.17305111507E+03 -0.20082409239E+03 -0.89508351361E+02  0.27984073948E+03  0.46999998093E+01 0. -1.
</event>
<event>
 5   0  0.7454828E-04  0.1480689E+04  0.7818609E-02  0.8897397E-01
        2   -1    0    0  501    0  0.00000000000E+00  0.00000000000E+00  0.76977042279E+03  0.76977042280E+03  0.25500000920E-02 0.  1.
       -2   -1    0    0    0  501  0.00000000000E+00  0.00000000000E+00 -0.71204359552E+03  0.71204359552E+03  0.25500000920E-02 0. -1.
    10030    2    1    2    0    0  0.00000000000E+00  0.00000000000E+00  0.57726827272E+02  0.14818140183E+04  0.14806891633E+04 0.  0.
        3    1    3    3  502    0  0.72119084129E+02  0.63762713432E+03  0.39838715399E+03  0.75530249528E+03  0.10100000352E+00 0.  1.
       -3    1    3    3    0  502 -0.72119084129E+02 -0.63762713432E+03 -0.34066032672E+03  0.72651152304E+03  0.10100000352E+00 0. -1.
</event>
<event>
 5   0  0.4084462E-04  0.1494239E+04  0.7818609E-02  0.8888293E-01
        1   -1    0    0  501    0  0.00000000000E+00  0.00000000000E+00  0.20410312181E+04  0.20410312181E+04  0.50400001928E-02 0.  1.
       -1   -1    0    0    0  501  0.00000000000E+00  0.00000000000E+00 -0.27348328140E+03  0.27348328144E+03  0.50400001928E-02 0. -1.
    10030    2    1    2    0    0  0.00000000000E+00  0.00000000000E+00  0.17675479367E+04  0.23145144995E+04  0.14942394922E+04 0.  0.
        1    1    3    3  502    0 -0.33619828351E+03 -0.11708253390E+03  0.19012052536E+04  0.19342489555E+04  0.50400001928E-02 0.  1.
       -1    1    3    3    0  502  0.33619828351E+03  0.11708253390E+03 -0.13365731691E+03  0.38026554402E+03  0.50400001928E-02 0. -1.
</event>
<event>
 5   0  0.3907345E-04  0.1486879E+04  0.7818609E-02  0.8893225E-01
       -1   -1    0    0    0  501  0.00000000000E+00  0.00000000000E+00  0.32265089399E+03  0.32265089403E+03  0.50400001928E-02 0.  1.
        1   -1    0    0  501    0  0.00000000000E+00  0.00000000000E+00 -0.17130038774E+04  0.17130038774E+04  0.50400001928E-02 0. -1.
    10030    2    1    2    0    0  0.00000000000E+00  0.00000000000E+00 -0.13903529834E+04  0.20356547714E+04  0.14868789224E+04 0.  0.
        5    1    3    3  502    0  0.38436332542E+03  0.55872222120E+03 -0.27817008157E+03  0.73301184893E+03  0.46999998093E+01 0.  1.
       -5    1    3    3    0  502 -0.38436332542E+03 -0.55872222120E+03 -0.11121829019E+04  0.13026429225E+04  0.46999998093E+01 0. -1.
</event>
<event>
 5   0  0.7672251E-04  0.1503062E+04  0.7818609E-02  0.8882419E-01
        2   -1    0    0  501    0  0.00000000000E+00  0.00000000000E+00  0.11522002416E+04  0.11522002416E+04  0.25500000920E-02 0.  1.
       -2   -1    0    0    0  501  0.00000000000E+00  0.00000000000E+00 -0.49019135855E+03  0.49019135856E+03  0.25500000920E-02 0. -1.
    10030    2    1    2    0    0  0.00000000000E+00  0.00000000000E+00  0.66200888302E+03  0.16423916001E+04  0.15030616777E+04 0.  0.
        5    1    3    3  502    0 -0.60670000144E+02 -0.34532591803E+03  0.10573365051E+04  0.11139629319E+04  0.46999998093E+01 0.  1.
       -5    1    3    3    0  502  0.60670000144E+02  0.34532591803E+03 -0.39532762212E+03  0.52842866822E+03  0.46999998093E+01 0. -1.
</event>
<event>
 5   0  0.4084462E-04  0.1475259E+04  0.7818609E-02  0.8901074E-01
        1   -1    0    0  501    0  0.00000000000E+00  0.00000000000E+00  0.16398627002E+04  0.16398627002E+04  0.50400001928E-02 0. -1.
       -1   -1    0    0    0  501  0.00000000000E+00  0.00000000000E+00 -0.33179433979E+03  0.33179433983E+03  0.50400001928E-02 0.  1.
    10030    2    1    2    0    0  0.00000000000E+00  0.00000000000E+00  0.13080683604E+04  0.19716570400E+04  0.14752588410E+04 0.  0.
        1    1    3    3  502    0  0.22759131465E+03  0.36589835796E+03  0.14541592916E+04  0.15166603642E+04  0.50400001928E-02 0. -1.
       -1    1    3    3    0  502 -0.22759131465E+03 -0.36589835796E+03 -0.14609093118E+03  0.45499667588E+03  0.50400001928E-02 0.  1.
</event>
<event>
 5   0  0.3907345E-04  0.1490335E+04  0.7818609E-02  0.8890905E-01
       -1   -1    0    0    0  501  0.00000000000E+00  0.00000000000E+00  0.67784223675E+03  0.67784223677E+03  0.50400001928E-02 0. -1.
        1   -1    0    0  501    0  0.00000000000E+00  0.00000000000E+00 -0.81918000624E+03  0.81918000626E+03  0.50400001928E-02 0.  1.
    10030    2    1    2    0    0  0.00000000000E+00  0.00000000000E+00 -0.14133776949E+03  0.14970222430E+04  0.14903352747E+04 0.  0.
        5    1    3    3  502    0 -0.16268274070E+03  0.66966248091E+03 -0.35538237026E+03  0.77539166332E+03  0.46999998093E+01 0.  1.
       -5    1    3    3    0  502  0.16268274070E+03 -0.66966248091E+03  0.21404460077E+03  0.72163057971E+03  0.46999998093E+01 0. -1.
</event>
<event>
 5   0  0.4086710E-04  0.1494401E+04  0.7818609E-02  0.8888184E-01
        1   -1    0    0  501    0  0.00000000000E+00  0.00000000000E+00  0.72601633644E+03  0.72601633646E+03  0.50400001928E-02 0. -1.
       -1   -1    0    0    0  501  0.00000000000E+00  0.00000000000E+00 -0.76900320649E+03  0.76900320650E+03  0.50400001928E-02 0.  1.
    10030    2    1    2    0    0  0.00000000000E+00  0.00000000000E+00 -0.42986870043E+02  0.14950195430E+04  0.14944014062E+04 0.  0.
        3    1    3    3  502    0 -0.13248837225E+03  0.65071680502E+03 -0.36416007998E+03  0.75736259689E+03  0.10100000352E+00 0.  1.
       -3    1    3    3    0  502  0.13248837225E+03 -0.65071680502E+03  0.32117320993E+03  0.73765694608E+03  0.10100000352E+00 0. -1.
</event>
<event>
 5   0  0.7547580E-04  0.1500270E+04  0.7818609E-02  0.8884273E-01
        2   -1    0    0  501    0  0.00000000000E+00  0.00000000000E+00  0.52651093763E+03  0.52651093763E+03  0.25500000920E-02 0.  1.
       -2   -1    0    0    0  501  0.00000000000E+00  0.00000000000E+00 -0.10687384314E+04  0.10687384314E+04  0.25500000920E-02 0. -1.
    10030    2    1    2    0    0  0.00000000000E+00  0.00000000000E+00 -0.54222749377E+03  0.15952493690E+04  0.15002699405E+04 0.  0.
        4    1    3    3  502    0  0.16427727425E+03 -0.19656049820E+02 -0.10490946588E+04  0.10620614856E+04  0.12699999809E+01 0. -1.
       -4    1    3    3    0  502 -0.16427727425E+03  0.19656049820E+02  0.50686716505E+03  0.53318788343E+03  0.12699999809E+01 0.  1.
</event>
<event>
 5   0  0.4015204E-04  0.1496912E+04  0.7818609E-02  0.8886509E-01
        1   -1    0    0  501    0  0.00000000000E+00  0.00000000000E+00  0.99492041388E+03  0.99492041390E+03  0.50400001928E-02 0.  1.
       -1   -1    0    0    0  501  0.00000000000E+00  0.00000000000E+00 -0.56304629147E+03  0.56304629150E+03  0.50400001928E-02 0. -1.
    10030    2    1    2    0    0  0.00000000000E+00  0.00000000000E+00  0.43187412241E+03  0.15579667054E+04  0.14969118202E+04 0.  0.
        2    1    3    3  502    0 -0.27036293950E+03 -0.67924075389E+03  0.49014358888E+02  0.73271176337E+03  0.25500000920E-02 0. -1.
       -2    1    3    3    0  502  0.27036293950E+03  0.67924075389E+03  0.38285976352E+03  0.82525494202E+03  0.25500000920E-02 0.  1.
</event>
<event>
 5   0  0.2800375E-04  0.1512500E+04  0.7818609E-02  0.8876183E-01
       -3   -1    0    0    0  501  0.00000000000E+00  0.00000000000E+00  0.35926623043E+03  0.35926624463E+03  0.10100000352E+00 0. -1.
        3   -1    0    0  501    0  0.00000000000E+00  0.00000000000E+00 -0.15918951250E+04  0.15918951282E+04  0.10100000352E+00 0.  1.
    10030    2    1    2    0    0  0.00000000000E+00  0.00000000000E+00 -0.12326288946E+04  0.19511613728E+04  0.15125001524E+04 0.  0.
        4    1    3    3  502    0 -0.35307552506E+03 -0.66335477524E+03 -0.72585776586E+03  0.10447837065E+04  0.12699999809E+01 0.  1.
       -4    1    3    3    0  502  0.35307552506E+03  0.66335477524E+03 -0.50677112871E+03  0.90637766633E+03  0.12699999809E+01 0. -1.
</event>
<event>
 5   0  0.7359897E-04  0.1492712E+04  0.7818609E-02  0.8889314E-01
        2   -1    0    0  501    0  0.00000000000E+00  0.00000000000E+00  0.55737087937E+03  0.55737087938E+03  0.25500000920E-02 0.  1.
       -2   -1    0    0    0  501  0.00000000000E+00  0.00000000000E+00 -0.99941934726E+03  0.99941934726E+03  0.25500000920E-02 0. -1.
    10030    2    1    2    0    0  0.00000000000E+00  0.00000000000E+00 -0.44204846789E+03  0.15567902266E+04  0.14927119487E+04 0.  0.
        1    1    3    3  502    0 -0.54313203964E+03  0.45057494609E+02  0.31079170286E+03  0.62738670124E+03  0.50400001928E-02 0.  1.
       -1    1    3    3    0  502  0.54313203964E+03 -0.45057494609E+02 -0.75284017075E+03  0.92940352540E+03  0.50400001928E-02 0. -1.
</event>
<event>
 5   0  0.7547580E-04  0.1491465E+04  0.7818609E-02  0.8890149E-01
        2   -1    0    0  501    0  0.00000000000E+00  0.00000000000E+00  0.77825804510E+03  0.77825804510E+03  0.25500000920E-02 0. -1.
       -2   -1    0    0    0  501  0.00000000000E+00  0.00000000000E+00 -0.71456607090E+03  0.71456607090E+03  0.25500000920E-02 0.  1.
    10030    2    1    2    0    0  0.00000000000E+00  0.00000000000E+00  0.63691974202E+02  0.14928241160E+04  0.14914647746E+04 0.  0.
        4    1    3    3  502    0 -0.29360855895E+03  0.62507663282E+03  0.31350679430E+03  0.75842923583E+03  0.12699999809E+01 0. -1.
       -4    1    3    3    0  502  0.29360855895E+03 -0.62507663282E+03 -0.24981482010E+03  0.73439488017E+03  0.12699999809E+01 0.  1.
</event>
<event>
 5   0  0.7547580E-04  0.1497436E+04  0.7818609E-02  0.8886160E-01
        2   -1    0    0  501    0  0.00000000000E+00  0.00000000000E+00  0.20660694979E+04  0.20660694979E+04  0.25500000920E-02 0.  1.
       -2   -1    0    0    0  501  0.00000000000E+00  0.00000000000E+00 -0.27132609859E+03  0.27132609860E+03  0.25500000920E-02 0. -1.
    10030    2    1    2    0    0  0.00000000000E+00  0.00000000000E+00  0.17947433993E+04  0.23373955965E+04  0.14974359102E+04 0.  0.
        4    1    3    3  502    0  0.23826001882E+03 -0.57652262161E+03  0.25108027198E+03  0.67245006184E+03  0.12699999809E+01 0. -1.
       -4    1    3    3    0  502 -0.23826001882E+03  0.57652262161E+03  0.15436631273E+04  0.16649455347E+04  0.12699999809E+01 0.  1.
</event>
<event>
 5   0  0.7547580E-04  0.1501887E+04  0.7818609E-02  0.8883199E-01
       -2   -1    0    0    0  501  0.00000000000E+00  0.00000000000E+00  0.34757434825E+03  0.34757434826E+03  0.25500000920E-02 0. -1.
        2   -1    0    0  501    0  0.00000000000E+00  0.00000000000E+00 -0.16224332084E+04  0.16224332084E+04  0.25500000920E-02 0.  1.
    10030    2    1    2    0    0  0.00000000000E+00  0.00000000000E+00 -0.12748588602E+04  0.19700075567E+04  0.15018870330E+04 0.  0.
        4    1    3    3  502    0  0.68758623173E+03  0.53216761064E+02 -0.24764012671E+03  0.73275786927E+03  0.12699999809E+01 0. -1.
       -4    1    3    3    0  502 -0.68758623173E+03 -0.53216761064E+02 -0.10272187334E+04  0.12372496874E+04  0.12699999809E+01 0.  1.
</event>
<event>
 5   0  0.7454828E-04  0.1515807E+04  0.7818609E-02  0.8874009E-01
        2   -1    0    0  501    0  0.00000000000E+00  0.00000000000E+00  0.11922516982E+04  0.11922516982E+04  0.25500000920E-02 0. -1.
       -2   -1    0    0    0  501  0.00000000000E+00  0.00000000000E+00 -0.48179242040E+03  0.48179242041E+03  0.25500000920E-02 0.  1.
    10030    2    1    2    0    0  0.00000000000E+00  0.00000000000E+00  0.71045927782E+03  0.16740441186E+04  0.15158071532E+04 0.  0.
        3    1    3    3  502    0 -0.67127381887E+02 -0.37638557958E+03  0.10779485483E+04  0.11437417860E+04  0.10100000352E+00 0. -1.
       -3    1    3    3    0  502  0.67127381887E+02  0.37638557958E+03 -0.36748927050E+03  0.53030233268E+03  0.10100000352E+00 0.  1.
</event>
<event>
 5   0  0.4086710E-04  0.1503923E+04  0.7818609E-02  0.8881848E-01
        1   -1    0    0  501    0  0.00000000000E+00  0.00000000000E+00  0.10453852209E+04  0.10453852209E+04  0.50400001928E-02 0. -1.
       -1   -1    0    0    0  501  0.00000000000E+00  0.00000000000E+00 -0.54089737513E+03  0.54089737515E+03  0.50400001928E-02 0.  1.
    10030    2    1    2    0    0  0.00000000000E+00  0.00000000000E+00  0.50448784573E+03  0.15862825960E+04  0.15039230326E+04 0.  0.
        3    1    3    3  502    0  0.25560752231E+03  0.35899675343E+03  0.89489877395E+03  0.99752578926E+03  0.10100000352E+00 0. -1.
       -3    1    3    3    0  502 -0.25560752231E+03 -0.35899675343E+03 -0.39041092822E+03  0.58875680676E+03  0.10100000352E+00 0.  1.
</event>
<event>
 5   0  0.4058874E-04  0.1483387E+04  0.7818609E-02  0.8895576E-01
       -1   -1    0    0    0  501  0.00000000000E+00  0.00000000000E+00  0.77307720231E+03  0.77307720233E+03  0.50400001928E-02 0.  1.
        1   -1    0    0  501    0  0.00000000000E+00  0.00000000000E+00 -0.71158346936E+03  0.71158346938E+03  0.50400001928E-02 0. -1.
    10030    2    1    2    0    0  0.00000000000E+00  0.00000000000E+00  0.61493732949E+02  0.14846606717E+04  0.14833866087E+04 0.  0.
        4    1    3    3  502    0  0.26008163740E+03  0.57159552183E+03  0.42572926279E+03  0.75869026406E+03  0.12699999809E+01 0. -1.
       -4    1    3    3    0  502 -0.26008163740E+03 -0.57159552183E+03 -0.36423552984E+03  0.72597040765E+03  0.12699999809E+01 0.  1.
</event>
<event>
 5   0  0.7454828E-04  0.1506662E+04  0.7818609E-02  0.8880035E-01
        2   -1    0    0  501    0  0.00000000000E+00  0.00000000000E+00  0.83246755679E+03  0.83246755679E+03  0.25500000920E-02 0. -1.
       -2   -1    0    0    0  501  0.00000000000E+00  0.00000000000E+00 -0.68171696531E+03  0.68171696532E+03  0.25500000920E-02 0.  1.
    10030    2    1    2    0    0  0.00000000000E+00  0.00000000000E+00  0.15075059148E+03  0.15141845221E+04  0.15066615500E+04 0.  0.
        3    1    3    3  502    0  0.40639979296E+03 -0.15411946057E+03 -0.54299662114E+03  0.69552781441E+03  0.10100000352E+00 0.  1.
       -3    1    3    3    0  502 -0.40639979296E+03  0.15411946057E+03  0.69374721261E+03  0.81865670770E+03  0.10100000352E+00 0. -1.
</event>
<event>
 5   0  0.7634227E-04  0.1501175E+04  0.7818609E-02  0.8883672E-01
       -2   -1    0    0    0  501  0.00000000000E+00  0.00000000000E+00  0.43421553671E+03  0.43421553672E+03  0.25500000920E-02 0.  1.
        2   -1    0    0  501    0  0.00000000000E+00  0.00000000000E+00 -0.12974701157E+04  0.12974701157E+04  0.25500000920E-02 0. -1.
    10030    2    1    2    0    0  0.00000000000E+00  0.00000000000E+00 -0.86325457901E+03  0.17316856524E+04  0.15011751166E+04 0.  0.
        2    1    3    3  502    0 -0.33486180422E+03  0.24863874572E+03 -0.11514926979E+04  0.12246995905E+04  0.25500000920E-02 0. -1.
       -2    1    3    3    0  502  0.33486180422E+03 -0.24863874572E+03  0.28823811886E+03  0.50698606191E+03  0.25500000920E-02 0.  1.
</event>
<event>
 5   0  0.4084462E-04  0.1527885E+04  0.7818609E-02  0.8866119E-01
        1   -1    0    0  501    0  0.00000000000E+00  0.00000000000E+00  0.11880531644E+04  0.11880531644E+04  0.50400001928E-02 0.  1.
       -1   -1    0    0    0  501  0.00000000000E+00  0.00000000000E+00 -0.49123039606E+03  0.49123039608E+03  0.50400001928E-02 0. -1.
    10030    2    1    2    0    0  0.00000000000E+00  0.00000000000E+00  0.69682276830E+03  0.16792835605E+04  0.15278845853E+04 0.  0.
        1    1    3    3  502    0  0.29684952772E+03 -0.48836100727E+02  0.11202071758E+04  0.11599003076E+04  0.50400001928E-02 0.  1.
       -1    1    3    3    0  502 -0.29684952772E+03  0.48836100727E+02 -0.42338440748E+03  0.51938325287E+03  0.50400001928E-02 0. -1.
</event>
<event>
 5   0  0.7359897E-04  0.1494413E+04  0.7818609E-02  0.8888176E-01
       -2   -1    0    0    0  501  0.00000000000E+00  0.00000000000E+00  0.11674786177E+04  0.11674786177E+04  0.25500000920E-02 0. -1.
        2   -1    0    0  501    0  0.00000000000E+00  0.00000000000E+00 -0.47822529811E+03  0.47822529812E+03  0.25500000920E-02 0.  1.
    10030    2    1    2    0    0  0.00000000000E+00  0.00000000000E+00  0.68925331957E+03  0.16457039158E+04  0.14944133431E+04 0.  0.
        1    1    3    3  502    0  0.68751091375E+03 -0.23590993478E+03  0.15390881692E+03  0.74297555666E+03  0.50400001928E-02 0.  1.
       -1    1    3    3    0  502 -0.68751091375E+03  0.23590993478E+03  0.53534450265E+03  0.90272835914E+03  0.50400001928E-02 0. -1.
</event>
<event>
 5   0  0.4015204E-04  0.1505904E+04  0.7818609E-02  0.8880537E-01
        1   -1    0    0  501    0  0.00000000000E+00  0.00000000000E+00  0.18761981710E+04  0.18761981710E+04  0.50400001928E-02 0.  1.
       -1   -1    0    0    0  501  0.00000000000E+00  0.00000000000E+00 -0.30217296471E+03  0.30217296475E+03  0.50400001928E-02 0. -1.
    10030    2    1    2    0    0  0.00000000000E+00  0.00000000000E+00  0.15740252063E+04  0.21783711358E+04  0.15059035345E+04 0.  0.
        2    1    3    3  502    0  0.12075204114E+03  0.21759875279E+03  0.18149887310E+04  0.18319700779E+04  0.25500000920E-02 0.  1.
       -2    1    3    3    0  502 -0.12075204114E+03 -0.21759875279E+03 -0.24096352470E+03  0.34640105787E+03  0.25500000920E-02 0. -1.
</event>
<event>
 5   0  0.7672251E-04  0.1469240E+04  0.7818609E-02  0.8905169E-01
        2   -1    0    0  501    0  0.00000000000E+00  0.00000000000E+00  0.56296630826E+03  0.56296630827E+03  0.25500000920E-02 0. -1.
       -2   -1    0    0    0  501  0.00000000000E+00  0.00000000000E+00 -0.95861282162E+03  0.95861282162E+03  0.25500000920E-02 0.  1.
    10030    2    1    2    0    0  0.00000000000E+00  0.00000000000E+00 -0.39564651335E+03  0.15215791299E+04  0.14692402407E+04 0.  0.
        5    1    3    3  502    0  0.18324658416E+03 -0.67238774391E+03 -0.43839126332E+03  0.82334292887E+03  0.46999998093E+01 0.  1.
       -5    1    3    3    0  502 -0.18324658416E+03  0.67238774391E+03  0.42744749968E+02  0.69823620102E+03  0.46999998093E+01 0. -1.
</event>
<event>
 5   0  0.4015204E-04  0.1516052E+04  0.7818609E-02  0.8873848E-01
        1   -1    0    0  501    0  0.00000000000E+00  0.00000000000E+00  0.51472142530E+03  0.51472142533E+03  0.50400001928E-02 0. -1.
       -1   -1    0    0    0  501  0.00000000000E+00  0.00000000000E+00 -0.11163384787E+04  0.11163384788E+04  0.50400001928E-02 0.  1.
    10030    2    1    2    0    0  0.00000000000E+00  0.00000000000E+00 -0.60161705344E+03  0.16310599041E+04  0.15160518895E+04 0.  0.
        2    1    3    3  502    0  0.10511916162E+03  0.63264378919E+03 -0.73558802514E+03  0.97589853206E+03  0.25500000920E-02 0.  1.
       -2    1    3    3    0  502 -0.10511916162E+03 -0.63264378919E+03  0.13397097169E+03  0.65516137203E+03  0.25500000920E-02 0. -1.
</event>
<event>
 5   0  0.4086710E-04  0.1512853E+04  0.7818609E-02  0.8875951E-01
        1   -1    0    0  501    0  0.00000000000E+00  0.00000000000E+00  0.11859288026E+04  0.11859288026E+04  0.50400001928E-02 0. -1.
       -1   -1    0    0    0  501  0.00000000000E+00  0.00000000000E+00 -0.48247507320E+03  0.48247507323E+03  0.50400001928E-02 0.  1.
    10030    2    1    2    0    0  0.00000000000E+00  0.00000000000E+00  0.70345372940E+03  0.16684038758E+04  0.15128530476E+04 0.  0.
        3    1    3    3  502    0 -0.62015586775E+03 -0.35433450918E+03  0.77049895162E+02  0.71838912940E+03  0.10100000352E+00 0.  1.
       -3    1    3    3    0  502  0.62015586775E+03  0.35433450918E+03  0.62640383424E+03  0.95001474644E+03  0.10100000352E+00 0. -1.
</event>
<event>
 5   0  0.3907345E-04  0.1511897E+04  0.7818609E-02  0.8876580E-01
        1   -1    0    0  501    0  0.00000000000E+00  0.00000000000E+00  0.15246600997E+04  0.15246600997E+04  0.50400001928E-02 0.  1.
       -1   -1    0    0    0  501  0.00000000000E+00  0.00000000000E+00 -0.37481019486E+03  0.37481019489E+03  0.50400001928E-02 0. -1.
    10030    2    1    2    0    0  0.00000000000E+00  0.00000000000E+00  0.11498499048E+04  0.18994702946E+04  0.15118970191E+04 0.  0.
        5    1    3    3  502    0  0.23994943462E+03  0.71682574303E+03  0.56914273811E+03  0.94623486693E+03  0.46999998093E+01 0. -1.
       -5    1    3    3    0  502 -0.23994943462E+03 -0.71682574303E+03  0.58070716669E+03  0.95323542763E+03  0.46999998093E+01 0.  1.
</event>
<event>
 5   0  0.7359897E-04  0.1496576E+04  0.7818609E-02  0.8886733E-01
        2   -1    0    0  501    0  0.00000000000E+00  0.00000000000E+00  0.67002100380E+03  0.67002100380E+03  0.25500000920E-02 0.  1.
       -2   -1    0    0    0  501  0.00000000000E+00  0.00000000000E+00 -0.83569767628E+03  0.83569767629E+03  0.25500000920E-02 0. -1.
    10030    2    1    2    0    0  0.00000000000E+00  0.00000000000E+00 -0.16567667249E+03  0.15057186801E+04  0.14965760869E+04 0.  0.
        1    1    3    3  502    0 -0.10508240176E+03 -0.90765177043E+02 -0.82262226877E+03  0.83425896796E+03  0.50400001928E-02 0. -1.
       -1    1    3    3    0  502  0.10508240176E+03  0.90765177043E+02  0.65694559628E+03  0.67145971213E+03  0.50400001928E-02 0.  1.
</event>
<event>
 5   0  0.4086710E-04  0.1376954E+04  0.7818609E-02  0.8970672E-01
        1   -1    0    0  501    0  0.00000000000E+00  0.00000000000E+00  0.66123751594E+03  0.66123751596E+03  0.50400001928E-02 0. -1.
       -1   -1    0    0    0  501  0.00000000000E+00  0.00000000000E+00 -0.71683810248E+03  0.71683810250E+03  0.50400001928E-02 0.  1.
    10030    2    1    2    0    0  0.00000000000E+00  0.00000000000E+00 -0.55600586540E+02  0.13780756185E+04  0.13769535159E+04 0.  0.
        3    1    3    3  502    0  0.56589256610E+03  0.15656632735E+03  0.33201017245E+03  0.67452070097E+03  0.10100000352E+00 0. -1.
       -3    1    3    3    0  502 -0.56589256610E+03 -0.15656632735E+03 -0.38761075899E+03  0.70355491748E+03  0.10100000352E+00 0.  1.
</event>
<event>
 5   0  0.7634227E-04  0.1511679E+04  0.7818609E-02  0.8876724E-01
       -2   -1    0    0    0  501  0.00000000000E+00  0.00000000000E+00  0.71282967277E+03  0.71282967277E+03  0.25500000920E-02 0. -1.
        2   -1    0    0  501    0  0.00000000000E+00  0.00000000000E+00 -0.80144395306E+03  0.80144395306E+03  0.25500000920E-02 0.  1.
    10030    2    1    2    0    0  0.00000000000E+00  0.00000000000E+00 -0.88614280293E+02  0.15142736258E+04  0.15116785780E+04 0.  0.
        2    1    3    3  502    0 -0.34761463189E+03 -0.67055637499E+03 -0.72838423299E+02  0.75880644453E+03  0.25500000920E-02 0.  1.
       -2    1    3    3    0  502  0.34761463189E+03  0.67055637499E+03 -0.15775856995E+02  0.75546718130E+03  0.25500000920E-02 0. -1.
</event>
<event>
 5   0  0.4058874E-04  0.1534932E+04  0.7818609E-02  0.8861550E-01
        1   -1    0    0  501    0  0.00000000000E+00  0.00000000000E+00  0.79921039649E+03  0.79921039651E+03  0.50400001928E-02 0.  1.
       -1   -1    0    0    0  501  0.00000000000E+00  0.00000000000E+00 -0.73698272895E+03  0.73698272897E+03  0.50400001928E-02 0. -1.
    10030    2    1    2    0    0  0.00000000000E+00  0.00000000000E+00  0.62227667543E+02  0.15361931255E+04  0.15349322578E+04 0.  0.
        4    1    3    3  502    0  0.40560454132E+03  0.77128609683E+02  0.67859099800E+03  0.79432438074E+03  0.12699999809E+01 0.  1.
       -4    1    3    3    0  502 -0.40560454132E+03 -0.77128609683E+02 -0.61636333046E+03  0.74186874473E+03  0.12699999809E+01 0. -1.
</event>
<event>
 5   0  0.3907345E-04  0.1498115E+04  0.7818609E-02  0.8885707E-01
       -1   -1    0    0    0  501  0.00000000000E+00  0.00000000000E+00  0.76931640791E+03  0.76931640793E+03  0.50400001928E-02 0. -1.
        1   -1    0    0  501    0  0.00000000000E+00  0.00000000000E+00 -0.72933221624E+03  0.72933221626E+03  0.50400001928E-02 0.  1.
    10030    2    1    2    0    0  0.00000000000E+00  0.00000000000E+00  0.39984191664E+02  0.14986486242E+04  0.14981151368E+04 0.  0.
        5    1    3    3  502    0 -0.62236676759E+03 -0.46929346978E+01  0.43691711171E+03  0.76044794006E+03  0.46999998093E+01 0. -1.
       -5    1    3    3    0  502  0.62236676759E+03  0.46929346978E+01 -0.39693292005E+03  0.73820068413E+03  0.46999998093E+01 0.  1.
</event>
<event>
 5   0  0.7672251E-04  0.1500019E+04  0.7818609E-02  0.8884440E-01
        2   -1    0    0  501    0  0.00000000000E+00  0.00000000000E+00  0.12373943285E+04  0.12373943285E+04  0.25500000920E-02 0. -1.
       -2   -1    0    0    0  501  0.00000000000E+00  0.00000000000E+00 -0.45459570607E+03  0.45459570608E+03  0.25500000920E-02 0.  1.
    10030    2    1    2    0    0  0.00000000000E+00  0.00000000000E+00  0.78279862238E+03  0.16919900345E+04  0.15000188645E+04 0.  0.
        5    1    3    3  502    0  0.34647651682E+03 -0.32141857316E+03 -0.26548387190E+03  0.54208823278E+03  0.46999998093E+01 0.  1.
       -5    1    3    3    0  502 -0.34647651682E+03  0.32141857316E+03  0.10482824943E+04  0.11499018018E+04  0.46999998093E+01 0. -1.
</event>
<event>
 5   0  0.3907345E-04  0.1553315E+04  0.7818609E-02  0.8849753E-01
        1   -1    0    0  501    0  0.00000000000E+00  0.00000000000E+00  0.14314694007E+04  0.14314694008E+04  0.50400001928E-02 0. -1.
       -1   -1    0    0    0  501  0.00000000000E+00  0.00000000000E+00 -0.42138284896E+03  0.42138284899E+03  0.50400001928E-02 0.  1.
    10030    2    1    2    0    0  0.00000000000E+00  0.00000000000E+00  0.10100865518E+04  0.18528522497E+04  0.15533147193E+04 0.  0.
        5    1    3    3  502    0 -0.38570296881E+03 -0.58744586397E+03  0.11065727461E+03  0.71142571339E+03  0.46999998093E+01 0.  1.
       -5    1    3    3    0  502  0.38570296881E+03  0.58744586397E+03  0.89942927718E+03  0.11414265364E+04  0.46999998093E+01 0. -1.
</event>
<event>
 5   0  0.4015204E-04  0.1451042E+04  0.7818609E-02  0.8917678E-01
        1   -1    0    0  501    0  0.00000000000E+00  0.00000000000E+00  0.13865418183E+04  0.13865418183E+04  0.50400001928E-02 0. -1.
       -1   -1    0    0    0  501  0.00000000000E+00  0.00000000000E+00 -0.37963582430E+03  0.37963582433E+03  0.50400001928E-02 0.  1.
    10030    2    1    2    0    0  0.00000000000E+00  0.00000000000E+00  0.10069059940E+04  0.17661776426E+04  0.14510423097E+04 0.  0.
        2    1    3    3  502    0 -0.57932601115E+02 -0.46181157365E+03 -0.17397532667E+03  0.49688381955E+03  0.25500000920E-02 0.  1.
       -2    1    3    3    0  502  0.57932601115E+02  0.46181157365E+03  0.11808813207E+04  0.12692938231E+04  0.25500000920E-02 0. -1.
</event>
<event>
 5   0  0.7359897E-04  0.1370283E+04  0.7818609E-02  0.8975614E-01
       -2   -1    0    0    0  501  0.00000000000E+00  0.00000000000E+00  0.17738610488E+03  0.17738610489E+03  0.25500000920E-02 0.  1.
        2   -1    0    0  501    0  0.00000000000E+00  0.00000000000E+00 -0.26463131569E+04  0.26463131569E+04  0.25500000920E-02 0. -1.
    10030    2    1    2    0    0  0.00000000000E+00  0.00000000000E+00 -0.24689270520E+04  0.28236992618E+04  0.13702834498E+04 0.  0.
        1    1    3    3  502    0  0.55602954017E+02 -0.27173429296E+03 -0.25254485436E+04  0.25406340864E+04  0.50400001928E-02 0. -1.
       -1    1    3    3    0  502 -0.55602954017E+02  0.27173429296E+03  0.56521491621E+02  0.28306517537E+03  0.50400001928E-02 0.  1.
</event>
<event>
 5   0  0.4058874E-04  0.1436925E+04  0.7818609E-02  0.8927515E-01
       -1   -1    0    0    0  501  0.00000000000E+00  0.00000000000E+00  0.50326762379E+03  0.50326762382E+03  0.50400001928E-02 0.  1.
        1   -1    0    0  501    0  0.00000000000E+00  0.00000000000E+00 -0.10256741624E+04  0.10256741624E+04  0.50400001928E-02 0. -1.
    10030    2    1    2    0    0  0.00000000000E+00  0.00000000000E+00 -0.52240653864E+03  0.15289417863E+04  0.14369253266E+04 0.  0.
        4    1    3    3  502    0  0.29510151540E+03 -0.13412763875E+02  0.43565747822E+03  0.52636855705E+03  0.12699999809E+01 0.  1.
       -4    1    3    3    0  502 -0.29510151540E+03  0.13412763875E+02 -0.95806401686E+03  0.10025732292E+04  0.12699999809E+01 0. -1.
</event>
<event>
 5   0  0.7359897E-04  0.1553230E+04  0.7818609E-02  0.8849808E-01
       -2   -1    0    0    0  501  0.00000000000E+00  0.00000000000E+00  0.12539183025E+04  0.12539183025E+04  0.25500000920E-02 0. -1.
        2   -1    0    0  501    0  0.00000000000E+00  0.00000000000E+00 -0.48099665480E+03  0.48099665481E+03  0.25500000920E-02 0.  1.
    10030    2    1    2    0    0  0.00000000000E+00  0.00000000000E+00  0.77292164770E+03  0.17349149573E+04  0.15532295502E+04 0.  0.
        1    1    3    3  502    0 -0.32466844908E+03 -0.67999345822E+03  0.59640950939E+03  0.96099167944E+03  0.50400001928E-02 0.  1.
       -1    1    3    3    0  502  0.32466844908E+03  0.67999345822E+03  0.17651213832E+03  0.77392327788E+03  0.50400001928E-02 0. -1.
</event>
<event>
 5   0  0.7359897E-04  0.1504671E+04  0.7818609E-02  0.8881352E-01
       -2   -1    0    0    0  501  0.00000000000E+00  0.00000000000E+00  0.46518158205E+03  0.46518158206E+03  0.25500000920E-02 0. -1.
        2   -1    0    0  501    0  0.00000000000E+00  0.00000000000E+00 -0.12167485244E+04  0.12167485245E+04  0.25500000920E-02 0.  1.
    10030    2    1    2    0    0  0.00000000000E+00  0.00000000000E+00 -0.75156694240E+03  0.16819301065E+04  0.15046713974E+04 0.  0.
        1    1    3    3  502    0 -0.45909263382E+03  0.29831685658E+03  0.20099772789E+03  0.58323158350E+03  0.50400001928E-02 0. -1.
       -1    1    3    3    0  502  0.45909263382E+03 -0.29831685658E+03 -0.95256467029E+03  0.10986985230E+04  0.50400001928E-02 0.  1.
</event>
<event>
 5   0  0.4058874E-04  0.1489740E+04  0.7818609E-02  0.8891305E-01
        1   -1    0    0  501    0  0.00000000000E+00  0.00000000000E+00  0.62778953034E+03  0.62778953036E+03  0.50400001928E-02 0.  1.
       -1   -1    0    0    0  501  0.00000000000E+00  0.00000000000E+00 -0.88378503738E+03  0.88378503739E+03  0.50400001928E-02 0. -1.
    10030    2    1    2    0    0  0.00000000000E+00  0.00000000000E+00 -0.25599550704E+03  0.15115745678E+04  0.14897395659E+04 0.  0.
        4    1    3    3  502    0  0.48608305417E+03 -0.14383880092E+03  0.42576983847E+03  0.66200294897E+03  0.12699999809E+01 0.  1.
       -4    1    3    3    0  502 -0.48608305417E+03  0.14383880092E+03 -0.68176534551E+03  0.84957161878E+03  0.12699999809E+01 0. -1.
</event>
<event>
 5   0  0.4086710E-04  0.1667149E+04  0.7818609E-02  0.8780326E-01
       -1   -1    0    0    0  501  0.00000000000E+00  0.00000000000E+00  0.10439861182E+04  0.10439861182E+04  0.50400001928E-02 0. -1.
        1   -1    0    0  501    0  0.00000000000E+00  0.00000000000E+00 -0.66557038480E+03  0.66557038482E+03  0.50400001928E-02 0.  1.
    10030    2    1    2    0    0  0.00000000000E+00  0.00000000000E+00  0.37841573339E+03  0.17095565030E+04  0.16671487545E+04 0.  0.
        3    1    3    3  502    0 -0.31222565441E+03 -0.71297113433E+03 -0.11676711289E+03  0.78704972303E+03  0.10100000352E+00 0. -1.
       -3    1    3    3    0  502  0.31222565441E+03  0.71297113433E+03  0.49518284628E+03  0.92250677998E+03  0.10100000352E+00 0.  1.
</event>
<event>
 5   0  0.7547580E-04  0.1474981E+04  0.7818609E-02  0.8901263E-01
       -2   -1    0    0    0  501  0.00000000000E+00  0.00000000000E+00  0.46816540118E+03  0.46816540119E+03  0.25500000920E-02 0.  1.
        2   -1    0    0  501    0  0.00000000000E+00  0.00000000000E+00 -0.11617517578E+04  0.11617517578E+04  0.25500000920E-02 0. -1.
    10030    2    1    2    0    0  0.00000000000E+00  0.00000000000E+00 -0.69358635664E+03  0.16299171590E+04  0.14749806477E+04 0.  0.
        4    1    3    3  502    0  0.31884848928E+03  0.47915922124E+03 -0.85635159278E+03  0.10317933813E+04  0.12699999809E+01 0. -1.
       -4    1    3    3    0  502 -0.31884848928E+03 -0.47915922124E+03  0.16276523614E+03  0.59812377767E+03  0.12699999809E+01 0.  1.
</event>
<event>
 5   0  0.4058874E-04  0.1508556E+04  0.7818609E-02  0.8878783E-01
       -1   -1    0    0    0  501  0.00000000000E+00  0.00000000000E+00  0.70965420300E+03  0.70965420302E+03  0.50400001928E-02 0.  1.
        1   -1    0    0  501    0  0.00000000000E+00  0.00000000000E+00 -0.80170748476E+03  0.80170748477E+03  0.50400001928E-02 0. -1.
    10030    2    1    2    0    0  0.00000000000E+00  0.00000000000E+00 -0.92053281758E+02  0.15113616878E+04  0.15085557148E+04 0.  0.
        4    1    3    3  502    0  0.67788649103E+03 -0.14109642318E+03 -0.34574053219E+03  0.77393567165E+03  0.12699999809E+01 0. -1.
       -4    1    3    3    0  502 -0.67788649103E+03  0.14109642318E+03  0.25368725043E+03  0.73742601614E+03  0.12699999809E+01 0.  1.
</event>
<event>
 5   0  0.4084462E-04  0.1339804E+04  0.7818609E-02  0.8998582E-01
        1   -1    0    0  501    0  0.00000000000E+00  0.00000000000E+00  0.20874497644E+03  0.20874497650E+03  0.50400001928E-02 0. -1.
       -1   -1    0    0    0  501  0.00000000000E+00  0.00000000000E+00 -0.21498433915E+04  0.21498433915E+04  0.50400001928E-02 0.  1.
    10030    2    1    2    0    0  0.00000000000E+00  0.00000000000E+00 -0.19410984151E+04  0.23585883680E+04  0.13398044756E+04 0.  0.
        1    1    3    3  502    0 -0.37143666628E+03 -0.47745643416E+03 -0.46387524907E+03  0.76230577218E+03  0.50400001928E-02 0. -1.
       -1    1    3    3    0  502  0.37143666628E+03  0.47745643416E+03 -0.14772231660E+04  0.15962825959E+04  0.50400001928E-02 0.  1.
</event>
<event>
 5   0  0.3907345E-04  0.1369739E+04  0.7818609E-02  0.8976019E-01
        1   -1    0    0  501    0  0.00000000000E+00  0.00000000000E+00  0.80752348659E+03  0.80752348661E+03  0.50400001928E-02 0.  1.
       -1   -1    0    0    0  501  0.00000000000E+00  0.00000000000E+00 -0.58084507075E+03  0.58084507077E+03  0.50400001928E-02 0. -1.
    10030    2    1    2    0    0  0.00000000000E+00  0.00000000000E+00  0.22667841585E+03  0.13883685574E+04  0.13697387148E+04 0.  0.
        5    1    3    3  502    0 -0.18950921189E+02  0.59339670203E+03 -0.23269112134E+03  0.63768803606E+03  0.46999998093E+01 0. -1.
       -5    1    3    3    0  502  0.18950921189E+02 -0.59339670203E+03  0.45936953718E+03  0.75068052131E+03  0.46999998093E+01 0.  1.
</event>
<event>
 5   0  0.7547580E-04  0.1503260E+04  0.7818609E-02  0.8882288E-01
       -2   -1    0    0    0  501  0.00000000000E+00  0.00000000000E+00  0.36985441346E+03  0.36985441347E+03  0.25500000920E-02 0.  1.
        2   -1    0    0  501    0  0.00000000000E+00  0.00000000000E+00 -0.15274860482E+04  0.15274860482E+04  0.25500000920E-02 0. -1.
    10030    2    1    2    0    0  0.00000000000E+00  0.00000000000E+00 -0.11576316347E+04  0.18973404616E+04  0.15032597333E+04 0.  0.
        4    1    3    3  502    0  0.58419147309E+02  0.69641172667E+03 -0.22962234073E+03  0.73561547162E+03  0.12699999809E+01 0.  1.
       -4    1    3    3    0  502 -0.58419147309E+02 -0.69641172667E+03 -0.92800929399E+03  0.11617249900E+04  0.12699999809E+01 0. -1.
</event>
<event>
 5   0  0.7634227E-04  0.1495808E+04  0.7818609E-02  0.8887245E-01
        2   -1    0    0  501    0  0.00000000000E+00  0.00000000000E+00  0.15452284801E+04  0.15452284801E+04  0.25500000920E-02 0.  1.
       -2   -1    0    0    0  501  0.00000000000E+00  0.00000000000E+00 -0.36199204574E+03  0.36199204575E+03  0.25500000920E-02 0. -1.
    10030    2    1    2    0    0  0.00000000000E+00  0.00000000000E+00  0.11832364344E+04  0.19072205259E+04  0.14958080340E+04 0.  0.
        2    1    3    3  502    0  0.62806212754E+03  0.40233926246E+03  0.52153139243E+03  0.91012851371E+03  0.25500000920E-02 0. -1.
       -2    1    3    3    0  502 -0.62806212754E+03 -0.40233926246E+03  0.66170504196E+03  0.99709201217E+03  0.25500000920E-02 0.  1.
</event>
<event>
 5   0  0.3907345E-04  0.1406823E+04  0.7818609E-02  0.8948894E-01
       -1   -1    0    0    0  501  0.00000000000E+00  0.00000000000E+00  0.31175473360E+03  0.31175473364E+03  0.50400001928E-02 0.  1.
        1   -1    0    0  501    0  0.00000000000E+00  0.00000000000E+00 -0.15871065039E+04  0.15871065040E+04  0.50400001928E-02 0. -1.
    10030    2    1    2    0    0  0.00000000000E+00  0.00000000000E+00 -0.12753517703E+04  0.18988612376E+04  0.14068233228E+04 0.  0.
        5    1    3    3  502    0 -0.37533201242E+03  0.43653952789E+03 -0.11831573502E+04  0.13157979648E+04  0.46999998093E+01 0. -1.
       -5    1    3    3    0  502  0.37533201242E+03 -0.43653952789E+03 -0.92194420187E+02  0.58306327278E+03  0.46999998093E+01 0.  1.
</event>
<event>
 5   0  0.4084462E-04  0.1479504E+04  0.7818609E-02  0.8898198E-01
       -1   -1    0    0    0  501  0.00000000000E+00  0.00000000000E+00  0.60818773293E+03  0.60818773295E+03  0.50400001928E-02 0. -1.
        1   -1    0    0  501    0  0.00000000000E+00  0.00000000000E+00 -0.89977643230E+03  0.89977643232E+03  0.50400001928E-02 0.  1.
    10030    2    1    2    0    0  0.00000000000E+00  0.00000000000E+00 -0.29158869937E+03  0.15079641653E+04  0.14795039554E+04 0.  0.
        1    1    3    3  502    0  0.73399897293E+03  0.82436818007E+02 -0.18760375740E+03  0.76206659226E+03  0.50400001928E-02 0. -1.
       -1    1    3    3    0  502 -0.73399897293E+03 -0.82436818007E+02 -0.10398494198E+03  0.74589757300E+03  0.50400001928E-02 0.  1.
</event>
<event>
 5   0  0.7454828E-04  0.1504816E+04  0.7818609E-02  0.8881257E-01
       -2   -1    0    0    0  501  0.00000000000E+00  0.00000000000E+00  0.12583049650E+04  0.12583049650E+04  0.25500000920E-02 0.  1.
        2   -1    0    0  501    0  0.00000000000E+00  0.00000000000E+00 -0.44990488659E+03  0.44990488660E+03  0.25500000920E-02 0. -1.
    10030    2    1    2    0    0  0.00000000000E+00  0.00000000000E+00  0.80840007837E+03  0.17082098516E+04  0.15048156732E+04 0.  0.
        3    1    3    3  502    0 -0.36193183992E+03  0.61450323939E+03  0.67642285336E+03  0.98293274170E+03  0.10100000352E+00 0.  1.
       -3    1    3    3    0  502  0.36193183992E+03 -0.61450323939E+03  0.13197722501E+03  0.72527710986E+03  0.10100000352E+00 0. -1.
</event>
<event>
 5   0  0.7547580E-04  0.1459104E+04  0.7818609E-02  0.8912113E-01
        2   -1    0    0  501    0  0.00000000000E+00  0.00000000000E+00  0.45000856396E+03  0.45000856397E+03  0.25500000920E-02 0. -1.
       -2   -1    0    0    0  501  0.00000000000E+00  0.00000000000E+00 -0.11827469762E+04  0.11827469762E+04  0.25500000920E-02 0.  1.
    10030    2    1    2    0    0  0.00000000000E+00  0.00000000000E+00 -0.73273841222E+03  0.16327555402E+04  0.14591042023E+04 0.  0.
        4    1    3    3  502    0  0.21767366532E+03  0.12794055298E+03  0.39955694090E+03  0.47264994614E+03  0.12699999809E+01 0. -1.
       -4    1    3    3    0  502 -0.21767366532E+03 -0.12794055298E+03 -0.11322953531E+04  0.11601055940E+04  0.12699999809E+01 0.  1.
</event>
<event>
 5   0  0.7547580E-04  0.1493185E+04  0.7818609E-02  0.8888997E-01
       -2   -1    0    0    0  501  0.00000000000E+00  0.00000000000E+00  0.38015158670E+03  0.38015158671E+03  0.25500000920E-02 0.  1.
        2   -1    0    0  501    0  0.00000000000E+00  0.00000000000E+00 -0.14662588669E+04  0.14662588669E+04  0.25500000920E-02 0. -1.
    10030    2    1    2    0    0  0.00000000000E+00  0.00000000000E+00 -0.10861072802E+04  0.18464104536E+04  0.14931853666E+04 0.  0.
        4    1    3    3  502    0  0.23665051637E+03 -0.19752198371E+03  0.29778824474E+03  0.42859987466E+03  0.12699999809E+01 0.  1.
       -4    1    3    3    0  502 -0.23665051637E+03  0.19752198371E+03 -0.13838955249E+04  0.14178105789E+04  0.12699999809E+01 0. -1.
</event>
<event>
 5   0  0.4086710E-04  0.1507854E+04  0.7818609E-02  0.8879247E-01
       -1   -1    0    0    0  501  0.00000000000E+00  0.00000000000E+00  0.68832219203E+03  0.68832219205E+03  0.50400001928E-02 0.  1.
        1   -1    0    0  501    0  0.00000000000E+00  0.00000000000E+00 -0.82578429608E+03  0.82578429609E+03  0.50400001928E-02 0. -1.
    10030    2    1    2    0    0  0.00000000000E+00  0.00000000000E+00 -0.13746210405E+03  0.15141064881E+04  0.15078536492E+04 0.  0.
        3    1    3    3  502    0 -0.22101851328E+02  0.75355803642E+03 -0.60484776989E+02  0.75630458450E+03  0.10100000352E+00 0.  1.
       -3    1    3    3    0  502  0.22101851328E+02 -0.75355803642E+03 -0.76977327059E+02  0.75780190364E+03  0.10100000352E+00 0. -1.
</event>
<event>
 5   0  0.4086710E-04  0.1505920E+04  0.7818609E-02  0.8880526E-01
        1   -1    0    0  501    0  0.00000000000E+00  0.00000000000E+00  0.18305014500E+04  0.18305014500E+04  0.50400001928E-02 0. -1.
       -1   -1    0    0    0  501  0.00000000000E+00  0.00000000000E+00 -0.30972325029E+03  0.30972325033E+03  0.50400001928E-02 0.  1.
    10030    2    1    2    0    0  0.00000000000E+00  0.00000000000E+00  0.15207781997E+04  0.21402247003E+04  0.15059201291E+04 0.  0.
        3    1    3    3  502    0 -0.43998169268E+02 -0.19346228648E+03  0.17926840402E+04  0.18036295555E+04  0.10100000352E+00 0. -1.
       -3    1    3    3    0  502  0.43998169268E+02  0.19346228648E+03 -0.27190584055E+03  0.33659514481E+03  0.10100000352E+00 0.  1.
</event>
<event>
 5   0  0.4084462E-04  0.1502715E+04  0.7818609E-02  0.8882649E-01
        1   -1    0    0  501    0  0.00000000000E+00  0.00000000000E+00  0.12795214673E+04  0.12795214673E+04  0.50400001928E-02 0. -1.
       -1   -1    0    0    0  501  0.00000000000E+00  0.00000000000E+00 -0.44121045876E+03  0.44121045879E+03  0.50400001928E-02 0.  1.
    10030    2    1    2    0    0  0.00000000000E+00  0.00000000000E+00  0.83831100857E+03  0.17207319261E+04  0.15027152141E+04 0.  0.
        1    1    3    3  502    0  0.52564123434E+03  0.53503721468E+03  0.47004051570E+03  0.88515626572E+03  0.50400001928E-02 0.  1.
       -1    1    3    3    0  502 -0.52564123434E+03 -0.53503721468E+03  0.36827049288E+03  0.83557566042E+03  0.50400001928E-02 0. -1.
</event>
<event>
 5   0  0.4015204E-04  0.1501234E+04  0.7818609E-02  0.8883633E-01
       -1   -1    0    0    0  501  0.00000000000E+00  0.00000000000E+00  0.47816926532E+03  0.47816926534E+03  0.50400001928E-02 0.  1.
        1   -1    0    0  501    0  0.00000000000E+00  0.00000000000E+00 -0.11782978979E+04  0.11782978980E+04  0.50400001928E-02 0. -1.
    10030    2    1    2    0    0  0.00000000000E+00  0.00000000000E+00 -0.70012863262E+03  0.16564671633E+04  0.15012339461E+04 0.  0.
        2    1    3    3  502    0 -0.40591419881E+03 -0.42590169069E+03 -0.86438216001E+03  0.10456170931E+04  0.25500000920E-02 0. -1.
       -2    1    3    3    0  502  0.40591419881E+03  0.42590169069E+03  0.16425352739E+03  0.61085007015E+03  0.25500000920E-02 0.  1.
</event>
<event>
 5   0  0.7454828E-04  0.1498874E+04  0.7818609E-02  0.8885202E-01
        2   -1    0    0  501    0  0.00000000000E+00  0.00000000000E+00  0.22364878316E+04  0.22364878316E+04  0.25500000920E-02 0. -1.
       -2   -1    0    0    0  501  0.00000000000E+00  0.00000000000E+00 -0.25113286997E+03  0.25113286999E+03  0.25500000920E-02 0.  1.
    10030    2    1    2    0    0  0.00000000000E+00  0.00000000000E+00  0.19853549617E+04  0.24876207016E+04  0.14988737209E+04 0.  0.
        3    1    3    3  502    0 -0.23130614629E+03  0.11824827344E+03  0.21593728807E+04  0.21749428581E+04  0.10100000352E+00 0. -1.
       -3    1    3    3    0  502  0.23130614629E+03 -0.11824827344E+03 -0.17401791910E+03  0.31267784356E+03  0.10100000352E+00 0.  1.
</event>
<event>
 5   0  0.7454828E-04  0.1501408E+04  0.7818609E-02  0.8883517E-01
        2   -1    0    0  501    0  0.00000000000E+00  0.00000000000E+00  0.69921587862E+03  0.69921587863E+03  0.25500000920E-02 0. -1.
       -2   -1    0    0    0  501  0.00000000000E+00  0.00000000000E+00 -0.80598400917E+03  0.80598400917E+03  0.25500000920E-02 0.  1.
    10030    2    1    2    0    0  0.00000000000E+00  0.00000000000E+00 -0.10676813055E+03  0.15051998878E+04  0.15014084283E+04 0.  0.
        3    1    3    3  502    0  0.30760036011E+03  0.57554276969E+03  0.31861812403E+03  0.72621276527E+03  0.10100000352E+00 0. -1.
       -3    1    3    3    0  502 -0.30760036011E+03 -0.57554276969E+03 -0.42538625457E+03  0.77898712253E+03  0.10100000352E+00 0.  1.
</event>
<event>
 5   0  0.4086710E-04  0.1491193E+04  0.7818609E-02  0.8890331E-01
        1   -1    0    0  501    0  0.00000000000E+00  0.00000000000E+00  0.39151971068E+03  0.39151971072E+03  0.50400001928E-02 0. -1.
       -1   -1    0    0    0  501  0.00000000000E+00  0.00000000000E+00 -0.14198875618E+04  0.14198875618E+04  0.50400001928E-02 0.  1.
    10030    2    1    2    0    0  0.00000000000E+00  0.00000000000E+00 -0.10283678511E+04  0.18114072725E+04  0.14911927675E+04 0.  0.
        3    1    3    3  502    0  0.18760711768E+03  0.45547844969E+03 -0.11940645228E+04  0.12916838404E+04  0.10100000352E+00 0.  1.
       -3    1    3    3    0  502 -0.18760711768E+03 -0.45547844969E+03  0.16569667165E+03  0.51972343216E+03  0.10100000352E+00 0. -1.
</event>
<event>
 5   0  0.7634227E-04  0.1496162E+04  0.7818609E-02  0.8887009E-01
        2   -1    0    0  501    0  0.00000000000E+00  0.00000000000E+00  0.12502661000E+04  0.12502661000E+04  0.25500000920E-02 0.  1.
       -2   -1    0    0    0  501  0.00000000000E+00  0.00000000000E+00 -0.44760466450E+03  0.44760466450E+03  0.25500000920E-02 0. -1.
    10030    2    1    2    0    0  0.00000000000E+00  0.00000000000E+00  0.80266143550E+03  0.16978707645E+04  0.14961616734E+04 0.  0.
        2    1    3    3  502    0 -0.61441827828E+03 -0.34360134373E+03  0.68853878621E+03  0.98471181785E+03  0.25500000920E-02 0.  1.
       -2    1    3    3    0  502  0.61441827828E+03  0.34360134373E+03  0.11412264929E+03  0.71315894665E+03  0.25500000920E-02 0. -1.
</event>
<event>
 5   0  0.7359897E-04  0.1492525E+04  0.7818609E-02  0.8889439E-01
       -2   -1    0    0    0  501  0.00000000000E+00  0.00000000000E+00  0.33574978077E+03  0.33574978078E+03  0.25500000920E-02 0.  1.
        2   -1    0    0  501    0  0.00000000000E+00  0.00000000000E+00 -0.16586976573E+04  0.16586976573E+04  0.25500000920E-02 0. -1.
    10030    2    1    2    0    0  0.00000000000E+00  0.00000000000E+00 -0.13229478766E+04  0.19944474381E+04  0.14925245389E+04 0.  0.
        1    1    3    3  502    0 -0.24403707027E+02  0.69832953202E+03 -0.31135620650E+03  0.76498520479E+03  0.50400001928E-02 0.  1.
       -1    1    3    3    0  502  0.24403707027E+02 -0.69832953202E+03 -0.10115916701E+04  0.12294622333E+04  0.50400001928E-02 0. -1.
</event>
<event>
 5   0  0.7547580E-04  0.1487282E+04  0.7818609E-02  0.8892954E-01
        2   -1    0    0  501    0  0.00000000000E+00  0.00000000000E+00  0.11379102411E+04  0.11379102411E+04  0.25500000920E-02 0.  1.
       -2   -1    0    0    0  501  0.00000000000E+00  0.00000000000E+00 -0.48598039101E+03  0.48598039102E+03  0.25500000920E-02 0. -1.
    10030    2    1    2    0    0  0.00000000000E+00  0.00000000000E+00  0.65192985004E+03  0.16238906321E+04  0.14872821708E+04 0.  0.
        4    1    3    3  502    0 -0.77067582668E+02 -0.10568187896E+03 -0.47332105499E+03  0.49106262924E+03  0.12699999809E+01 0. -1.
       -4    1    3    3    0  502  0.77067582668E+02  0.10568187896E+03  0.11252509050E+04  0.11328280028E+04  0.12699999809E+01 0.  1.
</event>
<event>
 5   0  0.3907345E-04  0.1506842E+04  0.7818609E-02  0.8879916E-01
        1   -1    0    0  501    0  0.00000000000E+00  0.00000000000E+00  0.82089991405E+03  0.82089991407E+03  0.50400001928E-02 0. -1.
       -1   -1    0    0    0  501  0.00000000000E+00  0.00000000000E+00 -0.69148892843E+03  0.69148892845E+03  0.50400001928E-02 0.  1.
    10030    2    1    2    0    0  0.00000000000E+00  0.00000000000E+00  0.12941098563E+03  0.15123888425E+04  0.15068419983E+04 0.  0.
        5    1    3    3  502    0 -0.72586554424E+03  0.91008614747E+02  0.24552904309E+03  0.77166699895E+03  0.46999998093E+01 0.  1.
       -5    1    3    3    0  502  0.72586554424E+03 -0.91008614747E+02 -0.11611805746E+03  0.74072184356E+03  0.46999998093E+01 0. -1.
</event>
<event>
 5   0  0.7359897E-04  0.1511033E+04  0.7818609E-02  0.8877149E-01
       -2   -1    0    0    0  501  0.00000000000E+00  0.00000000000E+00  0.85362466881E+03  0.85362466882E+03  0.25500000920E-02 0.  1.
        2   -1    0    0  501    0  0.00000000000E+00  0.00000000000E+00 -0.66868382528E+03  0.66868382528E+03  0.25500000920E-02 0. -1.
    10030    2    1    2    0    0  0.00000000000E+00  0.00000000000E+00  0.18494084353E+03  0.15223084941E+04  0.15110327712E+04 0.  0.
        1    1    3    3  502    0  0.23412789042E+03 -0.58128792297E+03 -0.33268998126E+03  0.70950274285E+03  0.50400001928E-02 0. -1.
       -1    1    3    3    0  502 -0.23412789042E+03  0.58128792297E+03  0.51763082479E+03  0.81280575125E+03  0.50400001928E-02 0.  1.
</event>
<event>
 5   0  0.7454828E-04  0.1505176E+04  0.7818609E-02  0.8881018E-01
       -2   -1    0    0    0  501  0.00000000000E+00  0.00000000000E+00  0.52206655353E+03  0.52206655353E+03  0.25500000920E-02 0. -1.
        2   -1    0    0  501    0  0.00000000000E+00  0.00000000000E+00 -0.10848971517E+04  0.10848971517E+04  0.25500000920E-02 0.  1.
    10030    2    1    2    0    0  0.00000000000E+00  0.00000000000E+00 -0.56283059815E+03  0.16069637052E+04  0.15051757597E+04 0.  0.
        3    1    3    3  502    0 -0.33248158904E+02  0.44116389061E+03 -0.93140315354E+03  0.10311366850E+04  0.10100000352E+00 0.  1.
       -3    1    3    3    0  502  0.33248158904E+02 -0.44116389061E+03  0.36857255540E+03  0.57582702024E+03  0.10100000352E+00 0. -1.
</event>
<event>
 5   0  0.4058874E-04  0.1483988E+04  0.7818609E-02  0.8895171E-01
        1   -1    0    0  501    0  0.00000000000E+00  0.00000000000E+00  0.13083826222E+04  0.13083826222E+04  0.50400001928E-02 0.  1.
       -1   -1    0    0    0  501  0.00000000000E+00  0.00000000000E+00 -0.42079058474E+03  0.42079058477E+03  0.50400001928E-02 0. -1.
    10030    2    1    2    0    0  0.00000000000E+00  0.00000000000E+00  0.88759203745E+03  0.17291732070E+04  0.14839879901E+04 0.  0.
        4    1    3    3  502    0 -0.32036938054E+03 -0.58653500482E+03  0.81937610644E+03  0.10573734764E+04  0.12699999809E+01 0.  1.
       -4    1    3    3    0  502  0.32036938054E+03  0.58653500482E+03  0.68215931007E+02  0.67179973058E+03  0.12699999809E+01 0. -1.
</event>
<event>
 5   0  0.7672251E-04  0.1494361E+04  0.7818609E-02  0.8888211E-01
        2   -1    0    0  501    0  0.00000000000E+00  0.00000000000E+00  0.94435276311E+03  0.94435276311E+03  0.25500000920E-02 0. -1.
       -2   -1    0    0    0  501  0.00000000000E+00  0.00000000000E+00 -0.59117604190E+03  0.59117604191E+03  0.25500000920E-02 0.  1.
    10030    2    1    2    0    0  0.00000000000E+00  0.00000000000E+00  0.35317672121E+03  0.15355288050E+04  0.14943610389E+04 0.  0.
        5    1    3    3  502    0  0.52417499639E+03 -0.32155774548E+02  0.72270245225E+03  0.89337245601E+03  0.46999998093E+01 0. -1.
       -5    1    3    3    0  502 -0.52417499639E+03  0.32155774548E+02 -0.36952573104E+03  0.64215634901E+03  0.46999998093E+01 0.  1.
</event>
<event>
 5   0  0.7634227E-04  0.1506234E+04  0.7818609E-02  0.8880318E-01
       -2   -1    0    0    0  501  0.00000000000E+00  0.00000000000E+00  0.51235387271E+03  0.51235387272E+03  0.25500000920E-02 0. -1.
        2   -1    0    0  501    0  0.00000000000E+00  0.00000000000E+00 -0.11070183508E+04  0.11070183508E+04  0.25500000920E-02 0.  1.
    10030    2    1    2    0    0  0.00000000000E+00  0.00000000000E+00 -0.59466447806E+03  0.16193722235E+04  0.15062338984E+04 0.  0.
        2    1    3    3  502    0 -0.43613772151E+03  0.55785675949E+03 -0.57304141996E+03  0.91093180053E+03  0.25500000920E-02 0.  1.
       -2    1    3    3    0  502  0.43613772151E+03 -0.55785675949E+03 -0.21623058100E+02  0.70844042296E+03  0.25500000920E-02 0. -1.
</event>
<event>
 5   0  0.7634227E-04  0.1455382E+04  0.7818609E-02  0.8914678E-01
        2   -1    0    0  501    0  0.00000000000E+00  0.00000000000E+00  0.89751666069E+03  0.89751666069E+03  0.25500000920E-02 0.  1.
       -2   -1    0    0    0  501  0.00000000000E+00  0.00000000000E+00 -0.58999930029E+03  0.58999930030E+03  0.25500000920E-02 0. -1.
    10030    2    1    2    0    0  0.00000000000E+00  0.00000000000E+00  0.30751736040E+03  0.14875159610E+04  0.14553820142E+04 0.  0.
        2    1    3    3  502    0 -0.10125747855E+03  0.69962305084E+03  0.33022272651E+03  0.78023877072E+03  0.25500000920E-02 0. -1.
       -2    1    3    3    0  502  0.10125747855E+03 -0.69962305084E+03 -0.22705366114E+02  0.70727719027E+03  0.25500000920E-02 0.  1.
</event>
<event>
 5   0  0.4086710E-04  0.1488101E+04  0.7818609E-02  0.8892404E-01
       -1   -1    0    0    0  501  0.00000000000E+00  0.00000000000E+00  0.46994310180E+03  0.46994310183E+03  0.50400001928E-02 0. -1.
        1   -1    0    0  501    0  0.00000000000E+00  0.00000000000E+00 -0.11780384529E+04  0.11780384530E+04  0.50400001928E-02 0.  1.
    10030    2    1    2    0    0  0.00000000000E+00  0.00000000000E+00 -0.70809535114E+03  0.16479815548E+04  0.14881008630E+04 0.  0.
        3    1    3    3  502    0  0.24664545763E+03 -0.13775201939E+03 -0.11163340610E+04  0.11515256604E+04  0.10100000352E+00 0.  1.
       -3    1    3    3    0  502 -0.24664545763E+03  0.13775201939E+03  0.40823870987E+03  0.49645589437E+03  0.10100000352E+00 0. -1.
</event>
<event>
 5   0  0.4015204E-04  0.1464458E+04  0.7818609E-02  0.8908438E-01
        1   -1    0    0  501    0  0.00000000000E+00  0.00000000000E+00  0.97655096835E+03  0.97655096836E+03  0.50400001928E-02 0.  1.
       -1   -1    0    0    0  501  0.00000000000E+00  0.00000000000E+00 -0.54903327224E+03  0.54903327226E+03  0.50400001928E-02 0. -1.
    10030    2    1    2    0    0  0.00000000000E+00  0.00000000000E+00  0.42751769611E+03  0.15255842406E+04  0.14644575428E+04 0.  0.
        2    1    3    3  502    0  0.49927575069E+02  0.41783814917E+03  0.83800158799E+03  0.93772498268E+03  0.25500000920E-02 0.  1.
       -2    1    3    3    0  502 -0.49927575069E+02 -0.41783814917E+03 -0.41048389188E+03  0.58785925795E+03  0.25500000920E-02 0. -1.
</event>
<event>
 5   0  0.7359897E-04  0.1490551E+04  0.7818609E-02  0.8890761E-01
       -2   -1    0    0    0  501  0.00000000000E+00  0.00000000000E+00  0.10046347446E+04  0.10046347446E+04  0.25500000920E-02 0.  1.
        2   -1    0    0  501    0  0.00000000000E+00  0.00000000000E+00 -0.55287286637E+03  0.55287286638E+03  0.25500000920E-02 0. -1.
    10030    2    1    2    0    0  0.00000000000E+00  0.00000000000E+00  0.45176187827E+03  0.15575076110E+04  0.14905506243E+04 0.  0.
        1    1    3    3  502    0 -0.37493265994E+03 -0.13025866733E+03  0.88500452604E+03  0.96993547777E+03  0.50400001928E-02 0.  1.
       -1    1    3    3    0  502  0.37493265994E+03  0.13025866733E+03 -0.43324264777E+03  0.58757213325E+03  0.50400001928E-02 0. -1.
</event>
<event>
 5   0  0.4015204E-04  0.1508789E+04  0.7818609E-02  0.8878629E-01
        1   -1    0    0  501    0  0.00000000000E+00  0.00000000000E+00  0.30613607892E+03  0.30613607897E+03  0.50400001928E-02 0. -1.
       -1   -1    0    0    0  501  0.00000000000E+00  0.00000000000E+00 -0.18590142311E+04  0.18590142311E+04  0.50400001928E-02 0.  1.
    10030    2    1    2    0    0  0.00000000000E+00  0.00000000000E+00 -0.15528781522E+04  0.21651503101E+04  0.15087893523E+04 0.  0.
        2    1    3    3  502    0  0.19909830609E+03  0.60718581237E+03 -0.20100199238E+03  0.66986308092E+03  0.25500000920E-02 0. -1.
       -2    1    3    3    0  502 -0.19909830609E+03 -0.60718581237E+03 -0.13518761598E+04  0.14952872292E+04  0.25500000920E-02 0.  1.
</event>
<event>
 5   0  0.3907345E-04  0.1504865E+04  0.7818609E-02  0.8881224E-01
        1   -1    0    0  501    0  0.00000000000E+00  0.00000000000E+00  0.10490362408E+04  0.10490362408E+04  0.50400001928E-02 0. -1.
       -1   -1    0    0    0  501  0.00000000000E+00  0.00000000000E+00 -0.53969001975E+03  0.53969001977E+03  0.50400001928E-02 0.  1.
    10030    2    1    2    0    0  0.00000000000E+00  0.00000000000E+00  0.50934622101E+03  0.15887262605E+04  0.15048646311E+04 0.  0.
        5    1    3    3  502    0 -0.54064303406E+03 -0.11293523812E+03  0.79411040757E+03  0.96730692528E+03  0.46999998093E+01 0. -1.
       -5    1    3    3    0  502  0.54064303406E+03  0.11293523812E+03 -0.28476418656E+03  0.62141933526E+03  0.46999998093E+01 0.  1.
</event>
<event>
 5   0  0.7672251E-04  0.1500077E+04  0.7818609E-02  0.8884402E-01
       -2   -1    0    0    0  501  0.00000000000E+00  0.00000000000E+00  0.72280190452E+03  0.72280190453E+03  0.25500000920E-02 0. -1.
        2   -1    0    0  501    0  0.00000000000E+00  0.00000000000E+00 -0.77830163729E+03  0.77830163729E+03  0.25500000920E-02 0.  1.
    10030    2    1    2    0    0  0.00000000000E+00  0.00000000000E+00 -0.55499732763E+02  0.15011035418E+04  0.15000772057E+04 0.  0.
        5    1    3    3  502    0 -0.52083356501E+03  0.53836874973E+03 -0.65555373365E+02  0.75194953960E+03  0.46999998093E+01 0.  1.
       -5    1    3    3    0  502  0.52083356501E+03 -0.53836874973E+03  0.10055640601E+02  0.74915400222E+03  0.46999998093E+01 0. -1.
</event>
<event>
 5   0  0.4015204E-04  0.1502159E+04  0.7818609E-02  0.8883019E-01
        1   -1    0    0  501    0  0.00000000000E+00  0.00000000000E+00  0.64935183854E+03  0.64935183856E+03  0.50400001928E-02 0.  1.
       -1   -1    0    0    0  501  0.00000000000E+00  0.00000000000E+00 -0.86874352370E+03  0.86874352371E+03  0.50400001928E-02 0. -1.
    10030    2    1    2    0    0  0.00000000000E+00  0.00000000000E+00 -0.21939168516E+03  0.15180953623E+04  0.15021587191E+04 0.  0.
        2    1    3    3  502    0 -0.61387222899E+02 -0.55552932102E+03  0.39736312805E+03  0.68576867324E+03  0.25500000920E-02 0.  1.
       -2    1    3    3    0  502  0.61387222899E+02  0.55552932102E+03 -0.61675481321E+03  0.83232668903E+03  0.25500000920E-02 0. -1.
</event>
<event>
 5   0  0.4086710E-04  0.1505523E+04  0.7818609E-02  0.8880789E-01
       -1   -1    0    0    0  501  0.00000000000E+00  0.00000000000E+00  0.82960537574E+03  0.82960537576E+03  0.50400001928E-02 0.  1.
        1   -1    0    0  501    0  0.00000000000E+00  0.00000000000E+00 -0.68303529646E+03  0.68303529647E+03  0.50400001928E-02 0. -1.
    10030    2    1    2    0    0  0.00000000000E+00  0.00000000000E+00  0.14657007929E+03  0.15126406722E+04  0.15055228378E+04 0.  0.
        3    1    3    3  502    0  0.23641810134E+03  0.67867527385E+03 -0.15172935161E+03  0.73451715591E+03  0.10100000352E+00 0. -1.
       -3    1    3    3    0  502 -0.23641810134E+03 -0.67867527385E+03  0.29829943089E+03  0.77812351632E+03  0.10100000352E+00 0.  1.
</event>
<event>
 5   0  0.3907345E-04  0.1482403E+04  0.7818609E-02  0.8896239E-01
       -1   -1    0    0    0  501  0.00000000000E+00  0.00000000000E+00  0.80364609700E+03  0.80364609702E+03  0.50400001928E-02 0.  1.
        1   -1    0    0  501    0  0.00000000000E+00  0.00000000000E+00 -0.68360938336E+03  0.68360938338E+03  0.50400001928E-02 0. -1.
    10030    2    1    2    0    0  0.00000000000E+00  0.00000000000E+00  0.12003671364E+03  0.14872554804E+04  0.14824034712E+04 0.  0.
        5    1    3    3  502    0 -0.14871261736E+03 -0.72206882753E+03  0.13681357646E+03  0.74982589910E+03  0.46999998093E+01 0.  1.
       -5    1    3    3    0  502  0.14871261736E+03  0.72206882753E+03 -0.16776862825E+02  0.73742958130E+03  0.46999998093E+01 0. -1.
</event>
<event>
 5   0  0.7634227E-04  0.1501813E+04  0.7818609E-02  0.8883248E-01
       -2   -1    0    0    0  501  0.00000000000E+00  0.00000000000E+00  0.61904686445E+03  0.61904686445E+03  0.25500000920E-02 0.  1.
        2   -1    0    0  501    0  0.00000000000E+00  0.00000000000E+00 -0.91085304715E+03  0.91085304715E+03  0.25500000920E-02 0. -1.
    10030    2    1    2    0    0  0.00000000000E+00  0.00000000000E+00 -0.29180618270E+03  0.15298999116E+04  0.15018132012E+04 0.  0.
        2    1    3    3  502    0  0.44731260936E+03 -0.28325149993E+03 -0.68834699957E+03  0.86841325101E+03  0.25500000920E-02 0. -1.
       -2    1    3    3    0  502 -0.44731260936E+03  0.28325149993E+03  0.39654081687E+03  0.66148666060E+03  0.25500000920E-02 0.  1.
</event>
<event>
 5   0  0.7359897E-04  0.1518979E+04  0.7818609E-02  0.8871929E-01
       -2   -1    0    0    0  501  0.00000000000E+00  0.00000000000E+00  0.57255978911E+03  0.57255978912E+03  0.25500000920E-02 0. -1.
        2   -1    0    0  501    0  0.00000000000E+00  0.00000000000E+00 -0.10074485006E+04  0.10074485006E+04  0.25500000920E-02 0.  1.
    10030    2    1    2    0    0  0.00000000000E+00  0.00000000000E+00 -0.43488871153E+03  0.15800082898E+04  0.15189792639E+04 0.  0.
        1    1    3    3  502    0 -0.57794178282E+03 -0.25114816073E+03  0.22353748380E+03  0.66862628550E+03  0.50400001928E-02 0.  1.
       -1    1    3    3    0  502  0.57794178282E+03  0.25114816073E+03 -0.65842619533E+03  0.91138200426E+03  0.50400001928E-02 0. -1.
</event>
<event>
 5   0  0.4086710E-04  0.1510803E+04  0.7818609E-02  0.8877301E-01
        1   -1    0    0  501    0  0.00000000000E+00  0.00000000000E+00  0.79505778433E+03  0.79505778435E+03  0.50400001928E-02 0. -1.
       -1   -1    0    0    0  501  0.00000000000E+00  0.00000000000E+00 -0.71772338719E+03  0.71772338721E+03  0.50400001928E-02 0.  1.
    10030    2    1    2    0    0  0.00000000000E+00  0.00000000000E+00  0.77334397135E+02  0.15127811716E+04  0.15108031851E+04 0.  0.
        3    1    3    3  502    0 -0.27100325149E+01 -0.50780051544E+03  0.59865143065E+03  0.78501735864E+03  0.10100000352E+00 0. -1.
       -3    1    3    3    0  502  0.27100325149E+01  0.50780051544E+03 -0.52131703351E+03  0.72776381291E+03  0.10100000352E+00 0.  1.
</event>
<event>
 5   0  0.7359897E-04  0.1472287E+04  0.7818609E-02  0.8903094E-01
       -2   -1    0    0    0  501  0.00000000000E+00  0.00000000000E+00  0.38208305290E+03  0.38208305291E+03  0.25500000920E-02 0.  1.
        2   -1    0    0  501    0  0.00000000000E+00  0.00000000000E+00 -0.14182963425E+04  0.14182963425E+04  0.25500000920E-02 0. -1.
    10030    2    1    2    0    0  0.00000000000E+00  0.00000000000E+00 -0.10362132896E+04  0.18003793954E+04  0.14722866521E+04 0.  0.
        1    1    3    3  502    0 -0.21434147235E+03  0.36156937054E+03  0.22091347160E+03  0.47484464664E+03  0.50400001928E-02 0.  1.
       -1    1    3    3    0  502  0.21434147235E+03 -0.36156937054E+03 -0.12571267612E+04  0.13255347488E+04  0.50400001928E-02 0. -1.
</event>
<event>
 5   0  0.7359897E-04  0.1492536E+04  0.7818609E-02  0.8889432E-01
       -2   -1    0    0    0  501  0.00000000000E+00  0.00000000000E+00  0.67796576025E+03  0.67796576026E+03  0.25500000920E-02 0.  1.
        2   -1    0    0  501    0  0.00000000000E+00  0.00000000000E+00 -0.82145093622E+03  0.82145093622E+03  0.25500000920E-02 0. -1.
    10030    2    1    2    0    0  0.00000000000E+00  0.00000000000E+00 -0.14348517597E+03  0.14994166965E+04  0.14925355721E+04 0.  0.
        1    1    3    3  502    0  0.57302090984E+03  0.31248112102E+03  0.29175175414E+03  0.71492412197E+03  0.50400001928E-02 0.  1.
       -1    1    3    3    0  502 -0.57302090984E+03 -0.31248112102E+03 -0.43523693011E+03  0.78449257451E+03  0.50400001928E-02 0. -1.
</event>
<event>
 5   0  0.7672251E-04  0.1487297E+04  0.7818609E-02  0.8892944E-01
       -2   -1    0    0    0  501  0.00000000000E+00  0.00000000000E+00  0.11294654848E+04  0.11294654848E+04  0.25500000920E-02 0. -1.
        2   -1    0    0  501    0  0.00000000000E+00  0.00000000000E+00 -0.48962402693E+03  0.48962402694E+03  0.25500000920E-02 0.  1.
    10030    2    1    2    0    0  0.00000000000E+00  0.00000000000E+00  0.63984145785E+03  0.16190895117E+04  0.14872974671E+04 0.  0.
        5    1    3    3  502    0  0.19959924170E+01 -0.20320377594E+03  0.10986362991E+04  0.11172822232E+04  0.46999998093E+01 0. -1.
       -5    1    3    3    0  502 -0.19959924170E+01  0.20320377594E+03 -0.45879484122E+03  0.50180728857E+03  0.46999998093E+01 0.  1.
</event>
<event>
 5   0  0.7454828E-04  0.1439853E+04  0.7818609E-02  0.8925466E-01
        2   -1    0    0  501    0  0.00000000000E+00  0.00000000000E+00  0.37749604129E+03  0.37749604129E+03  0.25500000920E-02 0.  1.
       -2   -1    0    0    0  501  0.00000000000E+00  0.00000000000E+00 -0.13729781646E+04  0.13729781646E+04  0.25500000920E-02 0. -1.
    10030    2    1    2    0    0  0.00000000000E+00  0.00000000000E+00 -0.99548212333E+03  0.17504742059E+04  0.14398525229E+04 0.  0.
        3    1    3    3  502    0 -0.28607753384E+03  0.62804938085E+03 -0.24856818381E+03  0.73353427484E+03  0.10100000352E+00 0.  1.
       -3    1    3    3    0  502  0.28607753384E+03 -0.62804938085E+03 -0.74691393952E+03  0.10169399311E+04  0.10100000352E+00 0. -1.
</event>
<event>
 5   0  0.4084462E-04  0.1503789E+04  0.7818609E-02  0.8881937E-01
       -1   -1    0    0    0  501  0.00000000000E+00  0.00000000000E+00  0.31938797969E+03  0.31938797973E+03  0.50400001928E-02 0. -1.
        1   -1    0    0  501    0  0.00000000000E+00  0.00000000000E+00 -0.17700902730E+04  0.17700902730E+04  0.50400001928E-02 0.  1.
    10030    2    1    2    0    0  0.00000000000E+00  0.00000000000E+00 -0.14507022933E+04  0.20894782527E+04  0.15037892887E+04 0.  0.
        1    1    3    3  502    0  0.48972801071E+03 -0.47537031069E+03 -0.11637192997E+04  0.13490934234E+04  0.50400001928E-02 0.  1.
       -1    1    3    3    0  502 -0.48972801071E+03  0.47537031069E+03 -0.28698299364E+03  0.74038482928E+03  0.50400001928E-02 0. -1.
</event>
<event>
 5   0  0.4084462E-04  0.1527054E+04  0.7818609E-02  0.8866659E-01
        1   -1    0    0  501    0  0.00000000000E+00  0.00000000000E+00  0.76514025003E+03  0.76514025004E+03  0.50400001928E-02 0. -1.
       -1   -1    0    0    0  501  0.00000000000E+00  0.00000000000E+00 -0.76191736274E+03  0.76191736276E+03  0.50400001928E-02 0.  1.
    10030    2    1    2    0    0  0.00000000000E+00  0.00000000000E+00  0.32228872876E+01  0.15270576128E+04  0.15270542118E+04 0.  0.
        1    1    3    3  502    0  0.29909274773E+03 -0.45878262418E+03 -0.53040071239E+03  0.76240598353E+03  0.50400001928E-02 0.  1.
       -1    1    3    3    0  502 -0.29909274773E+03  0.45878262418E+03  0.53362359968E+03  0.76465162927E+03  0.50400001928E-02 0. -1.
</event>
<event>
 5   0  0.4084462E-04  0.1521738E+04  0.7818609E-02  0.8870125E-01
       -1   -1    0    0    0  501  0.00000000000E+00  0.00000000000E+00  0.53643642262E+03  0.53643642265E+03  0.50400001928E-02 0. -1.
        1   -1    0    0  501    0  0.00000000000E+00  0.00000000000E+00 -0.10791991636E+04  0.10791991636E+04  0.50400001928E-02 0.  1.
    10030    2    1    2    0    0  0.00000000000E+00  0.00000000000E+00 -0.54276274099E+03  0.16156355863E+04  0.15217381360E+04 0.  0.
        1    1    3    3  502    0  0.12068681974E+03  0.20902466931E+03  0.49471380498E+03  0.55045287692E+03  0.50400001928E-02 0. -1.
       -1    1    3    3    0  502 -0.12068681974E+03 -0.20902466931E+03 -0.10374765460E+04  0.10651827094E+04  0.50400001928E-02 0.  1.
</event>
<event>
 5   0  0.7672251E-04  0.1499578E+04  0.7818609E-02  0.8884733E-01
       -2   -1    0    0    0  501  0.00000000000E+00  0.00000000000E+00  0.39134226969E+03  0.39134226970E+03  0.25500000920E-02 0.  1.
        2   -1    0    0  501    0  0.00000000000E+00  0.00000000000E+00 -0.14365528809E+04  0.14365528809E+04  0.25500000920E-02 0. -1.
    10030    2    1    2    0    0  0.00000000000E+00  0.00000000000E+00 -0.10452106112E+04  0.18278951506E+04  0.14995784274E+04 0.  0.
        5    1    3    3  502    0 -0.56887139672E+02  0.23845026514E+03 -0.13863054217E+04  0.14078208294E+04  0.46999998093E+01 0. -1.
       -5    1    3    3    0  502  0.56887139672E+02 -0.23845026514E+03  0.34109481046E+03  0.42007432119E+03  0.46999998093E+01 0.  1.
</event>
<event>
 5   0  0.7359897E-04  0.1498382E+04  0.7818609E-02  0.8885529E-01
        2   -1    0    0  501    0  0.00000000000E+00  0.00000000000E+00  0.13211988826E+04  0.13211988826E+04  0.25500000920E-02 0.  1.
       -2   -1    0    0    0  501  0.00000000000E+00  0.00000000000E+00 -0.42483181413E+03  0.42483181414E+03  0.25500000920E-02 0. -1.
    10030    2    1    2    0    0  0.00000000000E+00  0.00000000000E+00  0.89636706851E+03  0.17460306968E+04  0.14983822185E+04 0.  0.
        1    1    3    3  502    0 -0.26602519084E+03  0.81043938396E+02 -0.36245906045E+03  0.45685237510E+03  0.50400001928E-02 0. -1.
       -1    1    3    3    0  502  0.26602519084E+03 -0.81043938396E+02  0.12588261290E+04  0.12891783217E+04  0.50400001928E-02 0.  1.
</event>
<event>
 5   0  0.3907345E-04  0.1502758E+04  0.7818609E-02  0.8882621E-01
       -1   -1    0    0    0  501  0.00000000000E+00  0.00000000000E+00  0.66516763938E+03  0.66516763940E+03  0.50400001928E-02 0. -1.
        1   -1    0    0  501    0  0.00000000000E+00  0.00000000000E+00 -0.84876441100E+03  0.84876441101E+03  0.50400001928E-02 0.  1.
    10030    2    1    2    0    0  0.00000000000E+00  0.00000000000E+00 -0.18359677162E+03  0.15139320504E+04  0.15027582902E+04 0.  0.
        5    1    3    3  502    0  0.11358740581E+03 -0.35792795155E+03  0.56383550825E+03  0.67745633632E+03  0.46999998093E+01 0. -1.
       -5    1    3    3    0  502 -0.11358740581E+03  0.35792795155E+03 -0.74743227987E+03  0.83647571408E+03  0.46999998093E+01 0.  1.
</event>
<event>
 5   0  0.4086710E-04  0.1490225E+04  0.7818609E-02  0.8890979E-01
        1   -1    0    0  501    0  0.00000000000E+00  0.00000000000E+00  0.82683431108E+03  0.82683431109E+03  0.50400001928E-02 0.  1.
       -1   -1    0    0    0  501  0.00000000000E+00  0.00000000000E+00 -0.67146803274E+03  0.67146803275E+03  0.50400001928E-02 0. -1.
    10030    2    1    2    0    0  0.00000000000E+00  0.00000000000E+00  0.15536627834E+03  0.14983023438E+04  0.14902252290E+04 0.  0.
        3    1    3    3  502    0  0.51835485431E+03 -0.58251775546E+02 -0.45727949004E+03  0.69367828750E+03  0.10100000352E+00 0. -1.
       -3    1    3    3    0  502 -0.51835485431E+03  0.58251775546E+02  0.61264576838E+03  0.80462405635E+03  0.10100000352E+00 0.  1.
</event>
<event>
 5   0  0.7359897E-04  0.1476796E+04  0.7818609E-02  0.8900031E-01
       -2   -1    0    0    0  501  0.00000000000E+00  0.00000000000E+00  0.97186446074E+03  0.97186446074E+03  0.25500000920E-02 0.  1.
        2   -1    0    0  501    0  0.00000000000E+00  0.00000000000E+00 -0.56101645150E+03  0.56101645151E+03  0.25500000920E-02 0. -1.
    10030    2    1    2    0    0  0.00000000000E+00  0.00000000000E+00  0.41084800924E+03  0.15328809122E+04  0.14767964668E+04 0.  0.
        1    1    3    3  502    0  0.50492480770E+03 -0.24224807757E+03 -0.29409945039E+03  0.63255646330E+03  0.50400001928E-02 0. -1.
       -1    1    3    3    0  502 -0.50492480770E+03  0.24224807757E+03  0.70494745963E+03  0.90032444895E+03  0.50400001928E-02 0.  1.
</event>
<event>
 5   0  0.4084462E-04  0.1589736E+04  0.7818609E-02  0.8826878E-01
        1   -1    0    0  501    0  0.00000000000E+00  0.00000000000E+00  0.16934763686E+04  0.16934763686E+04  0.50400001928E-02 0.  1.
       -1   -1    0    0    0  501  0.00000000000E+00  0.00000000000E+00 -0.37308770906E+03  0.37308770909E+03  0.50400001928E-02 0. -1.
    10030    2    1    2    0    0  0.00000000000E+00  0.00000000000E+00  0.13203886595E+04  0.20665640777E+04  0.15897361023E+04 0.  0.
        1    1    3    3  502    0  0.58043637735E+03 -0.47168850326E+03  0.31037044331E+03  0.80976925378E+03  0.50400001928E-02 0. -1.
       -1    1    3    3    0  502 -0.58043637735E+03  0.47168850326E+03  0.10100182162E+04  0.12567948239E+04  0.50400001928E-02 0.  1.
</event>
<event>
 5   0  0.4015204E-04  0.1501270E+04  0.7818609E-02  0.8883609E-01
       -1   -1    0    0    0  501  0.00000000000E+00  0.00000000000E+00  0.82921782069E+03  0.82921782071E+03  0.50400001928E-02 0. -1.
        1   -1    0    0  501    0  0.00000000000E+00  0.00000000000E+00 -0.67949919885E+03  0.67949919887E+03  0.50400001928E-02 0.  1.
    10030    2    1    2    0    0  0.00000000000E+00  0.00000000000E+00  0.14971862184E+03  0.15087170196E+04  0.15012699222E+04 0.  0.
        2    1    3    3  502    0 -0.42975596910E+02  0.21588131925E+03  0.79605500644E+03  0.82592688491E+03  0.25500000920E-02 0. -1.
       -2    1    3    3    0  502  0.42975596910E+02 -0.21588131925E+03 -0.64633638461E+03  0.68279013467E+03  0.25500000920E-02 0.  1.
</event>
<event>
 5   0  0.4058874E-04  0.1501532E+04  0.7818609E-02  0.8883435E-01
        1   -1    0    0  501    0  0.00000000000E+00  0.00000000000E+00  0.18095678817E+04  0.18095678817E+04  0.50400001928E-02 0.  1.
       -1   -1    0    0    0  501  0.00000000000E+00  0.00000000000E+00 -0.31148291035E+03  0.31148291039E+03  0.50400001928E-02 0. -1.
    10030    2    1    2    0    0  0.00000000000E+00  0.00000000000E+00  0.14980849714E+04  0.21210507921E+04  0.15015318449E+04 0.  0.
        4    1    3    3  502    0  0.16782674193E+03  0.73121134434E+03  0.70878953254E+03  0.10320949858E+04  0.12699999809E+01 0. -1.
       -4    1    3    3    0  502 -0.16782674193E+03 -0.73121134434E+03  0.78929543882E+03  0.10889558063E+04  0.12699999809E+01 0.  1.
</event>
<event>
 5   0  0.4058874E-04  0.1517390E+04  0.7818609E-02  0.8872970E-01
        1   -1    0    0  501    0  0.00000000000E+00  0.00000000000E+00  0.90168147734E+03  0.90168147735E+03  0.50400001928E-02 0.  1.
       -1   -1    0    0    0  501  0.00000000000E+00  0.00000000000E+00 -0.63838322200E+03  0.63838322202E+03  0.50400001928E-02 0. -1.
    10030    2    1    2    0    0  0.00000000000E+00  0.00000000000E+00  0.26329825533E+03  0.15400646994E+04  0.15173902949E+04 0.  0.
        4    1    3    3  502    0  0.67756607666E+03  0.34047174366E+03  0.15650834136E+03  0.77428242282E+03  0.12699999809E+01 0. -1.
       -4    1    3    3    0  502 -0.67756607666E+03 -0.34047174366E+03  0.10678991397E+03  0.76578227656E+03  0.12699999809E+01 0.  1.
</event>
<event>
 5   0  0.4084462E-04  0.1496423E+04  0.7818609E-02  0.8886835E-01
       -1   -1    0    0    0  501  0.00000000000E+00  0.00000000000E+00  0.30187019041E+03  0.30187019045E+03  0.50400001928E-02 0. -1.
        1   -1    0    0  501    0  0.00000000000E+00  0.00000000000E+00 -0.18545084194E+04  0.18545084194E+04  0.50400001928E-02 0.  1.
    10030    2    1    2    0    0  0.00000000000E+00  0.00000000000E+00 -0.15526382290E+04  0.21563786098E+04  0.14964234825E+04 0.  0.
        1    1    3    3  502    0  0.41108637499E+03  0.26716390376E+03 -0.15907860844E+04  0.16646227577E+04  0.50400001928E-02 0.  1.
       -1    1    3    3    0  502 -0.41108637499E+03 -0.26716390376E+03  0.38147855443E+02  0.49175585211E+03  0.50400001928E-02 0. -1.
</event>
<event>
 5   0  0.4086710E-04  0.1496973E+04  0.7818609E-02  0.8886468E-01
        1   -1    0    0  501    0  0.00000000000E+00  0.00000000000E+00  0.65001546608E+03  0.65001546610E+03  0.50400001928E-02 0.  1.
       -1   -1    0    0    0  501  0.00000000000E+00  0.00000000000E+00 -0.86187487562E+03  0.86187487563E+03  0.50400001928E-02 0. -1.
    10030    2    1    2    0    0  0.00000000000E+00  0.00000000000E+00 -0.21185940954E+03  0.15118903417E+04  0.14969729443E+04 0.  0.
        3    1    3    3  502    0 -0.23332333175E+03 -0.44511015845E+03 -0.66613643672E+03  0.83444627916E+03  0.10100000352E+00 0. -1.
       -3    1    3    3    0  502  0.23332333175E+03  0.44511015845E+03  0.45427702718E+03  0.67744406257E+03  0.10100000352E+00 0.  1.
</event>
<event>
 5   0  0.4058874E-04  0.1516863E+04  0.7818609E-02  0.8873316E-01
        1   -1    0    0  501    0  0.00000000000E+00  0.00000000000E+00  0.13300860723E+04  0.13300860723E+04  0.50400001928E-02 0.  1.
       -1   -1    0    0    0  501  0.00000000000E+00  0.00000000000E+00 -0.43246680458E+03  0.43246680461E+03  0.50400001928E-02 0. -1.
    10030    2    1    2    0    0  0.00000000000E+00  0.00000000000E+00  0.89761926776E+03  0.17625528770E+04  0.15168626484E+04 0.  0.
        4    1    3    3  502    0  0.35278053027E+03  0.17196875020E+03  0.12029192224E+04  0.12653235247E+04  0.12699999809E+01 0.  1.
       -4    1    3    3    0  502 -0.35278053027E+03 -0.17196875020E+03 -0.30529995463E+03  0.49722935229E+03  0.12699999809E+01 0. -1.
</event>
<event>
 5   0  0.7454828E-04  0.1519825E+04  0.7818609E-02  0.8871375E-01
        2   -1    0    0  501    0  0.00000000000E+00  0.00000000000E+00  0.92471497596E+03  0.92471497597E+03  0.25500000920E-02 0. -1.
       -2   -1    0    0    0  501  0.00000000000E+00  0.00000000000E+00 -0.62448119040E+03  0.62448119041E+03  0.25500000920E-02 0.  1.
    10030    2    1    2    0    0  0.00000000000E+00  0.00000000000E+00  0.30023378556E+03  0.15491961664E+04  0.15198251333E+04 0.  0.
        3    1    3    3  502    0 -0.58570040521E+03  0.22506081669E+03  0.58708507896E+03  0.85928239597E+03  0.10100000352E+00 0. -1.
       -3    1    3    3    0  502  0.58570040521E+03 -0.22506081669E+03 -0.28685129340E+03  0.68991377041E+03  0.10100000352E+00 0.  1.
</event>
<event>
 5   0  0.4015204E-04  0.1521879E+04  0.7818609E-02  0.8870033E-01
        1   -1    0    0  501    0  0.00000000000E+00  0.00000000000E+00  0.14358618407E+04  0.14358618407E+04  0.50400001928E-02 0.  1.
       -1   -1    0    0    0  501  0.00000000000E+00  0.00000000000E+00 -0.40326208142E+03  0.40326208145E+03  0.50400001928E-02 0. -1.
    10030    2    1    2    0    0  0.00000000000E+00  0.00000000000E+00  0.10325997592E+04  0.18391239221E+04  0.15218786214E+04 0.  0.
        2    1    3    3  502    0  0.11609731044E+03 -0.11574062296E+03 -0.38166871979E+03  0.41538595182E+03  0.25500000920E-02 0. -1.
       -2    1    3    3    0  502 -0.11609731044E+03  0.11574062296E+03  0.14142684790E+04  0.14237379703E+04  0.25500000920E-02 0.  1.
</event>
<event>
 5   0  0.4086710E-04  0.1527634E+04  0.7818609E-02  0.8866282E-01
        1   -1    0    0  501    0  0.00000000000E+00  0.00000000000E+00  0.20027989843E+04  0.20027989844E+04  0.50400001928E-02 0.  1.
       -1   -1    0    0    0  501  0.00000000000E+00  0.00000000000E+00 -0.29130038785E+03  0.29130038789E+03  0.50400001928E-02 0. -1.
    10030    2    1    2    0    0  0.00000000000E+00  0.00000000000E+00  0.17114985965E+04  0.22940993722E+04  0.15276336223E+04 0.  0.
        3    1    3    3  502    0 -0.73428913443E+03 -0.15832059845E+03  0.10636739362E+04  0.13021705716E+04  0.10100000352E+00 0.  1.
       -3    1    3    3    0  502  0.73428913443E+03  0.15832059845E+03  0.64782466029E+03  0.99192880062E+03  0.10100000352E+00 0. -1.
</event>
<event>
 5   0  0.4015204E-04  0.1498311E+04  0.7818609E-02  0.8885577E-01
       -1   -1    0    0    0  501  0.00000000000E+00  0.00000000000E+00  0.36807669865E+03  0.36807669868E+03  0.50400001928E-02 0. -1.
        1   -1    0    0  501    0  0.00000000000E+00  0.00000000000E+00 -0.15247754316E+04  0.15247754316E+04  0.50400001928E-02 0.  1.
    10030    2    1    2    0    0  0.00000000000E+00  0.00000000000E+00 -0.11566987329E+04  0.18928521303E+04  0.14983114590E+04 0.  0.
        2    1    3    3  502    0 -0.36118278412E+03 -0.53624226974E+03 -0.10564560433E+04  0.12385911944E+04  0.25500000920E-02 0.  1.
       -2    1    3    3    0  502  0.36118278412E+03  0.53624226974E+03 -0.10024268965E+03  0.65426093589E+03  0.25500000920E-02 0. -1.
</event>
<event>
 5   0  0.7359897E-04  0.1466004E+04  0.7818609E-02  0.8907380E-01
       -2   -1    0    0    0  501  0.00000000000E+00  0.00000000000E+00  0.15228955765E+04  0.15228955765E+04  0.25500000920E-02 0. -1.
        2   -1    0    0  501    0  0.00000000000E+00  0.00000000000E+00 -0.35280958532E+03  0.35280958533E+03  0.25500000920E-02 0.  1.
    10030    2    1    2    0    0  0.00000000000E+00  0.00000000000E+00  0.11700859911E+04  0.18757051618E+04  0.14660043067E+04 0.  0.
        1    1    3    3  502    0 -0.30205790588E+03  0.88481010657E+02 -0.26194557512E+03  0.40949157757E+03  0.50400001928E-02 0.  1.
       -1    1    3    3    0  502  0.30205790588E+03 -0.88481010657E+02  0.14320315663E+04  0.14662135842E+04  0.50400001928E-02 0. -1.
</event>
<event>
 5   0  0.4084462E-04  0.1461324E+04  0.7818609E-02  0.8910587E-01
        1   -1    0    0  501    0  0.00000000000E+00  0.00000000000E+00  0.64102771205E+03  0.64102771207E+03  0.50400001928E-02 0.  1.
       -1   -1    0    0    0  501  0.00000000000E+00  0.00000000000E+00 -0.83282957264E+03  0.83282957265E+03  0.50400001928E-02 0. -1.
    10030    2    1    2    0    0  0.00000000000E+00  0.00000000000E+00 -0.19180186059E+03  0.14738572847E+04  0.14613238320E+04 0.  0.
        1    1    3    3  502    0 -0.33222606795E+03 -0.50524981979E+03 -0.50955919511E+03  0.79076046560E+03  0.50400001928E-02 0. -1.
       -1    1    3    3    0  502  0.33222606795E+03  0.50524981979E+03  0.31775733452E+03  0.68309681911E+03  0.50400001928E-02 0.  1.
</event>
<event>
 5   0  0.7634227E-04  0.1463146E+04  0.7818609E-02  0.8909337E-01
        2   -1    0    0  501    0  0.00000000000E+00  0.00000000000E+00  0.39373145861E+03  0.39373145861E+03  0.25500000920E-02 0. -1.
       -2   -1    0    0    0  501  0.00000000000E+00  0.00000000000E+00 -0.13592997432E+04  0.13592997432E+04  0.25500000920E-02 0.  1.
    10030    2    1    2    0    0  0.00000000000E+00  0.00000000000E+00 -0.96556828458E+03  0.17530312018E+04  0.14631460222E+04 0.  0.
        2    1    3    3  502    0 -0.53584278780E+03 -0.17240455777E+03  0.77072491672E+02  0.56814698253E+03  0.25500000920E-02 0. -1.
       -2    1    3    3    0  502  0.53584278780E+03  0.17240455777E+03 -0.10426407763E+04  0.11848842193E+04  0.25500000920E-02 0.  1.
</event>
<event>
 5   0  0.3907345E-04  0.1376116E+04  0.7818609E-02  0.8971291E-01
       -1   -1    0    0    0  501  0.00000000000E+00  0.00000000000E+00  0.24195423979E+03  0.24195423985E+03  0.50400001928E-02 0.  1.
        1   -1    0    0  501    0  0.00000000000E+00  0.00000000000E+00 -0.19566669964E+04  0.19566669964E+04  0.50400001928E-02 0. -1.
    10030    2    1    2    0    0  0.00000000000E+00  0.00000000000E+00 -0.17147127566E+04  0.21986212362E+04  0.13761160935E+04 0.  0.
        5    1    3    3  502    0 -0.45083370042E+03 -0.82649113228E+02 -0.16772116100E+04  0.17387187168E+04  0.46999998093E+01 0. -1.
       -5    1    3    3    0  502  0.45083370042E+03  0.82649113228E+02 -0.37501146520E+02  0.45990251939E+03  0.46999998093E+01 0.  1.
</event>
<event>
 5   0  0.4084462E-04  0.1496041E+04  0.7818609E-02  0.8887090E-01
       -1   -1    0    0    0  501  0.00000000000E+00  0.00000000000E+00  0.66039531476E+03  0.66039531477E+03  0.50400001928E-02 0.  1.
        1   -1    0    0  501    0  0.00000000000E+00  0.00000000000E+00 -0.84727205332E+03  0.84727205334E+03  0.50400001928E-02 0. -1.
    10030    2    1    2    0    0  0.00000000000E+00  0.00000000000E+00 -0.18687673857E+03  0.15076673681E+04  0.14960407673E+04 0.  0.
        1    1    3    3  502    0  0.69933924704E+03 -0.26121700133E+03 -0.14097261737E+03  0.75972559725E+03  0.50400001928E-02 0. -1.
       -1    1    3    3    0  502 -0.69933924704E+03  0.26121700133E+03 -0.45904121198E+02  0.74794177087E+03  0.50400001928E-02 0.  1.
</event>
<event>
 5   0  0.4086710E-04  0.1512655E+04  0.7818609E-02  0.8876081E-01
        1   -1    0    0  501    0  0.00000000000E+00  0.00000000000E+00  0.10490186847E+04  0.10490186847E+04  0.50400001928E-02 0. -1.
       -1   -1    0    0    0  501  0.00000000000E+00  0.00000000000E+00 -0.54530129181E+03  0.54530129183E+03  0.50400001928E-02 0.  1.
    10030    2    1    2    0    0  0.00000000000E+00  0.00000000000E+00  0.50371739287E+03  0.15943199765E+04  0.15126549427E+04 0.  0.
        3    1    3    3  502    0 -0.13159257203E+03 -0.41079723829E+02  0.10356651191E+04  0.10447996927E+04  0.10100000352E+00 0. -1.
       -3    1    3    3    0  502  0.13159257203E+03  0.41079723829E+02 -0.53194772622E+03  0.54952028384E+03  0.10100000352E+00 0.  1.
</event>
<event>
 5   0  0.2800375E-04  0.1493045E+04  0.7818609E-02  0.8889091E-01
        3   -1    0    0  501    0  0.00000000000E+00  0.00000000000E+00  0.13184629097E+04  0.13184629135E+04  0.10100000352E+00 0.  1.
       -3   -1    0    0    0  501  0.00000000000E+00  0.00000000000E+00 -0.42268594100E+03  0.42268595307E+03  0.10100000352E+00 0. -1.
    10030    2    1    2    0    0  0.00000000000E+00  0.00000000000E+00  0.89577696865E+03  0.17411488666E+04  0.14930448748E+04 0.  0.
        5    1    3    3  502    0 -0.36688257082E+03 -0.42419968521E+03  0.10224290730E+04  0.11661610065E+04  0.46999998093E+01 0.  1.
       -5    1    3    3    0  502  0.36688257082E+03  0.42419968521E+03 -0.12665210439E+03  0.57498786009E+03  0.46999998093E+01 0. -1.
</event>
<event>
 5   0  0.7454828E-04  0.1511332E+04  0.7818609E-02  0.8876952E-01
        2   -1    0    0  501    0  0.00000000000E+00  0.00000000000E+00  0.10288144843E+04  0.10288144843E+04  0.25500000920E-02 0. -1.
       -2   -1    0    0    0  501  0.00000000000E+00  0.00000000000E+00 -0.55503790124E+03  0.55503790125E+03  0.25500000920E-02 0.  1.
    10030    2    1    2    0    0  0.00000000000E+00  0.00000000000E+00  0.47377658302E+03  0.15838523855E+04  0.15113319055E+04 0.  0.
        3    1    3    3  502    0  0.50049485674E+03 -0.53349207582E+03  0.38262397897E+02  0.73251137731E+03  0.10100000352E+00 0.  1.
       -3    1    3    3    0  502 -0.50049485674E+03  0.53349207582E+03  0.43551418512E+03  0.85134100820E+03  0.10100000352E+00 0. -1.
</event>
<event>
 5   0  0.7547580E-04  0.1503875E+04  0.7818609E-02  0.8881880E-01
       -2   -1    0    0    0  501  0.00000000000E+00  0.00000000000E+00  0.41122874735E+03  0.41122874736E+03  0.25500000920E-02 0.  1.
        2   -1    0    0  501    0  0.00000000000E+00  0.00000000000E+00 -0.13749279252E+04  0.13749279252E+04  0.25500000920E-02 0. -1.
    10030    2    1    2    0    0  0.00000000000E+00  0.00000000000E+00 -0.96369917783E+03  0.17861566725E+04  0.15038748464E+04 0.  0.
        4    1    3    3  502    0  0.29955835772E+03  0.44479449061E+03 -0.11078839181E+04  0.12308475687E+04  0.12699999809E+01 0. -1.
       -4    1    3    3    0  502 -0.29955835772E+03 -0.44479449061E+03  0.14418474027E+03  0.55530910382E+03  0.12699999809E+01 0.  1.
</event>
<event>
 5   0  0.4084462E-04  0.1549093E+04  0.7818609E-02  0.8852447E-01
       -1   -1    0    0    0  501  0.00000000000E+00  0.00000000000E+00  0.76390938515E+03  0.76390938517E+03  0.50400001928E-02 0.  1.
        1   -1    0    0  501    0  0.00000000000E+00  0.00000000000E+00 -0.78533177099E+03  0.78533177101E+03  0.50400001928E-02 0. -1.
    10030    2    1    2    0    0  0.00000000000E+00  0.00000000000E+00 -0.21422385845E+02  0.15492411562E+04  0.15490930383E+04 0.  0.
        1    1    3    3  502    0  0.16141683842E+02 -0.18478073464E+03  0.74136991080E+03  0.76422105344E+03  0.50400001928E-02 0.  1.
       -1    1    3    3    0  502 -0.16141683842E+02  0.18478073464E+03 -0.76279229665E+03  0.78502010274E+03  0.50400001928E-02 0. -1.
</event>
<event>
 5   0  0.3907345E-04  0.1477279E+04  0.7818609E-02  0.8899704E-01
        1   -1    0    0  501    0  0.00000000000E+00  0.00000000000E+00  0.25263395379E+04  0.25263395379E+04  0.50400001928E-02 0.  1.
       -1   -1    0    0    0  501  0.00000000000E+00  0.00000000000E+00 -0.21595997592E+03  0.21595997598E+03  0.50400001928E-02 0. -1.
    10030    2    1    2    0    0  0.00000000000E+00  0.00000000000E+00  0.23103795620E+04  0.27422995139E+04  0.14772788848E+04 0.  0.
        5    1    3    3  502    0 -0.40037070334E+03 -0.37802260783E+02  0.51105731126E+01  0.40221128648E+03  0.46999998093E+01 0. -1.
       -5    1    3    3    0  502  0.40037070334E+03  0.37802260783E+02  0.23052689889E+04  0.23400882274E+04  0.46999998093E+01 0.  1.
</event>
<event>
 5   0  0.7454828E-04  0.1498271E+04  0.7818609E-02  0.8885603E-01
        2   -1    0    0  501    0  0.00000000000E+00  0.00000000000E+00  0.74133448582E+03  0.74133448582E+03  0.25500000920E-02 0.  1.
       -2   -1    0    0    0  501  0.00000000000E+00  0.00000000000E+00 -0.75701892226E+03  0.75701892226E+03  0.25500000920E-02 0. -1.
    10030    2    1    2    0    0  0.00000000000E+00  0.00000000000E+00 -0.15684436445E+02  0.14983534081E+04  0.14982713152E+04 0.  0.
        3    1    3    3  502    0  0.45362249497E+03 -0.58953684505E+03  0.80916031608E+02  0.74824760206E+03  0.10100000352E+00 0.  1.
       -3    1    3    3    0  502 -0.45362249497E+03  0.58953684505E+03 -0.96600468053E+02  0.75010580603E+03  0.10100000352E+00 0. -1.
</event>
<event>
 5   0  0.4058874E-04  0.1496532E+04  0.7818609E-02  0.8886762E-01
        1   -1    0    0  501    0  0.00000000000E+00  0.00000000000E+00  0.11682302735E+04  0.11682302735E+04  0.50400001928E-02 0. -1.
       -1   -1    0    0    0  501  0.00000000000E+00  0.00000000000E+00 -0.47927381658E+03  0.47927381661E+03  0.50400001928E-02 0.  1.
    10030    2    1    2    0    0  0.00000000000E+00  0.00000000000E+00  0.68895645695E+03  0.16475040902E+04  0.14965322340E+04 0.  0.
        4    1    3    3  502    0  0.29153935757E+03 -0.44828810372E+03 -0.23171831269E+03  0.58279705754E+03  0.12699999809E+01 0.  1.
       -4    1    3    3    0  502 -0.29153935757E+03  0.44828810372E+03  0.92067476964E+03  0.10647070326E+04  0.12699999809E+01 0. -1.
</event>
<event>
 5   0  0.7454828E-04  0.1499263E+04  0.7818609E-02  0.8884943E-01
       -2   -1    0    0    0  501  0.00000000000E+00  0.00000000000E+00  0.24147171664E+03  0.24147171665E+03  0.25500000920E-02 0.  1.
        2   -1    0    0  501    0  0.00000000000E+00  0.00000000000E+00 -0.23271776948E+04  0.23271776948E+04  0.25500000920E-02 0. -1.
    10030    2    1    2    0    0  0.00000000000E+00  0.00000000000E+00 -0.20857059782E+04  0.25686494115E+04  0.14992632763E+04 0.  0.
        3    1    3    3  502    0  0.14600059541E+03 -0.41397398848E+03 -0.17558194162E+01  0.43896893979E+03  0.10100000352E+00 0.  1.
       -3    1    3    3    0  502 -0.14600059541E+03  0.41397398848E+03 -0.20839501588E+04  0.21296804717E+04  0.10100000352E+00 0. -1.
</event>
<event>
 5   0  0.3907345E-04  0.1495685E+04  0.7818609E-02  0.8887327E-01
        1   -1    0    0  501    0  0.00000000000E+00  0.00000000000E+00  0.82204278042E+03  0.82204278044E+03  0.50400001928E-02 0. -1.
       -1   -1    0    0    0  501  0.00000000000E+00  0.00000000000E+00 -0.68034019982E+03  0.68034019984E+03  0.50400001928E-02 0.  1.
    10030    2    1    2    0    0  0.00000000000E+00  0.00000000000E+00  0.14170258061E+03  0.15023829803E+04  0.14956854609E+04 0.  0.
        5    1    3    3  502    0 -0.49200449465E+03  0.32094959380E+03  0.53570819997E+03  0.79503611869E+03  0.46999998093E+01 0. -1.
       -5    1    3    3    0  502  0.49200449465E+03 -0.32094959380E+03 -0.39400561936E+03  0.70734686159E+03  0.46999998093E+01 0.  1.
</event>
<event>
 5   0  0.4015204E-04  0.1485034E+04  0.7818609E-02  0.8894467E-01
        1   -1    0    0  501    0  0.00000000000E+00  0.00000000000E+00  0.40139339411E+03  0.40139339414E+03  0.50400001928E-02 0. -1.
       -1   -1    0    0    0  501  0.00000000000E+00  0.00000000000E+00 -0.13735439390E+04  0.13735439390E+04  0.50400001928E-02 0.  1.
    10030    2    1    2    0    0  0.00000000000E+00  0.00000000000E+00 -0.97215054492E+03  0.17749373332E+04  0.14850339574E+04 0.  0.
        2    1    3    3  502    0 -0.11400579962E+03  0.23312015960E+03 -0.13175794678E+04  0.13428916505E+04  0.25500000920E-02 0.  1.
       -2    1    3    3    0  502  0.11400579962E+03 -0.23312015960E+03  0.34542892285E+03  0.43204568266E+03  0.25500000920E-02 0. -1.
</event>
<event>
 5   0  0.7672251E-04  0.1504909E+04  0.7818609E-02  0.8881195E-01
        2   -1    0    0  501    0  0.00000000000E+00  0.00000000000E+00  0.30761057995E+03  0.30761057996E+03  0.25500000920E-02 0.  1.
       -2   -1    0    0    0  501  0.00000000000E+00  0.00000000000E+00 -0.18405994695E+04  0.18405994695E+04  0.25500000920E-02 0. -1.
    10030    2    1    2    0    0  0.00000000000E+00  0.00000000000E+00 -0.15329888896E+04  0.21482100495E+04  0.15049091272E+04 0.  0.
        5    1    3    3  502    0 -0.44770432052E+03 -0.60310642185E+03 -0.83016122029E+03  0.11195384122E+04  0.46999998093E+01 0.  1.
       -5    1    3    3    0  502  0.44770432052E+03  0.60310642185E+03 -0.70282766931E+03  0.10286716373E+04  0.46999998093E+01 0. -1.
</event>
<event>
 5   0  0.4084462E-04  0.1496000E+04  0.7818609E-02  0.8887117E-01
        1   -1    0    0  501    0  0.00000000000E+00  0.00000000000E+00  0.43465232892E+03  0.43465232895E+03  0.50400001928E-02 0.  1.
       -1   -1    0    0    0  501  0.00000000000E+00  0.00000000000E+00 -0.12872451950E+04  0.12872451950E+04  0.50400001928E-02 0. -1.
    10030    2    1    2    0    0  0.00000000000E+00  0.00000000000E+00 -0.85259286606E+03  0.17218975239E+04  0.14960001630E+04 0.  0.
        1    1    3    3  502    0 -0.54452308546E+03  0.50941085315E+03 -0.35820897558E+03  0.82723544298E+03  0.50400001928E-02 0.  1.
       -1    1    3    3    0  502  0.54452308546E+03 -0.50941085315E+03 -0.49438389048E+03  0.89466208095E+03  0.50400001928E-02 0. -1.
</event>
<event>
 5   0  0.4084462E-04  0.1499620E+04  0.7818609E-02  0.8884706E-01
        1   -1    0    0  501    0  0.00000000000E+00  0.00000000000E+00  0.14761597643E+04  0.14761597643E+04  0.50400001928E-02 0. -1.
       -1   -1    0    0    0  501  0.00000000000E+00  0.00000000000E+00 -0.38086338376E+03  0.38086338379E+03  0.50400001928E-02 0.  1.
    10030    2    1    2    0    0  0.00000000000E+00  0.00000000000E+00  0.10952963805E+04  0.18570231481E+04  0.14996202224E+04 0.  0.
        1    1    3    3  502    0 -0.46380780401E+03  0.11333851026E+03  0.12635821696E+04  0.13507787370E+04  0.50400001928E-02 0. -1.
       -1    1    3    3    0  502  0.46380780401E+03 -0.11333851026E+03 -0.16828578904E+03  0.50624441112E+03  0.50400001928E-02 0.  1.
</event>
<event>
 5   0  0.7454828E-04  0.1501671E+04  0.7818609E-02  0.8883343E-01
        2   -1    0    0  501    0  0.00000000000E+00  0.00000000000E+00  0.23363424781E+04  0.23363424781E+04  0.25500000920E-02 0. -1.
       -2   -1    0    0    0  501  0.00000000000E+00  0.00000000000E+00 -0.24129753567E+03  0.24129753569E+03  0.25500000920E-02 0.  1.
    10030    2    1    2    0    0  0.00000000000E+00  0.00000000000E+00  0.20950449425E+04  0.25776400138E+04  0.15016706463E+04 0.  0.
        3    1    3    3  502    0  0.41000400992E+02  0.42006040221E+03 -0.18406870629E+02  0.42245780555E+03  0.10100000352E+00 0.  1.
       -3    1    3    3    0  502 -0.41000400992E+02 -0.42006040221E+03  0.21134518131E+04  0.21551822083E+04  0.10100000352E+00 0. -1.
</event>
<event>
 5   0  0.4058874E-04  0.1496420E+04  0.7818609E-02  0.8886837E-01
        1   -1    0    0  501    0  0.00000000000E+00  0.00000000000E+00  0.23100337130E+04  0.23100337130E+04  0.50400001928E-02 0. -1.
       -1   -1    0    0    0  501  0.00000000000E+00  0.00000000000E+00 -0.24234215717E+03  0.24234215722E+03  0.50400001928E-02 0.  1.
    10030    2    1    2    0    0  0.00000000000E+00  0.00000000000E+00  0.20676915558E+04  0.25523758702E+04  0.14964204666E+04 0.  0.
        4    1    3    3  502    0  0.49567301005E+03 -0.49870554670E+03  0.59759162670E+03  0.92277641951E+03  0.12699999809E+01 0.  1.
       -4    1    3    3    0  502 -0.49567301005E+03  0.49870554670E+03  0.14700999291E+04  0.16295994507E+04  0.12699999809E+01 0. -1.
</event>
<event>
 5   0  0.4084462E-04  0.1536446E+04  0.7818609E-02  0.8860572E-01
        1   -1    0    0  501    0  0.00000000000E+00  0.00000000000E+00  0.82088549215E+03  0.82088549216E+03  0.50400001928E-02 0. -1.
       -1   -1    0    0    0  501  0.00000000000E+00  0.00000000000E+00 -0.71893917447E+03  0.71893917449E+03  0.50400001928E-02 0.  1.
    10030    2    1    2    0    0  0.00000000000E+00  0.00000000000E+00  0.10194631768E+03  0.15398246667E+04  0.15364462087E+04 0.  0.
        1    1    3    3  502    0  0.40243030689E+03  0.63291303440E+03  0.21758454633E+03  0.78094308105E+03  0.50400001928E-02 0.  1.
       -1    1    3    3    0  502 -0.40243030689E+03 -0.63291303440E+03 -0.11563822865E+03  0.75888158560E+03  0.50400001928E-02 0. -1.
</event>
<event>
 5   0  0.7672251E-04  0.1525544E+04  0.7818609E-02  0.8867642E-01
       -2   -1    0    0    0  501  0.00000000000E+00  0.00000000000E+00  0.32403504515E+03  0.32403504516E+03  0.25500000920E-02 0. -1.
        2   -1    0    0  501    0  0.00000000000E+00  0.00000000000E+00 -0.17955490213E+04  0.17955490213E+04  0.25500000920E-02 0.  1.
    10030    2    1    2    0    0  0.00000000000E+00  0.00000000000E+00 -0.14715139762E+04  0.21195840665E+04  0.15255435860E+04 0.  0.
        5    1    3    3  502    0  0.49572546685E+03  0.30385027795E+03 -0.49825863560E+02  0.58358670014E+03  0.46999998093E+01 0. -1.
       -5    1    3    3    0  502 -0.49572546685E+03 -0.30385027795E+03 -0.14216881126E+04  0.15359973664E+04  0.46999998093E+01 0.  1.
</event>
<event>
 5   0  0.3907345E-04  0.1498014E+04  0.7818609E-02  0.8885775E-01
        1   -1    0    0  501    0  0.00000000000E+00  0.00000000000E+00  0.14482984362E+04  0.14482984362E+04  0.50400001928E-02 0. -1.
       -1   -1    0    0    0  501  0.00000000000E+00  0.00000000000E+00 -0.38735879137E+03  0.38735879140E+03  0.50400001928E-02 0.  1.
    10030    2    1    2    0    0  0.00000000000E+00  0.00000000000E+00  0.10609396449E+04  0.18356572276E+04  0.14980135271E+04 0.  0.
        5    1    3    3  502    0  0.80496267036E+02  0.34922216057E+03  0.13363967303E+04  0.13836235316E+04  0.46999998093E+01 0. -1.
       -5    1    3    3    0  502 -0.80496267036E+02 -0.34922216057E+03 -0.27545708544E+03  0.45203369604E+03  0.46999998093E+01 0.  1.
</event>
<event>
 5   0  0.7454828E-04  0.1502732E+04  0.7818609E-02  0.8882638E-01
       -2   -1    0    0    0  501  0.00000000000E+00  0.00000000000E+00  0.16260508534E+04  0.16260508534E+04  0.25500000920E-02 0. -1.
        2   -1    0    0  501    0  0.00000000000E+00  0.00000000000E+00 -0.34719138838E+03  0.34719138838E+03  0.25500000920E-02 0.  1.
    10030    2    1    2    0    0  0.00000000000E+00  0.00000000000E+00  0.12788594650E+04  0.19732422418E+04  0.15027319832E+04 0.  0.
        3    1    3    3  502    0 -0.52901858026E+03 -0.46615207894E+03  0.29854746223E+03  0.76569511972E+03  0.10100000352E+00 0.  1.
       -3    1    3    3    0  502  0.52901858026E+03  0.46615207894E+03  0.98031200277E+03  0.12075471220E+04  0.10100000352E+00 0. -1.
</event>
<event>
 5   0  0.4015204E-04  0.1533789E+04  0.7818609E-02  0.8862289E-01
       -1   -1    0    0    0  501  0.00000000000E+00  0.00000000000E+00  0.14425002347E+04  0.14425002347E+04  0.50400001928E-02 0.  1.
        1   -1    0    0  501    0  0.00000000000E+00  0.00000000000E+00 -0.40771386708E+03  0.40771386712E+03  0.50400001928E-02 0. -1.
    10030    2    1    2    0    0  0.00000000000E+00  0.00000000000E+00  0.10347863677E+04  0.18502141019E+04  0.15337892280E+04 0.  0.
        2    1    3    3  502    0 -0.20337048544E+03 -0.68414574254E+03  0.85583021298E+03  0.11143878610E+04  0.25500000920E-02 0.  1.
       -2    1    3    3    0  502  0.20337048544E+03  0.68414574254E+03  0.17895615467E+03  0.73582624082E+03  0.25500000920E-02 0. -1.
</event>
<event>
 5   0  0.4058874E-04  0.1478081E+04  0.7818609E-02  0.8899161E-01
        1   -1    0    0  501    0  0.00000000000E+00  0.00000000000E+00  0.78590381794E+03  0.78590381795E+03  0.50400001928E-02 0. -1.
       -1   -1    0    0    0  501  0.00000000000E+00  0.00000000000E+00 -0.69497198683E+03  0.69497198685E+03  0.50400001928E-02 0.  1.
    10030    2    1    2    0    0  0.00000000000E+00  0.00000000000E+00  0.90931831106E+02  0.14808758048E+04  0.14780813751E+04 0.  0.
        4    1    3    3  502    0 -0.73539396268E+03 -0.37736708491E+02 -0.17511378816E+02  0.73657083895E+03  0.12699999809E+01 0.  1.
       -4    1    3    3    0  502  0.73539396268E+03  0.37736708491E+02  0.10844320992E+03  0.74430496585E+03  0.12699999809E+01 0. -1.
</event>
<event>
 5   0  0.4084462E-04  0.1520756E+04  0.7818609E-02  0.8870766E-01
       -1   -1    0    0    0  501  0.00000000000E+00  0.00000000000E+00  0.88312225234E+03  0.88312225235E+03  0.50400001928E-02 0. -1.
        1   -1    0    0  501    0  0.00000000000E+00  0.00000000000E+00 -0.65469404244E+03  0.65469404246E+03  0.50400001928E-02 0.  1.
    10030    2    1    2    0    0  0.00000000000E+00  0.00000000000E+00  0.22842820989E+03  0.15378162948E+04  0.15207562295E+04 0.  0.
        1    1    3    3  502    0  0.30132874284E+03  0.36491906869E+03 -0.48761782606E+03  0.67951164984E+03  0.50400001928E-02 0.  1.
       -1    1    3    3    0  502 -0.30132874284E+03 -0.36491906869E+03  0.71604603595E+03  0.85830464497E+03  0.50400001928E-02 0. -1.
</event>
<event>
 5   0  0.4058874E-04  0.1500555E+04  0.7818609E-02  0.8884084E-01
       -1   -1    0    0    0  501  0.00000000000E+00  0.00000000000E+00  0.61991617649E+03  0.61991617651E+03  0.50400001928E-02 0. -1.
        1   -1    0    0  501    0  0.00000000000E+00  0.00000000000E+00 -0.90805209396E+03  0.90805209397E+03  0.50400001928E-02 0.  1.
    10030    2    1    2    0    0  0.00000000000E+00  0.00000000000E+00 -0.28813591747E+03  0.15279682705E+04  0.15005548070E+04 0.  0.
        4    1    3    3  502    0 -0.50501779786E+03  0.53642835028E+03  0.35480164566E+00  0.73674967929E+03  0.12699999809E+01 0. -1.
       -4    1    3    3    0  502  0.50501779786E+03 -0.53642835028E+03 -0.28849071911E+03  0.79121859120E+03  0.12699999809E+01 0.  1.
</event>
<event>
 5   0  0.7634227E-04  0.1498026E+04  0.7818609E-02  0.8885767E-01
        2   -1    0    0  501    0  0.00000000000E+00  0.00000000000E+00  0.17939113572E+04  0.17939113572E+04  0.25500000920E-02 0.  1.
       -2   -1    0    0    0  501  0.00000000000E+00  0.00000000000E+00 -0.31273596792E+03  0.31273596793E+03  0.25500000920E-02 0. -1.
    10030    2    1    2    0    0  0.00000000000E+00  0.00000000000E+00  0.14811753893E+04  0.21066473252E+04  0.14980261742E+04 0.  0.
        2    1    3    3  502    0  0.14433306946E+03 -0.19767968668E+03  0.17360837364E+04  0.17532529861E+04  0.25500000920E-02 0.  1.
       -2    1    3    3    0  502 -0.14433306946E+03  0.19767968668E+03 -0.25490834709E+03  0.35339433907E+03  0.25500000920E-02 0. -1.
</event>
<event>
 5   0  0.7359897E-04  0.1457675E+04  0.7818609E-02  0.8913097E-01
       -2   -1    0    0    0  501  0.00000000000E+00  0.00000000000E+00  0.54416167276E+03  0.54416167277E+03  0.25500000920E-02 0. -1.
        2   -1    0    0  501    0  0.00000000000E+00  0.00000000000E+00 -0.97618831628E+03  0.97618831629E+03  0.25500000920E-02 0.  1.
    10030    2    1    2    0    0  0.00000000000E+00  0.00000000000E+00 -0.43202664352E+03  0.15203499891E+04  0.14576752274E+04 0.  0.
        1    1    3    3  502    0 -0.59309341850E+03 -0.17201876521E+03 -0.61976745789E+03  0.87490682963E+03  0.50400001928E-02 0.  1.
       -1    1    3    3    0  502  0.59309341850E+03  0.17201876521E+03  0.18774081437E+03  0.64544315943E+03  0.50400001928E-02 0. -1.
</event>
<event>
 5   0  0.7454828E-04  0.1497095E+04  0.7818609E-02  0.8886387E-01
       -2   -1    0    0    0  501  0.00000000000E+00  0.00000000000E+00  0.74983010615E+03  0.74983010615E+03  0.25500000920E-02 0.  1.
        2   -1    0    0  501    0  0.00000000000E+00  0.00000000000E+00 -0.74726673496E+03  0.74726673496E+03  0.25500000920E-02 0. -1.
    10030    2    1    2    0    0  0.00000000000E+00  0.00000000000E+00  0.25633711893E+01  0.14970968411E+04  0.14970946466E+04 0.  0.
        3    1    3    3  502    0  0.71976768680E+03  0.19682057547E+03 -0.58041441727E+02  0.74844684584E+03  0.10100000352E+00 0. -1.
       -3    1    3    3    0  502 -0.71976768680E+03 -0.19682057547E+03  0.60604812916E+02  0.74864999528E+03  0.10100000352E+00 0.  1.
</event>
<event>
 5   0  0.7359897E-04  0.1488902E+04  0.7818609E-02  0.8891867E-01
        2   -1    0    0  501    0  0.00000000000E+00  0.00000000000E+00  0.30276123414E+04  0.30276123414E+04  0.25500000920E-02 0. -1.
       -2   -1    0    0    0  501  0.00000000000E+00  0.00000000000E+00 -0.18305090404E+03  0.18305090406E+03  0.25500000920E-02 0.  1.
    10030    2    1    2    0    0  0.00000000000E+00  0.00000000000E+00  0.28445614374E+04  0.32106632455E+04  0.14889018453E+04 0.  0.
        1    1    3    3  502    0 -0.71233454333E+02  0.71097956889E+03  0.97180005578E+03  0.12062178497E+04  0.50400001928E-02 0. -1.
       -1    1    3    3    0  502  0.71233454333E+02 -0.71097956889E+03  0.18727613816E+04  0.20044453958E+04  0.50400001928E-02 0.  1.
</event>
<event>
 5   0  0.7547580E-04  0.1516283E+04  0.7818609E-02  0.8873696E-01
       -2   -1    0    0    0  501  0.00000000000E+00  0.00000000000E+00  0.45694468069E+03  0.45694468069E+03  0.25500000920E-02 0.  1.
        2   -1    0    0  501    0  0.00000000000E+00  0.00000000000E+00 -0.12578736806E+04  0.12578736806E+04  0.25500000920E-02 0. -1.
    10030    2    1    2    0    0  0.00000000000E+00  0.00000000000E+00 -0.80092899989E+03  0.17148183613E+04  0.15162832022E+04 0.  0.
        4    1    3    3  502    0 -0.47941942140E+03  0.12646491700E+03  0.24816488399E+03  0.55445809526E+03  0.12699999809E+01 0.  1.
       -4    1    3    3    0  502  0.47941942140E+03 -0.12646491700E+03 -0.10490938839E+04  0.11603602660E+04  0.12699999809E+01 0. -1.
</event>
<event>
 5   0  0.4086710E-04  0.1288301E+04  0.7818609E-02  0.9038895E-01
        1   -1    0    0  501    0  0.00000000000E+00  0.00000000000E+00  0.83945381004E+03  0.83945381006E+03  0.50400001928E-02 0. -1.
       -1   -1    0    0    0  501  0.00000000000E+00  0.00000000000E+00 -0.49428528157E+03  0.49428528160E+03  0.50400001928E-02 0.  1.
    10030    2    1    2    0    0  0.00000000000E+00  0.00000000000E+00  0.34516852847E+03  0.13337390917E+04  0.12883006837E+04 0.  0.
        3    1    3    3  502    0 -0.52106399659E+03  0.15483541018E+03 -0.18521793985E+03  0.57427118004E+03  0.10100000352E+00 0.  1.
       -3    1    3    3    0  502  0.52106399659E+03 -0.15483541018E+03  0.53038646832E+03  0.75946791161E+03  0.10100000352E+00 0. -1.
</event>
<event>
 5   0  0.4084462E-04  0.1545042E+04  0.7818609E-02  0.8855041E-01
        1   -1    0    0  501    0  0.00000000000E+00  0.00000000000E+00  0.50130687587E+03  0.50130687590E+03  0.50400001928E-02 0.  1.
       -1   -1    0    0    0  501  0.00000000000E+00  0.00000000000E+00 -0.11904662417E+04  0.11904662417E+04  0.50400001928E-02 0. -1.
    10030    2    1    2    0    0  0.00000000000E+00  0.00000000000E+00 -0.68915936580E+03  0.16917731176E+04  0.15450422809E+04 0.  0.
        1    1    3    3  502    0  0.56986321848E+03 -0.16142328015E+03 -0.88765259027E+03  0.10671123110E+04  0.50400001928E-02 0. -1.
       -1    1    3    3    0  502 -0.56986321848E+03  0.16142328015E+03  0.19849322447E+03  0.62466080663E+03  0.50400001928E-02 0.  1.
</event>
<event>
 5   0  0.3907345E-04  0.1470114E+04  0.7818609E-02  0.8904574E-01
       -1   -1    0    0    0  501  0.00000000000E+00  0.00000000000E+00  0.52246408882E+03  0.52246408884E+03  0.50400001928E-02 0. -1.
        1   -1    0    0  501    0  0.00000000000E+00  0.00000000000E+00 -0.10341542222E+04  0.10341542222E+04  0.50400001928E-02 0.  1.
    10030    2    1    2    0    0  0.00000000000E+00  0.00000000000E+00 -0.51169013340E+03  0.15566183111E+04  0.14701135241E+04 0.  0.
        5    1    3    3  502    0  0.37747697671E+03 -0.45335725383E+02  0.41025184583E+03  0.55935039371E+03  0.46999998093E+01 0. -1.
       -5    1    3    3    0  502 -0.37747697671E+03  0.45335725383E+02 -0.92194197923E+03  0.99726791736E+03  0.46999998093E+01 0.  1.
</event>
<event>
 5   0  0.4084462E-04  0.1498841E+04  0.7818609E-02  0.8885224E-01
        1   -1    0    0  501    0  0.00000000000E+00  0.00000000000E+00  0.97140033794E+03  0.97140033795E+03  0.50400001928E-02 0. -1.
       -1   -1    0    0    0  501  0.00000000000E+00  0.00000000000E+00 -0.57816674674E+03  0.57816674676E+03  0.50400001928E-02 0.  1.
    10030    2    1    2    0    0  0.00000000000E+00  0.00000000000E+00  0.39323359120E+03  0.15495670847E+04  0.14988413835E+04 0.  0.
        1    1    3    3  502    0  0.17316972258E+03 -0.65795401320E+02  0.94735687015E+03  0.96529882787E+03  0.50400001928E-02 0. -1.
       -1    1    3    3    0  502 -0.17316972258E+03  0.65795401320E+02 -0.55412327895E+03  0.58426825684E+03  0.50400001928E-02 0.  1.
</event>
<event>
 5   0  0.4058874E-04  0.1487547E+04  0.7818609E-02  0.8892776E-01
        1   -1    0    0  501    0  0.00000000000E+00  0.00000000000E+00  0.11543073298E+04  0.11543073298E+04  0.50400001928E-02 0.  1.
       -1   -1    0    0    0  501  0.00000000000E+00  0.00000000000E+00 -0.47924767663E+03  0.47924767666E+03  0.50400001928E-02 0. -1.
    10030    2    1    2    0    0  0.00000000000E+00  0.00000000000E+00  0.67505965318E+03  0.16335550065E+04  0.14875471165E+04 0.  0.
        4    1    3    3  502    0 -0.37640684074E+03 -0.16994412591E+03  0.10168195206E+04  0.10974910779E+04  0.12699999809E+01 0.  1.
       -4    1    3    3    0  502  0.37640684074E+03  0.16994412591E+03 -0.34175986740E+03  0.53606392860E+03  0.12699999809E+01 0. -1.
</event>
<event>
 5   0  0.4086710E-04  0.1468367E+04  0.7818609E-02  0.8905765E-01
       -1   -1    0    0    0  501  0.00000000000E+00  0.00000000000E+00  0.40070992366E+03  0.40070992369E+03  0.50400001928E-02 0.  1.
        1   -1    0    0  501    0  0.00000000000E+00  0.00000000000E+00 -0.13451761453E+04  0.13451761453E+04  0.50400001928E-02 0. -1.
    10030    2    1    2    0    0  0.00000000000E+00  0.00000000000E+00 -0.94446622168E+03  0.17458860690E+04  0.14683670257E+04 0.  0.
        3    1    3    3  502    0  0.95710965420E+02  0.67299071372E+03 -0.80205606536E+03  0.10513662691E+04  0.10100000352E+00 0. -1.
       -3    1    3    3    0  502 -0.95710965420E+02 -0.67299071372E+03 -0.14241015632E+03  0.69451979992E+03  0.10100000352E+00 0.  1.
</event>
<event>
 5   0  0.7547580E-04  0.1505591E+04  0.7818609E-02  0.8880743E-01
       -2   -1    0    0    0  501  0.00000000000E+00  0.00000000000E+00  0.47754527406E+03  0.47754527407E+03  0.25500000920E-02 0.  1.
        2   -1    0    0  501    0  0.00000000000E+00  0.00000000000E+00 -0.11866967731E+04  0.11866967731E+04  0.25500000920E-02 0. -1.
    10030    2    1    2    0    0  0.00000000000E+00  0.00000000000E+00 -0.70915149908E+03  0.16642420472E+04  0.15055914928E+04 0.  0.
        4    1    3    3  502    0 -0.10449155493E+02  0.69134933203E+03 -0.68364835015E+03  0.97234241053E+03  0.12699999809E+01 0. -1.
       -4    1    3    3    0  502  0.10449155493E+02 -0.69134933203E+03 -0.25503148929E+02  0.69189963669E+03  0.12699999809E+01 0.  1.
</event>
<event>
 5   0  0.4015204E-04  0.1502345E+04  0.7818609E-02  0.8882895E-01
        1   -1    0    0  501    0  0.00000000000E+00  0.00000000000E+00  0.52546370501E+03  0.52546370504E+03  0.50400001928E-02 0.  1.
       -1   -1    0    0    0  501  0.00000000000E+00  0.00000000000E+00 -0.10738324641E+04  0.10738324641E+04  0.50400001928E-02 0. -1.
    10030    2    1    2    0    0  0.00000000000E+00  0.00000000000E+00 -0.54836875908E+03  0.15992961691E+04  0.15023448142E+04 0.  0.
        2    1    3    3  502    0  0.30013740563E+03 -0.47862155886E+03 -0.80120787744E+03  0.98035458980E+03  0.25500000920E-02 0. -1.
       -2    1    3    3    0  502 -0.30013740563E+03  0.47862155886E+03  0.25283911836E+03  0.61894157934E+03  0.25500000920E-02 0.  1.
</event>
<event>
 5   0  0.4086710E-04  0.1496658E+04  0.7818609E-02  0.8886679E-01
       -1   -1    0    0    0  501  0.00000000000E+00  0.00000000000E+00  0.23585634606E+03  0.23585634612E+03  0.50400001928E-02 0.  1.
        1   -1    0    0  501    0  0.00000000000E+00  0.00000000000E+00 -0.23743096542E+04  0.23743096542E+04  0.50400001928E-02 0. -1.
    10030    2    1    2    0    0  0.00000000000E+00  0.00000000000E+00 -0.21384533081E+04  0.26101660003E+04  0.14966576089E+04 0.  0.
        3    1    3    3  502    0  0.12936050157E+03 -0.20537248481E+03 -0.23037546268E+04  0.23165054257E+04  0.10100000352E+00 0. -1.
       -3    1    3    3    0  502 -0.12936050157E+03  0.20537248481E+03  0.16530131868E+03  0.29366057455E+03  0.10100000352E+00 0.  1.
</event>
<event>
 5   0  0.7672251E-04  0.1498743E+04  0.7818609E-02  0.8885290E-01
        2   -1    0    0  501    0  0.00000000000E+00  0.00000000000E+00  0.51533949398E+03  0.51533949399E+03  0.25500000920E-02 0.  1.
       -2   -1    0    0    0  501  0.00000000000E+00  0.00000000000E+00 -0.10896842163E+04  0.10896842163E+04  0.25500000920E-02 0. -1.
    10030    2    1    2    0    0  0.00000000000E+00  0.00000000000E+00 -0.57434472227E+03  0.16050237103E+04  0.14987425564E+04 0.  0.
        5    1    3    3  502    0  0.51615146093E+03 -0.14094812006E+03 -0.84902602888E+03  0.10035666350E+04  0.46999998093E+01 0. -1.
       -5    1    3    3    0  502 -0.51615146093E+03  0.14094812006E+03  0.27468130661E+03  0.60145707525E+03  0.46999998093E+01 0.  1.
</event>
<event>
 5   0  0.4015204E-04  0.1538532E+04  0.7818609E-02  0.8859226E-01
        1   -1    0    0  501    0  0.00000000000E+00  0.00000000000E+00  0.13353100270E+04  0.13353100270E+04  0.50400001928E-02 0. -1.
       -1   -1    0    0    0  501  0.00000000000E+00  0.00000000000E+00 -0.44317047705E+03  0.44317047708E+03  0.50400001928E-02 0.  1.
    10030    2    1    2    0    0  0.00000000000E+00  0.00000000000E+00  0.89213954994E+03  0.17784805041E+04  0.15385317438E+04 0.  0.
        2    1    3    3  502    0 -0.52817828324E+03  0.20505735454E+03 -0.15541717577E+03  0.58751622622E+03  0.25500000920E-02 0.  1.
       -2    1    3    3    0  502  0.52817828324E+03 -0.20505735454E+03  0.10475567257E+04  0.11909642779E+04  0.25500000920E-02 0. -1.
</event>
<event>
 5   0  0.3907345E-04  0.1509999E+04  0.7818609E-02  0.8877831E-01
        1   -1    0    0  501    0  0.00000000000E+00  0.00000000000E+00  0.46905061505E+03  0.46905061508E+03  0.50400001928E-02 0.  1.
       -1   -1    0    0    0  501  0.00000000000E+00  0.00000000000E+00 -0.12152721190E+04  0.12152721190E+04  0.50400001928E-02 0. -1.
    10030    2    1    2    0    0  0.00000000000E+00  0.00000000000E+00 -0.74622150395E+03  0.16843227341E+04  0.15099988542E+04 0.  0.
        5    1    3    3  502    0  0.64258211458E+03  0.15914919737E+03 -0.77800672630E+03  0.10215462775E+04  0.46999998093E+01 0. -1.
       -5    1    3    3    0  502 -0.64258211458E+03 -0.15914919737E+03  0.31785222350E+02  0.66277645655E+03  0.46999998093E+01 0.  1.
</event>
<event>
 5   0  0.3907345E-04  0.1489806E+04  0.7818609E-02  0.8891260E-01
       -1   -1    0    0    0  501  0.00000000000E+00  0.00000000000E+00  0.50680295047E+03  0.50680295050E+03  0.50400001928E-02 0.  1.
        1   -1    0    0  501    0  0.00000000000E+00  0.00000000000E+00 -0.10948641569E+04  0.10948641569E+04  0.50400001928E-02 0. -1.
    10030    2    1    2    0    0  0.00000000000E+00  0.00000000000E+00 -0.58806120640E+03  0.16016671074E+04  0.14898058734E+04 0.  0.
        5    1    3    3  502    0 -0.46407800204E+03  0.42730907704E+03 -0.71987378186E+03  0.95718430363E+03  0.46999998093E+01 0. -1.
       -5    1    3    3    0  502  0.46407800204E+03 -0.42730907704E+03  0.13181257546E+03  0.64448280376E+03  0.46999998093E+01 0.  1.
</event>
<event>
 5   0  0.7634227E-04  0.1526253E+04  0.7818609E-02  0.8867180E-01
       -2   -1    0    0    0  501  0.00000000000E+00  0.00000000000E+00  0.34676393710E+03  0.34676393711E+03  0.25500000920E-02 0.  1.
        2   -1    0    0  501    0  0.00000000000E+00  0.00000000000E+00 -0.16794197956E+04  0.16794197956E+04  0.25500000920E-02 0. -1.
    10030    2    1    2    0    0  0.00000000000E+00  0.00000000000E+00 -0.13326558585E+04  0.20261837327E+04  0.15262532167E+04 0.  0.
        2    1    3    3  502    0  0.31195543324E+03 -0.35330531720E+03  0.13044941247E+03  0.48903771706E+03  0.25500000920E-02 0.  1.
       -2    1    3    3    0  502 -0.31195543324E+03  0.35330531720E+03 -0.14631052710E+04  0.15371460157E+04  0.25500000920E-02 0. -1.
</event>
<event>
 5   0  0.7634227E-04  0.1472559E+04  0.7818609E-02  0.8902909E-01
        2   -1    0    0  501    0  0.00000000000E+00  0.00000000000E+00  0.11382746805E+04  0.11382746805E+04  0.25500000920E-02 0. -1.
       -2   -1    0    0    0  501  0.00000000000E+00  0.00000000000E+00 -0.47625359276E+03  0.47625359277E+03  0.25500000920E-02 0.  1.
    10030    2    1    2    0    0  0.00000000000E+00  0.00000000000E+00  0.66202108775E+03  0.16145282733E+04  0.14725588697E+04 0.  0.
        2    1    3    3  502    0  0.93887227801E+02  0.69489097060E+03  0.57720069671E+03  0.90821193388E+03  0.25500000920E-02 0.  1.
       -2    1    3    3    0  502 -0.93887227801E+02 -0.69489097060E+03  0.84820391040E+02  0.70631633940E+03  0.25500000920E-02 0. -1.
</event>
<event>
 5   0  0.7672251E-04  0.1510755E+04  0.7818609E-02  0.8877332E-01
        2   -1    0    0  501    0  0.00000000000E+00  0.00000000000E+00  0.10371819823E+04  0.10371819823E+04  0.25500000920E-02 0.  1.
       -2   -1    0    0    0  501  0.00000000000E+00  0.00000000000E+00 -0.55013989783E+03  0.55013989784E+03  0.25500000920E-02 0. -1.
    10030    2    1    2    0    0  0.00000000000E+00  0.00000000000E+00  0.48704208443E+03  0.15873218801E+04  0.15107550295E+04 0.  0.
        5    1    3    3  502    0  0.35890419157E+03 -0.43916690190E+03  0.76769756868E+03  0.95449538155E+03  0.46999998093E+01 0.  1.
       -5    1    3    3    0  502 -0.35890419157E+03  0.43916690190E+03 -0.28065548424E+03  0.63282649856E+03  0.46999998093E+01 0. -1.
</event>
<event>
 5   0  0.7547580E-04  0.1500857E+04  0.7818609E-02  0.8883883E-01
       -2   -1    0    0    0  501  0.00000000000E+00  0.00000000000E+00  0.35666031087E+03  0.35666031088E+03  0.25500000920E-02 0. -1.
        2   -1    0    0  501    0  0.00000000000E+00  0.00000000000E+00 -0.15789335639E+04  0.15789335639E+04  0.25500000920E-02 0.  1.
    10030    2    1    2    0    0  0.00000000000E+00  0.00000000000E+00 -0.12222732531E+04  0.19355938748E+04  0.15008570029E+04 0.  0.
        4    1    3    3  502    0 -0.70665612374E+03  0.15126815474E+03 -0.35033072443E+03  0.80310532387E+03  0.12699999809E+01 0.  1.
       -4    1    3    3    0  502  0.70665612374E+03 -0.15126815474E+03 -0.87194252863E+03  0.11324885509E+04  0.12699999809E+01 0. -1.
</event>
<event>
 5   0  0.4084462E-04  0.1472889E+04  0.7818609E-02  0.8902684E-01
        1   -1    0    0  501    0  0.00000000000E+00  0.00000000000E+00  0.37138722272E+03  0.37138722275E+03  0.50400001928E-02 0.  1.
       -1   -1    0    0    0  501  0.00000000000E+00  0.00000000000E+00 -0.14603374561E+04  0.14603374561E+04  0.50400001928E-02 0. -1.
    10030    2    1    2    0    0  0.00000000000E+00  0.00000000000E+00 -0.10889502333E+04  0.18317246788E+04  0.14728892315E+04 0.  0.
        1    1    3    3  502    0  0.19131282636E+03 -0.18790880198E+03  0.30851184927E+03  0.40876628598E+03  0.50400001928E-02 0.  1.
       -1    1    3    3    0  502 -0.19131282636E+03  0.18790880198E+03 -0.13974620826E+04  0.14229583928E+04  0.50400001928E-02 0. -1.
</event>
<event>
 5   0  0.7547580E-04  0.1454076E+04  0.7818609E-02  0.8915580E-01
        2   -1    0    0  501    0  0.00000000000E+00  0.00000000000E+00  0.11851740674E+04  0.11851740674E+04  0.25500000920E-02 0.  1.
       -2   -1    0    0    0  501  0.00000000000E+00  0.00000000000E+00 -0.44599707033E+03  0.44599707034E+03  0.25500000920E-02 0. -1.
    10030    2    1    2    0    0  0.00000000000E+00  0.00000000000E+00  0.73917699706E+03  0.16311711377E+04  0.14540758741E+04 0.  0.
        4    1    3    3  502    0 -0.44256899317E+03 -0.45240980731E+03  0.77099676551E+03  0.99748662787E+03  0.12699999809E+01 0.  1.
       -4    1    3    3    0  502  0.44256899317E+03  0.45240980731E+03 -0.31819768451E+02  0.63368450986E+03  0.12699999809E+01 0. -1.
</event>
<event>
 5   0  0.4058874E-04  0.1495166E+04  0.7818609E-02  0.8887674E-01
        1   -1    0    0  501    0  0.00000000000E+00  0.00000000000E+00  0.49056741064E+03  0.49056741067E+03  0.50400001928E-02 0.  1.
       -1   -1    0    0    0  501  0.00000000000E+00  0.00000000000E+00 -0.11392532415E+04  0.11392532415E+04  0.50400001928E-02 0. -1.
    10030    2    1    2    0    0  0.00000000000E+00  0.00000000000E+00 -0.64868583081E+03  0.16298206521E+04  0.14951662286E+04 0.  0.
        4    1    3    3  502    0 -0.28111183492E+03 -0.37371257175E+02  0.42965898568E+03  0.51480960701E+03  0.12699999809E+01 0.  1.
       -4    1    3    3    0  502  0.28111183492E+03  0.37371257175E+02 -0.10783448165E+04  0.11150110451E+04  0.12699999809E+01 0. -1.
</event>
<event>
 5   0  0.7359897E-04  0.1453917E+04  0.7818609E-02  0.8915689E-01
        2   -1    0    0  501    0  0.00000000000E+00  0.00000000000E+00  0.12572818463E+04  0.12572818463E+04  0.25500000920E-02 0. -1.
       -2   -1    0    0    0  501  0.00000000000E+00  0.00000000000E+00 -0.42032651999E+03  0.42032651999E+03  0.25500000920E-02 0.  1.
    10030    2    1    2    0    0  0.00000000000E+00  0.00000000000E+00  0.83695532629E+03  0.16776083663E+04  0.14539173334E+04 0.  0.
        1    1    3    3  502    0  0.18398863189E+03 -0.70329011032E+03  0.41809999846E+03  0.83861576701E+03  0.50400001928E-02 0. -1.
       -1    1    3    3    0  502 -0.18398863189E+03  0.70329011032E+03  0.41885532784E+03  0.83899259927E+03  0.50400001928E-02 0.  1.
</event>
<event>
 5   0  0.4086710E-04  0.1498909E+04  0.7818609E-02  0.8885179E-01
       -1   -1    0    0    0  501  0.00000000000E+00  0.00000000000E+00  0.62321632580E+03  0.62321632582E+03  0.50400001928E-02 0.  1.
        1   -1    0    0  501    0  0.00000000000E+00  0.00000000000E+00 -0.90126349820E+03  0.90126349821E+03  0.50400001928E-02 0. -1.
    10030    2    1    2    0    0  0.00000000000E+00  0.00000000000E+00 -0.27804717240E+03  0.15244798240E+04  0.14989091046E+04 0.  0.
        3    1    3    3  502    0  0.74542120751E+03  0.73145758637E+02 -0.16552647074E+03  0.76707372614E+03  0.10100000352E+00 0.  1.
       -3    1    3    3    0  502 -0.74542120751E+03 -0.73145758637E+02 -0.11252070167E+03  0.75740609789E+03  0.10100000352E+00 0. -1.
</event>
<event>
 5   0  0.7454828E-04  0.1517780E+04  0.7818609E-02  0.8872715E-01
        2   -1    0    0  501    0  0.00000000000E+00  0.00000000000E+00  0.13545908339E+04  0.13545908340E+04  0.25500000920E-02 0. -1.
       -2   -1    0    0    0  501  0.00000000000E+00  0.00000000000E+00 -0.42515727119E+03  0.42515727119E+03  0.25500000920E-02 0.  1.
    10030    2    1    2    0    0  0.00000000000E+00  0.00000000000E+00  0.92943356276E+03  0.17797481051E+04  0.15177801455E+04 0.  0.
        3    1    3    3  502    0 -0.13528751375E+03  0.44090661787E+03  0.11714088703E+04  0.12589281586E+04  0.10100000352E+00 0. -1.
       -3    1    3    3    0  502  0.13528751375E+03 -0.44090661787E+03 -0.24197530749E+03  0.52081994652E+03  0.10100000352E+00 0.  1.
</event>
<event>
 5   0  0.3907345E-04  0.1568260E+04  0.7818609E-02  0.8840288E-01
        1   -1    0    0  501    0  0.00000000000E+00  0.00000000000E+00  0.83515674535E+03  0.83515674536E+03  0.50400001928E-02 0. -1.
       -1   -1    0    0    0  501  0.00000000000E+00  0.00000000000E+00 -0.73622120224E+03  0.73622120226E+03  0.50400001928E-02 0.  1.
    10030    2    1    2    0    0  0.00000000000E+00  0.00000000000E+00  0.98935543105E+02  0.15713779476E+04  0.15682603140E+04 0.  0.
        5    1    3    3  502    0  0.60728176221E+03  0.15956964163E+03 -0.42113003989E+03  0.75605966017E+03  0.46999998093E+01 0.  1.
       -5    1    3    3    0  502 -0.60728176221E+03 -0.15956964163E+03  0.52006558300E+03  0.81531828745E+03  0.46999998093E+01 0. -1.
</event>
<event>
 5   0  0.7359897E-04  0.1512505E+04  0.7818609E-02  0.8876179E-01
        2   -1    0    0  501    0  0.00000000000E+00  0.00000000000E+00  0.41199234779E+03  0.41199234780E+03  0.25500000920E-02 0.  1.
       -2   -1    0    0    0  501  0.00000000000E+00  0.00000000000E+00 -0.13881761860E+04  0.13881761861E+04  0.25500000920E-02 0. -1.
    10030    2    1    2    0    0  0.00000000000E+00  0.00000000000E+00 -0.97618383826E+03  0.18001685338E+04  0.15125051617E+04 0.  0.
        1    1    3    3  502    0 -0.30748577851E+03  0.17220556481E+03 -0.12844666391E+04  0.13319372386E+04  0.50400001928E-02 0. -1.
       -1    1    3    3    0  502  0.30748577851E+03 -0.17220556481E+03  0.30828280085E+03  0.46823129526E+03  0.50400001928E-02 0.  1.
</event>
<event>
 5   0  0.7454828E-04  0.1510180E+04  0.7818609E-02  0.8877712E-01
        2   -1    0    0  501    0  0.00000000000E+00  0.00000000000E+00  0.11336388945E+04  0.11336388945E+04  0.25500000920E-02 0.  1.
       -2   -1    0    0    0  501  0.00000000000E+00  0.00000000000E+00 -0.50294737448E+03  0.50294737448E+03  0.25500000920E-02 0. -1.
    10030    2    1    2    0    0  0.00000000000E+00  0.00000000000E+00  0.63069152006E+03  0.16365862690E+04  0.15101797318E+04 0.  0.
        3    1    3    3  502    0  0.43588171535E+03  0.58661623518E+03  0.52110445253E+03  0.89758639573E+03  0.10100000352E+00 0.  1.
       -3    1    3    3    0  502 -0.43588171535E+03 -0.58661623518E+03  0.10958706753E+03  0.73899987329E+03  0.10100000352E+00 0. -1.
</event>
<event>
 5   0  0.3907345E-04  0.1421276E+04  0.7818609E-02  0.8938560E-01
       -1   -1    0    0    0  501  0.00000000000E+00  0.00000000000E+00  0.53768351686E+03  0.53768351689E+03  0.50400001928E-02 0.  1.
        1   -1    0    0  501    0  0.00000000000E+00  0.00000000000E+00 -0.93922630034E+03  0.93922630035E+03  0.50400001928E-02 0. -1.
    10030    2    1    2    0    0  0.00000000000E+00  0.00000000000E+00 -0.40154278347E+03  0.14769098172E+04  0.14212761876E+04 0.  0.
        5    1    3    3  502    0  0.14943669308E+03  0.34531262513E+03  0.42566256946E+03  0.56813981321E+03  0.46999998093E+01 0.  1.
       -5    1    3    3    0  502 -0.14943669308E+03 -0.34531262513E+03 -0.82720535293E+03  0.90877000404E+03  0.46999998093E+01 0. -1.
</event>
<event>
 5   0  0.4058874E-04  0.1508657E+04  0.7818609E-02  0.8878716E-01
        1   -1    0    0  501    0  0.00000000000E+00  0.00000000000E+00  0.13621819681E+04  0.13621819681E+04  0.50400001928E-02 0. -1.
       -1   -1    0    0    0  501  0.00000000000E+00  0.00000000000E+00 -0.41772082347E+03  0.41772082350E+03  0.50400001928E-02 0.  1.
    10030    2    1    2    0    0  0.00000000000E+00  0.00000000000E+00  0.94446114466E+03  0.17799027916E+04  0.15086573812E+04 0.  0.
        4    1    3    3  502    0  0.17021808966E+03 -0.66830241507E+02 -0.39117262797E+03  0.43180796310E+03  0.12699999809E+01 0.  1.
       -4    1    3    3    0  502 -0.17021808966E+03  0.66830241507E+02  0.13356337726E+04  0.13480948285E+04  0.12699999809E+01 0. -1.
</event>
<event>
 5   0  0.4015204E-04  0.1512758E+04  0.7818609E-02  0.8876013E-01
       -1   -1    0    0    0  501  0.00000000000E+00  0.00000000000E+00  0.35041433094E+03  0.35041433097E+03  0.50400001928E-02 0. -1.
        1   -1    0    0  501    0  0.00000000000E+00  0.00000000000E+00 -0.16326646012E+04  0.16326646012E+04  0.50400001928E-02 0.  1.
    10030    2    1    2    0    0  0.00000000000E+00  0.00000000000E+00 -0.12822502702E+04  0.19830789321E+04  0.15127578443E+04 0.  0.
        2    1    3    3  502    0  0.12443797956E+03 -0.23052688870E+03 -0.15712952800E+04  0.15929834632E+04  0.25500000920E-02 0.  1.
       -2    1    3    3    0  502 -0.12443797956E+03  0.23052688870E+03  0.28904500978E+03  0.39009546890E+03  0.25500000920E-02 0. -1.
</event>
<event>
 5   0  0.7547580E-04  0.1498865E+04  0.7818609E-02  0.8885208E-01
       -2   -1    0    0    0  501  0.00000000000E+00  0.00000000000E+00  0.33277680131E+03  0.33277680132E+03  0.25500000920E-02 0. -1.
        2   -1    0    0  501    0  0.00000000000E+00  0.00000000000E+00 -0.16877657048E+04  0.16877657048E+04  0.25500000920E-02 0.  1.
    10030    2    1    2    0    0  0.00000000000E+00  0.00000000000E+00 -0.13549889035E+04  0.20205425061E+04  0.14988652676E+04 0.  0.
        4    1    3    3  502    0 -0.25058198590E+03 -0.65065847375E+03 -0.10479008856E+04  0.12586682089E+04  0.12699999809E+01 0.  1.
       -4    1    3    3    0  502  0.25058198590E+03  0.65065847375E+03 -0.30708801785E+03  0.76187429720E+03  0.12699999809E+01 0. -1.
</event>
<event>
 5   0  0.7359897E-04  0.1519312E+04  0.7818609E-02  0.8871711E-01
        2   -1    0    0  501    0  0.00000000000E+00  0.00000000000E+00  0.17785481258E+04  0.17785481258E+04  0.25500000920E-02 0.  1.
       -2   -1    0    0    0  501  0.00000000000E+00  0.00000000000E+00 -0.32446535994E+03  0.32446535995E+03  0.25500000920E-02 0. -1.
    10030    2    1    2    0    0  0.00000000000E+00  0.00000000000E+00  0.14540827658E+04  0.21030134857E+04  0.15193120256E+04 0.  0.
        1    1    3    3  502    0 -0.43443503327E+03  0.22716169954E+03 -0.76194488120E+02  0.49612683450E+03  0.50400001928E-02 0. -1.
       -1    1    3    3    0  502  0.43443503327E+03 -0.22716169954E+03  0.15302772539E+04  0.16068866512E+04  0.50400001928E-02 0.  1.
</event>
<event>
 5   0  0.4084462E-04  0.1494365E+04  0.7818609E-02  0.8888209E-01
       -1   -1    0    0    0  501  0.00000000000E+00  0.00000000000E+00  0.58157625235E+03  0.58157625237E+03  0.50400001928E-02 0. -1.
        1   -1    0    0  501    0  0.00000000000E+00  0.00000000000E+00 -0.95994563571E+03  0.95994563573E+03  0.50400001928E-02 0.  1.
    10030    2    1    2    0    0  0.00000000000E+00  0.00000000000E+00 -0.37836938337E+03  0.15415218881E+04  0.14943648621E+04 0.  0.
        1    1    3    3  502    0 -0.67716407224E+03  0.18580329831E+03  0.74231188396E+02  0.70610503168E+03  0.50400001928E-02 0. -1.
       -1    1    3    3    0  502  0.67716407224E+03 -0.18580329831E+03 -0.45260057176E+03  0.83541685642E+03  0.50400001928E-02 0.  1.
</event>
<event>
 5   0  0.7672251E-04  0.1466319E+04  0.7818609E-02  0.8907165E-01
       -2   -1    0    0    0  501  0.00000000000E+00  0.00000000000E+00  0.93598547680E+03  0.93598547681E+03  0.25500000920E-02 0.  1.
        2   -1    0    0  501    0  0.00000000000E+00  0.00000000000E+00 -0.57428540426E+03  0.57428540427E+03  0.25500000920E-02 0. -1.
    10030    2    1    2    0    0  0.00000000000E+00  0.00000000000E+00  0.36170007254E+03  0.15102708811E+04  0.14663189257E+04 0.  0.
        5    1    3    3  502    0 -0.59669523237E+03  0.24407042488E+03 -0.17873514087E+03  0.66901712475E+03  0.46999998093E+01 0. -1.
       -5    1    3    3    0  502  0.59669523237E+03 -0.24407042488E+03  0.54043521341E+03  0.84125375632E+03  0.46999998093E+01 0.  1.
</event>
<event>
 5   0  0.4058874E-04  0.1342333E+04  0.7818609E-02  0.8996653E-01
       -1   -1    0    0    0  501  0.00000000000E+00  0.00000000000E+00  0.10811265698E+04  0.10811265698E+04  0.50400001928E-02 0.  1.
        1   -1    0    0  501    0  0.00000000000E+00  0.00000000000E+00 -0.41666190474E+03  0.41666190477E+03  0.50400001928E-02 0. -1.
    10030    2    1    2    0    0  0.00000000000E+00  0.00000000000E+00  0.66446466504E+03  0.14977884746E+04  0.13423326799E+04 0.  0.
        4    1    3    3  502    0  0.59691096793E+03 -0.63465386005E+01 -0.10086267650E+02  0.59703126206E+03  0.12699999809E+01 0. -1.
       -4    1    3    3    0  502 -0.59691096793E+03  0.63465386005E+01  0.67455093269E+03  0.90075721251E+03  0.12699999809E+01 0.  1.
</event>
<event>
 5   0  0.4086710E-04  0.1478435E+04  0.7818609E-02  0.8898921E-01
       -1   -1    0    0    0  501  0.00000000000E+00  0.00000000000E+00  0.90885196857E+03  0.90885196858E+03  0.50400001928E-02 0.  1.
        1   -1    0    0  501    0  0.00000000000E+00  0.00000000000E+00 -0.60124465961E+03  0.60124465963E+03  0.50400001928E-02 0. -1.
    10030    2    1    2    0    0  0.00000000000E+00  0.00000000000E+00  0.30760730896E+03  0.15100966282E+04  0.14784348379E+04 0.  0.
        3    1    3    3  502    0  0.13235126685E+03 -0.22481745941E+03  0.86026800781E+03  0.89895539564E+03  0.10100000352E+00 0.  1.
       -3    1    3    3    0  502 -0.13235126685E+03  0.22481745941E+03 -0.55266069885E+03  0.61114123257E+03  0.10100000352E+00 0. -1.
</event>
<event>
 5   0  0.4015204E-04  0.1477919E+04  0.7818609E-02  0.8899271E-01
       -1   -1    0    0    0  501  0.00000000000E+00  0.00000000000E+00  0.66549807880E+03  0.66549807882E+03  0.50400001928E-02 0.  1.
        1   -1    0    0  501    0  0.00000000000E+00  0.00000000000E+00 -0.82052957965E+03  0.82052957966E+03  0.50400001928E-02 0. -1.
    10030    2    1    2    0    0  0.00000000000E+00  0.00000000000E+00 -0.15503150084E+03  0.14860276585E+04  0.14779186160E+04 0.  0.
        2    1    3    3  502    0 -0.21436121043E+03  0.68134560697E+03  0.11293920042E+03  0.72314440305E+03  0.25500000920E-02 0.  1.
       -2    1    3    3    0  502  0.21436121043E+03 -0.68134560697E+03 -0.26797070126E+03  0.76288325543E+03  0.25500000920E-02 0. -1.
</event>
<event>
 5   0  0.7547580E-04  0.1508558E+04  0.7818609E-02  0.8878782E-01
       -2   -1    0    0    0  501  0.00000000000E+00  0.00000000000E+00  0.56280334936E+03  0.56280334937E+03  0.25500000920E-02 0. -1.
        2   -1    0    0  501    0  0.00000000000E+00  0.00000000000E+00 -0.10108978237E+04  0.10108978237E+04  0.25500000920E-02 0.  1.
    10030    2    1    2    0    0  0.00000000000E+00  0.00000000000E+00 -0.44809447438E+03  0.15737011731E+04  0.15085578293E+04 0.  0.
        4    1    3    3  502    0  0.52748480019E+03  0.35850919181E+03 -0.64413518820E+03  0.90646611002E+03  0.12699999809E+01 0.  1.
       -4    1    3    3    0  502 -0.52748480019E+03 -0.35850919181E+03  0.19604071382E+03  0.66723506309E+03  0.12699999809E+01 0. -1.
</event>
<event>
 5   0  0.4084462E-04  0.1479267E+04  0.7818609E-02  0.8898358E-01
        1   -1    0    0  501    0  0.00000000000E+00  0.00000000000E+00  0.12098227289E+04  0.12098227289E+04  0.50400001928E-02 0. -1.
       -1   -1    0    0    0  501  0.00000000000E+00  0.00000000000E+00 -0.45218021528E+03  0.45218021531E+03  0.50400001928E-02 0.  1.
    10030    2    1    2    0    0  0.00000000000E+00  0.00000000000E+00  0.75764251360E+03  0.16620029442E+04  0.14792672538E+04 0.  0.
        1    1    3    3  502    0 -0.17229329014E+03 -0.43179197932E+03 -0.26750575011E+03  0.53636612272E+03  0.50400001928E-02 0.  1.
       -1    1    3    3    0  502  0.17229329014E+03  0.43179197932E+03  0.10251482637E+04  0.11256368215E+04  0.50400001928E-02 0. -1.
</event>
<event>
 5   0  0.4086710E-04  0.1500591E+04  0.7818609E-02  0.8884060E-01
        1   -1    0    0  501    0  0.00000000000E+00  0.00000000000E+00  0.10703718952E+04  0.10703718952E+04  0.50400001928E-02 0.  1.
       -1   -1    0    0    0  501  0.00000000000E+00  0.00000000000E+00 -0.52593252226E+03  0.52593252228E+03  0.50400001928E-02 0. -1.
    10030    2    1    2    0    0  0.00000000000E+00  0.00000000000E+00  0.54443937292E+03  0.15963044175E+04  0.15005910710E+04 0.  0.
        3    1    3    3  502    0  0.49626049851E+03 -0.43377790388E+03 -0.10912213088E+03  0.66809086352E+03  0.10100000352E+00 0. -1.
       -3    1    3    3    0  502 -0.49626049851E+03  0.43377790388E+03  0.65356150380E+03  0.92821355394E+03  0.10100000352E+00 0.  1.
</event>
<event>
 5   0  0.7634227E-04  0.1493883E+04  0.7818609E-02  0.8888531E-01
       -2   -1    0    0    0  501  0.00000000000E+00  0.00000000000E+00  0.38577090129E+03  0.38577090130E+03  0.25500000920E-02 0. -1.
        2   -1    0    0  501    0  0.00000000000E+00  0.00000000000E+00 -0.14462515637E+04  0.14462515637E+04  0.25500000920E-02 0.  1.
    10030    2    1    2    0    0  0.00000000000E+00  0.00000000000E+00 -0.10604806624E+04  0.18320224650E+04  0.14938832206E+04 0.  0.
        2    1    3    3  502    0 -0.27900668681E+03  0.27503914358E+03 -0.13101352660E+04  0.13674595705E+04  0.25500000920E-02 0.  1.
       -2    1    3    3    0  502  0.27900668681E+03 -0.27503914358E+03  0.24965460363E+03  0.46456289445E+03  0.25500000920E-02 0. -1.
</event>
<event>
 5   0  0.7547580E-04  0.1485933E+04  0.7818609E-02  0.8893862E-01
       -2   -1    0    0    0  501  0.00000000000E+00  0.00000000000E+00  0.56080368599E+03  0.56080368600E+03  0.25500000920E-02 0.  1.
        2   -1    0    0  501    0  0.00000000000E+00  0.00000000000E+00 -0.98429998259E+03  0.98429998259E+03  0.25500000920E-02 0. -1.
    10030    2    1    2    0    0  0.00000000000E+00  0.00000000000E+00 -0.42349629660E+03  0.15451036686E+04  0.14859327823E+04 0.  0.
        4    1    3    3  502    0 -0.60609352901E+02  0.24599387354E+03 -0.93799496049E+03  0.97160827409E+03  0.12699999809E+01 0. -1.
       -4    1    3    3    0  502  0.60609352901E+02 -0.24599387354E+03  0.51449866388E+03  0.57349539450E+03  0.12699999809E+01 0.  1.
</event>
<event>
 5   0  0.3907345E-04  0.1510301E+04  0.7818609E-02  0.8877632E-01
        1   -1    0    0  501    0  0.00000000000E+00  0.00000000000E+00  0.46743478952E+03  0.46743478955E+03  0.50400001928E-02 0. -1.
       -1   -1    0    0    0  501  0.00000000000E+00  0.00000000000E+00 -0.12199613120E+04  0.12199613120E+04  0.50400001928E-02 0.  1.
    10030    2    1    2    0    0  0.00000000000E+00  0.00000000000E+00 -0.75252652250E+03  0.16873961016E+04  0.15103011079E+04 0.  0.
        5    1    3    3  502    0  0.43077225617E+03  0.22624684390E+03  0.26892584838E+03  0.55596364358E+03  0.46999998093E+01 0. -1.
       -5    1    3    3    0  502 -0.43077225617E+03 -0.22624684390E+03 -0.10214523709E+04  0.11314324580E+04  0.46999998093E+01 0.  1.
</event>
<event>
 5   0  0.7547580E-04  0.1512136E+04  0.7818609E-02  0.8876423E-01
        2   -1    0    0  501    0  0.00000000000E+00  0.00000000000E+00  0.12808419900E+04  0.12808419900E+04  0.25500000920E-02 0.  1.
       -2   -1    0    0    0  501  0.00000000000E+00  0.00000000000E+00 -0.44629896234E+03  0.44629896234E+03  0.25500000920E-02 0. -1.
    10030    2    1    2    0    0  0.00000000000E+00  0.00000000000E+00  0.83454302764E+03  0.17271409523E+04  0.15121355112E+04 0.  0.
        4    1    3    3  502    0  0.41269249569E+03  0.58262225993E+03  0.13316066864E+03  0.72629000429E+03  0.12699999809E+01 0. -1.
       -4    1    3    3    0  502 -0.41269249569E+03 -0.58262225993E+03  0.70138235900E+03  0.10008509480E+04  0.12699999809E+01 0.  1.
</event>
<event>
 5   0  0.4015204E-04  0.1506720E+04  0.7818609E-02  0.8879996E-01
       -1   -1    0    0    0  501  0.00000000000E+00  0.00000000000E+00  0.90589635906E+03  0.90589635907E+03  0.50400001928E-02 0. -1.
        1   -1    0    0  501    0  0.00000000000E+00  0.00000000000E+00 -0.62650832118E+03  0.62650832120E+03  0.50400001928E-02 0.  1.
    10030    2    1    2    0    0  0.00000000000E+00  0.00000000000E+00  0.27938803788E+03  0.15324046803E+04  0.15067204214E+04 0.  0.
        2    1    3    3  502    0 -0.55799477935E+03 -0.27385639986E+03  0.57262157003E+03  0.84513369593E+03  0.25500000920E-02 0. -1.
       -2    1    3    3    0  502  0.55799477935E+03  0.27385639986E+03 -0.29323353216E+03  0.68727098434E+03  0.25500000920E-02 0.  1.
</event>
<event>
 5   0  0.7672251E-04  0.1504668E+04  0.7818609E-02  0.8881355E-01
        2   -1    0    0  501    0  0.00000000000E+00  0.00000000000E+00  0.16602529832E+04  0.16602529832E+04  0.25500000920E-02 0.  1.
       -2   -1    0    0    0  501  0.00000000000E+00  0.00000000000E+00 -0.34091564493E+03  0.34091564494E+03  0.25500000920E-02 0. -1.
    10030    2    1    2    0    0  0.00000000000E+00  0.00000000000E+00  0.13193373383E+04  0.20011686282E+04  0.15046676929E+04 0.  0.
        5    1    3    3  502    0 -0.22304259614E+03  0.31232957763E+03 -0.20090389637E+03  0.43322307225E+03  0.46999998093E+01 0. -1.
       -5    1    3    3    0  502  0.22304259614E+03 -0.31232957763E+03  0.15202412347E+04  0.15679455559E+04  0.46999998093E+01 0.  1.
</event>
<event>
 5   0  0.4058874E-04  0.1510466E+04  0.7818609E-02  0.8877523E-01
       -1   -1    0    0    0  501  0.00000000000E+00  0.00000000000E+00  0.44660477288E+03  0.44660477290E+03  0.50400001928E-02 0. -1.
        1   -1    0    0  501    0  0.00000000000E+00  0.00000000000E+00 -0.12771397495E+04  0.12771397495E+04  0.50400001928E-02 0.  1.
    10030    2    1    2    0    0  0.00000000000E+00  0.00000000000E+00 -0.83053497666E+03  0.17237445224E+04  0.15104657663E+04 0.  0.
        4    1    3    3  502    0  0.70849202371E+03 -0.86696183924E+02 -0.13364765424E+03  0.72618212891E+03  0.12699999809E+01 0.  1.
       -4    1    3    3    0  502 -0.70849202371E+03  0.86696183924E+02 -0.69688732241E+03  0.99756239354E+03  0.12699999809E+01 0. -1.
</event>
<event>
 5   0  0.7454828E-04  0.1481060E+04  0.7818609E-02  0.8897146E-01
        2   -1    0    0  501    0  0.00000000000E+00  0.00000000000E+00  0.15354642537E+04  0.15354642537E+04  0.25500000920E-02 0.  1.
       -2   -1    0    0    0  501  0.00000000000E+00  0.00000000000E+00 -0.35714586597E+03  0.35714586598E+03  0.25500000920E-02 0. -1.
    10030    2    1    2    0    0  0.00000000000E+00  0.00000000000E+00  0.11783183877E+04  0.18926101197E+04  0.14810600401E+04 0.  0.
        3    1    3    3  502    0  0.39080711931E+03  0.10995374378E+03 -0.20226221129E+03  0.45357473761E+03  0.10100000352E+00 0. -1.
       -3    1    3    3    0  502 -0.39080711931E+03 -0.10995374378E+03  0.13805805990E+04  0.14390353821E+04  0.10100000352E+00 0.  1.
</event>
<event>
 5   0  0.2800375E-04  0.1467560E+04  0.7818609E-02  0.8906317E-01
       -4   -1    0    0    0  501  0.00000000000E+00  0.00000000000E+00  0.41834375474E+03  0.41834568245E+03  0.12699999809E+01 0. -1.
        4   -1    0    0  501    0  0.00000000000E+00  0.00000000000E+00 -0.12870529485E+04  0.12870535751E+04  0.12699999809E+01 0.  1.
    10030    2    1    2    0    0  0.00000000000E+00  0.00000000000E+00 -0.86870919374E+03  0.17053992575E+04  0.14675595266E+04 0.  0.
        3    1    3    3  502    0  0.11238920354E+03  0.19036243188E+03  0.37872839743E+03  0.43852525328E+03  0.10100000352E+00 0. -1.
       -3    1    3    3    0  502 -0.11238920354E+03 -0.19036243188E+03 -0.12474375912E+04  0.12668740042E+04  0.10100000352E+00 0.  1.
</event>
<event>
 5   0  0.7634227E-04  0.1500506E+04  0.7818609E-02  0.8884117E-01
       -2   -1    0    0    0  501  0.00000000000E+00  0.00000000000E+00  0.78531332526E+03  0.78531332527E+03  0.25500000920E-02 0.  1.
        2   -1    0    0  501    0  0.00000000000E+00  0.00000000000E+00 -0.71675752083E+03  0.71675752084E+03  0.25500000920E-02 0. -1.
    10030    2    1    2    0    0  0.00000000000E+00  0.00000000000E+00  0.68555804430E+02  0.15020708461E+04  0.15005055576E+04 0.  0.
        2    1    3    3  502    0 -0.17425325327E+03 -0.64067850387E+03 -0.31543748771E+03  0.73507411208E+03  0.25500000920E-02 0. -1.
       -2    1    3    3    0  502  0.17425325327E+03  0.64067850387E+03  0.38399329214E+03  0.76699673403E+03  0.25500000920E-02 0.  1.
</event>
<event>
 5   0  0.2800375E-04  0.1509355E+04  0.7818609E-02  0.8878256E-01
       -3   -1    0    0    0  501  0.00000000000E+00  0.00000000000E+00  0.10301557317E+04  0.10301557366E+04  0.10100000352E+00 0.  1.
        3   -1    0    0  501    0  0.00000000000E+00  0.00000000000E+00 -0.55286609070E+03  0.55286609993E+03  0.10100000352E+00 0. -1.
    10030    2    1    2    0    0  0.00000000000E+00  0.00000000000E+00  0.47728964099E+03  0.15830218366E+04  0.15093550721E+04 0.  0.
        4    1    3    3  502    0 -0.40441983581E+03  0.58042040480E+02  0.90413093805E+03  0.99215858011E+03  0.12699999809E+01 0.  1.
       -4    1    3    3    0  502  0.40441983581E+03 -0.58042040480E+02 -0.42684129706E+03  0.59086325646E+03  0.12699999809E+01 0. -1.
</event>
<event>
 5   0  0.7547580E-04  0.1521285E+04  0.7818609E-02  0.8870421E-01
        2   -1    0    0  501    0  0.00000000000E+00  0.00000000000E+00  0.54943461328E+03  0.54943461329E+03  0.25500000920E-02 0. -1.
       -2   -1    0    0    0  501  0.00000000000E+00  0.00000000000E+00 -0.10530403423E+04  0.10530403423E+04  0.25500000920E-02 0.  1.
    10030    2    1    2    0    0  0.00000000000E+00  0.00000000000E+00 -0.50360572898E+03  0.16024749556E+04  0.15212847376E+04 0.  0.
        4    1    3    3  502    0 -0.20797469956E+03 -0.39060588884E+03  0.39988201006E+03  0.59643412957E+03  0.12699999809E+01 0. -1.
       -4    1    3    3    0  502  0.20797469956E+03  0.39060588884E+03 -0.90348773904E+03  0.10060408260E+04  0.12699999809E+01 0.  1.
</event>
<event>
 5   0  0.7672251E-04  0.1494190E+04  0.7818609E-02  0.8888326E-01
        2   -1    0    0  501    0  0.00000000000E+00  0.00000000000E+00  0.11394414691E+04  0.11394414691E+04  0.25500000920E-02 0.  1.
       -2   -1    0    0    0  501  0.00000000000E+00  0.00000000000E+00 -0.48984591057E+03  0.48984591058E+03  0.25500000920E-02 0. -1.
    10030    2    1    2    0    0  0.00000000000E+00  0.00000000000E+00  0.64959555852E+03  0.16292873797E+04  0.14941897389E+04 0.  0.
        5    1    3    3  502    0  0.73343406071E+03 -0.11614055125E+03  0.41414868152E+03  0.85026782219E+03  0.46999998093E+01 0. -1.
       -5    1    3    3    0  502 -0.73343406071E+03  0.11614055125E+03  0.23544687700E+03  0.77901955748E+03  0.46999998093E+01 0.  1.
</event>
<event>
 5   0  0.4058874E-04  0.1517105E+04  0.7818609E-02  0.8873157E-01
       -1   -1    0    0    0  501  0.00000000000E+00  0.00000000000E+00  0.52428570998E+03  0.52428571000E+03  0.50400001928E-02 0.  1.
        1   -1    0    0  501    0  0.00000000000E+00  0.00000000000E+00 -0.10974967365E+04  0.10974967365E+04  0.50400001928E-02 0. -1.
    10030    2    1    2    0    0  0.00000000000E+00  0.00000000000E+00 -0.57321102651E+03  0.16217824465E+04  0.15171049479E+04 0.  0.
        4    1    3    3  502    0 -0.55253297531E+03 -0.33595110106E+03  0.13729562307E+03  0.66106545222E+03  0.12699999809E+01 0.  1.
       -4    1    3    3    0  502  0.55253297531E+03  0.33595110106E+03 -0.71050664957E+03  0.96071699428E+03  0.12699999809E+01 0. -1.
</event>
<event>
 5   0  0.4015204E-04  0.1513389E+04  0.7818609E-02  0.8875598E-01
       -1   -1    0    0    0  501  0.00000000000E+00  0.00000000000E+00  0.44785136059E+03  0.44785136062E+03  0.50400001928E-02 0. -1.
        1   -1    0    0  501    0  0.00000000000E+00  0.00000000000E+00 -0.12785197562E+04  0.12785197562E+04  0.50400001928E-02 0.  1.
    10030    2    1    2    0    0  0.00000000000E+00  0.00000000000E+00 -0.83066839559E+03  0.17263711168E+04  0.15133893252E+04 0.  0.
        2    1    3    3  502    0  0.74025384766E+02  0.33979831208E+02 -0.12735044540E+04  0.12761065711E+04  0.25500000920E-02 0.  1.
       -2    1    3    3    0  502 -0.74025384766E+02 -0.33979831208E+02  0.44283605838E+03  0.45026454571E+03  0.25500000920E-02 0. -1.
</event>
<event>
 5   0  0.7672251E-04  0.1509427E+04  0.7818609E-02  0.8878208E-01
       -2   -1    0    0    0  501  0.00000000000E+00  0.00000000000E+00  0.43059862920E+03  0.43059862921E+03  0.25500000920E-02 0.  1.
        2   -1    0    0  501    0  0.00000000000E+00  0.00000000000E+00 -0.13227918485E+04  0.13227918485E+04  0.25500000920E-02 0. -1.
    10030    2    1    2    0    0  0.00000000000E+00  0.00000000000E+00 -0.89219321932E+03  0.17533904777E+04  0.15094268538E+04 0.  0.
        5    1    3    3  502    0  0.71775928467E+02 -0.57183467544E+03  0.11991912245E+03  0.58868443658E+03  0.46999998093E+01 0.  1.
       -5    1    3    3    0  502 -0.71775928467E+02  0.57183467544E+03 -0.10121123418E+04  0.11647060412E+04  0.46999998093E+01 0. -1.
</event>
<event>
 5   0  0.4086710E-04  0.1525841E+04  0.7818609E-02  0.8867448E-01
        1   -1    0    0  501    0  0.00000000000E+00  0.00000000000E+00  0.15276873466E+04  0.15276873466E+04  0.50400001928E-02 0.  1.
       -1   -1    0    0    0  501  0.00000000000E+00  0.00000000000E+00 -0.38099933033E+03  0.38099933037E+03  0.50400001928E-02 0. -1.
    10030    2    1    2    0    0  0.00000000000E+00  0.00000000000E+00  0.11466880163E+04  0.19086866770E+04  0.15258412186E+04 0.  0.
        3    1    3    3  502    0  0.42172732597E+03  0.46473954252E+03  0.30658934407E+02  0.62831262944E+03  0.10100000352E+00 0. -1.
       -3    1    3    3    0  502 -0.42172732597E+03 -0.46473954252E+03  0.11160290819E+04  0.12803740476E+04  0.10100000352E+00 0.  1.
</event>
<event>
 5   0  0.7359897E-04  0.1503844E+04  0.7818609E-02  0.8881901E-01
       -2   -1    0    0    0  501  0.00000000000E+00  0.00000000000E+00  0.56891429432E+03  0.56891429432E+03  0.25500000920E-02 0. -1.
        2   -1    0    0  501    0  0.00000000000E+00  0.00000000000E+00 -0.99379923193E+03  0.99379923194E+03  0.25500000920E-02 0.  1.
    10030    2    1    2    0    0  0.00000000000E+00  0.00000000000E+00 -0.42488493761E+03  0.15627135263E+04  0.15038438599E+04 0.  0.
        1    1    3    3  502    0  0.15702260936E+03  0.12149093985E+03 -0.96607093270E+03  0.98626020671E+03  0.50400001928E-02 0.  1.
       -1    1    3    3    0  502 -0.15702260936E+03 -0.12149093985E+03  0.54118599508E+03  0.57645331955E+03  0.50400001928E-02 0. -1.
</event>
<event>
 5   0  0.4084462E-04  0.1470513E+04  0.7818609E-02  0.8904302E-01
        1   -1    0    0  501    0  0.00000000000E+00  0.00000000000E+00  0.57207206293E+03  0.57207206295E+03  0.50400001928E-02 0.  1.
       -1   -1    0    0    0  501  0.00000000000E+00  0.00000000000E+00 -0.94498951021E+03  0.94498951022E+03  0.50400001928E-02 0. -1.
    10030    2    1    2    0    0  0.00000000000E+00  0.00000000000E+00 -0.37291744728E+03  0.15170615732E+04  0.14705129698E+04 0.  0.
        1    1    3    3  502    0  0.16233578711E+03 -0.64016927087E+03 -0.51984842220E+03  0.84048318558E+03  0.50400001928E-02 0.  1.
       -1    1    3    3    0  502 -0.16233578711E+03  0.64016927087E+03  0.14693097493E+03  0.67657838760E+03  0.50400001928E-02 0. -1.
</event>
<event>
 5   0  0.7359897E-04  0.1469604E+04  0.7818609E-02  0.8904921E-01
        2   -1    0    0  501    0  0.00000000000E+00  0.00000000000E+00  0.66159736789E+03  0.66159736790E+03  0.25500000920E-02 0. -1.
       -2   -1    0    0    0  501  0.00000000000E+00  0.00000000000E+00 -0.81610638916E+03  0.81610638916E+03  0.25500000920E-02 0.  1.
    10030    2    1    2    0    0  0.00000000000E+00  0.00000000000E+00 -0.15450902126E+03  0.14777037571E+04  0.14696038092E+04 0.  0.
        1    1    3    3  502    0  0.72082809681E+03 -0.12803723665E+03 -0.14081806757E+02  0.73224652709E+03  0.50400001928E-02 0. -1.
       -1    1    3    3    0  502 -0.72082809681E+03  0.12803723665E+03 -0.14042721450E+03  0.74545722997E+03  0.50400001928E-02 0.  1.
</event>
<event>
 5   0  0.7359897E-04  0.1513262E+04  0.7818609E-02  0.8875682E-01
       -2   -1    0    0    0  501  0.00000000000E+00  0.00000000000E+00  0.41098804212E+03  0.41098804213E+03  0.25500000920E-02 0.  1.
        2   -1    0    0  501    0  0.00000000000E+00  0.00000000000E+00 -0.13929605646E+04  0.13929605646E+04  0.25500000920E-02 0. -1.
    10030    2    1    2    0    0  0.00000000000E+00  0.00000000000E+00 -0.98197252243E+03  0.18039486067E+04  0.15132615573E+04 0.  0.
        1    1    3    3  502    0 -0.11661950806E+03 -0.58455577125E+03  0.64565655922E+02  0.59956174270E+03  0.50400001928E-02 0.  1.
       -1    1    3    3    0  502  0.11661950806E+03  0.58455577125E+03 -0.10465381784E+04  0.12043868640E+04  0.50400001928E-02 0. -1.
</event>
<event>
 5   0  0.7672251E-04  0.1500511E+04  0.7818609E-02  0.8884113E-01
        2   -1    0    0  501    0  0.00000000000E+00  0.00000000000E+00  0.23680655239E+04  0.23680655239E+04  0.25500000920E-02 0. -1.
       -2   -1    0    0    0  501  0.00000000000E+00  0.00000000000E+00 -0.23769766429E+03  0.23769766431E+03  0.25500000920E-02 0.  1.
    10030    2    1    2    0    0  0.00000000000E+00  0.00000000000E+00  0.21303678596E+04  0.26057631882E+04  0.15005114381E+04 0.  0.
        5    1    3    3  502    0  0.31240845093E+03  0.11129010141E+03  0.22338374717E+04  0.22583260320E+04  0.46999998093E+01 0. -1.
       -5    1    3    3    0  502 -0.31240845093E+03 -0.11129010141E+03 -0.10346961209E+03  0.34743715620E+03  0.46999998093E+01 0.  1.
</event>
<event>
 5   0  0.7454828E-04  0.1503056E+04  0.7818609E-02  0.8882423E-01
        2   -1    0    0  501    0  0.00000000000E+00  0.00000000000E+00  0.92690044683E+03  0.92690044683E+03  0.25500000920E-02 0. -1.
       -2   -1    0    0    0  501  0.00000000000E+00  0.00000000000E+00 -0.60933656808E+03  0.60933656808E+03  0.25500000920E-02 0.  1.
    10030    2    1    2    0    0  0.00000000000E+00  0.00000000000E+00  0.31756387875E+03  0.15362370149E+04  0.15030560033E+04 0.  0.
        3    1    3    3  502    0  0.57051030335E+03  0.32592532698E+03  0.53164350626E+03  0.84519474261E+03  0.10100000352E+00 0.  1.
       -3    1    3    3    0  502 -0.57051030335E+03 -0.32592532698E+03 -0.21407962751E+03  0.69104227230E+03  0.10100000352E+00 0. -1.
</event>
<event>
 5   0  0.4015204E-04  0.1438601E+04  0.7818609E-02  0.8926342E-01
        1   -1    0    0  501    0  0.00000000000E+00  0.00000000000E+00  0.45818331668E+03  0.45818331671E+03  0.50400001928E-02 0. -1.
       -1   -1    0    0    0  501  0.00000000000E+00  0.00000000000E+00 -0.11292272264E+04  0.11292272265E+04  0.50400001928E-02 0.  1.
    10030    2    1    2    0    0  0.00000000000E+00  0.00000000000E+00 -0.67104390976E+03  0.15874105432E+04  0.14386008146E+04 0.  0.
        2    1    3    3  502    0 -0.13500270904E+03  0.53174579471E+03  0.17780183041E+03  0.57670860280E+03  0.25500000920E-02 0. -1.
       -2    1    3    3    0  502  0.13500270904E+03 -0.53174579471E+03 -0.84884574017E+03  0.10107019404E+04  0.25500000920E-02 0.  1.
</event>
<event>
 5   0  0.4086710E-04  0.1499832E+04  0.7818609E-02  0.8884564E-01
        1   -1    0    0  501    0  0.00000000000E+00  0.00000000000E+00  0.10935232671E+04  0.10935232671E+04  0.50400001928E-02 0. -1.
       -1   -1    0    0    0  501  0.00000000000E+00  0.00000000000E+00 -0.51427738328E+03  0.51427738330E+03  0.50400001928E-02 0.  1.
    10030    2    1    2    0    0  0.00000000000E+00  0.00000000000E+00  0.57924588384E+03  0.16078006504E+04  0.14998323698E+04 0.  0.
        3    1    3    3  502    0  0.72202697397E+03 -0.13108135276E+03  0.12400529570E+03  0.74423289080E+03  0.10100000352E+00 0.  1.
       -3    1    3    3    0  502 -0.72202697397E+03  0.13108135276E+03  0.45524058814E+03  0.86356775963E+03  0.10100000352E+00 0. -1.
</event>
<event>
 5   0  0.2800375E-04  0.1490992E+04  0.7818609E-02  0.8890466E-01
        3   -1    0    0  501    0  0.00000000000E+00  0.00000000000E+00  0.41624640103E+03  0.41624641329E+03  0.10100000352E+00 0. -1.
       -3   -1    0    0    0  501  0.00000000000E+00  0.00000000000E+00 -0.13351803358E+04  0.13351803396E+04  0.10100000352E+00 0.  1.
    10030    2    1    2    0    0  0.00000000000E+00  0.00000000000E+00 -0.91893393479E+03  0.17514267529E+04  0.14909916480E+04 0.  0.
        1    1    3    3  502    0  0.51587134647E+02  0.72467482189E+03 -0.65584884576E+03  0.97875049857E+03  0.50400001928E-02 0. -1.
       -1    1    3    3    0  502 -0.51587134647E+02 -0.72467482189E+03 -0.26308508903E+03  0.77267625435E+03  0.50400001928E-02 0.  1.
</event>
<event>
 5   0  0.4015204E-04  0.1551973E+04  0.7818609E-02  0.8850608E-01
        1   -1    0    0  501    0  0.00000000000E+00  0.00000000000E+00  0.78440809440E+03  0.78440809442E+03  0.50400001928E-02 0. -1.
       -1   -1    0    0    0  501  0.00000000000E+00  0.00000000000E+00 -0.76765569675E+03  0.76765569677E+03  0.50400001928E-02 0.  1.
    10030    2    1    2    0    0  0.00000000000E+00  0.00000000000E+00  0.16752397645E+02  0.15520637912E+04  0.15519733790E+04 0.  0.
        2    1    3    3  502    0  0.27955659442E+03  0.71149109454E+03  0.14174016428E+03  0.77747137649E+03  0.25500000920E-02 0.  1.
       -2    1    3    3    0  502 -0.27955659442E+03 -0.71149109454E+03 -0.12498776664E+03  0.77459241469E+03  0.25500000920E-02 0. -1.
</event>
<event>
 5   0  0.4084462E-04  0.1515642E+04  0.7818609E-02  0.8874118E-01
        1   -1    0    0  501    0  0.00000000000E+00  0.00000000000E+00  0.11779970160E+04  0.11779970160E+04  0.50400001928E-02 0. -1.
       -1   -1    0    0    0  501  0.00000000000E+00  0.00000000000E+00 -0.48751602458E+03  0.48751602461E+03  0.50400001928E-02 0.  1.
    10030    2    1    2    0    0  0.00000000000E+00  0.00000000000E+00  0.69048099139E+03  0.16655130406E+04  0.15156416756E+04 0.  0.
        1    1    3    3  502    0  0.25048761768E+03  0.36664459535E+03  0.10200657833E+04  0.11125225877E+04  0.50400001928E-02 0. -1.
       -1    1    3    3    0  502 -0.25048761768E+03 -0.36664459535E+03 -0.32958479188E+03  0.55299045289E+03  0.50400001928E-02 0.  1.
</event>
<event>
 5   0  0.7359897E-04  0.1507116E+04  0.7818609E-02  0.8879735E-01
       -2   -1    0    0    0  501  0.00000000000E+00  0.00000000000E+00  0.58057470684E+03  0.58057470685E+03  0.25500000920E-02 0.  1.
        2   -1    0    0  501    0  0.00000000000E+00  0.00000000000E+00 -0.97808171412E+03  0.97808171412E+03  0.25500000920E-02 0. -1.
    10030    2    1    2    0    0  0.00000000000E+00  0.00000000000E+00 -0.39750700728E+03  0.15586564210E+04  0.15071157944E+04 0.  0.
        1    1    3    3  502    0  0.77569581528E+02  0.22198068937E+03  0.54166092332E+03  0.59049896047E+03  0.50400001928E-02 0.  1.
       -1    1    3    3    0  502 -0.77569581528E+02 -0.22198068937E+03 -0.93916793060E+03  0.96815746050E+03  0.50400001928E-02 0. -1.
</event>
<event>
 5   0  0.4086710E-04  0.1506008E+04  0.7818609E-02  0.8880467E-01
       -1   -1    0    0    0  501  0.00000000000E+00  0.00000000000E+00  0.43700776016E+03  0.43700776018E+03  0.50400001928E-02 0. -1.
        1   -1    0    0  501    0  0.00000000000E+00  0.00000000000E+00 -0.12974941880E+04  0.12974941880E+04  0.50400001928E-02 0.  1.
    10030    2    1    2    0    0  0.00000000000E+00  0.00000000000E+00 -0.86048642781E+03  0.17345019482E+04  0.15060080065E+04 0.  0.
        3    1    3    3  502    0  0.20014741426E+03  0.63963551441E+03 -0.34911625504E+02  0.67112697049E+03  0.10100000352E+00 0. -1.
       -3    1    3    3    0  502 -0.20014741426E+03 -0.63963551441E+03 -0.82557480231E+03  0.10633749777E+04  0.10100000352E+00 0.  1.
</event>
<event>
 5   0  0.7634227E-04  0.1518757E+04  0.7818609E-02  0.8872074E-01
        2   -1    0    0  501    0  0.00000000000E+00  0.00000000000E+00  0.16711706066E+04  0.16711706066E+04  0.25500000920E-02 0. -1.
       -2   -1    0    0    0  501  0.00000000000E+00  0.00000000000E+00 -0.34506111400E+03  0.34506111401E+03  0.25500000920E-02 0.  1.
    10030    2    1    2    0    0  0.00000000000E+00  0.00000000000E+00  0.13261094926E+04  0.20162317206E+04  0.15187573752E+04 0.  0.
        2    1    3    3  502    0  0.34739069136E+03 -0.48538531356E+03  0.39843939523E+02  0.59821963741E+03  0.25500000920E-02 0.  1.
       -2    1    3    3    0  502 -0.34739069136E+03  0.48538531356E+03  0.12862655531E+04  0.14180120832E+04  0.25500000920E-02 0. -1.
</event>
<event>
 5   0  0.3907345E-04  0.1518559E+04  0.7818609E-02  0.8872205E-01
        1   -1    0    0  501    0  0.00000000000E+00  0.00000000000E+00  0.18318882296E+04  0.18318882296E+04  0.50400001928E-02 0. -1.
       -1   -1    0    0    0  501  0.00000000000E+00  0.00000000000E+00 -0.31470543727E+03  0.31470543731E+03  0.50400001928E-02 0.  1.
    10030    2    1    2    0    0  0.00000000000E+00  0.00000000000E+00  0.15171827923E+04  0.21465936669E+04  0.15185587725E+04 0.  0.
        5    1    3    3  502    0 -0.53996531270E+03 -0.26804321419E+02  0.15121757436E+04  0.16059198548E+04  0.46999998093E+01 0. -1.
       -5    1    3    3    0  502  0.53996531270E+03  0.26804321419E+02  0.50070487373E+01  0.54067381211E+03  0.46999998093E+01 0.  1.
</event>
<event>
 5   0  0.7547580E-04  0.1497125E+04  0.7818609E-02  0.8886367E-01
        2   -1    0    0  501    0  0.00000000000E+00  0.00000000000E+00  0.61268300293E+03  0.61268300293E+03  0.25500000920E-02 0.  1.
       -2   -1    0    0    0  501  0.00000000000E+00  0.00000000000E+00 -0.91457744833E+03  0.91457744834E+03  0.25500000920E-02 0. -1.
    10030    2    1    2    0    0  0.00000000000E+00  0.00000000000E+00 -0.30189444540E+03  0.15272604513E+04  0.14971253220E+04 0.  0.
        4    1    3    3  502    0 -0.19696892694E+03 -0.27480221565E+03  0.53035166592E+03  0.62895748533E+03  0.12699999809E+01 0.  1.
       -4    1    3    3    0  502  0.19696892694E+03  0.27480221565E+03 -0.83224611133E+03  0.89830296594E+03  0.12699999809E+01 0. -1.
</event>
<event>
 5   0  0.7359897E-04  0.1495757E+04  0.7818609E-02  0.8887280E-01
       -2   -1    0    0    0  501  0.00000000000E+00  0.00000000000E+00  0.51412565899E+03  0.51412565900E+03  0.25500000920E-02 0.  1.
        2   -1    0    0  501    0  0.00000000000E+00  0.00000000000E+00 -0.10879089447E+04  0.10879089447E+04  0.25500000920E-02 0. -1.
    10030    2    1    2    0    0  0.00000000000E+00  0.00000000000E+00 -0.57378328568E+03  0.16020346037E+04  0.14957565351E+04 0.  0.
        1    1    3    3  502    0  0.52121656481E+03 -0.37701953607E+03  0.12167188062E+03  0.65468655444E+03  0.50400001928E-02 0.  1.
       -1    1    3    3    0  502 -0.52121656481E+03  0.37701953607E+03 -0.69545516630E+03  0.94734804922E+03  0.50400001928E-02 0. -1.
</event>
<event>
 5   0  0.7359897E-04  0.1511007E+04  0.7818609E-02  0.8877166E-01
       -2   -1    0    0    0  501  0.00000000000E+00  0.00000000000E+00  0.35460419147E+03  0.35460419148E+03  0.25500000920E-02 0. -1.
        2   -1    0    0  501    0  0.00000000000E+00  0.00000000000E+00 -0.16096414287E+04  0.16096414287E+04  0.25500000920E-02 0.  1.
    10030    2    1    2    0    0  0.00000000000E+00  0.00000000000E+00 -0.12550372373E+04  0.19642456202E+04  0.15110070780E+04 0.  0.
        1    1    3    3  502    0  0.69333519504E+03  0.29380130819E+03 -0.54788416811E+03  0.93124108751E+03  0.50400001928E-02 0. -1.
       -1    1    3    3    0  502 -0.69333519504E+03 -0.29380130819E+03 -0.70715306915E+03  0.10330045327E+04  0.50400001928E-02 0.  1.
</event>
<event>
 5   0  0.4058874E-04  0.1495701E+04  0.7818609E-02  0.8887317E-01
       -1   -1    0    0    0  501  0.00000000000E+00  0.00000000000E+00  0.49091408992E+03  0.49091408995E+03  0.50400001928E-02 0.  1.
        1   -1    0    0  501    0  0.00000000000E+00  0.00000000000E+00 -0.11392625286E+04  0.11392625286E+04  0.50400001928E-02 0. -1.
    10030    2    1    2    0    0  0.00000000000E+00  0.00000000000E+00 -0.64834843865E+03  0.16301766185E+04  0.14957005415E+04 0.  0.
        4    1    3    3  502    0 -0.61785454373E+03  0.28847959127E+03 -0.65889093903E+03  0.94821073302E+03  0.12699999809E+01 0. -1.
       -4    1    3    3    0  502  0.61785454373E+03 -0.28847959127E+03  0.10542500380E+02  0.68196588551E+03  0.12699999809E+01 0.  1.
</event>
<event>
 5   0  0.7547580E-04  0.1520331E+04  0.7818609E-02  0.8871044E-01
        2   -1    0    0  501    0  0.00000000000E+00  0.00000000000E+00  0.93225357932E+03  0.93225357932E+03  0.25500000920E-02 0.  1.
       -2   -1    0    0    0  501  0.00000000000E+00  0.00000000000E+00 -0.61984415297E+03  0.61984415298E+03  0.25500000920E-02 0. -1.
    10030    2    1    2    0    0  0.00000000000E+00  0.00000000000E+00  0.31240942634E+03  0.15520977323E+04  0.15203314510E+04 0.  0.
        4    1    3    3  502    0 -0.13108484290E+03 -0.67649897998E+03  0.48387236697E+03  0.84200248597E+03  0.12699999809E+01 0. -1.
       -4    1    3    3    0  502  0.13108484290E+03  0.67649897998E+03 -0.17146294063E+03  0.71009524633E+03  0.12699999809E+01 0.  1.
</event>
<event>
 5   0  0.7547580E-04  0.1498686E+04  0.7818609E-02  0.8885327E-01
       -2   -1    0    0    0  501  0.00000000000E+00  0.00000000000E+00  0.54073787723E+03  0.54073787723E+03  0.25500000920E-02 0.  1.
        2   -1    0    0  501    0  0.00000000000E+00  0.00000000000E+00 -0.10384232079E+04  0.10384232079E+04  0.25500000920E-02 0. -1.
    10030    2    1    2    0    0  0.00000000000E+00  0.00000000000E+00 -0.49768533071E+03  0.15791610852E+04  0.14986857724E+04 0.  0.
        4    1    3    3  502    0 -0.50995621603E+02  0.15858236315E+03  0.52097980146E+03  0.54696479389E+03  0.12699999809E+01 0.  1.
       -4    1    3    3    0  502  0.50995621603E+02 -0.15858236315E+03 -0.10186651322E+04  0.10321962913E+04  0.12699999809E+01 0. -1.
</event>
<event>
 5   0  0.4015204E-04  0.1503643E+04  0.7818609E-02  0.8882034E-01
        1   -1    0    0  501    0  0.00000000000E+00  0.00000000000E+00  0.14070901788E+04  0.14070901788E+04  0.50400001928E-02 0.  1.
       -1   -1    0    0    0  501  0.00000000000E+00  0.00000000000E+00 -0.40170538772E+03  0.40170538776E+03  0.50400001928E-02 0. -1.
    10030    2    1    2    0    0  0.00000000000E+00  0.00000000000E+00  0.10053847910E+04  0.18087955665E+04  0.15036431835E+04 0.  0.
        2    1    3    3  502    0  0.25360703745E+03 -0.68892759237E+03  0.69776920022E+03  0.10128275341E+04  0.25500000920E-02 0.  1.
       -2    1    3    3    0  502 -0.25360703745E+03  0.68892759237E+03  0.30761559081E+03  0.79596803246E+03  0.25500000920E-02 0. -1.
</event>
<event>
 5   0  0.7359897E-04  0.1514878E+04  0.7818609E-02  0.8874619E-01
       -2   -1    0    0    0  501  0.00000000000E+00  0.00000000000E+00  0.91596650884E+03  0.91596650884E+03  0.25500000920E-02 0. -1.
        2   -1    0    0  501    0  0.00000000000E+00  0.00000000000E+00 -0.62634769500E+03  0.62634769500E+03  0.25500000920E-02 0.  1.
    10030    2    1    2    0    0  0.00000000000E+00  0.00000000000E+00  0.28961881384E+03  0.15423142038E+04  0.15148775680E+04 0.  0.
        1    1    3    3  502    0 -0.59170867933E+03  0.35295386574E+03  0.46517968693E+03  0.83131686720E+03  0.50400001928E-02 0. -1.
       -1    1    3    3    0  502  0.59170867933E+03 -0.35295386574E+03 -0.17556087308E+03  0.71099733665E+03  0.50400001928E-02 0.  1.
</event>
<event>
 5   0  0.3907345E-04  0.1523414E+04  0.7818609E-02  0.8869031E-01
       -1   -1    0    0    0  501  0.00000000000E+00  0.00000000000E+00  0.99704646247E+03  0.99704646248E+03  0.50400001928E-02 0.  1.
        1   -1    0    0  501    0  0.00000000000E+00  0.00000000000E+00 -0.58191597709E+03  0.58191597711E+03  0.50400001928E-02 0. -1.
    10030    2    1    2    0    0  0.00000000000E+00  0.00000000000E+00  0.41513048538E+03  0.15789624396E+04  0.15234136227E+04 0.  0.
        5    1    3    3  502    0  0.35902193124E+03  0.80789289528E+02  0.89877949569E+03  0.97121075380E+03  0.46999998093E+01 0.  1.
       -5    1    3    3    0  502 -0.35902193124E+03 -0.80789289528E+02 -0.48364901031E+03  0.60775168580E+03  0.46999998093E+01 0. -1.
</event>
<event>
 5   0  0.3907345E-04  0.1532166E+04  0.7818609E-02  0.8863340E-01
       -1   -1    0    0    0  501  0.00000000000E+00  0.00000000000E+00  0.51365830729E+03  0.51365830732E+03  0.50400001928E-02 0.  1.
        1   -1    0    0  501    0  0.00000000000E+00  0.00000000000E+00 -0.11425561512E+04  0.11425561513E+04  0.50400001928E-02 0. -1.
    10030    2    1    2    0    0  0.00000000000E+00  0.00000000000E+00 -0.62889784395E+03  0.16562144586E+04  0.15321663861E+04 0.  0.
        5    1    3    3  502    0  0.17521183404E+03  0.26026524070E+03  0.44100716066E+03  0.54124540465E+03  0.46999998093E+01 0.  1.
       -5    1    3    3    0  502 -0.17521183404E+03 -0.26026524070E+03 -0.10699050046E+04  0.11149690539E+04  0.46999998093E+01 0. -1.
</event>
<event>
 5   0  0.3907345E-04  0.1509305E+04  0.7818609E-02  0.8878288E-01
        1   -1    0    0  501    0  0.00000000000E+00  0.00000000000E+00  0.92106790660E+03  0.92106790662E+03  0.50400001928E-02 0. -1.
       -1   -1    0    0    0  501  0.00000000000E+00  0.00000000000E+00 -0.61830475368E+03  0.61830475370E+03  0.50400001928E-02 0.  1.
    10030    2    1    2    0    0  0.00000000000E+00  0.00000000000E+00  0.30276315292E+03  0.15393726603E+04  0.15093053570E+04 0.  0.
        5    1    3    3  502    0  0.13029723816E+03 -0.36064950776E+03  0.81427795279E+03  0.90006450442E+03  0.46999998093E+01 0. -1.
       -5    1    3    3    0  502 -0.13029723816E+03  0.36064950776E+03 -0.51151479986E+03  0.63930815590E+03  0.46999998093E+01 0.  1.
</event>
<event>
 5   0  0.4015204E-04  0.1478455E+04  0.7818609E-02  0.8898908E-01
       -1   -1    0    0    0  501  0.00000000000E+00  0.00000000000E+00  0.40460586752E+03  0.40460586755E+03  0.50400001928E-02 0. -1.
        1   -1    0    0  501    0  0.00000000000E+00  0.00000000000E+00 -0.13505921433E+04  0.13505921433E+04  0.50400001928E-02 0.  1.
    10030    2    1    2    0    0  0.00000000000E+00  0.00000000000E+00 -0.94598627580E+03  0.17551980109E+04  0.14784552828E+04 0.  0.
        2    1    3    3  502    0 -0.65667244506E+03 -0.31039765086E+03 -0.30981645915E+03  0.78965286052E+03  0.25500000920E-02 0. -1.
       -2    1    3    3    0  502  0.65667244506E+03  0.31039765086E+03 -0.63616981664E+03  0.96554515035E+03  0.25500000920E-02 0.  1.
</event>
<event>
 5   0  0.7454828E-04  0.1519339E+04  0.7818609E-02  0.8871694E-01
       -2   -1    0    0    0  501  0.00000000000E+00  0.00000000000E+00  0.50236019046E+03  0.50236019046E+03  0.25500000920E-02 0. -1.
        2   -1    0    0  501    0  0.00000000000E+00  0.00000000000E+00 -0.11487724648E+04  0.11487724648E+04  0.25500000920E-02 0.  1.
    10030    2    1    2    0    0  0.00000000000E+00  0.00000000000E+00 -0.64641227433E+03  0.16511326553E+04  0.15193387433E+04 0.  0.
        3    1    3    3  502    0  0.35760684163E+03 -0.15644191664E+03  0.38504838074E+03  0.54828732629E+03  0.10100000352E+00 0. -1.
       -3    1    3    3    0  502 -0.35760684163E+03  0.15644191664E+03 -0.10314606551E+04  0.11028453290E+04  0.10100000352E+00 0.  1.
</event>
<event>
 5   0  0.7672251E-04  0.1515532E+04  0.7818609E-02  0.8874189E-01
        2   -1    0    0  501    0  0.00000000000E+00  0.00000000000E+00  0.13347497130E+04  0.13347497130E+04  0.25500000920E-02 0.  1.
       -2   -1    0    0    0  501  0.00000000000E+00  0.00000000000E+00 -0.43020019321E+03  0.43020019322E+03  0.25500000920E-02 0. -1.
    10030    2    1    2    0    0  0.00000000000E+00  0.00000000000E+00  0.90454951983E+03  0.17649499063E+04  0.15155323612E+04 0.  0.
        5    1    3    3  502    0 -0.74632261091E+03 -0.10977042366E+03  0.36877788323E+03  0.83968220335E+03  0.46999998093E+01 0.  1.
       -5    1    3    3    0  502  0.74632261091E+03  0.10977042366E+03  0.53577163659E+03  0.92526770291E+03  0.46999998093E+01 0. -1.
</event>
<event>
 5   0  0.7634227E-04  0.1505955E+04  0.7818609E-02  0.8880503E-01
       -2   -1    0    0    0  501  0.00000000000E+00  0.00000000000E+00  0.84513471276E+03  0.84513471276E+03  0.25500000920E-02 0.  1.
        2   -1    0    0  501    0  0.00000000000E+00  0.00000000000E+00 -0.67086952957E+03  0.67086952957E+03  0.25500000920E-02 0. -1.
    10030    2    1    2    0    0  0.00000000000E+00  0.00000000000E+00  0.17426518319E+03  0.15160042423E+04  0.15059550155E+04 0.  0.
        2    1    3    3  502    0 -0.62051978880E+03 -0.47757281517E+02 -0.33954663329E+03  0.70895520480E+03  0.25500000920E-02 0. -1.
       -2    1    3    3    0  502  0.62051978880E+03  0.47757281517E+02  0.51381181648E+03  0.80704903754E+03  0.25500000920E-02 0.  1.
</event>
<event>
 5   0  0.4015204E-04  0.1496988E+04  0.7818609E-02  0.8886459E-01
        1   -1    0    0  501    0  0.00000000000E+00  0.00000000000E+00  0.96781232857E+03  0.96781232858E+03  0.50400001928E-02 0.  1.
       -1   -1    0    0    0  501  0.00000000000E+00  0.00000000000E+00 -0.57887573678E+03  0.57887573681E+03  0.50400001928E-02 0. -1.
    10030    2    1    2    0    0  0.00000000000E+00  0.00000000000E+00  0.38893659178E+03  0.15466880654E+04  0.14969877418E+04 0.  0.
        2    1    3    3  502    0  0.25294845557E+03 -0.17544594906E+03  0.89937960345E+03  0.95060395188E+03  0.25500000920E-02 0.  1.
       -2    1    3    3    0  502 -0.25294845557E+03  0.17544594906E+03 -0.51044301166E+03  0.59608411351E+03  0.25500000920E-02 0. -1.
</event>
<event>
 5   0  0.7359897E-04  0.1505366E+04  0.7818609E-02  0.8880892E-01
        2   -1    0    0  501    0  0.00000000000E+00  0.00000000000E+00  0.19083666014E+04  0.19083666014E+04  0.25500000920E-02 0. -1.
       -2   -1    0    0    0  501  0.00000000000E+00  0.00000000000E+00 -0.29686734892E+03  0.29686734893E+03  0.25500000920E-02 0.  1.
    10030    2    1    2    0    0  0.00000000000E+00  0.00000000000E+00  0.16114992525E+04  0.22052339504E+04  0.15053660469E+04 0.  0.
        1    1    3    3  502    0 -0.30750773928E+03  0.64413333549E+03  0.45581272640E+03  0.84689669097E+03  0.50400001928E-02 0.  1.
       -1    1    3    3    0  502  0.30750773928E+03 -0.64413333549E+03  0.11556865261E+04  0.13583372594E+04  0.50400001928E-02 0. -1.
</event>
<event>
 5   0  0.2800375E-04  0.1521371E+04  0.7818609E-02  0.8870365E-01
       -3   -1    0    0    0  501  0.00000000000E+00  0.00000000000E+00  0.85132335886E+03  0.85132336485E+03  0.10100000352E+00 0. -1.
        3   -1    0    0  501    0  0.00000000000E+00  0.00000000000E+00 -0.67969715851E+03  0.67969716602E+03  0.10100000352E+00 0.  1.
    10030    2    1    2    0    0  0.00000000000E+00  0.00000000000E+00  0.17162620035E+03  0.15310205309E+04  0.15213705378E+04 0.  0.
        3    1    3    3  502    0  0.36986815845E+03  0.41604572998E+03  0.60750808910E+03  0.82399186440E+03  0.10100000352E+00 0. -1.
       -3    1    3    3    0  502 -0.36986815845E+03 -0.41604572998E+03 -0.43588188875E+03  0.70702866647E+03  0.10100000352E+00 0.  1.
</event>
<event>
 5   0  0.2800375E-04  0.1509723E+04  0.7818609E-02  0.8878013E-01
        4   -1    0    0  501    0  0.00000000000E+00  0.00000000000E+00  0.82773684888E+03  0.82773782316E+03  0.12699999809E+01 0.  1.
       -4   -1    0    0    0  501  0.00000000000E+00  0.00000000000E+00 -0.68840022391E+03  0.68840139539E+03  0.12699999809E+01 0. -1.
    10030    2    1    2    0    0  0.00000000000E+00  0.00000000000E+00  0.13933662497E+03  0.15161392186E+04  0.15097229663E+04 0.  0.
        5    1    3    3  502    0  0.39348470906E+03  0.34337224465E+03 -0.47767928628E+03  0.70776712639E+03  0.46999998093E+01 0. -1.
       -5    1    3    3    0  502 -0.39348470906E+03 -0.34337224465E+03  0.61701591125E+03  0.80837209217E+03  0.46999998093E+01 0.  1.
</event>
<event>
 5   0  0.4084462E-04  0.1490554E+04  0.7818609E-02  0.8890759E-01
       -1   -1    0    0    0  501  0.00000000000E+00  0.00000000000E+00  0.37941729672E+03  0.37941729676E+03  0.50400001928E-02 0.  1.
        1   -1    0    0  501    0  0.00000000000E+00  0.00000000000E+00 -0.14639234924E+04  0.14639234924E+04  0.50400001928E-02 0. -1.
    10030    2    1    2    0    0  0.00000000000E+00  0.00000000000E+00 -0.10845061957E+04  0.18433407892E+04  0.14905541173E+04 0.  0.
        1    1    3    3  502    0  0.35075739277E+03  0.25097232425E+03 -0.12939073333E+04  0.13638966395E+04  0.50400001928E-02 0. -1.
       -1    1    3    3    0  502 -0.35075739277E+03 -0.25097232425E+03  0.20940113765E+03  0.47944414961E+03  0.50400001928E-02 0.  1.
</event>
<event>
 5   0  0.4086710E-04  0.1485171E+04  0.7818609E-02  0.8894374E-01
       -1   -1    0    0    0  501  0.00000000000E+00  0.00000000000E+00  0.60092916614E+03  0.60092916616E+03  0.50400001928E-02 0.  1.
        1   -1    0    0  501    0  0.00000000000E+00  0.00000000000E+00 -0.91763450545E+03  0.91763450546E+03  0.50400001928E-02 0. -1.
    10030    2    1    2    0    0  0.00000000000E+00  0.00000000000E+00 -0.31670533931E+03  0.15185636716E+04  0.14851711527E+04 0.  0.
        3    1    3    3  502    0 -0.63632979232E+03  0.15921255914E+03 -0.51427268720E+03  0.83351103807E+03  0.10100000352E+00 0. -1.
       -3    1    3    3    0  502  0.63632979232E+03 -0.15921255914E+03  0.19756734789E+03  0.68505263355E+03  0.10100000352E+00 0.  1.
</event>
<event>
 5   0  0.4015204E-04  0.1489530E+04  0.7818609E-02  0.8891445E-01
       -1   -1    0    0    0  501  0.00000000000E+00  0.00000000000E+00  0.94297559874E+03  0.94297559876E+03  0.50400001928E-02 0. -1.
        1   -1    0    0  501    0  0.00000000000E+00  0.00000000000E+00 -0.58821753404E+03  0.58821753406E+03  0.50400001928E-02 0.  1.
    10030    2    1    2    0    0  0.00000000000E+00  0.00000000000E+00  0.35475806470E+03  0.15311931328E+04  0.14895298337E+04 0.  0.
        2    1    3    3  502    0 -0.30346208201E+03 -0.48565632655E+03 -0.31209427674E+03  0.65219179719E+03  0.25500000920E-02 0.  1.
       -2    1    3    3    0  502  0.30346208201E+03  0.48565632655E+03  0.66685234144E+03  0.87900133563E+03  0.25500000920E-02 0. -1.
</event>
<event>
 5   0  0.4086710E-04  0.1500355E+04  0.7818609E-02  0.8884217E-01
       -1   -1    0    0    0  501  0.00000000000E+00  0.00000000000E+00  0.48074162067E+03  0.48074162069E+03  0.50400001928E-02 0. -1.
        1   -1    0    0  501    0  0.00000000000E+00  0.00000000000E+00 -0.11706212188E+04  0.11706212188E+04  0.50400001928E-02 0.  1.
    10030    2    1    2    0    0  0.00000000000E+00  0.00000000000E+00 -0.68987959813E+03  0.16513628395E+04  0.15003550806E+04 0.  0.
        3    1    3    3  502    0 -0.63125777673E+03 -0.18870290636E+02 -0.79056479629E+03  0.10118474074E+04  0.10100000352E+00 0.  1.
       -3    1    3    3    0  502  0.63125777673E+03  0.18870290636E+02  0.10068519816E+03  0.63951543209E+03  0.10100000352E+00 0. -1.
</event>
<event>
 5   0  0.4058874E-04  0.1496412E+04  0.7818609E-02  0.8886843E-01
       -1   -1    0    0    0  501  0.00000000000E+00  0.00000000000E+00  0.12296713018E+04  0.12296713018E+04  0.50400001928E-02 0. -1.
        1   -1    0    0  501    0  0.00000000000E+00  0.00000000000E+00 -0.45525341689E+03  0.45525341692E+03  0.50400001928E-02 0.  1.
    10030    2    1    2    0    0  0.00000000000E+00  0.00000000000E+00  0.77441788489E+03  0.16849247187E+04  0.14964117907E+04 0.  0.
        4    1    3    3  502    0 -0.65985129372E+03  0.35139396034E+03  0.35288966709E+03  0.82668868096E+03  0.12699999809E+01 0.  1.
       -4    1    3    3    0  502  0.65985129372E+03 -0.35139396034E+03  0.42152821780E+03  0.85823603775E+03  0.12699999809E+01 0. -1.
</event>
<event>
 5   0  0.4015204E-04  0.1505926E+04  0.7818609E-02  0.8880522E-01
        1   -1    0    0  501    0  0.00000000000E+00  0.00000000000E+00  0.12192385526E+04  0.12192385526E+04  0.50400001928E-02 0.  1.
       -1   -1    0    0    0  501  0.00000000000E+00  0.00000000000E+00 -0.46500599969E+03  0.46500599971E+03  0.50400001928E-02 0. -1.
    10030    2    1    2    0    0  0.00000000000E+00  0.00000000000E+00  0.75423255295E+03  0.16842445524E+04  0.15059259504E+04 0.  0.
        2    1    3    3  502    0 -0.45811979672E+03  0.54847127032E+03  0.64239145173E+03  0.96091688495E+03  0.25500000920E-02 0. -1.
       -2    1    3    3    0  502  0.45811979672E+03 -0.54847127032E+03  0.11184110121E+03  0.72332766741E+03  0.25500000920E-02 0.  1.
</event>
<event>
 5   0  0.7634227E-04  0.1499092E+04  0.7818609E-02  0.8885057E-01
       -2   -1    0    0    0  501  0.00000000000E+00  0.00000000000E+00  0.36288150195E+03  0.36288150196E+03  0.25500000920E-02 0.  1.
        2   -1    0    0  501    0  0.00000000000E+00  0.00000000000E+00 -0.15482164601E+04  0.15482164601E+04  0.25500000920E-02 0. -1.
    10030    2    1    2    0    0  0.00000000000E+00  0.00000000000E+00 -0.11853349581E+04  0.19110979620E+04  0.14990918776E+04 0.  0.
        2    1    3    3  502    0 -0.19073237057E+03 -0.20907653020E+02 -0.15163774928E+04  0.15284687330E+04  0.25500000920E-02 0. -1.
       -2    1    3    3    0  502  0.19073237057E+03  0.20907653020E+02  0.33104253467E+03  0.38262922902E+03  0.25500000920E-02 0.  1.
</event>
<event>
 5   0  0.4015204E-04  0.1501128E+04  0.7818609E-02  0.8883703E-01
        1   -1    0    0  501    0  0.00000000000E+00  0.00000000000E+00  0.10127159109E+04  0.10127159109E+04  0.50400001928E-02 0.  1.
       -1   -1    0    0    0  501  0.00000000000E+00  0.00000000000E+00 -0.55627258432E+03  0.55627258434E+03  0.50400001928E-02 0. -1.
    10030    2    1    2    0    0  0.00000000000E+00  0.00000000000E+00  0.45644332657E+03  0.15689884952E+04  0.15011277054E+04 0.  0.
        2    1    3    3  502    0 -0.19204177281E+03 -0.29974913186E+03  0.91886240878E+03  0.98541245721E+03  0.25500000920E-02 0.  1.
       -2    1    3    3    0  502  0.19204177281E+03  0.29974913186E+03 -0.46241908221E+03  0.58357603803E+03  0.25500000920E-02 0. -1.
</event>
<event>
 5   0  0.3907345E-04  0.1500540E+04  0.7818609E-02  0.8884094E-01
        1   -1    0    0  501    0  0.00000000000E+00  0.00000000000E+00  0.35154249213E+04  0.35154249213E+04  0.50400001928E-02 0.  1.
       -1   -1    0    0    0  501  0.00000000000E+00  0.00000000000E+00 -0.16012432482E+03  0.16012432490E+03  0.50400001928E-02 0. -1.
    10030    2    1    2    0    0  0.00000000000E+00  0.00000000000E+00  0.33553005965E+04  0.36755492462E+04  0.15005399590E+04 0.  0.
        5    1    3    3  502    0 -0.45447949307E+03  0.57914005774E+02  0.31329353744E+04  0.31662614850E+04  0.46999998093E+01 0.  1.
       -5    1    3    3    0  502  0.45447949307E+03 -0.57914005774E+02  0.22236522216E+03  0.50928776120E+03  0.46999998093E+01 0. -1.
</event>
<event>
 5   0  0.2800375E-04  0.1553604E+04  0.7818609E-02  0.8849569E-01
        3   -1    0    0  501    0  0.00000000000E+00  0.00000000000E+00  0.60797481300E+03  0.60797482139E+03  0.10100000352E+00 0.  1.
       -3   -1    0    0    0  501  0.00000000000E+00  0.00000000000E+00 -0.99251095141E+03  0.99251095654E+03  0.10100000352E+00 0. -1.
    10030    2    1    2    0    0  0.00000000000E+00  0.00000000000E+00 -0.38453613840E+03  0.16004857779E+04  0.15536044167E+04 0.  0.
        1    1    3    3  502    0  0.89386407729E+02 -0.76470843109E+03 -0.29859477787E+03  0.82578917155E+03  0.50400001928E-02 0. -1.
       -1    1    3    3    0  502 -0.89386407729E+02  0.76470843109E+03 -0.85941360535E+02  0.77469660638E+03  0.50400001928E-02 0.  1.
</event>
<event>
 5   0  0.7454828E-04  0.1500115E+04  0.7818609E-02  0.8884376E-01
       -2   -1    0    0    0  501  0.00000000000E+00  0.00000000000E+00  0.41495121341E+03  0.41495121342E+03  0.25500000920E-02 0.  1.
        2   -1    0    0  501    0  0.00000000000E+00  0.00000000000E+00 -0.13557892064E+04  0.13557892064E+04  0.25500000920E-02 0. -1.
    10030    2    1    2    0    0  0.00000000000E+00  0.00000000000E+00 -0.94083799294E+03  0.17707404198E+04  0.15001151640E+04 0.  0.
        3    1    3    3  502    0 -0.23882113622E+03 -0.26023418818E+03  0.31063770113E+03  0.47037555141E+03  0.10100000352E+00 0.  1.
       -3    1    3    3    0  502  0.23882113622E+03  0.26023418818E+03 -0.12514756941E+04  0.13003648684E+04  0.10100000352E+00 0. -1.
</event>
<event>
 5   0  0.7454828E-04  0.1494068E+04  0.7818609E-02  0.8888408E-01
       -2   -1    0    0    0  501  0.00000000000E+00  0.00000000000E+00  0.35361617837E+03  0.35361617838E+03  0.25500000920E-02 0. -1.
        2   -1    0    0  501    0  0.00000000000E+00  0.00000000000E+00 -0.15781502890E+04  0.15781502890E+04  0.25500000920E-02 0.  1.
    10030    2    1    2    0    0  0.00000000000E+00  0.00000000000E+00 -0.12245341107E+04  0.19317664674E+04  0.14940675676E+04 0.  0.
        3    1    3    3  502    0  0.15896703475E+03  0.72939789872E+03 -0.57644369450E+03  0.94317503992E+03  0.10100000352E+00 0.  1.
       -3    1    3    3    0  502 -0.15896703475E+03 -0.72939789872E+03 -0.64809041617E+03  0.98859142750E+03  0.10100000352E+00 0. -1.
</event>
<event>
 5   0  0.7547580E-04  0.1354184E+04  0.7818609E-02  0.8987667E-01
        2   -1    0    0  501    0  0.00000000000E+00  0.00000000000E+00  0.12262861180E+04  0.12262861180E+04  0.25500000920E-02 0. -1.
       -2   -1    0    0    0  501  0.00000000000E+00  0.00000000000E+00 -0.37385530777E+03  0.37385530777E+03  0.25500000920E-02 0.  1.
    10030    2    1    2    0    0  0.00000000000E+00  0.00000000000E+00  0.85243081025E+03  0.16001414258E+04  0.13541839965E+04 0.  0.
        4    1    3    3  502    0 -0.53087940000E+02  0.13313089760E+03  0.12081546703E+04  0.12166270939E+04  0.12699999809E+01 0. -1.
       -4    1    3    3    0  502  0.53087940000E+02 -0.13313089760E+03 -0.35572386006E+03  0.38351433191E+03  0.12699999809E+01 0.  1.
</event>
<event>
 5   0  0.7454828E-04  0.1504637E+04  0.7818609E-02  0.8881375E-01
        2   -1    0    0  501    0  0.00000000000E+00  0.00000000000E+00  0.11860091868E+04  0.11860091868E+04  0.25500000920E-02 0. -1.
       -2   -1    0    0    0  501  0.00000000000E+00  0.00000000000E+00 -0.47721640994E+03  0.47721640995E+03  0.25500000920E-02 0.  1.
    10030    2    1    2    0    0  0.00000000000E+00  0.00000000000E+00  0.70879277688E+03  0.16632255968E+04  0.15046368948E+04 0.  0.
        3    1    3    3  502    0 -0.33579912681E+03  0.51564890010E+03 -0.12403650054E+03  0.62772597955E+03  0.10100000352E+00 0.  1.
       -3    1    3    3    0  502  0.33579912681E+03 -0.51564890010E+03  0.83282927743E+03  0.10354996172E+04  0.10100000352E+00 0. -1.
</event>
<event>
 5   0  0.7359897E-04  0.1431604E+04  0.7818609E-02  0.8931254E-01
       -2   -1    0    0    0  501  0.00000000000E+00  0.00000000000E+00  0.23594362226E+03  0.23594362228E+03  0.25500000920E-02 0. -1.
        2   -1    0    0  501    0  0.00000000000E+00  0.00000000000E+00 -0.21715890826E+04  0.21715890826E+04  0.25500000920E-02 0.  1.
    10030    2    1    2    0    0  0.00000000000E+00  0.00000000000E+00 -0.19356454603E+04  0.24075327048E+04  0.14316041272E+04 0.  0.
        1    1    3    3  502    0  0.50971762859E+03  0.40292533270E+01 -0.18129420651E+04  0.18832384945E+04  0.50400001928E-02 0.  1.
       -1    1    3    3    0  502 -0.50971762859E+03 -0.40292533270E+01 -0.12270339521E+03  0.52429421034E+03  0.50400001928E-02 0. -1.
</event>
<event>
 5   0  0.7454828E-04  0.1515531E+04  0.7818609E-02  0.8874190E-01
        2   -1    0    0  501    0  0.00000000000E+00  0.00000000000E+00  0.18725279715E+04  0.18725279716E+04  0.25500000920E-02 0.  1.
       -2   -1    0    0    0  501  0.00000000000E+00  0.00000000000E+00 -0.30664875903E+03  0.30664875904E+03  0.25500000920E-02 0. -1.
    10030    2    1    2    0    0  0.00000000000E+00  0.00000000000E+00  0.15658792125E+04  0.21791767306E+04  0.15155307700E+04 0.  0.
        3    1    3    3  502    0 -0.71653228012E+03 -0.17514304546E+03  0.10324665783E+04  0.12688896092E+04  0.10100000352E+00 0.  1.
       -3    1    3    3    0  502  0.71653228012E+03  0.17514304546E+03  0.53341263422E+03  0.91028712140E+03  0.10100000352E+00 0. -1.
</event>
<event>
 5   0  0.7672251E-04  0.1501642E+04  0.7818609E-02  0.8883362E-01
       -2   -1    0    0    0  501  0.00000000000E+00  0.00000000000E+00  0.99037355460E+03  0.99037355460E+03  0.25500000920E-02 0. -1.
        2   -1    0    0  501    0  0.00000000000E+00  0.00000000000E+00 -0.56921129202E+03  0.56921129202E+03  0.25500000920E-02 0.  1.
    10030    2    1    2    0    0  0.00000000000E+00  0.00000000000E+00  0.42116226258E+03  0.15595848466E+04  0.15016415159E+04 0.  0.
        5    1    3    3  502    0 -0.40618338062E+03  0.60319891359E+03  0.16624265965E+02  0.72741482268E+03  0.46999998093E+01 0.  1.
       -5    1    3    3    0  502  0.40618338062E+03 -0.60319891359E+03  0.40453799662E+03  0.83217002394E+03  0.46999998093E+01 0. -1.
</event>
<event>
 5   0  0.4086710E-04  0.1559277E+04  0.7818609E-02  0.8845964E-01
        1   -1    0    0  501    0  0.00000000000E+00  0.00000000000E+00  0.65763648574E+03  0.65763648575E+03  0.50400001928E-02 0.  1.
       -1   -1    0    0    0  501  0.00000000000E+00  0.00000000000E+00 -0.92427399017E+03  0.92427399018E+03  0.50400001928E-02 0. -1.
    10030    2    1    2    0    0  0.00000000000E+00  0.00000000000E+00 -0.26663750444E+03  0.15819104759E+04  0.15592771386E+04 0.  0.
        3    1    3    3  502    0  0.30610781230E+03 -0.65607822281E+03 -0.42682007530E+03  0.84042609079E+03  0.10100000352E+00 0. -1.
       -3    1    3    3    0  502 -0.30610781230E+03  0.65607822281E+03  0.16018257087E+03  0.74148438515E+03  0.10100000352E+00 0.  1.
</event>
<event>
 5   0  0.4084462E-04  0.1502286E+04  0.7818609E-02  0.8882934E-01
       -1   -1    0    0    0  501  0.00000000000E+00  0.00000000000E+00  0.77232977248E+03  0.77232977249E+03  0.50400001928E-02 0.  1.
        1   -1    0    0  501    0  0.00000000000E+00  0.00000000000E+00 -0.73053707168E+03  0.73053707170E+03  0.50400001928E-02 0. -1.
    10030    2    1    2    0    0  0.00000000000E+00  0.00000000000E+00  0.41792700791E+02  0.15028668442E+04  0.15022856325E+04 0.  0.
        1    1    3    3  502    0 -0.34636569438E+02 -0.74176815587E+03 -0.92266118203E+02  0.74828652641E+03  0.50400001928E-02 0. -1.
       -1    1    3    3    0  502  0.34636569438E+02  0.74176815587E+03  0.13405881899E+03  0.75458031778E+03  0.50400001928E-02 0.  1.
</event>
<event>
 5   0  0.4086710E-04  0.1494197E+04  0.7818609E-02  0.8888321E-01
        1   -1    0    0  501    0  0.00000000000E+00  0.00000000000E+00  0.87426152578E+03  0.87426152580E+03  0.50400001928E-02 0.  1.
       -1   -1    0    0    0  501  0.00000000000E+00  0.00000000000E+00 -0.63843134572E+03  0.63843134574E+03  0.50400001928E-02 0. -1.
    10030    2    1    2    0    0  0.00000000000E+00  0.00000000000E+00  0.23583018006E+03  0.15126928715E+04  0.14941967239E+04 0.  0.
        3    1    3    3  502    0 -0.39694280239E+03 -0.17755558561E+03  0.73294356254E+03  0.85222992815E+03  0.10100000352E+00 0.  1.
       -3    1    3    3    0  502  0.39694280239E+03  0.17755558561E+03 -0.49711338248E+03  0.66046294339E+03  0.10100000352E+00 0. -1.
</event>
<event>
 5   0  0.4084462E-04  0.1499334E+04  0.7818609E-02  0.8884896E-01
       -1   -1    0    0    0  501  0.00000000000E+00  0.00000000000E+00  0.95832817666E+03  0.95832817668E+03  0.50400001928E-02 0. -1.
        1   -1    0    0  501    0  0.00000000000E+00  0.00000000000E+00 -0.58643821385E+03  0.58643821387E+03  0.50400001928E-02 0.  1.
    10030    2    1    2    0    0  0.00000000000E+00  0.00000000000E+00  0.37188996281E+03  0.15447663906E+04  0.14993335376E+04 0.  0.
        1    1    3    3  502    0  0.25809012862E+03 -0.32091212342E+02  0.91035788225E+03  0.94677971788E+03  0.50400001928E-02 0. -1.
       -1    1    3    3    0  502 -0.25809012862E+03  0.32091212342E+02 -0.53846791944E+03  0.59798667267E+03  0.50400001928E-02 0.  1.
</event>
<event>
 5   0  0.4058874E-04  0.1500602E+04  0.7818609E-02  0.8884053E-01
       -1   -1    0    0    0  501  0.00000000000E+00  0.00000000000E+00  0.97557261305E+03  0.97557261306E+03  0.50400001928E-02 0. -1.
        1   -1    0    0  501    0  0.00000000000E+00  0.00000000000E+00 -0.57704753589E+03  0.57704753591E+03  0.50400001928E-02 0.  1.
    10030    2    1    2    0    0  0.00000000000E+00  0.00000000000E+00  0.39852507716E+03  0.15526201490E+04  0.15006022424E+04 0.  0.
        4    1    3    3  502    0 -0.33841889052E+03 -0.42165288379E+02 -0.49221936313E+03  0.59882115138E+03  0.12699999809E+01 0.  1.
       -4    1    3    3    0  502  0.33841889052E+03  0.42165288379E+02  0.89074444028E+03  0.95379899759E+03  0.12699999809E+01 0. -1.
</event>
<event>
 5   0  0.7547580E-04  0.1506887E+04  0.7818609E-02  0.8879886E-01
       -2   -1    0    0    0  501  0.00000000000E+00  0.00000000000E+00  0.33308438912E+03  0.33308438913E+03  0.25500000920E-02 0.  1.
        2   -1    0    0  501    0  0.00000000000E+00  0.00000000000E+00 -0.17043050907E+04  0.17043050907E+04  0.25500000920E-02 0. -1.
    10030    2    1    2    0    0  0.00000000000E+00  0.00000000000E+00 -0.13712207016E+04  0.20373894799E+04  0.15068874145E+04 0.  0.
        4    1    3    3  502    0 -0.40672824929E+03 -0.36847715983E+03 -0.13835525684E+04  0.14884295779E+04  0.12699999809E+01 0. -1.
       -4    1    3    3    0  502  0.40672824929E+03  0.36847715983E+03  0.12331866773E+02  0.54895990193E+03  0.12699999809E+01 0.  1.
</event>
<event>
 5   0  0.7672251E-04  0.1407413E+04  0.7818609E-02  0.8948470E-01
       -2   -1    0    0    0  501  0.00000000000E+00  0.00000000000E+00  0.27116135856E+03  0.27116135857E+03  0.25500000920E-02 0. -1.
        2   -1    0    0  501    0  0.00000000000E+00  0.00000000000E+00 -0.18262305822E+04  0.18262305822E+04  0.25500000920E-02 0.  1.
    10030    2    1    2    0    0  0.00000000000E+00  0.00000000000E+00 -0.15550692236E+04  0.20973919407E+04  0.14074134655E+04 0.  0.
        5    1    3    3  502    0 -0.68173304459E+02 -0.64712393724E+03 -0.37831536367E+03  0.75270285902E+03  0.46999998093E+01 0.  1.
       -5    1    3    3    0  502  0.68173304459E+02  0.64712393724E+03 -0.11767538599E+04  0.13446890817E+04  0.46999998093E+01 0. -1.
</event>
<event>
 5   0  0.4084462E-04  0.1492256E+04  0.7818609E-02  0.8889619E-01
        1   -1    0    0  501    0  0.00000000000E+00  0.00000000000E+00  0.98567114703E+03  0.98567114704E+03  0.50400001928E-02 0. -1.
       -1   -1    0    0    0  501  0.00000000000E+00  0.00000000000E+00 -0.56479994769E+03  0.56479994772E+03  0.50400001928E-02 0.  1.
    10030    2    1    2    0    0  0.00000000000E+00  0.00000000000E+00  0.42087119934E+03  0.15504710948E+04  0.14922560267E+04 0.  0.
        1    1    3    3  502    0  0.70670497228E+03 -0.57528497218E+02  0.45180304989E+03  0.84075409113E+03  0.50400001928E-02 0. -1.
       -1    1    3    3    0  502 -0.70670497228E+03  0.57528497218E+02 -0.30931850551E+02  0.70971700363E+03  0.50400001928E-02 0.  1.
</event>
<event>
 5   0  0.7454828E-04  0.1504377E+04  0.7818609E-02  0.8881548E-01
       -2   -1    0    0    0  501  0.00000000000E+00  0.00000000000E+00  0.26289345293E+03  0.26289345294E+03  0.25500000920E-02 0. -1.
        2   -1    0    0  501    0  0.00000000000E+00  0.00000000000E+00 -0.21521543242E+04  0.21521543242E+04  0.25500000920E-02 0.  1.
    10030    2    1    2    0    0  0.00000000000E+00  0.00000000000E+00 -0.18892608712E+04  0.24150477771E+04  0.15043766570E+04 0.  0.
        3    1    3    3  502    0 -0.18845155833E+02  0.32746314777E+03 -0.20312979696E+04  0.20576099496E+04  0.10100000352E+00 0.  1.
       -3    1    3    3    0  502  0.18845155833E+02 -0.32746314777E+03  0.14203709836E+03  0.35743782754E+03  0.10100000352E+00 0. -1.
</event>
<event>
 5   0  0.7359897E-04  0.1502593E+04  0.7818609E-02  0.8882731E-01
       -2   -1    0    0    0  501  0.00000000000E+00  0.00000000000E+00  0.37601196072E+03  0.37601196073E+03  0.25500000920E-02 0. -1.
        2   -1    0    0  501    0  0.00000000000E+00  0.00000000000E+00 -0.15011390067E+04  0.15011390067E+04  0.25500000920E-02 0.  1.
    10030    2    1    2    0    0  0.00000000000E+00  0.00000000000E+00 -0.11251270460E+04  0.18771509674E+04  0.15025927209E+04 0.  0.
        1    1    3    3  502    0 -0.59685682612E+02  0.44164659303E+03 -0.13181755157E+04  0.13914743203E+04  0.50400001928E-02 0.  1.
       -1    1    3    3    0  502  0.59685682612E+02 -0.44164659303E+03  0.19304846975E+03  0.48567664710E+03  0.50400001928E-02 0. -1.
</event>
<event>
 5   0  0.7634227E-04  0.1501767E+04  0.7818609E-02  0.8883279E-01
       -2   -1    0    0    0  501  0.00000000000E+00  0.00000000000E+00  0.43899493446E+03  0.43899493446E+03  0.25500000920E-02 0. -1.
        2   -1    0    0  501    0  0.00000000000E+00  0.00000000000E+00 -0.12843560085E+04  0.12843560085E+04  0.25500000920E-02 0.  1.
    10030    2    1    2    0    0  0.00000000000E+00  0.00000000000E+00 -0.84536107405E+03  0.17233509430E+04  0.15017666687E+04 0.  0.
        2    1    3    3  502    0 -0.97729708347E+02 -0.55156744413E+03 -0.99651019782E+03  0.11431580449E+04  0.25500000920E-02 0.  1.
       -2    1    3    3    0  502  0.97729708347E+02  0.55156744413E+03  0.15114912377E+03  0.58019289804E+03  0.25500000920E-02 0. -1.
</event>
<event>
 5   0  0.4015204E-04  0.1512656E+04  0.7818609E-02  0.8876080E-01
       -1   -1    0    0    0  501  0.00000000000E+00  0.00000000000E+00  0.34661300057E+03  0.34661300061E+03  0.50400001928E-02 0. -1.
        1   -1    0    0  501    0  0.00000000000E+00  0.00000000000E+00 -0.16503476466E+04  0.16503476467E+04  0.50400001928E-02 0.  1.
    10030    2    1    2    0    0  0.00000000000E+00  0.00000000000E+00 -0.13037346461E+04  0.19969606473E+04  0.15126558760E+04 0.  0.
        2    1    3    3  502    0  0.33737785530E+03  0.32907765595E+03  0.12906120154E+03  0.48864375023E+03  0.25500000920E-02 0. -1.
       -2    1    3    3    0  502 -0.33737785530E+03 -0.32907765595E+03 -0.14327958476E+04  0.15083168970E+04  0.25500000920E-02 0.  1.
</event>
<event>
 5   0  0.4058874E-04  0.1475590E+04  0.7818609E-02  0.8900850E-01
       -1   -1    0    0    0  501  0.00000000000E+00  0.00000000000E+00  0.61097973670E+03  0.61097973672E+03  0.50400001928E-02 0.  1.
        1   -1    0    0  501    0  0.00000000000E+00  0.00000000000E+00 -0.89093186202E+03  0.89093186204E+03  0.50400001928E-02 0. -1.
    10030    2    1    2    0    0  0.00000000000E+00  0.00000000000E+00 -0.27995212533E+03  0.15019115988E+04  0.14755898000E+04 0.  0.
        4    1    3    3  502    0  0.15910975322E+03  0.71398717452E+03 -0.42104148544E+02  0.73271274806E+03  0.12699999809E+01 0. -1.
       -4    1    3    3    0  502 -0.15910975322E+03 -0.71398717452E+03 -0.23784797678E+03  0.76919885069E+03  0.12699999809E+01 0.  1.
</event>
<event>
 5   0  0.7672251E-04  0.1500245E+04  0.7818609E-02  0.8884290E-01
       -2   -1    0    0    0  501  0.00000000000E+00  0.00000000000E+00  0.21429029985E+03  0.21429029987E+03  0.25500000920E-02 0. -1.
        2   -1    0    0  501    0  0.00000000000E+00  0.00000000000E+00 -0.26258025344E+04  0.26258025344E+04  0.25500000920E-02 0.  1.
    10030    2    1    2    0    0  0.00000000000E+00  0.00000000000E+00 -0.24115122346E+04  0.28400928343E+04  0.15002453299E+04 0.  0.
        5    1    3    3  502    0 -0.21691075765E+02  0.62290923001E+03 -0.41568934142E+03  0.74920366401E+03  0.46999998093E+01 0. -1.
       -5    1    3    3    0  502  0.21691075765E+02 -0.62290923001E+03 -0.19958228931E+04  0.20908891703E+04  0.46999998093E+01 0.  1.
</event>
<event>
 5   0  0.2800375E-04  0.1486850E+04  0.7818609E-02  0.8893245E-01
        4   -1    0    0  501    0  0.00000000000E+00  0.00000000000E+00  0.90082306360E+03  0.90082395883E+03  0.12699999809E+01 0. -1.
       -4   -1    0    0    0  501  0.00000000000E+00  0.00000000000E+00 -0.61352695636E+03  0.61352827081E+03  0.12699999809E+01 0.  1.
    10030    2    1    2    0    0  0.00000000000E+00  0.00000000000E+00  0.28729610724E+03  0.15143522296E+04  0.14868502353E+04 0.  0.
        3    1    3    3  502    0  0.27881741300E+03  0.66024955339E+03  0.34481670368E+03  0.79534092809E+03  0.10100000352E+00 0. -1.
       -3    1    3    3    0  502 -0.27881741300E+03 -0.66024955339E+03 -0.57520596444E+02  0.71901130156E+03  0.10100000352E+00 0.  1.
</event>
<event>
 5   0  0.3907345E-04  0.1457281E+04  0.7818609E-02  0.8913368E-01
        1   -1    0    0  501    0  0.00000000000E+00  0.00000000000E+00  0.93737497054E+03  0.93737497055E+03  0.50400001928E-02 0.  1.
       -1   -1    0    0    0  501  0.00000000000E+00  0.00000000000E+00 -0.56638684871E+03  0.56638684873E+03  0.50400001928E-02 0. -1.
    10030    2    1    2    0    0  0.00000000000E+00  0.00000000000E+00  0.37098812183E+03  0.15037618193E+04  0.14572808318E+04 0.  0.
        5    1    3    3  502    0  0.79361097935E+02 -0.32549644119E+03  0.85316219359E+03  0.91659911393E+03  0.46999998093E+01 0.  1.
       -5    1    3    3    0  502 -0.79361097935E+02  0.32549644119E+03 -0.48217407175E+03  0.58716270536E+03  0.46999998093E+01 0. -1.
</event>
<event>
 5   0  0.4058874E-04  0.1518874E+04  0.7818609E-02  0.8871998E-01
       -1   -1    0    0    0  501  0.00000000000E+00  0.00000000000E+00  0.10535947655E+04  0.10535947655E+04  0.50400001928E-02 0.  1.
        1   -1    0    0  501    0  0.00000000000E+00  0.00000000000E+00 -0.54740673501E+03  0.54740673503E+03  0.50400001928E-02 0. -1.
    10030    2    1    2    0    0  0.00000000000E+00  0.00000000000E+00  0.50618803051E+03  0.16010015006E+04  0.15188744130E+04 0.  0.
        4    1    3    3  502    0 -0.19347205154E+02 -0.99731302386E+02  0.10463989643E+04  0.10513196718E+04  0.12699999809E+01 0.  1.
       -4    1    3    3    0  502  0.19347205154E+02  0.99731302386E+02 -0.54021093375E+03  0.54968182875E+03  0.12699999809E+01 0. -1.
</event>
<event>
 5   0  0.4086710E-04  0.1485319E+04  0.7818609E-02  0.8894274E-01
        1   -1    0    0  501    0  0.00000000000E+00  0.00000000000E+00  0.22891571097E+04  0.22891571097E+04  0.50400001928E-02 0. -1.
       -1   -1    0    0    0  501  0.00000000000E+00  0.00000000000E+00 -0.24093736893E+03  0.24093736898E+03  0.50400001928E-02 0.  1.
    10030    2    1    2    0    0  0.00000000000E+00  0.00000000000E+00  0.20482197408E+04  0.25300944787E+04  0.14853194823E+04 0.  0.
        3    1    3    3  502    0 -0.32903196384E+03  0.64867540215E+03  0.12796294830E+04  0.14719012992E+04  0.10100000352E+00 0. -1.
       -3    1    3    3    0  502  0.32903196384E+03 -0.64867540215E+03  0.76859025773E+03  0.10581931795E+04  0.10100000352E+00 0.  1.
</event>
<event>
 5   0  0.3907345E-04  0.1458484E+04  0.7818609E-02  0.8912540E-01
       -1   -1    0    0    0  501  0.00000000000E+00  0.00000000000E+00  0.28306437459E+03  0.28306437464E+03  0.50400001928E-02 0. -1.
        1   -1    0    0  501    0  0.00000000000E+00  0.00000000000E+00 -0.18787017754E+04  0.18787017754E+04  0.50400001928E-02 0.  1.
    10030    2    1    2    0    0  0.00000000000E+00  0.00000000000E+00 -0.15956374008E+04  0.21617661500E+04  0.14584835181E+04 0.  0.
        5    1    3    3  502    0 -0.22222028209E+03 -0.54204730465E+03 -0.15417064660E+03  0.60579519025E+03  0.46999998093E+01 0. -1.
       -5    1    3    3    0  502  0.22222028209E+03  0.54204730465E+03 -0.14414667542E+04  0.15559709598E+04  0.46999998093E+01 0.  1.
</event>
<event>
 5   0  0.4084462E-04  0.1488307E+04  0.7818609E-02  0.8892266E-01
       -1   -1    0    0    0  501  0.00000000000E+00  0.00000000000E+00  0.62929634930E+03  0.62929634932E+03  0.50400001928E-02 0.  1.
        1   -1    0    0  501    0  0.00000000000E+00  0.00000000000E+00 -0.87997413309E+03  0.87997413311E+03  0.50400001928E-02 0. -1.
    10030    2    1    2    0    0  0.00000000000E+00  0.00000000000E+00 -0.25067778379E+03  0.15092704824E+04  0.14883071047E+04 0.  0.
        1    1    3    3  502    0 -0.47100958630E+03 -0.59474880443E+02 -0.70645248299E+03  0.85115357165E+03  0.50400001928E-02 0. -1.
       -1    1    3    3    0  502  0.47100958630E+03  0.59474880443E+02  0.45577469920E+03  0.65811691077E+03  0.50400001928E-02 0.  1.
</event>
<event>
 5   0  0.2800375E-04  0.1466527E+04  0.7818609E-02  0.8907022E-01
        3   -1    0    0  501    0  0.00000000000E+00  0.00000000000E+00  0.46383006534E+03  0.46383007634E+03  0.10100000352E+00 0. -1.
       -3   -1    0    0    0  501  0.00000000000E+00  0.00000000000E+00 -0.11592077283E+04  0.11592077327E+04  0.10100000352E+00 0.  1.
    10030    2    1    2    0    0  0.00000000000E+00  0.00000000000E+00 -0.69537766294E+03  0.16230378090E+04  0.14665270660E+04 0.  0.
        1    1    3    3  502    0  0.21957694463E+03  0.66416382275E+03 -0.10434134139E+03  0.70725860448E+03  0.50400001928E-02 0. -1.
       -1    1    3    3    0  502 -0.21957694463E+03 -0.66416382275E+03 -0.59103632154E+03  0.91577920454E+03  0.50400001928E-02 0.  1.
</event>
<event>
 5   0  0.7359897E-04  0.1437680E+04  0.7818609E-02  0.8926987E-01
       -2   -1    0    0    0  501  0.00000000000E+00  0.00000000000E+00  0.24897476637E+03  0.24897476638E+03  0.25500000920E-02 0. -1.
        2   -1    0    0  501    0  0.00000000000E+00  0.00000000000E+00 -0.20754337039E+04  0.20754337039E+04  0.25500000920E-02 0.  1.
    10030    2    1    2    0    0  0.00000000000E+00  0.00000000000E+00 -0.18264589376E+04  0.23244084703E+04  0.14376795492E+04 0.  0.
        1    1    3    3  502    0  0.12024781637E+03 -0.64687760627E+02 -0.20542744727E+04  0.20588073375E+04  0.50400001928E-02 0.  1.
       -1    1    3    3    0  502 -0.12024781637E+03  0.64687760627E+02  0.22781553510E+03  0.26560113286E+03  0.50400001928E-02 0. -1.
</event>
<event>
 5   0  0.4084462E-04  0.1469973E+04  0.7818609E-02  0.8904670E-01
       -1   -1    0    0    0  501  0.00000000000E+00  0.00000000000E+00  0.42240497537E+03  0.42240497540E+03  0.50400001928E-02 0. -1.
        1   -1    0    0  501    0  0.00000000000E+00  0.00000000000E+00 -0.12788799203E+04  0.12788799203E+04  0.50400001928E-02 0.  1.
    10030    2    1    2    0    0  0.00000000000E+00  0.00000000000E+00 -0.85647494490E+03  0.17012848957E+04  0.14699731171E+04 0.  0.
        1    1    3    3  502    0 -0.38985764106E+03 -0.45893388243E+03  0.59497823938E+02  0.60510270187E+03  0.50400001928E-02 0.  1.
       -1    1    3    3    0  502  0.38985764106E+03  0.45893388243E+03 -0.91597276884E+03  0.10961821938E+04  0.50400001928E-02 0. -1.
</event>
<event>
 5   0  0.7547580E-04  0.1481706E+04  0.7818609E-02  0.8896710E-01
        2   -1    0    0  501    0  0.00000000000E+00  0.00000000000E+00  0.17251716446E+04  0.17251716446E+04  0.25500000920E-02 0.  1.
       -2   -1    0    0    0  501  0.00000000000E+00  0.00000000000E+00 -0.31814981650E+03  0.31814981651E+03  0.25500000920E-02 0. -1.
    10030    2    1    2    0    0  0.00000000000E+00  0.00000000000E+00  0.14070218281E+04  0.20433214611E+04  0.14817058307E+04 0.  0.
        4    1    3    3  502    0  0.31229390420E+03  0.18923948617E+03 -0.18542797881E+03  0.40954146792E+03  0.12699999809E+01 0. -1.
       -4    1    3    3    0  502 -0.31229390420E+03 -0.18923948617E+03  0.15924498069E+04  0.16337799932E+04  0.12699999809E+01 0.  1.
</event>
<event>
 5   0  0.7672251E-04  0.1492046E+04  0.7818609E-02  0.8889760E-01
       -2   -1    0    0    0  501  0.00000000000E+00  0.00000000000E+00  0.10691108984E+04  0.10691108984E+04  0.25500000920E-02 0.  1.
        2   -1    0    0  501    0  0.00000000000E+00  0.00000000000E+00 -0.52057283385E+03  0.52057283385E+03  0.25500000920E-02 0. -1.
    10030    2    1    2    0    0  0.00000000000E+00  0.00000000000E+00  0.54853806458E+03  0.15896837323E+04  0.14920456965E+04 0.  0.
        5    1    3    3  502    0 -0.71096196829E+03 -0.21788104689E+03  0.33809700454E+03  0.81686641835E+03  0.46999998093E+01 0.  1.
       -5    1    3    3    0  502  0.71096196829E+03  0.21788104689E+03  0.21044106004E+03  0.77281731393E+03  0.46999998093E+01 0. -1.
</event>
<event>
 5   0  0.4015204E-04  0.1484267E+04  0.7818609E-02  0.8894983E-01
        1   -1    0    0  501    0  0.00000000000E+00  0.00000000000E+00  0.11184533292E+04  0.11184533292E+04  0.50400001928E-02 0.  1.
       -1   -1    0    0    0  501  0.00000000000E+00  0.00000000000E+00 -0.49243193446E+03  0.49243193449E+03  0.50400001928E-02 0. -1.
    10030    2    1    2    0    0  0.00000000000E+00  0.00000000000E+00  0.62602139474E+03  0.16108852637E+04  0.14842670064E+04 0.  0.
        2    1    3    3  502    0 -0.44150170841E+03 -0.51130953921E+02  0.95803737844E+03  0.10561125657E+04  0.25500000920E-02 0.  1.
       -2    1    3    3    0  502  0.44150170841E+03  0.51130953921E+02 -0.33201598370E+03  0.55477269798E+03  0.25500000920E-02 0. -1.
</event>
<event>
 5   0  0.4084462E-04  0.1507585E+04  0.7818609E-02  0.8879424E-01
        1   -1    0    0  501    0  0.00000000000E+00  0.00000000000E+00  0.90442216168E+03  0.90442216169E+03  0.50400001928E-02 0. -1.
       -1   -1    0    0    0  501  0.00000000000E+00  0.00000000000E+00 -0.62825006481E+03  0.62825006483E+03  0.50400001928E-02 0.  1.
    10030    2    1    2    0    0  0.00000000000E+00  0.00000000000E+00  0.27617209687E+03  0.15326722265E+04  0.15075851972E+04 0.  0.
        1    1    3    3  502    0 -0.73812434936E+03 -0.36651797980E+02  0.28898911097E+03  0.79352732511E+03  0.50400001928E-02 0. -1.
       -1    1    3    3    0  502  0.73812434936E+03  0.36651797980E+02 -0.12817014107E+02  0.73914490142E+03  0.50400001928E-02 0.  1.
</event>
<event>
 5   0  0.7634227E-04  0.1487265E+04  0.7818609E-02  0.8892966E-01
        2   -1    0    0  501    0  0.00000000000E+00  0.00000000000E+00  0.43339695148E+03  0.43339695148E+03  0.25500000920E-02 0.  1.
       -2   -1    0    0    0  501  0.00000000000E+00  0.00000000000E+00 -0.12759415434E+04  0.12759415434E+04  0.25500000920E-02 0. -1.
    10030    2    1    2    0    0  0.00000000000E+00  0.00000000000E+00 -0.84254459194E+03  0.17093384949E+04  0.14872648388E+04 0.  0.
        2    1    3    3  502    0  0.22732559776E+03  0.30048548672E+03 -0.11581096263E+04  0.12178613886E+04  0.25500000920E-02 0. -1.
       -2    1    3    3    0  502 -0.22732559776E+03 -0.30048548672E+03  0.31556503439E+03  0.49147710635E+03  0.25500000920E-02 0.  1.
</event>
<event>
 5   0  0.4086710E-04  0.1537326E+04  0.7818609E-02  0.8860004E-01
        1   -1    0    0  501    0  0.00000000000E+00  0.00000000000E+00  0.71839458629E+03  0.71839458631E+03  0.50400001928E-02 0.  1.
       -1   -1    0    0    0  501  0.00000000000E+00  0.00000000000E+00 -0.82244897223E+03  0.82244897224E+03  0.50400001928E-02 0. -1.
    10030    2    1    2    0    0  0.00000000000E+00  0.00000000000E+00 -0.10405438593E+03  0.15408435586E+04  0.15373261062E+04 0.  0.
        3    1    3    3  502    0 -0.38982824757E+03 -0.32316354627E+03 -0.63166011013E+03  0.80956484927E+03  0.10100000352E+00 0. -1.
       -3    1    3    3    0  502  0.38982824757E+03  0.32316354627E+03  0.52760572420E+03  0.73127870928E+03  0.10100000352E+00 0.  1.
</event>
<event>
 5   0  0.4086710E-04  0.1523774E+04  0.7818609E-02  0.8868796E-01
        1   -1    0    0  501    0  0.00000000000E+00  0.00000000000E+00  0.14063520706E+04  0.14063520706E+04  0.50400001928E-02 0.  1.
       -1   -1    0    0    0  501  0.00000000000E+00  0.00000000000E+00 -0.41274972645E+03  0.41274972648E+03  0.50400001928E-02 0. -1.
    10030    2    1    2    0    0  0.00000000000E+00  0.00000000000E+00  0.99360234417E+03  0.18191017971E+04  0.15237735166E+04 0.  0.
        3    1    3    3  502    0  0.26285778787E+03 -0.69091925717E+03  0.71695475576E+03  0.10297998682E+04  0.10100000352E+00 0.  1.
       -3    1    3    3    0  502 -0.26285778787E+03  0.69091925717E+03  0.27664758840E+03  0.78930192888E+03  0.10100000352E+00 0. -1.
</event>
<event>
 5   0  0.7634227E-04  0.1514648E+04  0.7818609E-02  0.8874770E-01
        2   -1    0    0  501    0  0.00000000000E+00  0.00000000000E+00  0.23345049872E+04  0.23345049872E+04  0.25500000920E-02 0.  1.
       -2   -1    0    0    0  501  0.00000000000E+00  0.00000000000E+00 -0.24567939049E+03  0.24567939051E+03  0.25500000920E-02 0. -1.
    10030    2    1    2    0    0  0.00000000000E+00  0.00000000000E+00  0.20888255967E+04  0.25801843777E+04  0.15146481603E+04 0.  0.
        2    1    3    3  502    0 -0.13959737812E+03 -0.67407950022E+03  0.50661455095E+03  0.85470983605E+03  0.25500000920E-02 0. -1.
       -2    1    3    3    0  502  0.13959737812E+03  0.67407950022E+03  0.15822110458E+04  0.17254745417E+04  0.25500000920E-02 0.  1.
</event>
<event>
 5   0  0.3907345E-04  0.1486472E+04  0.7818609E-02  0.8893499E-01
        1   -1    0    0  501    0  0.00000000000E+00  0.00000000000E+00  0.18923332339E+04  0.18923332339E+04  0.50400001928E-02 0. -1.
       -1   -1    0    0    0  501  0.00000000000E+00  0.00000000000E+00 -0.29191447130E+03  0.29191447134E+03  0.50400001928E-02 0.  1.
    10030    2    1    2    0    0  0.00000000000E+00  0.00000000000E+00  0.16004187626E+04  0.21842477053E+04  0.14864716016E+04 0.  0.
        5    1    3    3  502    0 -0.50578864913E+02  0.59366409856E+03  0.14738083830E+03  0.61379026140E+03  0.46999998093E+01 0.  1.
       -5    1    3    3    0  502  0.50578864913E+02 -0.59366409856E+03  0.14530379243E+04  0.15704574439E+04  0.46999998093E+01 0. -1.
</event>
<event>
 5   0  0.7454828E-04  0.1506659E+04  0.7818609E-02  0.8880037E-01
        2   -1    0    0  501    0  0.00000000000E+00  0.00000000000E+00  0.10004224483E+04  0.10004224483E+04  0.25500000920E-02 0. -1.
       -2   -1    0    0    0  501  0.00000000000E+00  0.00000000000E+00 -0.56726601201E+03  0.56726601202E+03  0.25500000920E-02 0.  1.
    10030    2    1    2    0    0  0.00000000000E+00  0.00000000000E+00  0.43315643630E+03  0.15676884603E+04  0.15066594208E+04 0.  0.
        3    1    3    3  502    0 -0.70337960949E+03  0.40609171034E+02 -0.60895078098E+02  0.70717763013E+03  0.10100000352E+00 0.  1.
       -3    1    3    3    0  502  0.70337960949E+03 -0.40609171034E+02  0.49405151440E+03  0.86051083020E+03  0.10100000352E+00 0. -1.
</event>
<event>
 5   0  0.7454828E-04  0.1434437E+04  0.7818609E-02  0.8929262E-01
        2   -1    0    0  501    0  0.00000000000E+00  0.00000000000E+00  0.69526176243E+03  0.69526176243E+03  0.25500000920E-02 0.  1.
       -2   -1    0    0    0  501  0.00000000000E+00  0.00000000000E+00 -0.73986818429E+03  0.73986818430E+03  0.25500000920E-02 0. -1.
    10030    2    1    2    0    0  0.00000000000E+00  0.00000000000E+00 -0.44606421867E+02  0.14351299467E+04  0.14344365553E+04 0.  0.
        3    1    3    3  502    0 -0.17849530036E+03 -0.62358869484E+03  0.28391436431E+03  0.70804717996E+03  0.10100000352E+00 0.  1.
       -3    1    3    3    0  502  0.17849530036E+03  0.62358869484E+03 -0.32852078618E+03  0.72708276677E+03  0.10100000352E+00 0. -1.
</event>
<event>
 5   0  0.7634227E-04  0.1507211E+04  0.7818609E-02  0.8879672E-01
       -2   -1    0    0    0  501  0.00000000000E+00  0.00000000000E+00  0.65937225223E+03  0.65937225223E+03  0.25500000920E-02 0.  1.
        2   -1    0    0  501    0  0.00000000000E+00  0.00000000000E+00 -0.86130572083E+03  0.86130572083E+03  0.25500000920E-02 0. -1.
    10030    2    1    2    0    0  0.00000000000E+00  0.00000000000E+00 -0.20193346860E+03  0.15206779731E+04  0.15072107922E+04 0.  0.
        2    1    3    3  502    0  0.73418769978E+03  0.16042289751E+03 -0.44304370724E+02  0.75281469288E+03  0.25500000920E-02 0. -1.
       -2    1    3    3    0  502 -0.73418769978E+03 -0.16042289751E+03 -0.15762909788E+03  0.76786328018E+03  0.25500000920E-02 0.  1.
</event>
<event>
 5   0  0.4058874E-04  0.1607149E+04  0.7818609E-02  0.8816168E-01
        1   -1    0    0  501    0  0.00000000000E+00  0.00000000000E+00  0.67386288302E+03  0.67386288304E+03  0.50400001928E-02 0.  1.
       -1   -1    0    0    0  501  0.00000000000E+00  0.00000000000E+00 -0.95825367665E+03  0.95825367666E+03  0.50400001928E-02 0. -1.
    10030    2    1    2    0    0  0.00000000000E+00  0.00000000000E+00 -0.28439079363E+03  0.16321165597E+04  0.16071485124E+04 0.  0.
        4    1    3    3  502    0  0.32576126266E+03  0.31489437750E+03 -0.81617074475E+03  0.93349620605E+03  0.12699999809E+01 0. -1.
       -4    1    3    3    0  502 -0.32576126266E+03 -0.31489437750E+03  0.53177995112E+03  0.69862035365E+03  0.12699999809E+01 0.  1.
</event>
<event>
 5   0  0.7359897E-04  0.1514554E+04  0.7818609E-02  0.8874832E-01
        2   -1    0    0  501    0  0.00000000000E+00  0.00000000000E+00  0.18973378607E+04  0.18973378607E+04  0.25500000920E-02 0.  1.
       -2   -1    0    0    0  501  0.00000000000E+00  0.00000000000E+00 -0.30224895694E+03  0.30224895695E+03  0.25500000920E-02 0. -1.
    10030    2    1    2    0    0  0.00000000000E+00  0.00000000000E+00  0.15950889038E+04  0.21995868177E+04  0.15145539137E+04 0.  0.
        1    1    3    3  502    0 -0.22108117043E+03  0.51965585165E+03  0.64817232006E+02  0.56843677015E+03  0.50400001928E-02 0. -1.
       -1    1    3    3    0  502  0.22108117043E+03 -0.51965585165E+03  0.15302716718E+04  0.16311500475E+04  0.50400001928E-02 0.  1.
</event>
<event>
 5   0  0.7634227E-04  0.1503054E+04  0.7818609E-02  0.8882424E-01
        2   -1    0    0  501    0  0.00000000000E+00  0.00000000000E+00  0.65231430922E+03  0.65231430922E+03  0.25500000920E-02 0.  1.
       -2   -1    0    0    0  501  0.00000000000E+00  0.00000000000E+00 -0.86582968835E+03  0.86582968835E+03  0.25500000920E-02 0. -1.
    10030    2    1    2    0    0  0.00000000000E+00  0.00000000000E+00 -0.21351537913E+03  0.15181439976E+04  0.15030543504E+04 0.  0.
        2    1    3    3  502    0 -0.48131430593E+03  0.11981365345E+03 -0.67702693073E+03  0.83927601990E+03  0.25500000920E-02 0. -1.
       -2    1    3    3    0  502  0.48131430593E+03 -0.11981365345E+03  0.46351155160E+03  0.67886797768E+03  0.25500000920E-02 0.  1.
</event>
<event>
 5   0  0.7359897E-04  0.1490081E+04  0.7818609E-02  0.8891076E-01
        2   -1    0    0  501    0  0.00000000000E+00  0.00000000000E+00  0.62623675643E+03  0.62623675644E+03  0.25500000920E-02 0.  1.
       -2   -1    0    0    0  501  0.00000000000E+00  0.00000000000E+00 -0.88638197809E+03  0.88638197809E+03  0.25500000920E-02 0. -1.
    10030    2    1    2    0    0  0.00000000000E+00  0.00000000000E+00 -0.26014522166E+03  0.15126187345E+04  0.14900805011E+04 0.  0.
        1    1    3    3  502    0 -0.32125362075E+03  0.41142760897E+03  0.40957751563E+03  0.66349853625E+03  0.50400001928E-02 0.  1.
       -1    1    3    3    0  502  0.32125362075E+03 -0.41142760897E+03 -0.66972273729E+03  0.84912019828E+03  0.50400001928E-02 0. -1.
</event>
<event>
 5   0  0.7454828E-04  0.1505535E+04  0.7818609E-02  0.8880780E-01
       -2   -1    0    0    0  501  0.00000000000E+00  0.00000000000E+00  0.76875420453E+03  0.76875420454E+03  0.25500000920E-02 0. -1.
        2   -1    0    0  501    0  0.00000000000E+00  0.00000000000E+00 -0.73711342347E+03  0.73711342348E+03  0.25500000920E-02 0.  1.
    10030    2    1    2    0    0  0.00000000000E+00  0.00000000000E+00  0.31640781059E+02  0.15058676280E+04  0.15055351786E+04 0.  0.
        3    1    3    3  502    0  0.14869867098E+03  0.33778568663E+03 -0.64041027861E+03  0.73914531724E+03  0.10100000352E+00 0.  1.
       -3    1    3    3    0  502 -0.14869867098E+03 -0.33778568663E+03  0.67205105967E+03  0.76672231078E+03  0.10100000352E+00 0. -1.
</event>
<event>
 5   0  0.4015204E-04  0.1503236E+04  0.7818609E-02  0.8882304E-01
        1   -1    0    0  501    0  0.00000000000E+00  0.00000000000E+00  0.64067552738E+03  0.64067552740E+03  0.50400001928E-02 0. -1.
       -1   -1    0    0    0  501  0.00000000000E+00  0.00000000000E+00 -0.88177202921E+03  0.88177202923E+03  0.50400001928E-02 0.  1.
    10030    2    1    2    0    0  0.00000000000E+00  0.00000000000E+00 -0.24109650183E+03  0.15224475566E+04  0.15032361889E+04 0.  0.
        2    1    3    3  502    0 -0.39758540259E+03  0.28864016479E+03  0.45552904932E+03  0.66999553123E+03  0.25500000920E-02 0. -1.
       -2    1    3    3    0  502  0.39758540259E+03 -0.28864016479E+03 -0.69662555115E+03  0.85245202540E+03  0.25500000920E-02 0.  1.
</event>
<event>
 5   0  0.7359897E-04  0.1502224E+04  0.7818609E-02  0.8882976E-01
        2   -1    0    0  501    0  0.00000000000E+00  0.00000000000E+00  0.94080287243E+03  0.94080287243E+03  0.25500000920E-02 0. -1.
       -2   -1    0    0    0  501  0.00000000000E+00  0.00000000000E+00 -0.59966763437E+03  0.59966763438E+03  0.25500000920E-02 0.  1.
    10030    2    1    2    0    0  0.00000000000E+00  0.00000000000E+00  0.34113523806E+03  0.15404705068E+04  0.15022237289E+04 0.  0.
        1    1    3    3  502    0  0.39383470102E+03 -0.41760548537E+03 -0.32619231101E+03  0.66022839755E+03  0.50400001928E-02 0.  1.
       -1    1    3    3    0  502 -0.39383470102E+03  0.41760548537E+03  0.66732754907E+03  0.88024210926E+03  0.50400001928E-02 0. -1.
</event>
<event>
 5   0  0.7547580E-04  0.1460169E+04  0.7818609E-02  0.8911381E-01
       -2   -1    0    0    0  501  0.00000000000E+00  0.00000000000E+00  0.34159854842E+03  0.34159854843E+03  0.25500000920E-02 0.  1.
        2   -1    0    0  501    0  0.00000000000E+00  0.00000000000E+00 -0.15603787784E+04  0.15603787784E+04  0.25500000920E-02 0. -1.
    10030    2    1    2    0    0  0.00000000000E+00  0.00000000000E+00 -0.12187802300E+04  0.19019773268E+04  0.14601686556E+04 0.  0.
        4    1    3    3  502    0 -0.43762394317E+03 -0.66744431085E+02 -0.13656146336E+04  0.14355746149E+04  0.12699999809E+01 0. -1.
       -4    1    3    3    0  502  0.43762394317E+03  0.66744431085E+02  0.14683440358E+03  0.46640271192E+03  0.12699999809E+01 0.  1.
</event>
<event>
 5   0  0.4084462E-04  0.1290096E+04  0.7818609E-02  0.9037456E-01
       -1   -1    0    0    0  501  0.00000000000E+00  0.00000000000E+00  0.33302666480E+03  0.33302666484E+03  0.50400001928E-02 0.  1.
        1   -1    0    0  501    0  0.00000000000E+00  0.00000000000E+00 -0.12494111460E+04  0.12494111460E+04  0.50400001928E-02 0. -1.
    10030    2    1    2    0    0  0.00000000000E+00  0.00000000000E+00 -0.91638448117E+03  0.15824378108E+04  0.12900964723E+04 0.  0.
        1    1    3    3  502    0  0.15580669803E+03  0.61389610233E+03 -0.30824984112E+03  0.70438775982E+03  0.50400001928E-02 0. -1.
       -1    1    3    3    0  502 -0.15580669803E+03 -0.61389610233E+03 -0.60813464005E+03  0.87805005100E+03  0.50400001928E-02 0.  1.
</event>
<event>
 5   0  0.4015204E-04  0.1470107E+04  0.7818609E-02  0.8904579E-01
       -1   -1    0    0    0  501  0.00000000000E+00  0.00000000000E+00  0.41895698749E+03  0.41895698752E+03  0.50400001928E-02 0.  1.
        1   -1    0    0  501    0  0.00000000000E+00  0.00000000000E+00 -0.12896391422E+04  0.12896391422E+04  0.50400001928E-02 0. -1.
    10030    2    1    2    0    0  0.00000000000E+00  0.00000000000E+00 -0.87068215470E+03  0.17085961297E+04  0.14701065675E+04 0.  0.
        2    1    3    3  502    0 -0.60706457245E+02  0.72184485547E+03 -0.58030780334E+03  0.92817154446E+03  0.25500000920E-02 0. -1.
       -2    1    3    3    0  502  0.60706457245E+02 -0.72184485547E+03 -0.29037435136E+03  0.78042458525E+03  0.25500000920E-02 0.  1.
</event>
<event>
 5   0  0.3907345E-04  0.1480606E+04  0.7818609E-02  0.8897453E-01
       -1   -1    0    0    0  501  0.00000000000E+00  0.00000000000E+00  0.61060964508E+03  0.61060964510E+03  0.50400001928E-02 0.  1.
        1   -1    0    0  501    0  0.00000000000E+00  0.00000000000E+00 -0.89754362486E+03  0.89754362487E+03  0.50400001928E-02 0. -1.
    10030    2    1    2    0    0  0.00000000000E+00  0.00000000000E+00 -0.28693397978E+03  0.15081532700E+04  0.14806063545E+04 0.  0.
        5    1    3    3  502    0 -0.15368711877E+03 -0.54279821449E+03 -0.63173606269E+03  0.84697235789E+03  0.46999998093E+01 0. -1.
       -5    1    3    3    0  502  0.15368711877E+03  0.54279821449E+03  0.34480208291E+03  0.66118091208E+03  0.46999998093E+01 0.  1.
</event>
<event>
 5   0  0.2800375E-04  0.1543455E+04  0.7818609E-02  0.8856059E-01
        3   -1    0    0  501    0  0.00000000000E+00  0.00000000000E+00  0.48871815856E+03  0.48871816900E+03  0.10100000352E+00 0. -1.
       -3   -1    0    0    0  501  0.00000000000E+00  0.00000000000E+00 -0.12186226854E+04  0.12186226896E+04  0.10100000352E+00 0.  1.
    10030    2    1    2    0    0  0.00000000000E+00  0.00000000000E+00 -0.72990452682E+03  0.17073408586E+04  0.15434546281E+04 0.  0.
        4    1    3    3  502    0 -0.65652799803E+03  0.37309336303E+03 -0.18888596577E+03  0.77840040513E+03  0.12699999809E+01 0.  1.
       -4    1    3    3    0  502  0.65652799803E+03 -0.37309336303E+03 -0.54101856105E+03  0.92894045344E+03  0.12699999809E+01 0. -1.
</event>
<event>
 5   0  0.4086710E-04  0.1494473E+04  0.7818609E-02  0.8888137E-01
       -1   -1    0    0    0  501  0.00000000000E+00  0.00000000000E+00  0.10461643415E+04  0.10461643415E+04  0.50400001928E-02 0.  1.
        1   -1    0    0  501    0  0.00000000000E+00  0.00000000000E+00 -0.53372314576E+03  0.53372314578E+03  0.50400001928E-02 0. -1.
    10030    2    1    2    0    0  0.00000000000E+00  0.00000000000E+00  0.51244119570E+03  0.15798874873E+04  0.14944726472E+04 0.  0.
        3    1    3    3  502    0 -0.99835266574E+02  0.45790643001E+03  0.87147752958E+03  0.98950415556E+03  0.10100000352E+00 0.  1.
       -3    1    3    3    0  502  0.99835266574E+02 -0.45790643001E+03 -0.35903633388E+03  0.59038333170E+03  0.10100000352E+00 0. -1.
</event>
<event>
 5   0  0.7547580E-04  0.1479945E+04  0.7818609E-02  0.8897900E-01
        2   -1    0    0  501    0  0.00000000000E+00  0.00000000000E+00  0.77363798908E+03  0.77363798909E+03  0.25500000920E-02 0.  1.
       -2   -1    0    0    0  501  0.00000000000E+00  0.00000000000E+00 -0.70777237366E+03  0.70777237367E+03  0.25500000920E-02 0. -1.
    10030    2    1    2    0    0  0.00000000000E+00  0.00000000000E+00  0.65865615419E+02  0.14814103628E+04  0.14799453989E+04 0.  0.
        4    1    3    3  502    0 -0.65460628355E+03  0.29535804759E+03  0.21146916760E+03  0.74864316231E+03  0.12699999809E+01 0.  1.
       -4    1    3    3    0  502  0.65460628355E+03 -0.29535804759E+03 -0.14560355219E+03  0.73276720044E+03  0.12699999809E+01 0. -1.
</event>
<event>
 5   0  0.4084462E-04  0.1497241E+04  0.7818609E-02  0.8886290E-01
       -1   -1    0    0    0  501  0.00000000000E+00  0.00000000000E+00  0.21868645872E+03  0.21868645877E+03  0.50400001928E-02 0. -1.
        1   -1    0    0  501    0  0.00000000000E+00  0.00000000000E+00 -0.25627223292E+04  0.25627223292E+04  0.50400001928E-02 0.  1.
    10030    2    1    2    0    0  0.00000000000E+00  0.00000000000E+00 -0.23440358705E+04  0.27814087880E+04  0.14972410239E+04 0.  0.
        1    1    3    3  502    0 -0.71221916618E+03  0.22364245534E+03 -0.10675803881E+04  0.13026895154E+04  0.50400001928E-02 0. -1.
       -1    1    3    3    0  502  0.71221916618E+03 -0.22364245534E+03 -0.12764554824E+04  0.14787192725E+04  0.50400001928E-02 0.  1.
</event>
<event>
 5   0  0.7672251E-04  0.1513680E+04  0.7818609E-02  0.8875406E-01
        2   -1    0    0  501    0  0.00000000000E+00  0.00000000000E+00  0.58785529082E+03  0.58785529083E+03  0.25500000920E-02 0.  1.
       -2   -1    0    0    0  501  0.00000000000E+00  0.00000000000E+00 -0.97440156055E+03  0.97440156055E+03  0.25500000920E-02 0. -1.
    10030    2    1    2    0    0  0.00000000000E+00  0.00000000000E+00 -0.38654626972E+03  0.15622568514E+04  0.15136804323E+04 0.  0.
        5    1    3    3  502    0  0.64453212659E+03 -0.29509367348E+03 -0.46689049440E+03  0.84882905352E+03  0.46999998093E+01 0. -1.
       -5    1    3    3    0  502 -0.64453212659E+03  0.29509367348E+03  0.80344224679E+02  0.71342779787E+03  0.46999998093E+01 0.  1.
</event>
<event>
 5   0  0.7672251E-04  0.1489169E+04  0.7818609E-02  0.8891688E-01
        2   -1    0    0  501    0  0.00000000000E+00  0.00000000000E+00  0.13527333758E+04  0.13527333758E+04  0.25500000920E-02 0.  1.
       -2   -1    0    0    0  501  0.00000000000E+00  0.00000000000E+00 -0.40984108666E+03  0.40984108667E+03  0.25500000920E-02 0. -1.
    10030    2    1    2    0    0  0.00000000000E+00  0.00000000000E+00  0.94289228912E+03  0.17625744624E+04  0.14891685152E+04 0.  0.
        5    1    3    3  502    0  0.54706414979E+03 -0.68436179012E+02  0.10637423383E+04  0.11981371152E+04  0.46999998093E+01 0.  1.
       -5    1    3    3    0  502 -0.54706414979E+03  0.68436179012E+02 -0.12085004916E+03  0.56443734724E+03  0.46999998093E+01 0. -1.
</event>
<event>
 5   0  0.7672251E-04  0.1495222E+04  0.7818609E-02  0.8887636E-01
       -2   -1    0    0    0  501  0.00000000000E+00  0.00000000000E+00  0.39284980422E+03  0.39284980423E+03  0.25500000920E-02 0.  1.
        2   -1    0    0  501    0  0.00000000000E+00  0.00000000000E+00 -0.14227378423E+04  0.14227378423E+04  0.25500000920E-02 0. -1.
    10030    2    1    2    0    0  0.00000000000E+00  0.00000000000E+00 -0.10298880380E+04  0.18155876465E+04  0.14952221010E+04 0.  0.
        5    1    3    3  502    0 -0.73049798380E+02  0.13904046585E+02  0.38833006741E+03  0.39541361485E+03  0.46999998093E+01 0.  1.
       -5    1    3    3    0  502  0.73049798380E+02 -0.13904046585E+02 -0.14182181054E+04  0.14201740316E+04  0.46999998093E+01 0. -1.
</event>
<event>
 5   0  0.7634227E-04  0.1512951E+04  0.7818609E-02  0.8875886E-01
        2   -1    0    0  501    0  0.00000000000E+00  0.00000000000E+00  0.10344502867E+04  0.10344502867E+04  0.25500000920E-02 0. -1.
       -2   -1    0    0    0  501  0.00000000000E+00  0.00000000000E+00 -0.55319754488E+03  0.55319754489E+03  0.25500000920E-02 0.  1.
    10030    2    1    2    0    0  0.00000000000E+00  0.00000000000E+00  0.48125274178E+03  0.15876478315E+04  0.15129512337E+04 0.  0.
        2    1    3    3  502    0 -0.11826795252E+03 -0.54375966870E+03  0.77836496607E+03  0.95682490891E+03  0.25500000920E-02 0. -1.
       -2    1    3    3    0  502  0.11826795252E+03  0.54375966870E+03 -0.29711222429E+03  0.63082292264E+03  0.25500000920E-02 0.  1.
</event>
<event>
 5   0  0.4058874E-04  0.1501053E+04  0.7818609E-02  0.8883753E-01
        1   -1    0    0  501    0  0.00000000000E+00  0.00000000000E+00  0.13375192640E+04  0.13375192641E+04  0.50400001928E-02 0. -1.
       -1   -1    0    0    0  501  0.00000000000E+00  0.00000000000E+00 -0.42114556061E+03  0.42114556064E+03  0.50400001928E-02 0.  1.
    10030    2    1    2    0    0  0.00000000000E+00  0.00000000000E+00  0.91637370344E+03  0.17586648247E+04  0.15010533639E+04 0.  0.
        4    1    3    3  502    0 -0.52017910640E+03  0.50147809598E+03  0.22031008756E+03  0.75538383029E+03  0.12699999809E+01 0. -1.
       -4    1    3    3    0  502  0.52017910640E+03 -0.50147809598E+03  0.69606361589E+03  0.10032809944E+04  0.12699999809E+01 0.  1.
</event>
<event>
 5   0  0.7359897E-04  0.1507061E+04  0.7818609E-02  0.8879771E-01
        2   -1    0    0  501    0  0.00000000000E+00  0.00000000000E+00  0.11934325415E+04  0.11934325415E+04  0.25500000920E-02 0. -1.
       -2   -1    0    0    0  501  0.00000000000E+00  0.00000000000E+00 -0.47577718337E+03  0.47577718338E+03  0.25500000920E-02 0.  1.
    10030    2    1    2    0    0  0.00000000000E+00  0.00000000000E+00  0.71765535813E+03  0.16692097249E+04  0.15070606798E+04 0.  0.
        1    1    3    3  502    0  0.20123297874E+03 -0.91337644794E+02  0.11567334116E+04  0.11776542203E+04  0.50400001928E-02 0. -1.
       -1    1    3    3    0  502 -0.20123297874E+03  0.91337644794E+02 -0.43907805342E+03  0.49155550461E+03  0.50400001928E-02 0.  1.
</event>
<event>
 5   0  0.7672251E-04  0.1516351E+04  0.7818609E-02  0.8873652E-01
       -2   -1    0    0    0  501  0.00000000000E+00  0.00000000000E+00  0.64133381671E+03  0.64133381671E+03  0.25500000920E-02 0.  1.
        2   -1    0    0  501    0  0.00000000000E+00  0.00000000000E+00 -0.89630345122E+03  0.89630345123E+03  0.25500000920E-02 0. -1.
    10030    2    1    2    0    0  0.00000000000E+00  0.00000000000E+00 -0.25496963452E+03  0.15376372679E+04  0.15163505047E+04 0.  0.
        5    1    3    3  502    0 -0.61442806933E+03 -0.35113807514E+03 -0.40331032172E+03  0.81455577206E+03  0.46999998093E+01 0. -1.
       -5    1    3    3    0  502  0.61442806933E+03  0.35113807514E+03  0.14834068720E+03  0.72308149588E+03  0.46999998093E+01 0.  1.
</event>
<event>
 5   0  0.7547580E-04  0.1471271E+04  0.7818609E-02  0.8903786E-01
        2   -1    0    0  501    0  0.00000000000E+00  0.00000000000E+00  0.20843804517E+04  0.20843804517E+04  0.25500000920E-02 0.  1.
       -2   -1    0    0    0  501  0.00000000000E+00  0.00000000000E+00 -0.25962596103E+03  0.25962596104E+03  0.25500000920E-02 0. -1.
    10030    2    1    2    0    0  0.00000000000E+00  0.00000000000E+00  0.18247544906E+04  0.23440064127E+04  0.14712705773E+04 0.  0.
        4    1    3    3  502    0 -0.26902827485E+02  0.23911097187E+03  0.20199100561E+04  0.20341917478E+04  0.12699999809E+01 0.  1.
       -4    1    3    3    0  502  0.26902827485E+02 -0.23911097187E+03 -0.19515556546E+03  0.30981466496E+03  0.12699999809E+01 0. -1.
</event>
<event>
 5   0  0.7454828E-04  0.1491739E+04  0.7818609E-02  0.8889965E-01
        2   -1    0    0  501    0  0.00000000000E+00  0.00000000000E+00  0.13906355824E+04  0.13906355824E+04  0.25500000920E-02 0.  1.
       -2   -1    0    0    0  501  0.00000000000E+00  0.00000000000E+00 -0.40004838377E+03  0.40004838378E+03  0.25500000920E-02 0. -1.
    10030    2    1    2    0    0  0.00000000000E+00  0.00000000000E+00  0.99058719865E+03  0.17906839662E+04  0.14917392764E+04 0.  0.
        3    1    3    3  502    0 -0.37825440823E+03 -0.63831943849E+03  0.40392584920E+03  0.84479832194E+03  0.10100000352E+00 0.  1.
       -3    1    3    3    0  502  0.37825440823E+03  0.63831943849E+03  0.58666134945E+03  0.94588564427E+03  0.10100000352E+00 0. -1.
</event>
<event>
 5   0  0.7672251E-04  0.1494433E+04  0.7818609E-02  0.8888163E-01
        2   -1    0    0  501    0  0.00000000000E+00  0.00000000000E+00  0.11462613641E+04  0.11462613641E+04  0.25500000920E-02 0.  1.
       -2   -1    0    0    0  501  0.00000000000E+00  0.00000000000E+00 -0.48709031896E+03  0.48709031896E+03  0.25500000920E-02 0. -1.
    10030    2    1    2    0    0  0.00000000000E+00  0.00000000000E+00  0.65917104517E+03  0.16333516831E+04  0.14944334224E+04 0.  0.
        5    1    3    3  502    0  0.17044475839E+03  0.52338284907E+03 -0.22268746396E+03  0.59379526688E+03  0.46999998093E+01 0. -1.
       -5    1    3    3    0  502 -0.17044475839E+03 -0.52338284907E+03  0.88185850913E+03  0.10395564162E+04  0.46999998093E+01 0.  1.
</event>
<event>
 5   0  0.4058874E-04  0.1484063E+04  0.7818609E-02  0.8895120E-01
        1   -1    0    0  501    0  0.00000000000E+00  0.00000000000E+00  0.20454334801E+04  0.20454334801E+04  0.50400001928E-02 0. -1.
       -1   -1    0    0    0  501  0.00000000000E+00  0.00000000000E+00 -0.26919037064E+03  0.26919037068E+03  0.50400001928E-02 0.  1.
    10030    2    1    2    0    0  0.00000000000E+00  0.00000000000E+00  0.17762431094E+04  0.23146238508E+04  0.14840633365E+04 0.  0.
        4    1    3    3  502    0  0.69370768457E+03  0.24754979649E+03  0.74776898429E+03  0.10496053164E+04  0.12699999809E+01 0.  1.
       -4    1    3    3    0  502 -0.69370768457E+03 -0.24754979649E+03  0.10284741251E+04  0.12650185344E+04  0.12699999809E+01 0. -1.
</event>
<event>
 5   0  0.4086710E-04  0.1496513E+04  0.7818609E-02  0.8886775E-01
        1   -1    0    0  501    0  0.00000000000E+00  0.00000000000E+00  0.15207425223E+04  0.15207425223E+04  0.50400001928E-02 0. -1.
       -1   -1    0    0    0  501  0.00000000000E+00  0.00000000000E+00 -0.36816750493E+03  0.36816750496E+03  0.50400001928E-02 0.  1.
    10030    2    1    2    0    0  0.00000000000E+00  0.00000000000E+00  0.11525750174E+04  0.18889100273E+04  0.14965132544E+04 0.  0.
        3    1    3    3  502    0  0.24038241210E+03 -0.36026599021E+03  0.13464540002E+04  0.14143951614E+04  0.10100000352E+00 0. -1.
       -3    1    3    3    0  502 -0.24038241210E+03  0.36026599021E+03 -0.19387898283E+03  0.47451486587E+03  0.10100000352E+00 0.  1.
</event>
<event>
 5   0  0.3907345E-04  0.1498387E+04  0.7818609E-02  0.8885526E-01
        1   -1    0    0  501    0  0.00000000000E+00  0.00000000000E+00  0.12550315168E+04  0.12550315168E+04  0.50400001928E-02 0. -1.
       -1   -1    0    0    0  501  0.00000000000E+00  0.00000000000E+00 -0.44723233439E+03  0.44723233442E+03  0.50400001928E-02 0.  1.
    10030    2    1    2    0    0  0.00000000000E+00  0.00000000000E+00  0.80779918240E+03  0.17022638512E+04  0.14983866991E+04 0.  0.
        5    1    3    3  502    0  0.35674229727E+03  0.48011603973E+03 -0.10858020841E+03  0.60793768588E+03  0.46999998093E+01 0.  1.
       -5    1    3    3    0  502 -0.35674229727E+03 -0.48011603973E+03  0.91637939081E+03  0.10943261653E+04  0.46999998093E+01 0. -1.
</event>
<event>
 5   0  0.7359897E-04  0.1481859E+04  0.7818609E-02  0.8896607E-01
        2   -1    0    0  501    0  0.00000000000E+00  0.00000000000E+00  0.10413640140E+04  0.10413640140E+04  0.25500000920E-02 0. -1.
       -2   -1    0    0    0  501  0.00000000000E+00  0.00000000000E+00 -0.52717092068E+03  0.52717092069E+03  0.25500000920E-02 0.  1.
    10030    2    1    2    0    0  0.00000000000E+00  0.00000000000E+00  0.51419309336E+03  0.15685349347E+04  0.14818594077E+04 0.  0.
        1    1    3    3  502    0  0.49033361347E+03 -0.47420779493E+03  0.56328553804E+03  0.88464155603E+03  0.50400001928E-02 0. -1.
       -1    1    3    3    0  502 -0.49033361347E+03  0.47420779493E+03 -0.49092444681E+02  0.68389337869E+03  0.50400001928E-02 0.  1.
</event>
<event>
 5   0  0.7672251E-04  0.1515139E+04  0.7818609E-02  0.8874447E-01
        2   -1    0    0  501    0  0.00000000000E+00  0.00000000000E+00  0.55365235861E+03  0.55365235862E+03  0.25500000920E-02 0.  1.
       -2   -1    0    0    0  501  0.00000000000E+00  0.00000000000E+00 -0.10365922667E+04  0.10365922667E+04  0.25500000920E-02 0. -1.
    10030    2    1    2    0    0  0.00000000000E+00  0.00000000000E+00 -0.48293990807E+03  0.15902446253E+04  0.15151392720E+04 0.  0.
        5    1    3    3  502    0 -0.51162214636E+03  0.51683813958E+02  0.34239781564E+03  0.61780805387E+03  0.46999998093E+01 0.  1.
       -5    1    3    3    0  502  0.51162214636E+03 -0.51683813958E+02 -0.82533772372E+03  0.97243657143E+03  0.46999998093E+01 0. -1.
</event>
<event>
 5   0  0.3907345E-04  0.1496196E+04  0.7818609E-02  0.8886986E-01
        1   -1    0    0  501    0  0.00000000000E+00  0.00000000000E+00  0.10102530701E+04  0.10102530701E+04  0.50400001928E-02 0.  1.
       -1   -1    0    0    0  501  0.00000000000E+00  0.00000000000E+00 -0.55397099257E+03  0.55397099260E+03  0.50400001928E-02 0. -1.
    10030    2    1    2    0    0  0.00000000000E+00  0.00000000000E+00  0.45628207755E+03  0.15642240627E+04  0.14961963722E+04 0.  0.
        5    1    3    3  502    0  0.71014115101E+03  0.17181032378E+03  0.60183035962E+02  0.73311890545E+03  0.46999998093E+01 0. -1.
       -5    1    3    3    0  502 -0.71014115101E+03 -0.17181032378E+03  0.39609904159E+03  0.83110515728E+03  0.46999998093E+01 0.  1.
</event>
<event>
 5   0  0.4084462E-04  0.1518013E+04  0.7818609E-02  0.8872562E-01
        1   -1    0    0  501    0  0.00000000000E+00  0.00000000000E+00  0.42504506109E+03  0.42504506112E+03  0.50400001928E-02 0.  1.
       -1   -1    0    0    0  501  0.00000000000E+00  0.00000000000E+00 -0.13553642350E+04  0.13553642350E+04  0.50400001928E-02 0. -1.
    10030    2    1    2    0    0  0.00000000000E+00  0.00000000000E+00 -0.93031917395E+03  0.17804092962E+04  0.15180130093E+04 0.  0.
        1    1    3    3  502    0 -0.48321014046E+03 -0.74681643531E+02  0.21572445333E+03  0.53442158219E+03  0.50400001928E-02 0.  1.
       -1    1    3    3    0  502  0.48321014046E+03  0.74681643531E+02 -0.11460436273E+04  0.12459877140E+04  0.50400001928E-02 0. -1.
</event>
<event>
 5   0  0.7547580E-04  0.1507738E+04  0.7818609E-02  0.8879324E-01
       -2   -1    0    0    0  501  0.00000000000E+00  0.00000000000E+00  0.36126398699E+03  0.36126398700E+03  0.25500000920E-02 0. -1.
        2   -1    0    0  501    0  0.00000000000E+00  0.00000000000E+00 -0.15731383335E+04  0.15731383335E+04  0.25500000920E-02 0.  1.
    10030    2    1    2    0    0  0.00000000000E+00  0.00000000000E+00 -0.12118743466E+04  0.19344023205E+04  0.15077376781E+04 0.  0.
        4    1    3    3  502    0  0.38482599514E+03  0.63021889059E+03 -0.41115293325E+03  0.84517172457E+03  0.12699999809E+01 0. -1.
       -4    1    3    3    0  502 -0.38482599514E+03 -0.63021889059E+03 -0.80072141331E+03  0.10892305960E+04  0.12699999809E+01 0.  1.
</event>
<event>
 5   0  0.4084462E-04  0.1503155E+04  0.7818609E-02  0.8882358E-01
        1   -1    0    0  501    0  0.00000000000E+00  0.00000000000E+00  0.51869204367E+03  0.51869204370E+03  0.50400001928E-02 0. -1.
       -1   -1    0    0    0  501  0.00000000000E+00  0.00000000000E+00 -0.10890247253E+04  0.10890247253E+04  0.50400001928E-02 0.  1.
    10030    2    1    2    0    0  0.00000000000E+00  0.00000000000E+00 -0.57033268165E+03  0.16077167690E+04  0.15031546300E+04 0.  0.
        1    1    3    3  502    0  0.68323739107E+02 -0.14441293604E+03  0.50032120619E+03  0.52520904296E+03  0.50400001928E-02 0. -1.
       -1    1    3    3    0  502 -0.68323739107E+02  0.14441293604E+03 -0.10706538878E+04  0.10825077261E+04  0.50400001928E-02 0.  1.
</event>
<event>
 5   0  0.7547580E-04  0.1482695E+04  0.7818609E-02  0.8896043E-01
       -2   -1    0    0    0  501  0.00000000000E+00  0.00000000000E+00  0.25318522222E+03  0.25318522223E+03  0.25500000920E-02 0.  1.
        2   -1    0    0  501    0  0.00000000000E+00  0.00000000000E+00 -0.21707261463E+04  0.21707261463E+04  0.25500000920E-02 0. -1.
    10030    2    1    2    0    0  0.00000000000E+00  0.00000000000E+00 -0.19175409240E+04  0.24239113685E+04  0.14826945494E+04 0.  0.
        4    1    3    3  502    0  0.55540711149E+03  0.45730805806E+03 -0.12511507312E+04  0.14432558625E+04  0.12699999809E+01 0.  1.
       -4    1    3    3    0  502 -0.55540711149E+03 -0.45730805806E+03 -0.66639019279E+03  0.98065550598E+03  0.12699999809E+01 0. -1.
</event>
<event>
 5   0  0.7359897E-04  0.1346020E+04  0.7818609E-02  0.8993846E-01
       -2   -1    0    0    0  501  0.00000000000E+00  0.00000000000E+00  0.87608842772E+03  0.87608842772E+03  0.25500000920E-02 0. -1.
        2   -1    0    0  501    0  0.00000000000E+00  0.00000000000E+00 -0.51700542709E+03  0.51700542710E+03  0.25500000920E-02 0.  1.
    10030    2    1    2    0    0  0.00000000000E+00  0.00000000000E+00  0.35908300063E+03  0.13930938548E+04  0.13460200173E+04 0.  0.
        1    1    3    3  502    0 -0.68758783573E+02 -0.65260330947E+03  0.33417770668E+03  0.73640585923E+03  0.50400001928E-02 0. -1.
       -1    1    3    3    0  502  0.68758783573E+02  0.65260330947E+03  0.24905293951E+02  0.65668799558E+03  0.50400001928E-02 0.  1.
</event>
<event>
 5   0  0.2800375E-04  0.1525118E+04  0.7818609E-02  0.8867919E-01
        4   -1    0    0  501    0  0.00000000000E+00  0.00000000000E+00  0.10753494090E+04  0.10753501590E+04  0.12699999809E+01 0. -1.
       -4   -1    0    0    0  501  0.00000000000E+00  0.00000000000E+00 -0.54074945409E+03  0.54075094544E+03  0.12699999809E+01 0.  1.
    10030    2    1    2    0    0  0.00000000000E+00  0.00000000000E+00  0.53459995494E+03  0.16161011044E+04  0.15251182472E+04 0.  0.
        1    1    3    3  502    0  0.72697250297E+03 -0.14411519836E+03  0.77038683511E+02  0.74511285673E+03  0.50400001928E-02 0.  1.
       -1    1    3    3    0  502 -0.72697250297E+03  0.14411519836E+03  0.45756127143E+03  0.87098824769E+03  0.50400001928E-02 0. -1.
</event>
<event>
 5   0  0.4084462E-04  0.1452067E+04  0.7818609E-02  0.8916969E-01
       -1   -1    0    0    0  501  0.00000000000E+00  0.00000000000E+00  0.70132591691E+03  0.70132591693E+03  0.50400001928E-02 0. -1.
        1   -1    0    0  501    0  0.00000000000E+00  0.00000000000E+00 -0.75161165718E+03  0.75161165719E+03  0.50400001928E-02 0.  1.
    10030    2    1    2    0    0  0.00000000000E+00  0.00000000000E+00 -0.50285740268E+02  0.14529375741E+04  0.14520671261E+04 0.  0.
        1    1    3    3  502    0  0.61128427093E+03 -0.35040550780E+03  0.15009707709E+03  0.72040378425E+03  0.50400001928E-02 0. -1.
       -1    1    3    3    0  502 -0.61128427093E+03  0.35040550780E+03 -0.20038281735E+03  0.73253378987E+03  0.50400001928E-02 0.  1.
</event>
<event>
 5   0  0.2800375E-04  0.1327967E+04  0.7818609E-02  0.9007677E-01
        3   -1    0    0  501    0  0.00000000000E+00  0.00000000000E+00  0.10105232373E+04  0.10105232424E+04  0.10100000352E+00 0. -1.
       -3   -1    0    0    0  501  0.00000000000E+00  0.00000000000E+00 -0.43628273276E+03  0.43628274445E+03  0.10100000352E+00 0.  1.
    10030    2    1    2    0    0  0.00000000000E+00  0.00000000000E+00  0.57424050459E+03  0.14468059868E+04  0.13279666436E+04 0.  0.
        2    1    3    3  502    0  0.14136270367E+03  0.33414620409E+03  0.89297523265E+03  0.96386817866E+03  0.25500000920E-02 0. -1.
       -2    1    3    3    0  502 -0.14136270367E+03 -0.33414620409E+03 -0.31873472806E+03  0.48293780818E+03  0.25500000920E-02 0.  1.
</event>
<event>
 5   0  0.7547580E-04  0.1475342E+04  0.7818609E-02  0.8901018E-01
       -2   -1    0    0    0  501  0.00000000000E+00  0.00000000000E+00  0.77731647611E+03  0.77731647611E+03  0.25500000920E-02 0.  1.
        2   -1    0    0  501    0  0.00000000000E+00  0.00000000000E+00 -0.70004725921E+03  0.70004725921E+03  0.25500000920E-02 0. -1.
    10030    2    1    2    0    0  0.00000000000E+00  0.00000000000E+00  0.77269216900E+02  0.14773637353E+04  0.14753416806E+04 0.  0.
        4    1    3    3  502    0 -0.66105578836E+03 -0.29336783685E+03  0.18408247761E+03  0.74628909578E+03  0.12699999809E+01 0. -1.
       -4    1    3    3    0  502  0.66105578836E+03  0.29336783685E+03 -0.10681326071E+03  0.73107463954E+03  0.12699999809E+01 0.  1.
</event>
<event>
 5   0  0.4058874E-04  0.1501247E+04  0.7818609E-02  0.8883624E-01
        1   -1    0    0  501    0  0.00000000000E+00  0.00000000000E+00  0.63791300591E+03  0.63791300593E+03  0.50400001928E-02 0.  1.
       -1   -1    0    0    0  501  0.00000000000E+00  0.00000000000E+00 -0.88324892341E+03  0.88324892343E+03  0.50400001928E-02 0. -1.
    10030    2    1    2    0    0  0.00000000000E+00  0.00000000000E+00 -0.24533591750E+03  0.15211619294E+04  0.15012474489E+04 0.  0.
        4    1    3    3  502    0  0.44193538200E+03 -0.56046173149E+03 -0.35815161511E+03  0.79856022105E+03  0.12699999809E+01 0. -1.
       -4    1    3    3    0  502 -0.44193538200E+03  0.56046173149E+03  0.11281569761E+03  0.72260170831E+03  0.12699999809E+01 0.  1.
</event>
<event>
 5   0  0.7547580E-04  0.1479447E+04  0.7818609E-02  0.8898236E-01
        2   -1    0    0  501    0  0.00000000000E+00  0.00000000000E+00  0.55067601865E+03  0.55067601866E+03  0.25500000920E-02 0. -1.
       -2   -1    0    0    0  501  0.00000000000E+00  0.00000000000E+00 -0.99367147315E+03  0.99367147315E+03  0.25500000920E-02 0.  1.
    10030    2    1    2    0    0  0.00000000000E+00  0.00000000000E+00 -0.44299545450E+03  0.15443474918E+04  0.14794472626E+04 0.  0.
        4    1    3    3  502    0  0.41131647259E+03 -0.60976517078E+03 -0.13933906619E+03  0.74860656715E+03  0.12699999809E+01 0. -1.
       -4    1    3    3    0  502 -0.41131647259E+03  0.60976517078E+03 -0.30365638831E+03  0.79574092466E+03  0.12699999809E+01 0.  1.
</event>
<event>
 5   0  0.4015204E-04  0.1514920E+04  0.7818609E-02  0.8874591E-01
       -1   -1    0    0    0  501  0.00000000000E+00  0.00000000000E+00  0.46845359913E+03  0.46845359916E+03  0.50400001928E-02 0. -1.
        1   -1    0    0  501    0  0.00000000000E+00  0.00000000000E+00 -0.12247655499E+04  0.12247655499E+04  0.50400001928E-02 0.  1.
    10030    2    1    2    0    0  0.00000000000E+00  0.00000000000E+00 -0.75631195077E+03  0.16932191491E+04  0.15149202355E+04 0.  0.
        2    1    3    3  502    0 -0.66483957994E+03 -0.24047316161E+03 -0.68201047158E+03  0.98233257702E+03  0.25500000920E-02 0.  1.
       -2    1    3    3    0  502  0.66483957994E+03  0.24047316161E+03 -0.74301479186E+02  0.71088657206E+03  0.25500000920E-02 0. -1.
</event>
<event>
 5   0  0.7359897E-04  0.1488720E+04  0.7818609E-02  0.8891989E-01
       -2   -1    0    0    0  501  0.00000000000E+00  0.00000000000E+00  0.98229778694E+03  0.98229778695E+03  0.25500000920E-02 0. -1.
        2   -1    0    0  501    0  0.00000000000E+00  0.00000000000E+00 -0.56405693028E+03  0.56405693029E+03  0.25500000920E-02 0.  1.
    10030    2    1    2    0    0  0.00000000000E+00  0.00000000000E+00  0.41824085666E+03  0.15463547172E+04  0.14887200870E+04 0.  0.
        1    1    3    3  502    0 -0.33599925862E+03  0.94592412904E+02 -0.47377286799E+03  0.58847596114E+03  0.50400001928E-02 0.  1.
       -1    1    3    3    0  502  0.33599925862E+03 -0.94592412904E+02  0.89201372465E+03  0.95787875609E+03  0.50400001928E-02 0. -1.
</event>
<event>
 5   0  0.4086710E-04  0.1489541E+04  0.7818609E-02  0.8891438E-01
       -1   -1    0    0    0  501  0.00000000000E+00  0.00000000000E+00  0.44038432309E+03  0.44038432312E+03  0.50400001928E-02 0.  1.
        1   -1    0    0  501    0  0.00000000000E+00  0.00000000000E+00 -0.12595433602E+04  0.12595433602E+04  0.50400001928E-02 0. -1.
    10030    2    1    2    0    0  0.00000000000E+00  0.00000000000E+00 -0.81915903710E+03  0.16999276833E+04  0.14895410704E+04 0.  0.
        3    1    3    3  502    0 -0.46164471818E+03 -0.18570946321E+03  0.22283703277E+03  0.54521574072E+03  0.10100000352E+00 0.  1.
       -3    1    3    3    0  502  0.46164471818E+03  0.18570946321E+03 -0.10419960699E+04  0.11547119426E+04  0.10100000352E+00 0. -1.
</event>
<event>
 5   0  0.4084462E-04  0.1594284E+04  0.7818609E-02  0.8824067E-01
        1   -1    0    0  501    0  0.00000000000E+00  0.00000000000E+00  0.67527291965E+03  0.67527291967E+03  0.50400001928E-02 0. -1.
       -1   -1    0    0    0  501  0.00000000000E+00  0.00000000000E+00 -0.94100491929E+03  0.94100491930E+03  0.50400001928E-02 0.  1.
    10030    2    1    2    0    0  0.00000000000E+00  0.00000000000E+00 -0.26573199964E+03  0.16162778390E+04  0.15942837129E+04 0.  0.
        1    1    3    3  502    0  0.33753448069E+03 -0.14949574937E+03  0.58339092347E+03  0.69037922503E+03  0.50400001928E-02 0. -1.
       -1    1    3    3    0  502 -0.33753448069E+03  0.14949574937E+03 -0.84912292311E+03  0.92589861395E+03  0.50400001928E-02 0.  1.
</event>
<event>
 5   0  0.4086710E-04  0.1484035E+04  0.7818609E-02  0.8895139E-01
        1   -1    0    0  501    0  0.00000000000E+00  0.00000000000E+00  0.74133794318E+03  0.74133794320E+03  0.50400001928E-02 0. -1.
       -1   -1    0    0    0  501  0.00000000000E+00  0.00000000000E+00 -0.74269780200E+03  0.74269780201E+03  0.50400001928E-02 0.  1.
    10030    2    1    2    0    0  0.00000000000E+00  0.00000000000E+00 -0.13598588127E+01  0.14840357452E+04  0.14840351222E+04 0.  0.
        3    1    3    3  502    0  0.17840799267E+03 -0.16311719126E+03  0.70085683661E+03  0.74137503704E+03  0.10100000352E+00 0. -1.
       -3    1    3    3    0  502 -0.17840799267E+03  0.16311719126E+03 -0.70221669542E+03  0.74266070817E+03  0.10100000352E+00 0.  1.
</event>
<event>
 5   0  0.7454828E-04  0.1511466E+04  0.7818609E-02  0.8876864E-01
        2   -1    0    0  501    0  0.00000000000E+00  0.00000000000E+00  0.16781273537E+04  0.16781273537E+04  0.25500000920E-02 0. -1.
       -2   -1    0    0    0  501  0.00000000000E+00  0.00000000000E+00 -0.34033917826E+03  0.34033917827E+03  0.25500000920E-02 0.  1.
    10030    2    1    2    0    0  0.00000000000E+00  0.00000000000E+00  0.13377881755E+04  0.20184665320E+04  0.15114661552E+04 0.  0.
        3    1    3    3  502    0  0.49363542563E+03 -0.56535849076E+03  0.55075275443E+03  0.93093220120E+03  0.10100000352E+00 0.  1.
       -3    1    3    3    0  502 -0.49363542563E+03  0.56535849076E+03  0.78703542102E+03  0.10875343308E+04  0.10100000352E+00 0. -1.
</event>
<event>
 5   0  0.7634227E-04  0.1494084E+04  0.7818609E-02  0.8888396E-01
       -2   -1    0    0    0  501  0.00000000000E+00  0.00000000000E+00  0.61186924286E+03  0.61186924286E+03  0.25500000920E-02 0.  1.
        2   -1    0    0  501    0  0.00000000000E+00  0.00000000000E+00 -0.91207736844E+03  0.91207736845E+03  0.25500000920E-02 0. -1.
    10030    2    1    2    0    0  0.00000000000E+00  0.00000000000E+00 -0.30020812559E+03  0.15239466113E+04  0.14940844539E+04 0.  0.
        2    1    3    3  502    0  0.70413615490E+03  0.21299575107E+03 -0.28269127737E+03  0.78809217286E+03  0.25500000920E-02 0. -1.
       -2    1    3    3    0  502 -0.70413615490E+03 -0.21299575107E+03 -0.17516848218E+02  0.73585443845E+03  0.25500000920E-02 0.  1.
</event>
<event>
 5   0  0.4058874E-04  0.1502512E+04  0.7818609E-02  0.8882784E-01
        1   -1    0    0  501    0  0.00000000000E+00  0.00000000000E+00  0.72813613197E+03  0.72813613199E+03  0.50400001928E-02 0.  1.
       -1   -1    0    0    0  501  0.00000000000E+00  0.00000000000E+00 -0.77510967389E+03  0.77510967391E+03  0.50400001928E-02 0. -1.
    10030    2    1    2    0    0  0.00000000000E+00  0.00000000000E+00 -0.46973541917E+02  0.15032458059E+04  0.15025117102E+04 0.  0.
        4    1    3    3  502    0  0.17700275881E+03  0.62509439741E+03 -0.40091207311E+03  0.76341671816E+03  0.12699999809E+01 0. -1.
       -4    1    3    3    0  502 -0.17700275881E+03 -0.62509439741E+03  0.35393853120E+03  0.73982908774E+03  0.12699999809E+01 0.  1.
</event>
<event>
 5   0  0.7359897E-04  0.1499657E+04  0.7818609E-02  0.8884681E-01
        2   -1    0    0  501    0  0.00000000000E+00  0.00000000000E+00  0.16291769347E+04  0.16291769347E+04  0.25500000920E-02 0. -1.
       -2   -1    0    0    0  501  0.00000000000E+00  0.00000000000E+00 -0.34510858381E+03  0.34510858382E+03  0.25500000920E-02 0.  1.
    10030    2    1    2    0    0  0.00000000000E+00  0.00000000000E+00  0.12840683509E+04  0.19742855185E+04  0.14996572205E+04 0.  0.
        1    1    3    3  502    0 -0.37493526450E+03  0.34818311494E+03 -0.79560346505E+02  0.51782022252E+03  0.50400001928E-02 0.  1.
       -1    1    3    3    0  502  0.37493526450E+03 -0.34818311494E+03  0.13636286974E+04  0.14564652960E+04  0.50400001928E-02 0. -1.
</event>
<event>
 5   0  0.7672251E-04  0.1515010E+04  0.7818609E-02  0.8874532E-01
       -2   -1    0    0    0  501  0.00000000000E+00  0.00000000000E+00  0.68735011114E+03  0.68735011114E+03  0.25500000920E-02 0. -1.
        2   -1    0    0  501    0  0.00000000000E+00  0.00000000000E+00 -0.83482013022E+03  0.83482013023E+03  0.25500000920E-02 0.  1.
    10030    2    1    2    0    0  0.00000000000E+00  0.00000000000E+00 -0.14747001908E+03  0.15221702414E+04  0.15150098472E+04 0.  0.
        5    1    3    3  502    0  0.23942585303E+03  0.17084378362E+03 -0.77508814794E+03  0.82903321078E+03  0.46999998093E+01 0.  1.
       -5    1    3    3    0  502 -0.23942585303E+03 -0.17084378362E+03  0.62761812886E+03  0.69313703059E+03  0.46999998093E+01 0. -1.
</event>
<event>
 5   0  0.4058874E-04  0.1518797E+04  0.7818609E-02  0.8872049E-01
       -1   -1    0    0    0  501  0.00000000000E+00  0.00000000000E+00  0.53810508069E+03  0.53810508071E+03  0.50400001928E-02 0. -1.
        1   -1    0    0  501    0  0.00000000000E+00  0.00000000000E+00 -0.10716975340E+04  0.10716975340E+04  0.50400001928E-02 0.  1.
    10030    2    1    2    0    0  0.00000000000E+00  0.00000000000E+00 -0.53359245335E+03  0.16098026148E+04  0.15187967449E+04 0.  0.
        4    1    3    3  502    0  0.11919060768E+03 -0.11718678814E+03  0.51836403419E+03  0.54464853724E+03  0.12699999809E+01 0. -1.
       -4    1    3    3    0  502 -0.11919060768E+03  0.11718678814E+03 -0.10519564875E+04  0.10651540775E+04  0.12699999809E+01 0.  1.
</event>
<event>
 5   0  0.7359897E-04  0.1452469E+04  0.7818609E-02  0.8916691E-01
       -2   -1    0    0    0  501  0.00000000000E+00  0.00000000000E+00  0.15790098658E+04  0.15790098658E+04  0.25500000920E-02 0. -1.
        2   -1    0    0  501    0  0.00000000000E+00  0.00000000000E+00 -0.33401725117E+03  0.33401725118E+03  0.25500000920E-02 0.  1.
    10030    2    1    2    0    0  0.00000000000E+00  0.00000000000E+00  0.12449926146E+04  0.19130271170E+04  0.14524689807E+04 0.  0.
        1    1    3    3  502    0 -0.39012356743E+03  0.10520849169E+03  0.14172914393E+04  0.14737639731E+04  0.50400001928E-02 0. -1.
       -1    1    3    3    0  502  0.39012356743E+03 -0.10520849169E+03 -0.17229882462E+03  0.43926314389E+03  0.50400001928E-02 0.  1.
</event>
<event>
 5   0  0.4084462E-04  0.1497684E+04  0.7818609E-02  0.8885995E-01
        1   -1    0    0  501    0  0.00000000000E+00  0.00000000000E+00  0.51836983173E+03  0.51836983175E+03  0.50400001928E-02 0. -1.
       -1   -1    0    0    0  501  0.00000000000E+00  0.00000000000E+00 -0.10817835772E+04  0.10817835772E+04  0.50400001928E-02 0.  1.
    10030    2    1    2    0    0  0.00000000000E+00  0.00000000000E+00 -0.56341374549E+03  0.16001534090E+04  0.14976835058E+04 0.  0.
        1    1    3    3  502    0 -0.98071745607E+02 -0.14754009747E+03 -0.10590709116E+04  0.10737864515E+04  0.50400001928E-02 0.  1.
       -1    1    3    3    0  502  0.98071745607E+02  0.14754009747E+03  0.49565716607E+03  0.52636695750E+03  0.50400001928E-02 0. -1.
</event>
<event>
 5   0  0.7359897E-04  0.1495389E+04  0.7818609E-02  0.8887525E-01
        2   -1    0    0  501    0  0.00000000000E+00  0.00000000000E+00  0.14131122452E+04  0.14131122452E+04  0.25500000920E-02 0. -1.
       -2   -1    0    0    0  501  0.00000000000E+00  0.00000000000E+00 -0.39561397945E+03  0.39561397946E+03  0.25500000920E-02 0.  1.
    10030    2    1    2    0    0  0.00000000000E+00  0.00000000000E+00  0.10174982658E+04  0.18087262247E+04  0.14953888575E+04 0.  0.
        1    1    3    3  502    0  0.98610698531E+01  0.67598764090E+03  0.89502573372E+03  0.11216628706E+04  0.50400001928E-02 0. -1.
       -1    1    3    3    0  502 -0.98610698531E+01 -0.67598764090E+03  0.12247253206E+03  0.68706335405E+03  0.50400001928E-02 0.  1.
</event>
<event>
 5   0  0.4058874E-04  0.1509615E+04  0.7818609E-02  0.8878084E-01
        1   -1    0    0  501    0  0.00000000000E+00  0.00000000000E+00  0.66192520045E+03  0.66192520047E+03  0.50400001928E-02 0.  1.
       -1   -1    0    0    0  501  0.00000000000E+00  0.00000000000E+00 -0.86072288775E+03  0.86072288777E+03  0.50400001928E-02 0. -1.
    10030    2    1    2    0    0  0.00000000000E+00  0.00000000000E+00 -0.19879768730E+03  0.15226480882E+04  0.15096147456E+04 0.  0.
        4    1    3    3  502    0 -0.28150724175E+03 -0.67321579068E+03 -0.29411144136E+03  0.78674581716E+03  0.12699999809E+01 0. -1.
       -4    1    3    3    0  502  0.28150724175E+03  0.67321579068E+03  0.95313754065E+02  0.73590227108E+03  0.12699999809E+01 0.  1.
</event>
<event>
 5   0  0.7634227E-04  0.1501117E+04  0.7818609E-02  0.8883710E-01
        2   -1    0    0  501    0  0.00000000000E+00  0.00000000000E+00  0.13417745951E+04  0.13417745951E+04  0.25500000920E-02 0.  1.
       -2   -1    0    0    0  501  0.00000000000E+00  0.00000000000E+00 -0.41984577233E+03  0.41984577233E+03  0.25500000920E-02 0. -1.
    10030    2    1    2    0    0  0.00000000000E+00  0.00000000000E+00  0.92192882282E+03  0.17616203675E+04  0.15011174387E+04 0.  0.
        2    1    3    3  502    0 -0.24383007274E+02 -0.70675814390E+03  0.75607347473E+03  0.10352529663E+04  0.25500000920E-02 0. -1.
       -2    1    3    3    0  502  0.24383007274E+02  0.70675814390E+03  0.16585534809E+03  0.72636740119E+03  0.25500000920E-02 0.  1.
</event>
<event>
 5   0  0.7634227E-04  0.1510881E+04  0.7818609E-02  0.8877249E-01
        2   -1    0    0  501    0  0.00000000000E+00  0.00000000000E+00  0.16353576395E+04  0.16353576395E+04  0.25500000920E-02 0. -1.
       -2   -1    0    0    0  501  0.00000000000E+00  0.00000000000E+00 -0.34896976074E+03  0.34896976075E+03  0.25500000920E-02 0.  1.
    10030    2    1    2    0    0  0.00000000000E+00  0.00000000000E+00  0.12863878788E+04  0.19843274003E+04  0.15108810201E+04 0.  0.
        2    1    3    3  502    0 -0.30978867620E+03  0.63262657142E+03  0.28470508244E+03  0.75976469169E+03  0.25500000920E-02 0.  1.
       -2    1    3    3    0  502  0.30978867620E+03 -0.63262657142E+03  0.10016827963E+04  0.12245627086E+04  0.25500000920E-02 0. -1.
</event>
<event>
 5   0  0.4058874E-04  0.1486388E+04  0.7818609E-02  0.8893555E-01
       -1   -1    0    0    0  501  0.00000000000E+00  0.00000000000E+00  0.12865381117E+04  0.12865381117E+04  0.50400001928E-02 0.  1.
        1   -1    0    0  501    0  0.00000000000E+00  0.00000000000E+00 -0.42932070586E+03  0.42932070589E+03  0.50400001928E-02 0. -1.
    10030    2    1    2    0    0  0.00000000000E+00  0.00000000000E+00  0.85721740586E+03  0.17158588176E+04  0.14863881731E+04 0.  0.
        4    1    3    3  502    0 -0.43396247229E+03 -0.58795639465E+03  0.58485450086E+03  0.93598747291E+03  0.12699999809E+01 0.  1.
       -4    1    3    3    0  502  0.43396247229E+03  0.58795639465E+03  0.27236290499E+03  0.77987134470E+03  0.12699999809E+01 0. -1.
</event>
<event>
 5   0  0.3907345E-04  0.1500511E+04  0.7818609E-02  0.8884113E-01
        1   -1    0    0  501    0  0.00000000000E+00  0.00000000000E+00  0.53181020839E+03  0.53181020842E+03  0.50400001928E-02 0.  1.
       -1   -1    0    0    0  501  0.00000000000E+00  0.00000000000E+00 -0.10584288184E+04  0.10584288184E+04  0.50400001928E-02 0. -1.
    10030    2    1    2    0    0  0.00000000000E+00  0.00000000000E+00 -0.52661860997E+03  0.15902390268E+04  0.15005109136E+04 0.  0.
        5    1    3    3  502    0 -0.66953712655E+03 -0.33176769015E+03 -0.33449270787E+03  0.81869238769E+03  0.46999998093E+01 0.  1.
       -5    1    3    3    0  502  0.66953712655E+03  0.33176769015E+03 -0.19212590210E+03  0.77154663910E+03  0.46999998093E+01 0. -1.
</event>
<event>
 5   0  0.4015204E-04  0.1418138E+04  0.7818609E-02  0.8940793E-01
       -1   -1    0    0    0  501  0.00000000000E+00  0.00000000000E+00  0.57399680272E+03  0.57399680274E+03  0.50400001928E-02 0. -1.
        1   -1    0    0  501    0  0.00000000000E+00  0.00000000000E+00 -0.87592589473E+03  0.87592589475E+03  0.50400001928E-02 0.  1.
    10030    2    1    2    0    0  0.00000000000E+00  0.00000000000E+00 -0.30192909202E+03  0.14499226975E+04  0.14181377409E+04 0.  0.
        2    1    3    3  502    0 -0.32445602668E+03  0.59712344652E+03 -0.35786252415E+03  0.76804538266E+03  0.25500000920E-02 0.  1.
       -2    1    3    3    0  502  0.32445602668E+03 -0.59712344652E+03  0.55933432136E+02  0.68187731482E+03  0.25500000920E-02 0. -1.
</event>
<event>
 5   0  0.7454828E-04  0.1507996E+04  0.7818609E-02  0.8879153E-01
       -2   -1    0    0    0  501  0.00000000000E+00  0.00000000000E+00  0.70884100800E+03  0.70884100801E+03  0.25500000920E-02 0.  1.
        2   -1    0    0  501    0  0.00000000000E+00  0.00000000000E+00 -0.80203160369E+03  0.80203160369E+03  0.25500000920E-02 0. -1.
    10030    2    1    2    0    0  0.00000000000E+00  0.00000000000E+00 -0.93190595683E+02  0.15108726117E+04  0.15079958759E+04 0.  0.
        3    1    3    3  502    0  0.72412985042E+02 -0.42451596011E+03 -0.66669070070E+03  0.79368377921E+03  0.10100000352E+00 0. -1.
       -3    1    3    3    0  502 -0.72412985042E+02  0.42451596011E+03  0.57350010502E+03  0.71718883248E+03  0.10100000352E+00 0.  1.
</event>
<event>
 5   0  0.4015204E-04  0.1489936E+04  0.7818609E-02  0.8891173E-01
       -1   -1    0    0    0  501  0.00000000000E+00  0.00000000000E+00  0.75857270307E+03  0.75857270309E+03  0.50400001928E-02 0.  1.
        1   -1    0    0  501    0  0.00000000000E+00  0.00000000000E+00 -0.73160716554E+03  0.73160716556E+03  0.50400001928E-02 0. -1.
    10030    2    1    2    0    0  0.00000000000E+00  0.00000000000E+00  0.26965537531E+02  0.14901798686E+04  0.14899358713E+04 0.  0.
        2    1    3    3  502    0  0.34207281487E+03  0.90767024699E+02 -0.64215853547E+03  0.73322578251E+03  0.25500000920E-02 0. -1.
       -2    1    3    3    0  502 -0.34207281487E+03 -0.90767024699E+02  0.66912407301E+03  0.75695408614E+03  0.25500000920E-02 0.  1.
</event>
<event>
 5   0  0.4084462E-04  0.1517768E+04  0.7818609E-02  0.8872722E-01
        1   -1    0    0  501    0  0.00000000000E+00  0.00000000000E+00  0.11422581459E+04  0.11422581459E+04  0.50400001928E-02 0. -1.
       -1   -1    0    0    0  501  0.00000000000E+00  0.00000000000E+00 -0.50418122691E+03  0.50418122693E+03  0.50400001928E-02 0.  1.
    10030    2    1    2    0    0  0.00000000000E+00  0.00000000000E+00  0.63807691895E+03  0.16464393728E+04  0.15177682477E+04 0.  0.
        1    1    3    3  502    0  0.22376129947E+03 -0.37092453674E+03 -0.35688350894E+03  0.56126639849E+03  0.50400001928E-02 0.  1.
       -1    1    3    3    0  502 -0.22376129947E+03  0.37092453674E+03  0.99496042789E+03  0.10851729743E+04  0.50400001928E-02 0. -1.
</event>
<event>
 5   0  0.7359897E-04  0.1484691E+04  0.7818609E-02  0.8894698E-01
       -2   -1    0    0    0  501  0.00000000000E+00  0.00000000000E+00  0.42627568719E+03  0.42627568720E+03  0.25500000920E-02 0. -1.
        2   -1    0    0  501    0  0.00000000000E+00  0.00000000000E+00 -0.12927704602E+04  0.12927704602E+04  0.25500000920E-02 0.  1.
    10030    2    1    2    0    0  0.00000000000E+00  0.00000000000E+00 -0.86649477302E+03  0.17190461474E+04  0.14846906968E+04 0.  0.
        1    1    3    3  502    0 -0.12753548358E+03 -0.43564118405E+03  0.24686199568E+03  0.51671015642E+03  0.50400001928E-02 0. -1.
       -1    1    3    3    0  502  0.12753548358E+03  0.43564118405E+03 -0.11133567687E+04  0.12023359910E+04  0.50400001928E-02 0.  1.
</event>
<event>
 5   0  0.3907345E-04  0.1498583E+04  0.7818609E-02  0.8885396E-01
       -1   -1    0    0    0  501  0.00000000000E+00  0.00000000000E+00  0.44481943039E+03  0.44481943042E+03  0.50400001928E-02 0. -1.
        1   -1    0    0  501    0  0.00000000000E+00  0.00000000000E+00 -0.12621696432E+04  0.12621696432E+04  0.50400001928E-02 0.  1.
    10030    2    1    2    0    0  0.00000000000E+00  0.00000000000E+00 -0.81735021282E+03  0.17069890736E+04  0.14985827729E+04 0.  0.
        5    1    3    3  502    0  0.40335727592E+03 -0.61743040026E+03 -0.25799862857E+03  0.78134676907E+03  0.46999998093E+01 0. -1.
       -5    1    3    3    0  502 -0.40335727592E+03  0.61743040026E+03 -0.55935158425E+03  0.92564230456E+03  0.46999998093E+01 0.  1.
</event>
<event>
 5   0  0.3907345E-04  0.1496804E+04  0.7818609E-02  0.8886581E-01
       -1   -1    0    0    0  501  0.00000000000E+00  0.00000000000E+00  0.51638892204E+03  0.51638892207E+03  0.50400001928E-02 0. -1.
        1   -1    0    0  501    0  0.00000000000E+00  0.00000000000E+00 -0.10846582299E+04  0.10846582299E+04  0.50400001928E-02 0.  1.
    10030    2    1    2    0    0  0.00000000000E+00  0.00000000000E+00 -0.56826930789E+03  0.16010471520E+04  0.14968039206E+04 0.  0.
        5    1    3    3  502    0  0.42319676124E+03 -0.10455326838E+03 -0.93482331729E+03  0.10314764220E+04  0.46999998093E+01 0.  1.
       -5    1    3    3    0  502 -0.42319676124E+03  0.10455326838E+03  0.36655400940E+03  0.56957072999E+03  0.46999998093E+01 0. -1.
</event>
<event>
 5   0  0.7634227E-04  0.1504343E+04  0.7818609E-02  0.8881570E-01
       -2   -1    0    0    0  501  0.00000000000E+00  0.00000000000E+00  0.44166632992E+03  0.44166632992E+03  0.25500000920E-02 0.  1.
        2   -1    0    0  501    0  0.00000000000E+00  0.00000000000E+00 -0.12809707751E+04  0.12809707751E+04  0.25500000920E-02 0. -1.
    10030    2    1    2    0    0  0.00000000000E+00  0.00000000000E+00 -0.83930444514E+03  0.17226371050E+04  0.15043425952E+04 0.  0.
        2    1    3    3  502    0  0.71034605127E+03 -0.14562735020E+03 -0.19073676154E+03  0.74978620279E+03  0.25500000920E-02 0.  1.
       -2    1    3    3    0  502 -0.71034605127E+03  0.14562735020E+03 -0.64856768359E+03  0.97285090219E+03  0.25500000920E-02 0. -1.
</event>
<event>
 5   0  0.7634227E-04  0.1554168E+04  0.7818609E-02  0.8849210E-01
        2   -1    0    0  501    0  0.00000000000E+00  0.00000000000E+00  0.60756802498E+03  0.60756802498E+03  0.25500000920E-02 0.  1.
       -2   -1    0    0    0  501  0.00000000000E+00  0.00000000000E+00 -0.99389630949E+03  0.99389630950E+03  0.25500000920E-02 0. -1.
    10030    2    1    2    0    0  0.00000000000E+00  0.00000000000E+00 -0.38632828451E+03  0.16014643345E+04  0.15541680962E+04 0.  0.
        2    1    3    3  502    0  0.59595809619E+03  0.29943125239E+03 -0.60409139289E+03  0.89986195514E+03  0.25500000920E-02 0. -1.
       -2    1    3    3    0  502 -0.59595809619E+03 -0.29943125239E+03  0.21776310838E+03  0.70160237935E+03  0.25500000920E-02 0.  1.
</event>
<event>
 5   0  0.4086710E-04  0.1503133E+04  0.7818609E-02  0.8882372E-01
        1   -1    0    0  501    0  0.00000000000E+00  0.00000000000E+00  0.78354940297E+03  0.78354940299E+03  0.50400001928E-02 0.  1.
       -1   -1    0    0    0  501  0.00000000000E+00  0.00000000000E+00 -0.72088864664E+03  0.72088864665E+03  0.50400001928E-02 0. -1.
    10030    2    1    2    0    0  0.00000000000E+00  0.00000000000E+00  0.62660756338E+02  0.15044380496E+04  0.15031325540E+04 0.  0.
        3    1    3    3  502    0 -0.69545811042E+01 -0.75109620187E+03  0.57003930573E+02  0.75328834384E+03  0.10100000352E+00 0.  1.
       -3    1    3    3    0  502  0.69545811042E+01  0.75109620187E+03  0.56568257647E+01  0.75114970581E+03  0.10100000352E+00 0. -1.
</event>
<event>
 5   0  0.7672251E-04  0.1453985E+04  0.7818609E-02  0.8915642E-01
        2   -1    0    0  501    0  0.00000000000E+00  0.00000000000E+00  0.15797395855E+04  0.15797395855E+04  0.25500000920E-02 0. -1.
       -2   -1    0    0    0  501  0.00000000000E+00  0.00000000000E+00 -0.33456029179E+03  0.33456029180E+03  0.25500000920E-02 0.  1.
    10030    2    1    2    0    0  0.00000000000E+00  0.00000000000E+00  0.12451792937E+04  0.19142998773E+04  0.14539850573E+04 0.  0.
        5    1    3    3  502    0  0.17970517209E+03 -0.57509637802E+03  0.11581454696E+04  0.13055086409E+04  0.46999998093E+01 0. -1.
       -5    1    3    3    0  502 -0.17970517209E+03  0.57509637802E+03  0.87033824096E+02  0.60879123632E+03  0.46999998093E+01 0.  1.
</event>
<event>
 5   0  0.4058874E-04  0.1524336E+04  0.7818609E-02  0.8868429E-01
        1   -1    0    0  501    0  0.00000000000E+00  0.00000000000E+00  0.14848770643E+04  0.14848770643E+04  0.50400001928E-02 0. -1.
       -1   -1    0    0    0  501  0.00000000000E+00  0.00000000000E+00 -0.39121068375E+03  0.39121068379E+03  0.50400001928E-02 0.  1.
    10030    2    1    2    0    0  0.00000000000E+00  0.00000000000E+00  0.10936663806E+04  0.18760877481E+04  0.15243356214E+04 0.  0.
        4    1    3    3  502    0 -0.51121898844E+03  0.35029872161E+03  0.10928848873E+04  0.12563650100E+04  0.12699999809E+01 0. -1.
       -4    1    3    3    0  502  0.51121898844E+03 -0.35029872161E+03  0.78149323676E+00  0.61972273811E+03  0.12699999809E+01 0.  1.
</event>
<event>
 5   0  0.7634227E-04  0.1501846E+04  0.7818609E-02  0.8883226E-01
       -2   -1    0    0    0  501  0.00000000000E+00  0.00000000000E+00  0.51750473959E+03  0.51750473960E+03  0.25500000920E-02 0. -1.
        2   -1    0    0  501    0  0.00000000000E+00  0.00000000000E+00 -0.10896232745E+04  0.10896232745E+04  0.25500000920E-02 0.  1.
    10030    2    1    2    0    0  0.00000000000E+00  0.00000000000E+00 -0.57211853488E+03  0.16071280141E+04  0.15018458096E+04 0.  0.
        2    1    3    3  502    0 -0.22496386667E+03 -0.62083987075E+03 -0.66866269938E+03  0.93976629647E+03  0.25500000920E-02 0.  1.
       -2    1    3    3    0  502  0.22496386667E+03  0.62083987075E+03  0.96544164502E+02  0.66736171761E+03  0.25500000920E-02 0. -1.
</event>
<event>
 5   0  0.3907345E-04  0.1500474E+04  0.7818609E-02  0.8884138E-01
       -1   -1    0    0    0  501  0.00000000000E+00  0.00000000000E+00  0.64076139148E+03  0.64076139150E+03  0.50400001928E-02 0. -1.
        1   -1    0    0  501    0  0.00000000000E+00  0.00000000000E+00 -0.87841703332E+03  0.87841703334E+03  0.50400001928E-02 0.  1.
    10030    2    1    2    0    0  0.00000000000E+00  0.00000000000E+00 -0.23765564184E+03  0.15191784248E+04  0.15004742192E+04 0.  0.
        5    1    3    3  502    0 -0.56325063637E+03 -0.49092638401E+03 -0.50356125916E+02  0.74887770918E+03  0.46999998093E+01 0.  1.
       -5    1    3    3    0  502  0.56325063637E+03  0.49092638401E+03 -0.18729951592E+03  0.77030071566E+03  0.46999998093E+01 0. -1.
</event>
<event>
 5   0  0.3907345E-04  0.1456174E+04  0.7818609E-02  0.8914132E-01
        1   -1    0    0  501    0  0.00000000000E+00  0.00000000000E+00  0.23648389159E+04  0.23648389159E+04  0.50400001928E-02 0.  1.
       -1   -1    0    0    0  501  0.00000000000E+00  0.00000000000E+00 -0.22416344435E+03  0.22416344441E+03  0.50400001928E-02 0. -1.
    10030    2    1    2    0    0  0.00000000000E+00  0.00000000000E+00  0.21406754716E+04  0.25890023603E+04  0.14561736666E+04 0.  0.
        5    1    3    3  502    0  0.53890437642E+03 -0.42155717617E+03  0.62777498011E+03  0.92857519639E+03  0.46999998093E+01 0. -1.
       -5    1    3    3    0  502 -0.53890437642E+03  0.42155717617E+03  0.15129004915E+04  0.16604271639E+04  0.46999998093E+01 0.  1.
</event>
<event>
 5   0  0.4015204E-04  0.1511105E+04  0.7818609E-02  0.8877102E-01
       -1   -1    0    0    0  501  0.00000000000E+00  0.00000000000E+00  0.47954290244E+03  0.47954290247E+03  0.50400001928E-02 0. -1.
        1   -1    0    0  501    0  0.00000000000E+00  0.00000000000E+00 -0.11904244553E+04  0.11904244553E+04  0.50400001928E-02 0.  1.
    10030    2    1    2    0    0  0.00000000000E+00  0.00000000000E+00 -0.71088155284E+03  0.16699673578E+04  0.15111050241E+04 0.  0.
        2    1    3    3  502    0  0.39890320307E+03 -0.59194262749E+02  0.35066015947E+03  0.53440646853E+03  0.25500000920E-02 0. -1.
       -2    1    3    3    0  502 -0.39890320307E+03  0.59194262749E+02 -0.10615417123E+04  0.11355608892E+04  0.25500000920E-02 0.  1.
</event>
<event>
 5   0  0.3907345E-04  0.1502142E+04  0.7818609E-02  0.8883030E-01
        1   -1    0    0  501    0  0.00000000000E+00  0.00000000000E+00  0.77399225713E+03  0.77399225715E+03  0.50400001928E-02 0.  1.
       -1   -1    0    0    0  501  0.00000000000E+00  0.00000000000E+00 -0.72882881881E+03  0.72882881883E+03  0.50400001928E-02 0. -1.
    10030    2    1    2    0    0  0.00000000000E+00  0.00000000000E+00  0.45163438320E+02  0.15028210760E+04  0.15021422869E+04 0.  0.
        5    1    3    3  502    0 -0.15328643750E+03  0.34962342742E+03 -0.62451230481E+03  0.73196378447E+03  0.46999998093E+01 0. -1.
       -5    1    3    3    0  502  0.15328643750E+03 -0.34962342742E+03  0.66967574313E+03  0.77085729150E+03  0.46999998093E+01 0.  1.
</event>
<event>
 5   0  0.7634227E-04  0.1545105E+04  0.7818609E-02  0.8855000E-01
       -2   -1    0    0    0  501  0.00000000000E+00  0.00000000000E+00  0.65105503816E+03  0.65105503817E+03  0.25500000920E-02 0.  1.
        2   -1    0    0  501    0  0.00000000000E+00  0.00000000000E+00 -0.91672349285E+03  0.91672349285E+03  0.25500000920E-02 0. -1.
    10030    2    1    2    0    0  0.00000000000E+00  0.00000000000E+00 -0.26566845469E+03  0.15677785310E+04  0.15451051079E+04 0.  0.
        2    1    3    3  502    0 -0.18117897841E+03  0.68296637065E+03  0.18410911903E+03  0.73018152084E+03  0.25500000920E-02 0.  1.
       -2    1    3    3    0  502  0.18117897841E+03 -0.68296637065E+03 -0.44977757372E+03  0.83759701019E+03  0.25500000920E-02 0. -1.
</event>
<event>
 5   0  0.7634227E-04  0.1565987E+04  0.7818609E-02  0.8841720E-01
       -2   -1    0    0    0  501  0.00000000000E+00  0.00000000000E+00  0.79835752919E+03  0.79835752920E+03  0.25500000920E-02 0. -1.
        2   -1    0    0  501    0  0.00000000000E+00  0.00000000000E+00 -0.76792487775E+03  0.76792487776E+03  0.25500000920E-02 0.  1.
    10030    2    1    2    0    0  0.00000000000E+00  0.00000000000E+00  0.30432651441E+02  0.15662824070E+04  0.15659867279E+04 0.  0.
        2    1    3    3  502    0 -0.20868014622E+03 -0.72132094271E+03 -0.20669783219E+03  0.77882944195E+03  0.25500000920E-02 0.  1.
       -2    1    3    3    0  502  0.20868014622E+03  0.72132094271E+03  0.23713048363E+03  0.78745296500E+03  0.25500000920E-02 0. -1.
</event>
<event>
 5   0  0.4058874E-04  0.1286458E+04  0.7818609E-02  0.9040374E-01
       -1   -1    0    0    0  501  0.00000000000E+00  0.00000000000E+00  0.26804029837E+03  0.26804029842E+03  0.50400001928E-02 0. -1.
        1   -1    0    0  501    0  0.00000000000E+00  0.00000000000E+00 -0.15435866254E+04  0.15435866254E+04  0.50400001928E-02 0.  1.
    10030    2    1    2    0    0  0.00000000000E+00  0.00000000000E+00 -0.12755463270E+04  0.18116269238E+04  0.12864578029E+04 0.  0.
        4    1    3    3  502    0  0.40074499108E+03 -0.76666327944E+02 -0.13380290510E+04  0.13988558282E+04  0.12699999809E+01 0.  1.
       -4    1    3    3    0  502 -0.40074499108E+03  0.76666327944E+02  0.62482723993E+02  0.41277109566E+03  0.12699999809E+01 0. -1.
</event>
<event>
 5   0  0.7547580E-04  0.1513256E+04  0.7818609E-02  0.8875685E-01
       -2   -1    0    0    0  501  0.00000000000E+00  0.00000000000E+00  0.47088976161E+03  0.47088976162E+03  0.25500000920E-02 0.  1.
        2   -1    0    0  501    0  0.00000000000E+00  0.00000000000E+00 -0.12157535992E+04  0.12157535992E+04  0.25500000920E-02 0. -1.
    10030    2    1    2    0    0  0.00000000000E+00  0.00000000000E+00 -0.74486383760E+03  0.16866433608E+04  0.15132559896E+04 0.  0.
        4    1    3    3  502    0  0.44029378425E+03 -0.15575703264E+03 -0.10359252156E+04  0.11363368932E+04  0.12699999809E+01 0. -1.
       -4    1    3    3    0  502 -0.44029378425E+03  0.15575703264E+03  0.29106137799E+03  0.55030646763E+03  0.12699999809E+01 0.  1.
</event>
<event>
 5   0  0.2800375E-04  0.1494738E+04  0.7818609E-02  0.8887960E-01
        3   -1    0    0  501    0  0.00000000000E+00  0.00000000000E+00  0.12678439288E+04  0.12678439328E+04  0.10100000352E+00 0. -1.
       -3   -1    0    0    0  501  0.00000000000E+00  0.00000000000E+00 -0.44055926004E+03  0.44055927162E+03  0.10100000352E+00 0.  1.
    10030    2    1    2    0    0  0.00000000000E+00  0.00000000000E+00  0.82728466875E+03  0.17084032044E+04  0.14947379656E+04 0.  0.
        4    1    3    3  502    0 -0.97853537891E+02  0.36966157131E+03 -0.32027944462E+03  0.49880409755E+03  0.12699999809E+01 0.  1.
       -4    1    3    3    0  502  0.97853537891E+02 -0.36966157131E+03  0.11475641134E+04  0.12095991069E+04  0.12699999809E+01 0. -1.
</event>
<event>
 5   0  0.3907345E-04  0.1493305E+04  0.7818609E-02  0.8888917E-01
        1   -1    0    0  501    0  0.00000000000E+00  0.00000000000E+00  0.53015577365E+03  0.53015577368E+03  0.50400001928E-02 0.  1.
       -1   -1    0    0    0  501  0.00000000000E+00  0.00000000000E+00 -0.10515582567E+04  0.10515582567E+04  0.50400001928E-02 0. -1.
    10030    2    1    2    0    0  0.00000000000E+00  0.00000000000E+00 -0.52140248308E+03  0.15817140304E+04  0.14933046322E+04 0.  0.
        5    1    3    3  502    0  0.15122758882E+02  0.74533211386E+03 -0.30461585629E+03  0.80533320290E+03  0.46999998093E+01 0.  1.
       -5    1    3    3    0  502 -0.15122758882E+02 -0.74533211386E+03 -0.21678662679E+03  0.77638082752E+03  0.46999998093E+01 0. -1.
</event>
<event>
 5   0  0.4086710E-04  0.1483043E+04  0.7818609E-02  0.8895808E-01
       -1   -1    0    0    0  501  0.00000000000E+00  0.00000000000E+00  0.58587669369E+03  0.58587669371E+03  0.50400001928E-02 0.  1.
        1   -1    0    0  501    0  0.00000000000E+00  0.00000000000E+00 -0.93851452641E+03  0.93851452642E+03  0.50400001928E-02 0. -1.
    10030    2    1    2    0    0  0.00000000000E+00  0.00000000000E+00 -0.35263783271E+03  0.15243912201E+04  0.14830425317E+04 0.  0.
        3    1    3    3  502    0 -0.60861831968E+03 -0.41107471060E+03 -0.28141993971E+03  0.78650865819E+03  0.10100000352E+00 0.  1.
       -3    1    3    3    0  502  0.60861831968E+03  0.41107471060E+03 -0.71217893000E+02  0.73788256195E+03  0.10100000352E+00 0. -1.
</event>
<event>
 5   0  0.7634227E-04  0.1510640E+04  0.7818609E-02  0.8877408E-01
        2   -1    0    0  501    0  0.00000000000E+00  0.00000000000E+00  0.11817163469E+04  0.11817163469E+04  0.25500000920E-02 0. -1.
       -2   -1    0    0    0  501  0.00000000000E+00  0.00000000000E+00 -0.48277937763E+03  0.48277937764E+03  0.25500000920E-02 0.  1.
    10030    2    1    2    0    0  0.00000000000E+00  0.00000000000E+00  0.69893696927E+03  0.16644957245E+04  0.15106399737E+04 0.  0.
        2    1    3    3  502    0  0.29411276337E+03 -0.55565943871E+03 -0.11179484738E+03  0.63855917292E+03  0.25500000920E-02 0.  1.
       -2    1    3    3    0  502 -0.29411276337E+03  0.55565943871E+03  0.81073181666E+03  0.10259365516E+04  0.25500000920E-02 0. -1.
</event>
<event>
 5   0  0.4084462E-04  0.1503202E+04  0.7818609E-02  0.8882327E-01
       -1   -1    0    0    0  501  0.00000000000E+00  0.00000000000E+00  0.43592129390E+03  0.43592129393E+03  0.50400001928E-02 0.  1.
        1   -1    0    0  501    0  0.00000000000E+00  0.00000000000E+00 -0.12958848190E+04  0.12958848190E+04  0.50400001928E-02 0. -1.
    10030    2    1    2    0    0  0.00000000000E+00  0.00000000000E+00 -0.85996352513E+03  0.17318061130E+04  0.15032016326E+04 0.  0.
        1    1    3    3  502    0 -0.45900132233E+03 -0.24241306607E+03  0.19624197100E+03  0.55493893331E+03  0.50400001928E-02 0.  1.
       -1    1    3    3    0  502  0.45900132233E+03  0.24241306607E+03 -0.10562054961E+04  0.11768671797E+04  0.50400001928E-02 0. -1.
</event>
<event>
 5   0  0.7634227E-04  0.1496106E+04  0.7818609E-02  0.8887046E-01
        2   -1    0    0  501    0  0.00000000000E+00  0.00000000000E+00  0.15954335760E+04  0.15954335760E+04  0.25500000920E-02 0. -1.
       -2   -1    0    0    0  501  0.00000000000E+00  0.00000000000E+00 -0.35074059183E+03  0.35074059184E+03  0.25500000920E-02 0.  1.
    10030    2    1    2    0    0  0.00000000000E+00  0.00000000000E+00  0.12446929841E+04  0.19461741678E+04  0.14961060346E+04 0.  0.
        2    1    3    3  502    0  0.35270394953E+03 -0.11947297458E+02  0.14803403425E+04  0.15218246757E+04  0.25500000920E-02 0. -1.
       -2    1    3    3    0  502 -0.35270394953E+03  0.11947297458E+02 -0.23564735837E+03  0.42434949210E+03  0.25500000920E-02 0.  1.
</event>
<event>
 5   0  0.7634227E-04  0.1496548E+04  0.7818609E-02  0.8886752E-01
        2   -1    0    0  501    0  0.00000000000E+00  0.00000000000E+00  0.49744462849E+03  0.49744462849E+03  0.25500000920E-02 0. -1.
       -2   -1    0    0    0  501  0.00000000000E+00  0.00000000000E+00 -0.11255803990E+04  0.11255803990E+04  0.25500000920E-02 0.  1.
    10030    2    1    2    0    0  0.00000000000E+00  0.00000000000E+00 -0.62813577052E+03  0.16230250275E+04  0.14965479256E+04 0.  0.
        2    1    3    3  502    0 -0.56653555290E+03  0.40626710177E+03 -0.60888466725E+03  0.92561116496E+03  0.25500000920E-02 0.  1.
       -2    1    3    3    0  502  0.56653555290E+03 -0.40626710177E+03 -0.19251103271E+02  0.69741386254E+03  0.25500000920E-02 0. -1.
</event>
<event>
 5   0  0.4086710E-04  0.1497144E+04  0.7818609E-02  0.8886354E-01
       -1   -1    0    0    0  501  0.00000000000E+00  0.00000000000E+00  0.50424154138E+03  0.50424154141E+03  0.50400001928E-02 0.  1.
        1   -1    0    0  501    0  0.00000000000E+00  0.00000000000E+00 -0.11112928254E+04  0.11112928254E+04  0.50400001928E-02 0. -1.
    10030    2    1    2    0    0  0.00000000000E+00  0.00000000000E+00 -0.60705128399E+03  0.16155343668E+04  0.14971439573E+04 0.  0.
        3    1    3    3  502    0 -0.26835105561E+03  0.17763789828E+03 -0.10328355514E+04  0.10818118129E+04  0.10100000352E+00 0. -1.
       -3    1    3    3    0  502  0.26835105561E+03 -0.17763789828E+03  0.42578426745E+03  0.53372255392E+03  0.10100000352E+00 0.  1.
</event>
<event>
 5   0  0.4084462E-04  0.1509436E+04  0.7818609E-02  0.8878202E-01
        1   -1    0    0  501    0  0.00000000000E+00  0.00000000000E+00  0.11100741874E+04  0.11100741874E+04  0.50400001928E-02 0. -1.
       -1   -1    0    0    0  501  0.00000000000E+00  0.00000000000E+00 -0.51311809830E+03  0.51311809833E+03  0.50400001928E-02 0.  1.
    10030    2    1    2    0    0  0.00000000000E+00  0.00000000000E+00  0.59695608905E+03  0.16231922857E+04  0.15094358629E+04 0.  0.
        1    1    3    3  502    0  0.30263379417E+03  0.42556743973E+03  0.88443207679E+03  0.10270905304E+04  0.50400001928E-02 0. -1.
       -1    1    3    3    0  502 -0.30263379417E+03 -0.42556743973E+03 -0.28747598774E+03  0.59610175531E+03  0.50400001928E-02 0.  1.
</event>
<event>
 5   0  0.4086710E-04  0.1528859E+04  0.7818609E-02  0.8865485E-01
       -1   -1    0    0    0  501  0.00000000000E+00  0.00000000000E+00  0.65111503959E+03  0.65111503961E+03  0.50400001928E-02 0. -1.
        1   -1    0    0  501    0  0.00000000000E+00  0.00000000000E+00 -0.89746465869E+03  0.89746465870E+03  0.50400001928E-02 0.  1.
    10030    2    1    2    0    0  0.00000000000E+00  0.00000000000E+00 -0.24634961910E+03  0.15485796983E+04  0.15288593615E+04 0.  0.
        3    1    3    3  502    0  0.27587083192E+03  0.39329118749E+03 -0.72546218649E+03  0.87010233208E+03  0.10100000352E+00 0.  1.
       -3    1    3    3    0  502 -0.27587083192E+03 -0.39329118749E+03  0.47911256739E+03  0.67847736623E+03  0.10100000352E+00 0. -1.
</event>
<event>
 5   0  0.2800375E-04  0.1475201E+04  0.7818609E-02  0.8901113E-01
        3   -1    0    0  501    0  0.00000000000E+00  0.00000000000E+00  0.10456515233E+04  0.10456515282E+04  0.10100000352E+00 0.  1.
       -3   -1    0    0    0  501  0.00000000000E+00  0.00000000000E+00 -0.52030208902E+03  0.52030209882E+03  0.10100000352E+00 0. -1.
    10030    2    1    2    0    0  0.00000000000E+00  0.00000000000E+00  0.52534943426E+03  0.15659536270E+04  0.14752012520E+04 0.  0.
        2    1    3    3  502    0  0.39741645897E+03 -0.48538863190E+02 -0.39491772025E+03  0.56236631201E+03  0.25500000920E-02 0. -1.
       -2    1    3    3    0  502 -0.39741645897E+03  0.48538863190E+02  0.92026715451E+03  0.10035873150E+04  0.25500000920E-02 0.  1.
</event>
<event>
 5   0  0.4058874E-04  0.1461649E+04  0.7818609E-02  0.8910364E-01
       -1   -1    0    0    0  501  0.00000000000E+00  0.00000000000E+00  0.99340944297E+03  0.99340944298E+03  0.50400001928E-02 0.  1.
        1   -1    0    0  501    0  0.00000000000E+00  0.00000000000E+00 -0.53764776073E+03  0.53764776075E+03  0.50400001928E-02 0. -1.
    10030    2    1    2    0    0  0.00000000000E+00  0.00000000000E+00  0.45576168225E+03  0.15310572037E+04  0.14616488806E+04 0.  0.
        4    1    3    3  502    0  0.10690480442E+03 -0.70878301233E+03  0.37712743952E+03  0.80995599530E+03  0.12699999809E+01 0.  1.
       -4    1    3    3    0  502 -0.10690480442E+03  0.70878301233E+03  0.78634242728E+02  0.72110120844E+03  0.12699999809E+01 0. -1.
</event>
<event>
 5   0  0.4058874E-04  0.1497662E+04  0.7818609E-02  0.8886009E-01
       -1   -1    0    0    0  501  0.00000000000E+00  0.00000000000E+00  0.39878164684E+03  0.39878164687E+03  0.50400001928E-02 0.  1.
        1   -1    0    0  501    0  0.00000000000E+00  0.00000000000E+00 -0.14061522858E+04  0.14061522858E+04  0.50400001928E-02 0. -1.
    10030    2    1    2    0    0  0.00000000000E+00  0.00000000000E+00 -0.10073706390E+04  0.18049339327E+04  0.14976618100E+04 0.  0.
        4    1    3    3  502    0  0.19937549261E+03 -0.13250349600E+03  0.35142215176E+03  0.42521395221E+03  0.12699999809E+01 0.  1.
       -4    1    3    3    0  502 -0.19937549261E+03  0.13250349600E+03 -0.13587927908E+04  0.13797199805E+04  0.12699999809E+01 0. -1.
</event>
<event>
 5   0  0.7359897E-04  0.1490249E+04  0.7818609E-02  0.8890963E-01
        2   -1    0    0  501    0  0.00000000000E+00  0.00000000000E+00  0.13135732370E+04  0.13135732370E+04  0.25500000920E-02 0.  1.
       -2   -1    0    0    0  501  0.00000000000E+00  0.00000000000E+00 -0.42267176112E+03  0.42267176113E+03  0.25500000920E-02 0. -1.
    10030    2    1    2    0    0  0.00000000000E+00  0.00000000000E+00  0.89090147590E+03  0.17362449982E+04  0.14902487221E+04 0.  0.
        1    1    3    3  502    0  0.61160982380E+02  0.66095915778E+03  0.51039246863E+02  0.66574220143E+03  0.50400001928E-02 0.  1.
       -1    1    3    3    0  502 -0.61160982380E+02 -0.66095915778E+03  0.83986222903E+03  0.10705027967E+04  0.50400001928E-02 0. -1.
</event>
<event>
 5   0  0.7454828E-04  0.1417870E+04  0.7818609E-02  0.8940984E-01
        2   -1    0    0  501    0  0.00000000000E+00  0.00000000000E+00  0.10000090893E+04  0.10000090893E+04  0.25500000920E-02 0.  1.
       -2   -1    0    0    0  501  0.00000000000E+00  0.00000000000E+00 -0.50258408232E+03  0.50258408232E+03  0.25500000920E-02 0. -1.
    10030    2    1    2    0    0  0.00000000000E+00  0.00000000000E+00  0.49742500694E+03  0.15025931716E+04  0.14178697408E+04 0.  0.
        3    1    3    3  502    0 -0.42177660629E+03 -0.10357110931E+03  0.84252112293E+03  0.94787358497E+03  0.10100000352E+00 0.  1.
       -3    1    3    3    0  502  0.42177660629E+03  0.10357110931E+03 -0.34509611599E+03  0.55471958661E+03  0.10100000352E+00 0. -1.
</event>
<event>
 5   0  0.3907345E-04  0.1506170E+04  0.7818609E-02  0.8880361E-01
       -1   -1    0    0    0  501  0.00000000000E+00  0.00000000000E+00  0.58789884825E+03  0.58789884827E+03  0.50400001928E-02 0. -1.
        1   -1    0    0  501    0  0.00000000000E+00  0.00000000000E+00 -0.96468413766E+03  0.96468413767E+03  0.50400001928E-02 0.  1.
    10030    2    1    2    0    0  0.00000000000E+00  0.00000000000E+00 -0.37678528941E+03  0.15525829859E+04  0.15061695701E+04 0.  0.
        5    1    3    3  502    0  0.83756979814E+02 -0.82033687106E+02  0.57841899851E+03  0.59019944538E+03  0.46999998093E+01 0. -1.
       -5    1    3    3    0  502 -0.83756979814E+02  0.82033687106E+02 -0.95520428792E+03  0.96238354056E+03  0.46999998093E+01 0.  1.
</event>
<event>
 5   0  0.7634227E-04  0.1499981E+04  0.7818609E-02  0.8884466E-01
        2   -1    0    0  501    0  0.00000000000E+00  0.00000000000E+00  0.15098288357E+04  0.15098288357E+04  0.25500000920E-02 0.  1.
       -2   -1    0    0    0  501  0.00000000000E+00  0.00000000000E+00 -0.37254927777E+03  0.37254927778E+03  0.25500000920E-02 0. -1.
    10030    2    1    2    0    0  0.00000000000E+00  0.00000000000E+00  0.11372795579E+04  0.18823781134E+04  0.14999808563E+04 0.  0.
        2    1    3    3  502    0 -0.21600872441E+03  0.18197097486E+03  0.14405371994E+04  0.14679647910E+04  0.25500000920E-02 0.  1.
       -2    1    3    3    0  502  0.21600872441E+03 -0.18197097486E+03 -0.30325764149E+03  0.41441332247E+03  0.25500000920E-02 0. -1.
</event>
<event>
 5   0  0.7547580E-04  0.1498328E+04  0.7818609E-02  0.8885566E-01
        2   -1    0    0  501    0  0.00000000000E+00  0.00000000000E+00  0.15881269727E+04  0.15881269727E+04  0.25500000920E-02 0. -1.
       -2   -1    0    0    0  501  0.00000000000E+00  0.00000000000E+00 -0.35340145455E+03  0.35340145456E+03  0.25500000920E-02 0.  1.
    10030    2    1    2    0    0  0.00000000000E+00  0.00000000000E+00  0.12347255181E+04  0.19415284273E+04  0.14983275772E+04 0.  0.
        4    1    3    3  502    0  0.14186503650E+03 -0.72362786403E+03  0.44603410873E+03  0.86180683058E+03  0.12699999809E+01 0.  1.
       -4    1    3    3    0  502 -0.14186503650E+03  0.72362786403E+03  0.78869140942E+03  0.10797215967E+04  0.12699999809E+01 0. -1.
</event>
<event>
 5   0  0.4058874E-04  0.1488368E+04  0.7818609E-02  0.8892225E-01
        1   -1    0    0  501    0  0.00000000000E+00  0.00000000000E+00  0.18496597227E+04  0.18496597227E+04  0.50400001928E-02 0. -1.
       -1   -1    0    0    0  501  0.00000000000E+00  0.00000000000E+00 -0.29941156051E+03  0.29941156055E+03  0.50400001928E-02 0.  1.
    10030    2    1    2    0    0  0.00000000000E+00  0.00000000000E+00  0.15502481622E+04  0.21490712832E+04  0.14883675675E+04 0.  0.
        4    1    3    3  502    0 -0.31394024353E+03  0.26113767433E+03 -0.12318920361E+03  0.42653083623E+03  0.12699999809E+01 0.  1.
       -4    1    3    3    0  502  0.31394024353E+03 -0.26113767433E+03  0.16734373658E+04  0.17225404470E+04  0.12699999809E+01 0. -1.
</event>
<event>
 5   0  0.7672251E-04  0.1545270E+04  0.7818609E-02  0.8854895E-01
       -2   -1    0    0    0  501  0.00000000000E+00  0.00000000000E+00  0.87371270057E+03  0.87371270058E+03  0.25500000920E-02 0.  1.
        2   -1    0    0  501    0  0.00000000000E+00  0.00000000000E+00 -0.68325074289E+03  0.68325074290E+03  0.25500000920E-02 0. -1.
    10030    2    1    2    0    0  0.00000000000E+00  0.00000000000E+00  0.19046195768E+03  0.15569634435E+04  0.15452700110E+04 0.  0.
        5    1    3    3  502    0  0.69649736045E+03  0.17661653884E+03 -0.19089113026E+03  0.74348065780E+03  0.46999998093E+01 0. -1.
       -5    1    3    3    0  502 -0.69649736045E+03 -0.17661653884E+03  0.38135308794E+03  0.81348278568E+03  0.46999998093E+01 0.  1.
</event>
<event>
 5   0  0.7454828E-04  0.1509335E+04  0.7818609E-02  0.8878269E-01
       -2   -1    0    0    0  501  0.00000000000E+00  0.00000000000E+00  0.33445167417E+03  0.33445167418E+03  0.25500000920E-02 0.  1.
        2   -1    0    0  501    0  0.00000000000E+00  0.00000000000E+00 -0.17028558495E+04  0.17028558495E+04  0.25500000920E-02 0. -1.
    10030    2    1    2    0    0  0.00000000000E+00  0.00000000000E+00 -0.13684041753E+04  0.20373075237E+04  0.15093349393E+04 0.  0.
        3    1    3    3  502    0 -0.47843508346E+03 -0.54527980235E+03 -0.96505487525E+03  0.12072949575E+04  0.10100000352E+00 0. -1.
       -3    1    3    3    0  502  0.47843508346E+03  0.54527980235E+03 -0.40334930006E+03  0.83001256617E+03  0.10100000352E+00 0.  1.
</event>
<event>
 5   0  0.4058874E-04  0.1490282E+04  0.7818609E-02  0.8890941E-01
       -1   -1    0    0    0  501  0.00000000000E+00  0.00000000000E+00  0.94142308532E+03  0.94142308533E+03  0.50400001928E-02 0. -1.
        1   -1    0    0  501    0  0.00000000000E+00  0.00000000000E+00 -0.58978286018E+03  0.58978286020E+03  0.50400001928E-02 0.  1.
    10030    2    1    2    0    0  0.00000000000E+00  0.00000000000E+00  0.35164022514E+03  0.15312059455E+04  0.14902821208E+04 0.  0.
        4    1    3    3  502    0 -0.17911584857E+03 -0.64810716464E+03  0.50574245299E+03  0.84136937532E+03  0.12699999809E+01 0. -1.
       -4    1    3    3    0  502  0.17911584857E+03  0.64810716464E+03 -0.15410222785E+03  0.68983657021E+03  0.12699999809E+01 0.  1.
</event>
<event>
 5   0  0.4086710E-04  0.1511909E+04  0.7818609E-02  0.8876572E-01
       -1   -1    0    0    0  501  0.00000000000E+00  0.00000000000E+00  0.64854734163E+03  0.64854734165E+03  0.50400001928E-02 0.  1.
        1   -1    0    0  501    0  0.00000000000E+00  0.00000000000E+00 -0.88114972150E+03  0.88114972151E+03  0.50400001928E-02 0. -1.
    10030    2    1    2    0    0  0.00000000000E+00  0.00000000000E+00 -0.23260237986E+03  0.15296970632E+04  0.15119091368E+04 0.  0.
        3    1    3    3  502    0 -0.15081964827E+03 -0.73421416028E+03 -0.16909484024E+02  0.74973524681E+03  0.10100000352E+00 0.  1.
       -3    1    3    3    0  502  0.15081964827E+03  0.73421416028E+03 -0.21569289584E+03  0.77996181635E+03  0.10100000352E+00 0. -1.
</event>
<event>
 5   0  0.7547580E-04  0.1480020E+04  0.7818609E-02  0.8897849E-01
        2   -1    0    0  501    0  0.00000000000E+00  0.00000000000E+00  0.15951153812E+04  0.15951153812E+04  0.25500000920E-02 0. -1.
       -2   -1    0    0    0  501  0.00000000000E+00  0.00000000000E+00 -0.34330745880E+03  0.34330745881E+03  0.25500000920E-02 0.  1.
    10030    2    1    2    0    0  0.00000000000E+00  0.00000000000E+00  0.12518079224E+04  0.19384228400E+04  0.14800202810E+04 0.  0.
        4    1    3    3  502    0  0.83559770306E+02 -0.12450421700E+02 -0.33696928005E+03  0.34740057111E+03  0.12699999809E+01 0.  1.
       -4    1    3    3    0  502 -0.83559770306E+02  0.12450421700E+02  0.15887772024E+04  0.15910222689E+04  0.12699999809E+01 0. -1.
</event>
<event>
 5   0  0.7454828E-04  0.1545784E+04  0.7818609E-02  0.8854565E-01
       -2   -1    0    0    0  501  0.00000000000E+00  0.00000000000E+00  0.39504057980E+03  0.39504057981E+03  0.25500000920E-02 0.  1.
        2   -1    0    0  501    0  0.00000000000E+00  0.00000000000E+00 -0.15121539739E+04  0.15121539739E+04  0.25500000920E-02 0. -1.
    10030    2    1    2    0    0  0.00000000000E+00  0.00000000000E+00 -0.11171133941E+04  0.19071945537E+04  0.15457841798E+04 0.  0.
        3    1    3    3  502    0 -0.53202429974E+02 -0.62739417155E+03 -0.55313963630E+01  0.62967019272E+03  0.10100000352E+00 0.  1.
       -3    1    3    3    0  502  0.53202429974E+02  0.62739417155E+03 -0.11115819977E+04  0.12775243610E+04  0.10100000352E+00 0. -1.
</event>
<event>
 5   0  0.7634227E-04  0.1495745E+04  0.7818609E-02  0.8887288E-01
       -2   -1    0    0    0  501  0.00000000000E+00  0.00000000000E+00  0.61885940259E+03  0.61885940259E+03  0.25500000920E-02 0. -1.
        2   -1    0    0  501    0  0.00000000000E+00  0.00000000000E+00 -0.90378027745E+03  0.90378027746E+03  0.25500000920E-02 0.  1.
    10030    2    1    2    0    0  0.00000000000E+00  0.00000000000E+00 -0.28492087487E+03  0.15226396801E+04  0.14957445271E+04 0.  0.
        2    1    3    3  502    0 -0.37711211944E+03  0.41356943052E+03 -0.64742391059E+03  0.85581011007E+03  0.25500000920E-02 0.  1.
       -2    1    3    3    0  502  0.37711211944E+03 -0.41356943052E+03  0.36250303572E+03  0.66682956998E+03  0.25500000920E-02 0. -1.
</event>
<event>
 5   0  0.7634227E-04  0.1495052E+04  0.7818609E-02  0.8887750E-01
        2   -1    0    0  501    0  0.00000000000E+00  0.00000000000E+00  0.10121641257E+04  0.10121641257E+04  0.25500000920E-02 0. -1.
       -2   -1    0    0    0  501  0.00000000000E+00  0.00000000000E+00 -0.55207957898E+03  0.55207957899E+03  0.25500000920E-02 0.  1.
    10030    2    1    2    0    0  0.00000000000E+00  0.00000000000E+00  0.46008454669E+03  0.15642437047E+04  0.14950520317E+04 0.  0.
        2    1    3    3  502    0  0.14562161870E+03  0.43220356095E+03  0.84972793085E+03  0.96438743791E+03  0.25500000920E-02 0. -1.
       -2    1    3    3    0  502 -0.14562161870E+03 -0.43220356095E+03 -0.38964338416E+03  0.59985626675E+03  0.25500000920E-02 0.  1.
</event>
<event>
 5   0  0.7547580E-04  0.1525891E+04  0.7818609E-02  0.8867416E-01
       -2   -1    0    0    0  501  0.00000000000E+00  0.00000000000E+00  0.25983502483E+03  0.25983502485E+03  0.25500000920E-02 0.  1.
        2   -1    0    0  501    0  0.00000000000E+00  0.00000000000E+00 -0.22402134633E+04  0.22402134633E+04  0.25500000920E-02 0. -1.
    10030    2    1    2    0    0  0.00000000000E+00  0.00000000000E+00 -0.19803784385E+04  0.25000484881E+04  0.15258911113E+04 0.  0.
        4    1    3    3  502    0  0.39159832805E+03  0.50255932058E+03 -0.30250372525E+03  0.70528379956E+03  0.12699999809E+01 0.  1.
       -4    1    3    3    0  502 -0.39159832805E+03 -0.50255932058E+03 -0.16778747132E+04  0.17947646886E+04  0.12699999809E+01 0. -1.
</event>
<event>
 5   0  0.7672251E-04  0.1503322E+04  0.7818609E-02  0.8882247E-01
        2   -1    0    0  501    0  0.00000000000E+00  0.00000000000E+00  0.96969437353E+03  0.96969437354E+03  0.25500000920E-02 0.  1.
       -2   -1    0    0    0  501  0.00000000000E+00  0.00000000000E+00 -0.58265197215E+03  0.58265197216E+03  0.25500000920E-02 0. -1.
    10030    2    1    2    0    0  0.00000000000E+00  0.00000000000E+00  0.38704240138E+03  0.15523463457E+04  0.15033221067E+04 0.  0.
        5    1    3    3  502    0  0.50818612073E+03 -0.42523759064E+03 -0.17286223547E+03  0.68482376145E+03  0.46999998093E+01 0.  1.
       -5    1    3    3    0  502 -0.50818612073E+03  0.42523759064E+03  0.55990463686E+03  0.86752258424E+03  0.46999998093E+01 0. -1.
</event>
<event>
 5   0  0.7672251E-04  0.1488222E+04  0.7818609E-02  0.8892323E-01
        2   -1    0    0  501    0  0.00000000000E+00  0.00000000000E+00  0.27190028870E+04  0.27190028870E+04  0.25500000920E-02 0. -1.
       -2   -1    0    0    0  501  0.00000000000E+00  0.00000000000E+00 -0.20364120857E+03  0.20364120858E+03  0.25500000920E-02 0.  1.
    10030    2    1    2    0    0  0.00000000000E+00  0.00000000000E+00  0.25153616785E+04  0.29226440956E+04  0.14882218034E+04 0.  0.
        5    1    3    3  502    0  0.51201863051E+03 -0.27568703988E+03  0.34599643790E+03  0.67668459934E+03  0.46999998093E+01 0. -1.
       -5    1    3    3    0  502 -0.51201863051E+03  0.27568703988E+03  0.21693652406E+04  0.22459594963E+04  0.46999998093E+01 0.  1.
</event>
<event>
 5   0  0.7454828E-04  0.1278785E+04  0.7818609E-02  0.9046560E-01
       -2   -1    0    0    0  501  0.00000000000E+00  0.00000000000E+00  0.33563153610E+03  0.33563153611E+03  0.25500000920E-02 0. -1.
        2   -1    0    0  501    0  0.00000000000E+00  0.00000000000E+00 -0.12180706459E+04  0.12180706460E+04  0.25500000920E-02 0.  1.
    10030    2    1    2    0    0  0.00000000000E+00  0.00000000000E+00 -0.88243910985E+03  0.15537021821E+04  0.12787852392E+04 0.  0.
        3    1    3    3  502    0 -0.19404153090E+03 -0.19722604742E+02 -0.11810451873E+04  0.11970417041E+04  0.10100000352E+00 0.  1.
       -3    1    3    3    0  502  0.19404153090E+03  0.19722604742E+02  0.29860607742E+03  0.35666047794E+03  0.10100000352E+00 0. -1.
</event>
<event>
 5   0  0.4084462E-04  0.1511486E+04  0.7818609E-02  0.8876851E-01
        1   -1    0    0  501    0  0.00000000000E+00  0.00000000000E+00  0.18730007142E+04  0.18730007142E+04  0.50400001928E-02 0. -1.
       -1   -1    0    0    0  501  0.00000000000E+00  0.00000000000E+00 -0.30493714699E+03  0.30493714703E+03  0.50400001928E-02 0.  1.
    10030    2    1    2    0    0  0.00000000000E+00  0.00000000000E+00  0.15680635673E+04  0.21779378613E+04  0.15114860160E+04 0.  0.
        1    1    3    3  502    0  0.19769870396E+03  0.60389435556E+02 -0.26340847491E+03  0.33483680525E+03  0.50400001928E-02 0.  1.
       -1    1    3    3    0  502 -0.19769870396E+03 -0.60389435556E+02  0.18314720422E+04  0.18431010560E+04  0.50400001928E-02 0. -1.
</event>
<event>
 5   0  0.4084462E-04  0.1501457E+04  0.7818609E-02  0.8883484E-01
       -1   -1    0    0    0  501  0.00000000000E+00  0.00000000000E+00  0.38215726430E+03  0.38215726433E+03  0.50400001928E-02 0.  1.
        1   -1    0    0  501    0  0.00000000000E+00  0.00000000000E+00 -0.14747689124E+04  0.14747689124E+04  0.50400001928E-02 0. -1.
    10030    2    1    2    0    0  0.00000000000E+00  0.00000000000E+00 -0.10926116481E+04  0.18569261768E+04  0.15014574960E+04 0.  0.
        1    1    3    3  502    0  0.49152625317E+02 -0.23588454259E+03  0.33303595240E+03  0.41106014600E+03  0.50400001928E-02 0.  1.
       -1    1    3    3    0  502 -0.49152625317E+02  0.23588454259E+03 -0.14256476005E+04  0.14458660308E+04  0.50400001928E-02 0. -1.
</event>
<event>
 5   0  0.7634227E-04  0.1495974E+04  0.7818609E-02  0.8887135E-01
       -2   -1    0    0    0  501  0.00000000000E+00  0.00000000000E+00  0.45411905461E+03  0.45411905461E+03  0.25500000920E-02 0.  1.
        2   -1    0    0  501    0  0.00000000000E+00  0.00000000000E+00 -0.12320216976E+04  0.12320216976E+04  0.25500000920E-02 0. -1.
    10030    2    1    2    0    0  0.00000000000E+00  0.00000000000E+00 -0.77790264304E+03  0.16861407523E+04  0.14959739685E+04 0.  0.
        2    1    3    3  502    0 -0.36699857946E+03 -0.79479036619E+02 -0.11180846707E+04  0.11794567417E+04  0.25500000920E-02 0. -1.
       -2    1    3    3    0  502  0.36699857946E+03  0.79479036619E+02  0.34018202770E+03  0.50668401056E+03  0.25500000920E-02 0.  1.
</event>
<event>
 5   0  0.7547580E-04  0.1504384E+04  0.7818609E-02  0.8881543E-01
        2   -1    0    0  501    0  0.00000000000E+00  0.00000000000E+00  0.15167541424E+04  0.15167541424E+04  0.25500000920E-02 0. -1.
       -2   -1    0    0    0  501  0.00000000000E+00  0.00000000000E+00 -0.37302884919E+03  0.37302884920E+03  0.25500000920E-02 0.  1.
    10030    2    1    2    0    0  0.00000000000E+00  0.00000000000E+00  0.11437252932E+04  0.18897829916E+04  0.15043843289E+04 0.  0.
        4    1    3    3  502    0  0.63239509220E+03 -0.39603699482E+03  0.45254116502E+03  0.87267632765E+03  0.12699999809E+01 0.  1.
       -4    1    3    3    0  502 -0.63239509220E+03  0.39603699482E+03  0.69118412820E+03  0.10171066640E+04  0.12699999809E+01 0. -1.
</event>
<event>
 5   0  0.3907345E-04  0.1503765E+04  0.7818609E-02  0.8881953E-01
        1   -1    0    0  501    0  0.00000000000E+00  0.00000000000E+00  0.12808624798E+04  0.12808624798E+04  0.50400001928E-02 0. -1.
       -1   -1    0    0    0  501  0.00000000000E+00  0.00000000000E+00 -0.44136443344E+03  0.44136443347E+03  0.50400001928E-02 0.  1.
    10030    2    1    2    0    0  0.00000000000E+00  0.00000000000E+00  0.83949804635E+03  0.17222269133E+04  0.15037647991E+04 0.  0.
        5    1    3    3  502    0 -0.48717426867E+03  0.50852130955E+03  0.72139928001E+03  0.10081526182E+04  0.46999998093E+01 0. -1.
       -5    1    3    3    0  502  0.48717426867E+03 -0.50852130955E+03  0.11809876634E+03  0.71407429511E+03  0.46999998093E+01 0.  1.
</event>
<event>
 5   0  0.2800375E-04  0.1519370E+04  0.7818609E-02  0.8871673E-01
        3   -1    0    0  501    0  0.00000000000E+00  0.00000000000E+00  0.11229072334E+04  0.11229072379E+04  0.10100000352E+00 0. -1.
       -3   -1    0    0    0  501  0.00000000000E+00  0.00000000000E+00 -0.51395284330E+03  0.51395285322E+03  0.10100000352E+00 0.  1.
    10030    2    1    2    0    0  0.00000000000E+00  0.00000000000E+00  0.60895439010E+03  0.16368600912E+04  0.15193701026E+04 0.  0.
        3    1    3    3  502    0  0.38418716861E+02 -0.64752052037E+03 -0.12152746409E+03  0.65994526806E+03  0.10100000352E+00 0.  1.
       -3    1    3    3    0  502 -0.38418716861E+02  0.64752052037E+03  0.73048185419E+03  0.97691482311E+03  0.10100000352E+00 0. -1.
</event>
<event>
 5   0  0.7359897E-04  0.1509502E+04  0.7818609E-02  0.8878159E-01
       -2   -1    0    0    0  501  0.00000000000E+00  0.00000000000E+00  0.36931227689E+03  0.36931227690E+03  0.25500000920E-02 0.  1.
        2   -1    0    0  501    0  0.00000000000E+00  0.00000000000E+00 -0.15424592936E+04  0.15424592936E+04  0.25500000920E-02 0. -1.
    10030    2    1    2    0    0  0.00000000000E+00  0.00000000000E+00 -0.11731470167E+04  0.19117715705E+04  0.15095021083E+04 0.  0.
        1    1    3    3  502    0  0.70153881391E+03 -0.27835937450E+03 -0.59026700655E+03  0.95815227800E+03  0.50400001928E-02 0.  1.
       -1    1    3    3    0  502 -0.70153881391E+03  0.27835937450E+03 -0.58288001017E+03  0.95361929252E+03  0.50400001928E-02 0. -1.
</event>
<event>
 5   0  0.3907345E-04  0.1507338E+04  0.7818609E-02  0.8879588E-01
       -1   -1    0    0    0  501  0.00000000000E+00  0.00000000000E+00  0.51088869406E+03  0.51088869408E+03  0.50400001928E-02 0. -1.
        1   -1    0    0  501    0  0.00000000000E+00  0.00000000000E+00 -0.11118213901E+04  0.11118213901E+04  0.50400001928E-02 0.  1.
    10030    2    1    2    0    0  0.00000000000E+00  0.00000000000E+00 -0.60093269607E+03  0.16227100842E+04  0.15073380219E+04 0.  0.
        5    1    3    3  502    0 -0.12395128251E+03  0.49077068551E+03 -0.90157225511E+03  0.10339605444E+04  0.46999998093E+01 0. -1.
       -5    1    3    3    0  502  0.12395128251E+03 -0.49077068551E+03  0.30063955904E+03  0.58874953983E+03  0.46999998093E+01 0.  1.
</event>
<event>
 5   0  0.4058874E-04  0.1501376E+04  0.7818609E-02  0.8883538E-01
        1   -1    0    0  501    0  0.00000000000E+00  0.00000000000E+00  0.24129122324E+04  0.24129122325E+04  0.50400001928E-02 0.  1.
       -1   -1    0    0    0  501  0.00000000000E+00  0.00000000000E+00 -0.23354876980E+03  0.23354876986E+03  0.50400001928E-02 0. -1.
    10030    2    1    2    0    0  0.00000000000E+00  0.00000000000E+00  0.21793634626E+04  0.26464610023E+04  0.15013762801E+04 0.  0.
        4    1    3    3  502    0  0.43994042933E+03  0.43115215605E+03  0.33338436193E+03  0.70041880950E+03  0.12699999809E+01 0. -1.
       -4    1    3    3    0  502 -0.43994042933E+03 -0.43115215605E+03  0.18459791007E+04  0.19460421928E+04  0.12699999809E+01 0.  1.
</event>
<event>
 5   0  0.4084462E-04  0.1498672E+04  0.7818609E-02  0.8885336E-01
        1   -1    0    0  501    0  0.00000000000E+00  0.00000000000E+00  0.10098706383E+04  0.10098706383E+04  0.50400001928E-02 0.  1.
       -1   -1    0    0    0  501  0.00000000000E+00  0.00000000000E+00 -0.55601645307E+03  0.55601645310E+03  0.50400001928E-02 0. -1.
    10030    2    1    2    0    0  0.00000000000E+00  0.00000000000E+00  0.45385418521E+03  0.15658870914E+04  0.14986723330E+04 0.  0.
        1    1    3    3  502    0  0.65811433075E+03  0.29408546907E+03  0.44081255205E+03  0.84493576178E+03  0.50400001928E-02 0.  1.
       -1    1    3    3    0  502 -0.65811433075E+03 -0.29408546907E+03  0.13041633159E+02  0.72095132962E+03  0.50400001928E-02 0. -1.
</event>
<event>
 5   0  0.4084462E-04  0.1497040E+04  0.7818609E-02  0.8886424E-01
        1   -1    0    0  501    0  0.00000000000E+00  0.00000000000E+00  0.84621382177E+03  0.84621382179E+03  0.50400001928E-02 0. -1.
       -1   -1    0    0    0  501  0.00000000000E+00  0.00000000000E+00 -0.66210432964E+03  0.66210432966E+03  0.50400001928E-02 0.  1.
    10030    2    1    2    0    0  0.00000000000E+00  0.00000000000E+00  0.18410949213E+03  0.15083181514E+04  0.14970395255E+04 0.  0.
        1    1    3    3  502    0 -0.35988522383E+03 -0.10894937697E+03 -0.56004197522E+03  0.67456234338E+03  0.50400001928E-02 0.  1.
       -1    1    3    3    0  502  0.35988522383E+03  0.10894937697E+03  0.74415146736E+03  0.83375580806E+03  0.50400001928E-02 0. -1.
</event>
<event>
 5   0  0.4084462E-04  0.1498308E+04  0.7818609E-02  0.8885579E-01
        1   -1    0    0  501    0  0.00000000000E+00  0.00000000000E+00  0.18532235495E+04  0.18532235495E+04  0.50400001928E-02 0.  1.
       -1   -1    0    0    0  501  0.00000000000E+00  0.00000000000E+00 -0.30284061729E+03  0.30284061733E+03  0.50400001928E-02 0. -1.
    10030    2    1    2    0    0  0.00000000000E+00  0.00000000000E+00  0.15503829322E+04  0.21560641668E+04  0.14983075302E+04 0.  0.
        1    1    3    3  502    0 -0.39627385552E+03 -0.46071926006E+03  0.14475820386E+03  0.62470004224E+03  0.50400001928E-02 0. -1.
       -1    1    3    3    0  502  0.39627385552E+03  0.46071926006E+03  0.14056247283E+04  0.15313641246E+04  0.50400001928E-02 0.  1.
</event>
<event>
 5   0  0.4015204E-04  0.1491128E+04  0.7818609E-02  0.8890375E-01
        1   -1    0    0  501    0  0.00000000000E+00  0.00000000000E+00  0.10492900424E+04  0.10492900425E+04  0.50400001928E-02 0.  1.
       -1   -1    0    0    0  501  0.00000000000E+00  0.00000000000E+00 -0.52975375665E+03  0.52975375667E+03  0.50400001928E-02 0. -1.
    10030    2    1    2    0    0  0.00000000000E+00  0.00000000000E+00  0.51953628579E+03  0.15790437991E+04  0.14911275490E+04 0.  0.
        2    1    3    3  502    0  0.39609125600E+03  0.52000991149E+03 -0.11993458437E+03  0.66459227777E+03  0.25500000920E-02 0. -1.
       -2    1    3    3    0  502 -0.39609125600E+03 -0.52000991149E+03  0.63947087016E+03  0.91445152136E+03  0.25500000920E-02 0.  1.
</event>
<event>
 5   0  0.3907345E-04  0.1556425E+04  0.7818609E-02  0.8847774E-01
       -1   -1    0    0    0  501  0.00000000000E+00  0.00000000000E+00  0.84512905105E+03  0.84512905106E+03  0.50400001928E-02 0.  1.
        1   -1    0    0  501    0  0.00000000000E+00  0.00000000000E+00 -0.71659397331E+03  0.71659397333E+03  0.50400001928E-02 0. -1.
    10030    2    1    2    0    0  0.00000000000E+00  0.00000000000E+00  0.12853507773E+03  0.15617230244E+04  0.15564246010E+04 0.  0.
        5    1    3    3  502    0  0.70695937165E+03  0.21320086879E+03  0.31075829793E+03  0.80114853389E+03  0.46999998093E+01 0.  1.
       -5    1    3    3    0  502 -0.70695937165E+03 -0.21320086879E+03 -0.18222322020E+03  0.76057449050E+03  0.46999998093E+01 0. -1.
</event>
<event>
 5   0  0.7454828E-04  0.1499610E+04  0.7818609E-02  0.8884712E-01
       -2   -1    0    0    0  501  0.00000000000E+00  0.00000000000E+00  0.61909101452E+03  0.61909101453E+03  0.25500000920E-02 0. -1.
        2   -1    0    0  501    0  0.00000000000E+00  0.00000000000E+00 -0.90811752730E+03  0.90811752730E+03  0.25500000920E-02 0.  1.
    10030    2    1    2    0    0  0.00000000000E+00  0.00000000000E+00 -0.28902651278E+03  0.15272085418E+04  0.14996098176E+04 0.  0.
        3    1    3    3  502    0  0.65314807990E+03 -0.34573041484E+03 -0.27363569941E+03  0.78804088740E+03  0.10100000352E+00 0.  1.
       -3    1    3    3    0  502 -0.65314807990E+03  0.34573041484E+03 -0.15390813372E+02  0.73916765443E+03  0.10100000352E+00 0. -1.
</event>
<event>
 5   0  0.4086710E-04  0.1488224E+04  0.7818609E-02  0.8892322E-01
        1   -1    0    0  501    0  0.00000000000E+00  0.00000000000E+00  0.24491426008E+03  0.24491426013E+03  0.50400001928E-02 0. -1.
       -1   -1    0    0    0  501  0.00000000000E+00  0.00000000000E+00 -0.22608021338E+04  0.22608021338E+04  0.50400001928E-02 0.  1.
    10030    2    1    2    0    0  0.00000000000E+00  0.00000000000E+00 -0.20158878737E+04  0.25057163940E+04  0.14882240179E+04 0.  0.
        3    1    3    3  502    0  0.48839108931E+03  0.36802131078E+03 -0.29413413543E+03  0.67858709178E+03  0.10100000352E+00 0. -1.
       -3    1    3    3    0  502 -0.48839108931E+03 -0.36802131078E+03 -0.17217537383E+04  0.18271293022E+04  0.10100000352E+00 0.  1.
</event>
<event>
 5   0  0.4015204E-04  0.1505677E+04  0.7818609E-02  0.8880687E-01
       -1   -1    0    0    0  501  0.00000000000E+00  0.00000000000E+00  0.43583485422E+03  0.43583485425E+03  0.50400001928E-02 0.  1.
        1   -1    0    0  501    0  0.00000000000E+00  0.00000000000E+00 -0.13004134896E+04  0.13004134896E+04  0.50400001928E-02 0. -1.
    10030    2    1    2    0    0  0.00000000000E+00  0.00000000000E+00 -0.86457863539E+03  0.17362483439E+04  0.15056766236E+04 0.  0.
        2    1    3    3  502    0 -0.59271676956E+03  0.46120927201E+03 -0.37194650059E+03  0.83807598750E+03  0.25500000920E-02 0. -1.
       -2    1    3    3    0  502  0.59271676956E+03 -0.46120927201E+03 -0.49263213480E+03  0.89817235637E+03  0.25500000920E-02 0.  1.
</event>
<event>
 5   0  0.7672251E-04  0.1494274E+04  0.7818609E-02  0.8888269E-01
        2   -1    0    0  501    0  0.00000000000E+00  0.00000000000E+00  0.17988670662E+04  0.17988670662E+04  0.25500000920E-02 0.  1.
       -2   -1    0    0    0  501  0.00000000000E+00  0.00000000000E+00 -0.31031422443E+03  0.31031422444E+03  0.25500000920E-02 0. -1.
    10030    2    1    2    0    0  0.00000000000E+00  0.00000000000E+00  0.14885528418E+04  0.21091812907E+04  0.14942744574E+04 0.  0.
        5    1    3    3  502    0  0.34216011994E+03 -0.19084960304E+03  0.16422165187E+04  0.16883110800E+04  0.46999998093E+01 0.  1.
       -5    1    3    3    0  502 -0.34216011994E+03  0.19084960304E+03 -0.15366367686E+03  0.42087021069E+03  0.46999998093E+01 0. -1.
</event>
<event>
 5   0  0.7454828E-04  0.1515338E+04  0.7818609E-02  0.8874317E-01
        2   -1    0    0  501    0  0.00000000000E+00  0.00000000000E+00  0.11302052756E+04  0.11302052756E+04  0.25500000920E-02 0. -1.
       -2   -1    0    0    0  501  0.00000000000E+00  0.00000000000E+00 -0.50792772029E+03  0.50792772029E+03  0.25500000920E-02 0.  1.
    10030    2    1    2    0    0  0.00000000000E+00  0.00000000000E+00  0.62227755534E+03  0.16381329959E+04  0.15153383637E+04 0.  0.
        3    1    3    3  502    0 -0.60600279101E+03  0.39773616262E+03  0.72748884230E+02  0.72850933290E+03  0.10100000352E+00 0.  1.
       -3    1    3    3    0  502  0.60600279101E+03 -0.39773616262E+03  0.54952867111E+03  0.90962366302E+03  0.10100000352E+00 0. -1.
</event>
<event>
 5   0  0.4084462E-04  0.1502297E+04  0.7818609E-02  0.8882927E-01
       -1   -1    0    0    0  501  0.00000000000E+00  0.00000000000E+00  0.10657892869E+04  0.10657892869E+04  0.50400001928E-02 0. -1.
        1   -1    0    0  501    0  0.00000000000E+00  0.00000000000E+00 -0.52939545567E+03  0.52939545569E+03  0.50400001928E-02 0.  1.
    10030    2    1    2    0    0  0.00000000000E+00  0.00000000000E+00  0.53639383124E+03  0.15951847426E+04  0.15022969150E+04 0.  0.
        1    1    3    3  502    0  0.46262734820E+03 -0.55988061178E+03  0.64686234009E+02  0.72916025100E+03  0.50400001928E-02 0.  1.
       -1    1    3    3    0  502 -0.46262734820E+03  0.55988061178E+03  0.47170759724E+03  0.86602449161E+03  0.50400001928E-02 0. -1.
</event>
<event>
 5   0  0.7547580E-04  0.1485358E+04  0.7818609E-02  0.8894248E-01
       -2   -1    0    0    0  501  0.00000000000E+00  0.00000000000E+00  0.65505617762E+03  0.65505617762E+03  0.25500000920E-02 0. -1.
        2   -1    0    0  501    0  0.00000000000E+00  0.00000000000E+00 -0.84202280772E+03  0.84202280773E+03  0.25500000920E-02 0.  1.
    10030    2    1    2    0    0  0.00000000000E+00  0.00000000000E+00 -0.18696663010E+03  0.14970789854E+04  0.14853581951E+04 0.  0.
        4    1    3    3  502    0  0.63541488134E+03 -0.29564235145E+03 -0.34121575472E+03  0.77947820724E+03  0.12699999809E+01 0.  1.
       -4    1    3    3    0  502 -0.63541488134E+03  0.29564235145E+03  0.15424912462E+03  0.71760077811E+03  0.12699999809E+01 0. -1.
</event>
<event>
 5   0  0.7359897E-04  0.1501214E+04  0.7818609E-02  0.8883646E-01
        2   -1    0    0  501    0  0.00000000000E+00  0.00000000000E+00  0.96236964951E+03  0.96236964952E+03  0.25500000920E-02 0.  1.
       -2   -1    0    0    0  501  0.00000000000E+00  0.00000000000E+00 -0.58544094181E+03  0.58544094182E+03  0.25500000920E-02 0. -1.
    10030    2    1    2    0    0  0.00000000000E+00  0.00000000000E+00  0.37692870770E+03  0.15478105913E+04  0.15012136344E+04 0.  0.
        1    1    3    3  502    0 -0.60703725203E+02  0.28531829119E+03  0.90153767272E+03  0.94755561573E+03  0.50400001928E-02 0.  1.
       -1    1    3    3    0  502  0.60703725203E+02 -0.28531829119E+03 -0.52460896502E+03  0.60025497561E+03  0.50400001928E-02 0. -1.
</event>
<event>
 5   0  0.7454828E-04  0.1498659E+04  0.7818609E-02  0.8885345E-01
        2   -1    0    0  501    0  0.00000000000E+00  0.00000000000E+00  0.25368146807E+04  0.25368146807E+04  0.25500000920E-02 0. -1.
       -2   -1    0    0    0  501  0.00000000000E+00  0.00000000000E+00 -0.22133853007E+03  0.22133853008E+03  0.25500000920E-02 0.  1.
    10030    2    1    2    0    0  0.00000000000E+00  0.00000000000E+00  0.23154761507E+04  0.27581532108E+04  0.14986591774E+04 0.  0.
        3    1    3    3  502    0  0.78713750987E+02 -0.72510189420E+03  0.84149620719E+03  0.11135908084E+04  0.10100000352E+00 0.  1.
       -3    1    3    3    0  502 -0.78713750987E+02  0.72510189420E+03  0.14739799435E+04  0.16445624025E+04  0.10100000352E+00 0. -1.
</event>
<event>
 5   0  0.3907345E-04  0.1502727E+04  0.7818609E-02  0.8882641E-01
       -1   -1    0    0    0  501  0.00000000000E+00  0.00000000000E+00  0.10994095677E+04  0.10994095677E+04  0.50400001928E-02 0.  1.
        1   -1    0    0  501    0  0.00000000000E+00  0.00000000000E+00 -0.51350031369E+03  0.51350031372E+03  0.50400001928E-02 0. -1.
    10030    2    1    2    0    0  0.00000000000E+00  0.00000000000E+00  0.58590925402E+03  0.16129098814E+04  0.15027270649E+04 0.  0.
        5    1    3    3  502    0 -0.63903876337E+03 -0.38818187445E+03  0.21357698068E+03  0.77762003923E+03  0.46999998093E+01 0.  1.
       -5    1    3    3    0  502  0.63903876337E+03  0.38818187445E+03  0.37233227334E+03  0.83528984221E+03  0.46999998093E+01 0. -1.
</event>
<event>
 5   0  0.4015204E-04  0.1495409E+04  0.7818609E-02  0.8887512E-01
       -1   -1    0    0    0  501  0.00000000000E+00  0.00000000000E+00  0.54311928502E+03  0.54311928504E+03  0.50400001928E-02 0.  1.
        1   -1    0    0  501    0  0.00000000000E+00  0.00000000000E+00 -0.10293537056E+04  0.10293537056E+04  0.50400001928E-02 0. -1.
    10030    2    1    2    0    0  0.00000000000E+00  0.00000000000E+00 -0.48623442056E+03  0.15724729906E+04  0.14954087717E+04 0.  0.
        2    1    3    3  502    0  0.16162129137E+02  0.88021409963E+02 -0.10237016745E+04  0.10276060049E+04  0.25500000920E-02 0. -1.
       -2    1    3    3    0  502 -0.16162129137E+02 -0.88021409963E+02  0.53746725394E+03  0.54486698569E+03  0.25500000920E-02 0.  1.
</event>
<event>
 5   0  0.4084462E-04  0.1501078E+04  0.7818609E-02  0.8883737E-01
        1   -1    0    0  501    0  0.00000000000E+00  0.00000000000E+00  0.38399050433E+03  0.38399050437E+03  0.50400001928E-02 0. -1.
       -1   -1    0    0    0  501  0.00000000000E+00  0.00000000000E+00 -0.14669853686E+04  0.14669853686E+04  0.50400001928E-02 0.  1.
    10030    2    1    2    0    0  0.00000000000E+00  0.00000000000E+00 -0.10829948642E+04  0.18509758729E+04  0.15010775484E+04 0.  0.
        1    1    3    3  502    0  0.32632176082E+03 -0.43408656157E+03 -0.11803224859E+04  0.12992606380E+04  0.50400001928E-02 0.  1.
       -1    1    3    3    0  502 -0.32632176082E+03  0.43408656157E+03  0.97327621718E+02  0.55171523497E+03  0.50400001928E-02 0. -1.
</event>
<event>
 5   0  0.7634227E-04  0.1508914E+04  0.7818609E-02  0.8878547E-01
        2   -1    0    0  501    0  0.00000000000E+00  0.00000000000E+00  0.74617625091E+03  0.74617625091E+03  0.25500000920E-02 0. -1.
       -2   -1    0    0    0  501  0.00000000000E+00  0.00000000000E+00 -0.76282932276E+03  0.76282932277E+03  0.25500000920E-02 0.  1.
    10030    2    1    2    0    0  0.00000000000E+00  0.00000000000E+00 -0.16653071853E+02  0.15090055737E+04  0.15089136810E+04 0.  0.
        2    1    3    3  502    0 -0.94267912531E+02 -0.21569711373E+03 -0.72516405015E+03  0.76241365665E+03  0.25500000920E-02 0.  1.
       -2    1    3    3    0  502  0.94267912531E+02  0.21569711373E+03  0.70851097830E+03  0.74659191703E+03  0.25500000920E-02 0. -1.
</event>
<event>
 5   0  0.7547580E-04  0.1490204E+04  0.7818609E-02  0.8890993E-01
        2   -1    0    0  501    0  0.00000000000E+00  0.00000000000E+00  0.21830758974E+04  0.21830758974E+04  0.25500000920E-02 0. -1.
       -2   -1    0    0    0  501  0.00000000000E+00  0.00000000000E+00 -0.25430946791E+03  0.25430946792E+03  0.25500000920E-02 0.  1.
    10030    2    1    2    0    0  0.00000000000E+00  0.00000000000E+00  0.19287664295E+04  0.24373853654E+04  0.14902038383E+04 0.  0.
        4    1    3    3  502    0 -0.31816069845E+03  0.27061912971E+02 -0.13672870500E+03  0.34735418357E+03  0.12699999809E+01 0.  1.
       -4    1    3    3    0  502  0.31816069845E+03 -0.27061912971E+02  0.20654951345E+04  0.20900311818E+04  0.12699999809E+01 0. -1.
</event>
<event>
 5   0  0.4015204E-04  0.1484277E+04  0.7818609E-02  0.8894977E-01
        1   -1    0    0  501    0  0.00000000000E+00  0.00000000000E+00  0.77723223136E+03  0.77723223137E+03  0.50400001928E-02 0.  1.
       -1   -1    0    0    0  501  0.00000000000E+00  0.00000000000E+00 -0.70862902633E+03  0.70862902634E+03  0.50400001928E-02 0. -1.
    10030    2    1    2    0    0  0.00000000000E+00  0.00000000000E+00  0.68603205030E+02  0.14858612577E+04  0.14842766849E+04 0.  0.
        2    1    3    3  502    0  0.21931866364E+02 -0.64113919502E+03 -0.33923056158E+03  0.72568439977E+03  0.25500000920E-02 0. -1.
       -2    1    3    3    0  502 -0.21931866364E+02  0.64113919502E+03  0.40783376661E+03  0.76017685794E+03  0.25500000920E-02 0.  1.
</event>
<event>
 5   0  0.3907345E-04  0.1497406E+04  0.7818609E-02  0.8886180E-01
       -1   -1    0    0    0  501  0.00000000000E+00  0.00000000000E+00  0.30298822290E+03  0.30298822294E+03  0.50400001928E-02 0.  1.
        1   -1    0    0  501    0  0.00000000000E+00  0.00000000000E+00 -0.18500918173E+04  0.18500918173E+04  0.50400001928E-02 0. -1.
    10030    2    1    2    0    0  0.00000000000E+00  0.00000000000E+00 -0.15471035944E+04  0.21530800402E+04  0.14974057993E+04 0.  0.
        5    1    3    3  502    0  0.50075323935E+03  0.49434751627E+03 -0.11412671455E+04  0.13407632382E+04  0.46999998093E+01 0. -1.
       -5    1    3    3    0  502 -0.50075323935E+03 -0.49434751627E+03 -0.40583644886E+03  0.81231680199E+03  0.46999998093E+01 0.  1.
</event>
<event>
 5   0  0.4015204E-04  0.1498170E+04  0.7818609E-02  0.8885671E-01
        1   -1    0    0  501    0  0.00000000000E+00  0.00000000000E+00  0.49598093963E+03  0.49598093966E+03  0.50400001928E-02 0. -1.
       -1   -1    0    0    0  501  0.00000000000E+00  0.00000000000E+00 -0.11313503238E+04  0.11313503238E+04  0.50400001928E-02 0.  1.
    10030    2    1    2    0    0  0.00000000000E+00  0.00000000000E+00 -0.63536938419E+03  0.16273312635E+04  0.14981698124E+04 0.  0.
        2    1    3    3  502    0  0.90745742084E+01 -0.67214433276E+03  0.41370420017E+02  0.67347744106E+03  0.25500000920E-02 0. -1.
       -2    1    3    3    0  502 -0.90745742084E+01  0.67214433276E+03 -0.67673980421E+03  0.95385382243E+03  0.25500000920E-02 0.  1.
</event>
<event>
 5   0  0.2800375E-04  0.1486727E+04  0.7818609E-02  0.8893328E-01
       -3   -1    0    0    0  501  0.00000000000E+00  0.00000000000E+00  0.89847994276E+03  0.89847994844E+03  0.10100000352E+00 0.  1.
        3   -1    0    0  501    0  0.00000000000E+00  0.00000000000E+00 -0.61502670837E+03  0.61502671667E+03  0.10100000352E+00 0. -1.
    10030    2    1    2    0    0  0.00000000000E+00  0.00000000000E+00  0.28345323439E+03  0.15135066651E+04  0.14867268375E+04 0.  0.
        3    1    3    3  502    0 -0.18104881469E+02 -0.70060301744E+03  0.39401468129E+03  0.80400245898E+03  0.10100000352E+00 0.  1.
       -3    1    3    3    0  502  0.18104881469E+02  0.70060301744E+03 -0.11056144690E+03  0.70950420613E+03  0.10100000352E+00 0. -1.
</event>
<event>
 5   0  0.7634227E-04  0.1501366E+04  0.7818609E-02  0.8883545E-01
       -2   -1    0    0    0  501  0.00000000000E+00  0.00000000000E+00  0.82438094455E+03  0.82438094456E+03  0.25500000920E-02 0.  1.
        2   -1    0    0  501    0  0.00000000000E+00  0.00000000000E+00 -0.68357371744E+03  0.68357371745E+03  0.25500000920E-02 0. -1.
    10030    2    1    2    0    0  0.00000000000E+00  0.00000000000E+00  0.14080722711E+03  0.15079546620E+04  0.15013662403E+04 0.  0.
        2    1    3    3  502    0  0.62627520606E+03  0.40912634779E+03  0.13328942738E+03  0.75984937563E+03  0.25500000920E-02 0.  1.
       -2    1    3    3    0  502 -0.62627520606E+03 -0.40912634779E+03  0.75177997341E+01  0.74810528638E+03  0.25500000920E-02 0. -1.
</event>
<event>
 5   0  0.7454828E-04  0.1495646E+04  0.7818609E-02  0.8887353E-01
       -2   -1    0    0    0  501  0.00000000000E+00  0.00000000000E+00  0.43658071807E+03  0.43658071808E+03  0.25500000920E-02 0.  1.
        2   -1    0    0  501    0  0.00000000000E+00  0.00000000000E+00 -0.12809527879E+04  0.12809527879E+04  0.25500000920E-02 0. -1.
    10030    2    1    2    0    0  0.00000000000E+00  0.00000000000E+00 -0.84437206979E+03  0.17175335059E+04  0.14956460650E+04 0.  0.
        3    1    3    3  502    0 -0.36569532658E+03  0.87630097536E+01 -0.11712003931E+04  0.12269964275E+04  0.10100000352E+00 0. -1.
       -3    1    3    3    0  502  0.36569532658E+03 -0.87630097536E+01  0.32682832327E+03  0.49053707843E+03  0.10100000352E+00 0.  1.
</event>
<event>
 5   0  0.7634227E-04  0.1490380E+04  0.7818609E-02  0.8890875E-01
        2   -1    0    0  501    0  0.00000000000E+00  0.00000000000E+00  0.19382317869E+04  0.19382317869E+04  0.25500000920E-02 0. -1.
       -2   -1    0    0    0  501  0.00000000000E+00  0.00000000000E+00 -0.28650245060E+03  0.28650245061E+03  0.25500000920E-02 0.  1.
    10030    2    1    2    0    0  0.00000000000E+00  0.00000000000E+00  0.16517293363E+04  0.22247342375E+04  0.14903800277E+04 0.  0.
        2    1    3    3  502    0  0.62919210191E+03 -0.19996179341E+02  0.14211355639E+04  0.15543194135E+04  0.25500000920E-02 0. -1.
       -2    1    3    3    0  502 -0.62919210191E+03  0.19996179341E+02  0.23059377237E+03  0.67041482394E+03  0.25500000920E-02 0.  1.
</event>
<event>
 5   0  0.4086710E-04  0.1501452E+04  0.7818609E-02  0.8883488E-01
       -1   -1    0    0    0  501  0.00000000000E+00  0.00000000000E+00  0.53349391423E+03  0.53349391426E+03  0.50400001928E-02 0.  1.
        1   -1    0    0  501    0  0.00000000000E+00  0.00000000000E+00 -0.10564119740E+04  0.10564119740E+04  0.50400001928E-02 0. -1.
    10030    2    1    2    0    0  0.00000000000E+00  0.00000000000E+00 -0.52291805977E+03  0.15899058883E+04  0.15014517762E+04 0.  0.
        3    1    3    3  502    0 -0.70766763288E+03  0.24185326280E+03 -0.33091972400E+03  0.81779847963E+03  0.10100000352E+00 0.  1.
       -3    1    3    3    0  502  0.70766763288E+03 -0.24185326280E+03 -0.19199833576E+03  0.77210740864E+03  0.10100000352E+00 0. -1.
</event>
<event>
 5   0  0.3907345E-04  0.1498532E+04  0.7818609E-02  0.8885430E-01
        1   -1    0    0  501    0  0.00000000000E+00  0.00000000000E+00  0.39743647022E+03  0.39743647025E+03  0.50400001928E-02 0. -1.
       -1   -1    0    0    0  501  0.00000000000E+00  0.00000000000E+00 -0.14125519721E+04  0.14125519721E+04  0.50400001928E-02 0.  1.
    10030    2    1    2    0    0  0.00000000000E+00  0.00000000000E+00 -0.10151155019E+04  0.18099884424E+04  0.14985321749E+04 0.  0.
        5    1    3    3  502    0  0.40441699567E+02  0.59499482723E+03 -0.10553947627E+04  0.12122436103E+04  0.46999998093E+01 0.  1.
       -5    1    3    3    0  502 -0.40441699567E+02 -0.59499482723E+03  0.40279260785E+02  0.59774483213E+03  0.46999998093E+01 0. -1.
</event>
<event>
 5   0  0.7672251E-04  0.1503499E+04  0.7818609E-02  0.8882129E-01
        2   -1    0    0  501    0  0.00000000000E+00  0.00000000000E+00  0.76301748080E+03  0.76301748081E+03  0.25500000920E-02 0. -1.
       -2   -1    0    0    0  501  0.00000000000E+00  0.00000000000E+00 -0.74064811802E+03  0.74064811803E+03  0.25500000920E-02 0.  1.
    10030    2    1    2    0    0  0.00000000000E+00  0.00000000000E+00  0.22369362783E+02  0.15036655988E+04  0.15034992001E+04 0.  0.
        5    1    3    3  502    0 -0.10999454989E+03  0.24142363285E+03  0.71462672704E+03  0.76229759314E+03  0.46999998093E+01 0. -1.
       -5    1    3    3    0  502  0.10999454989E+03 -0.24142363285E+03 -0.69225736426E+03  0.74136800570E+03  0.46999998093E+01 0.  1.
</event>
<event>
 5   0  0.3907345E-04  0.1491645E+04  0.7818609E-02  0.8890028E-01
        1   -1    0    0  501    0  0.00000000000E+00  0.00000000000E+00  0.94246782079E+03  0.94246782080E+03  0.50400001928E-02 0.  1.
       -1   -1    0    0    0  501  0.00000000000E+00  0.00000000000E+00 -0.59020693214E+03  0.59020693216E+03  0.50400001928E-02 0. -1.
    10030    2    1    2    0    0  0.00000000000E+00  0.00000000000E+00  0.35226088865E+03  0.15326747530E+04  0.14916447850E+04 0.  0.
        5    1    3    3  502    0 -0.18918814932E+03 -0.19915805377E+03  0.88858072741E+03  0.93008273038E+03  0.46999998093E+01 0.  1.
       -5    1    3    3    0  502  0.18918814932E+03  0.19915805377E+03 -0.53631983876E+03  0.60259202258E+03  0.46999998093E+01 0. -1.
</event>
<event>
 5   0  0.4015204E-04  0.1487902E+04  0.7818609E-02  0.8892538E-01
        1   -1    0    0  501    0  0.00000000000E+00  0.00000000000E+00  0.81612976242E+03  0.81612976244E+03  0.50400001928E-02 0.  1.
       -1   -1    0    0    0  501  0.00000000000E+00  0.00000000000E+00 -0.67815596117E+03  0.67815596118E+03  0.50400001928E-02 0. -1.
    10030    2    1    2    0    0  0.00000000000E+00  0.00000000000E+00  0.13797380126E+03  0.14942857236E+04  0.14879022327E+04 0.  0.
        2    1    3    3  502    0 -0.15287496310E+03  0.40732048000E+03  0.67505134955E+03  0.80310338830E+03  0.25500000920E-02 0.  1.
       -2    1    3    3    0  502  0.15287496310E+03 -0.40732048000E+03 -0.53707754829E+03  0.69118233532E+03  0.25500000920E-02 0. -1.
</event>
<event>
 5   0  0.7672251E-04  0.1498257E+04  0.7818609E-02  0.8885613E-01
       -2   -1    0    0    0  501  0.00000000000E+00  0.00000000000E+00  0.31039201741E+03  0.31039201742E+03  0.25500000920E-02 0. -1.
        2   -1    0    0  501    0  0.00000000000E+00  0.00000000000E+00 -0.18080162346E+04  0.18080162346E+04  0.25500000920E-02 0.  1.
    10030    2    1    2    0    0  0.00000000000E+00  0.00000000000E+00 -0.14976242172E+04  0.21184082520E+04  0.14982573965E+04 0.  0.
        5    1    3    3  502    0 -0.37587332334E+03 -0.56951866606E+03 -0.11858454779E+04  0.13681680648E+04  0.46999998093E+01 0.  1.
       -5    1    3    3    0  502  0.37587332334E+03  0.56951866606E+03 -0.31177873928E+03  0.75024018717E+03  0.46999998093E+01 0. -1.
</event>
<event>
 5   0  0.4084462E-04  0.1509450E+04  0.7818609E-02  0.8878193E-01
       -1   -1    0    0    0  501  0.00000000000E+00  0.00000000000E+00  0.19142205459E+03  0.19142205465E+03  0.50400001928E-02 0.  1.
        1   -1    0    0  501    0  0.00000000000E+00  0.00000000000E+00 -0.29756739319E+04  0.29756739319E+04  0.50400001928E-02 0. -1.
    10030    2    1    2    0    0  0.00000000000E+00  0.00000000000E+00 -0.27842518773E+04  0.31670959865E+04  0.15094497248E+04 0.  0.
        1    1    3    3  502    0  0.73684005973E+03 -0.13994620583E+03 -0.12154372774E+04  0.14282177668E+04  0.50400001928E-02 0.  1.
       -1    1    3    3    0  502 -0.73684005973E+03  0.13994620583E+03 -0.15688145999E+04  0.17388782197E+04  0.50400001928E-02 0. -1.
</event>
<event>
 5   0  0.7454828E-04  0.1516045E+04  0.7818609E-02  0.8873853E-01
       -2   -1    0    0    0  501  0.00000000000E+00  0.00000000000E+00  0.44283145200E+03  0.44283145201E+03  0.25500000920E-02 0.  1.
        2   -1    0    0  501    0  0.00000000000E+00  0.00000000000E+00 -0.12975543030E+04  0.12975543030E+04  0.25500000920E-02 0. -1.
    10030    2    1    2    0    0  0.00000000000E+00  0.00000000000E+00 -0.85472285104E+03  0.17403857551E+04  0.15160446644E+04 0.  0.
        3    1    3    3  502    0  0.14452615160E+03  0.65352094030E+03 -0.18867695357E+02  0.66957705161E+03  0.10100000352E+00 0.  1.
       -3    1    3    3    0  502 -0.14452615160E+03 -0.65352094030E+03 -0.83585515568E+03  0.10708087035E+04  0.10100000352E+00 0. -1.
</event>
<event>
 5   0  0.7359897E-04  0.1485083E+04  0.7818609E-02  0.8894434E-01
       -2   -1    0    0    0  501  0.00000000000E+00  0.00000000000E+00  0.42214911751E+03  0.42214911751E+03  0.25500000920E-02 0.  1.
        2   -1    0    0  501    0  0.00000000000E+00  0.00000000000E+00 -0.13060974712E+04  0.13060974712E+04  0.25500000920E-02 0. -1.
    10030    2    1    2    0    0  0.00000000000E+00  0.00000000000E+00 -0.88394835369E+03  0.17282465887E+04  0.14850830210E+04 0.  0.
        1    1    3    3  502    0  0.46487111797E+03 -0.57809495272E+03 -0.48002258961E+03  0.88358396163E+03  0.50400001928E-02 0. -1.
       -1    1    3    3    0  502 -0.46487111797E+03  0.57809495272E+03 -0.40392576408E+03  0.84466262708E+03  0.50400001928E-02 0.  1.
</event>
<event>
 5   0  0.7454828E-04  0.1506512E+04  0.7818609E-02  0.8880134E-01
        2   -1    0    0  501    0  0.00000000000E+00  0.00000000000E+00  0.10478140389E+04  0.10478140389E+04  0.25500000920E-02 0.  1.
       -2   -1    0    0    0  501  0.00000000000E+00  0.00000000000E+00 -0.54150328157E+03  0.54150328158E+03  0.25500000920E-02 0. -1.
    10030    2    1    2    0    0  0.00000000000E+00  0.00000000000E+00  0.50631075735E+03  0.15893173205E+04  0.15065121846E+04 0.  0.
        3    1    3    3  502    0 -0.51702134935E+02  0.61583716478E+03 -0.20117351982E+03  0.64992254889E+03  0.10100000352E+00 0. -1.
       -3    1    3    3    0  502  0.51702134935E+02 -0.61583716478E+03  0.70748427717E+03  0.93939477161E+03  0.10100000352E+00 0.  1.
</event>
<event>
 5   0  0.4015204E-04  0.1500344E+04  0.7818609E-02  0.8884224E-01
       -1   -1    0    0    0  501  0.00000000000E+00  0.00000000000E+00  0.47440893070E+03  0.47440893073E+03  0.50400001928E-02 0. -1.
        1   -1    0    0  501    0  0.00000000000E+00  0.00000000000E+00 -0.11862292938E+04  0.11862292939E+04  0.50400001928E-02 0.  1.
    10030    2    1    2    0    0  0.00000000000E+00  0.00000000000E+00 -0.71182036315E+03  0.16606382246E+04  0.15003436552E+04 0.  0.
        2    1    3    3  502    0  0.36142187010E+03  0.98990050792E+02 -0.10752130279E+04  0.11386429879E+04  0.25500000920E-02 0.  1.
       -2    1    3    3    0  502 -0.36142187010E+03 -0.98990050792E+02  0.36339266478E+03  0.52199523673E+03  0.25500000920E-02 0. -1.
</event>
<event>
 5   0  0.7547580E-04  0.1516967E+04  0.7818609E-02  0.8873248E-01
        2   -1    0    0  501    0  0.00000000000E+00  0.00000000000E+00  0.46763254095E+03  0.46763254095E+03  0.25500000920E-02 0.  1.
       -2   -1    0    0    0  501  0.00000000000E+00  0.00000000000E+00 -0.12302339616E+04  0.12302339616E+04  0.25500000920E-02 0. -1.
    10030    2    1    2    0    0  0.00000000000E+00  0.00000000000E+00 -0.76260142069E+03  0.16978665026E+04  0.15169672817E+04 0.  0.
        4    1    3    3  502    0 -0.55763871554E+03  0.35710080679E+03  0.32691751539E+02  0.66298739566E+03  0.12699999809E+01 0.  1.
       -4    1    3    3    0  502  0.55763871554E+03 -0.35710080679E+03 -0.79529317223E+03  0.10348791069E+04  0.12699999809E+01 0. -1.
</event>
<event>
 5   0  0.3907345E-04  0.1503763E+04  0.7818609E-02  0.8881954E-01
        1   -1    0    0  501    0  0.00000000000E+00  0.00000000000E+00  0.86174969675E+03  0.86174969677E+03  0.50400001928E-02 0. -1.
       -1   -1    0    0    0  501  0.00000000000E+00  0.00000000000E+00 -0.65602108473E+03  0.65602108475E+03  0.50400001928E-02 0.  1.
    10030    2    1    2    0    0  0.00000000000E+00  0.00000000000E+00  0.20572861203E+03  0.15177707815E+04  0.15037632405E+04 0.  0.
        5    1    3    3  502    0 -0.20341772227E+03 -0.18413380840E+03  0.80939911145E+03  0.85465375489E+03  0.46999998093E+01 0. -1.
       -5    1    3    3    0  502  0.20341772227E+03  0.18413380840E+03 -0.60367049942E+03  0.66311702663E+03  0.46999998093E+01 0.  1.
</event>
<event>
 5   0  0.2800375E-04  0.1499158E+04  0.7818609E-02  0.8885013E-01
       -4   -1    0    0    0  501  0.00000000000E+00  0.00000000000E+00  0.21338060485E+04  0.21338064264E+04  0.12699999809E+01 0. -1.
        4   -1    0    0  501    0  0.00000000000E+00  0.00000000000E+00 -0.26331551347E+03  0.26331857612E+03  0.12699999809E+01 0.  1.
    10030    2    1    2    0    0  0.00000000000E+00  0.00000000000E+00  0.18704905350E+04  0.23971250025E+04  0.14991575755E+04 0.  0.
        5    1    3    3  502    0  0.66557850981E+03  0.14792421340E+03  0.43732251796E+03  0.81003049346E+03  0.46999998093E+01 0. -1.
       -5    1    3    3    0  502 -0.66557850981E+03 -0.14792421340E+03  0.14331680170E+04  0.15870945091E+04  0.46999998093E+01 0.  1.
</event>
<event>
 5   0  0.2800375E-04  0.1488048E+04  0.7818609E-02  0.8892440E-01
        3   -1    0    0  501    0  0.00000000000E+00  0.00000000000E+00  0.69389238689E+03  0.69389239424E+03  0.10100000352E+00 0.  1.
       -3   -1    0    0    0  501  0.00000000000E+00  0.00000000000E+00 -0.79777785379E+03  0.79777786018E+03  0.10100000352E+00 0. -1.
    10030    2    1    2    0    0  0.00000000000E+00  0.00000000000E+00 -0.10388546690E+03  0.14916702544E+04  0.14880483721E+04 0.  0.
        1    1    3    3  502    0 -0.16618129794E+03 -0.43253593660E+03  0.53159821262E+03  0.70519516442E+03  0.50400001928E-02 0.  1.
       -1    1    3    3    0  502  0.16618129794E+03  0.43253593660E+03 -0.63548367952E+03  0.78647509000E+03  0.50400001928E-02 0. -1.
</event>
<event>
 5   0  0.4015204E-04  0.1455971E+04  0.7818609E-02  0.8914271E-01
       -1   -1    0    0    0  501  0.00000000000E+00  0.00000000000E+00  0.10324417761E+04  0.10324417761E+04  0.50400001928E-02 0.  1.
        1   -1    0    0  501    0  0.00000000000E+00  0.00000000000E+00 -0.51331042944E+03  0.51331042947E+03  0.50400001928E-02 0. -1.
    10030    2    1    2    0    0  0.00000000000E+00  0.00000000000E+00  0.51913134667E+03  0.15457522056E+04  0.14559713342E+04 0.  0.
        2    1    3    3  502    0  0.64584851305E+03  0.29394194244E+03  0.86931927457E+02  0.71489812376E+03  0.25500000920E-02 0.  1.
       -2    1    3    3    0  502 -0.64584851305E+03 -0.29394194244E+03  0.43219941921E+03  0.83085408184E+03  0.25500000920E-02 0. -1.
</event>
<event>
 5   0  0.4086710E-04  0.1505812E+04  0.7818609E-02  0.8880597E-01
        1   -1    0    0  501    0  0.00000000000E+00  0.00000000000E+00  0.47620488841E+03  0.47620488844E+03  0.50400001928E-02 0. -1.
       -1   -1    0    0    0  501  0.00000000000E+00  0.00000000000E+00 -0.11903855575E+04  0.11903855575E+04  0.50400001928E-02 0.  1.
    10030    2    1    2    0    0  0.00000000000E+00  0.00000000000E+00 -0.71418066909E+03  0.16665904460E+04  0.15058119692E+04 0.  0.
        3    1    3    3  502    0  0.50848763685E+03 -0.51721070965E+03 -0.13353112284E+03  0.73749384131E+03  0.10100000352E+00 0. -1.
       -3    1    3    3    0  502 -0.50848763685E+03  0.51721070965E+03 -0.58064954625E+03  0.92909660464E+03  0.10100000352E+00 0.  1.
</event>
<event>
 5   0  0.3907345E-04  0.1500552E+04  0.7818609E-02  0.8884086E-01
        1   -1    0    0  501    0  0.00000000000E+00  0.00000000000E+00  0.47593429519E+03  0.47593429522E+03  0.50400001928E-02 0.  1.
       -1   -1    0    0    0  501  0.00000000000E+00  0.00000000000E+00 -0.11827561378E+04  0.11827561378E+04  0.50400001928E-02 0. -1.
    10030    2    1    2    0    0  0.00000000000E+00  0.00000000000E+00 -0.70682184262E+03  0.16586904330E+04  0.15005521769E+04 0.  0.
        5    1    3    3  502    0 -0.32092328964E+03 -0.50378513946E+03 -0.85523809755E+03  0.10431900681E+04  0.46999998093E+01 0.  1.
       -5    1    3    3    0  502  0.32092328964E+03  0.50378513946E+03  0.14841625494E+03  0.61550036499E+03  0.46999998093E+01 0. -1.
</event>
<event>
 5   0  0.7672251E-04  0.1507507E+04  0.7818609E-02  0.8879476E-01
       -2   -1    0    0    0  501  0.00000000000E+00  0.00000000000E+00  0.33511396077E+03  0.33511396078E+03  0.25500000920E-02 0.  1.
        2   -1    0    0  501    0  0.00000000000E+00  0.00000000000E+00 -0.16953773137E+04  0.16953773137E+04  0.25500000920E-02 0. -1.
    10030    2    1    2    0    0  0.00000000000E+00  0.00000000000E+00 -0.13602633529E+04  0.20304912745E+04  0.15075073553E+04 0.  0.
        5    1    3    3  502    0  0.25135607870E+03 -0.60005540643E+03 -0.11928043062E+04  0.13586944366E+04  0.46999998093E+01 0. -1.
       -5    1    3    3    0  502 -0.25135607870E+03  0.60005540643E+03 -0.16745904674E+03  0.67179683790E+03  0.46999998093E+01 0.  1.
</event>
<event>
 5   0  0.4084462E-04  0.1474574E+04  0.7818609E-02  0.8901539E-01
        1   -1    0    0  501    0  0.00000000000E+00  0.00000000000E+00  0.11147201500E+04  0.11147201500E+04  0.50400001928E-02 0. -1.
       -1   -1    0    0    0  501  0.00000000000E+00  0.00000000000E+00 -0.48764866030E+03  0.48764866033E+03  0.50400001928E-02 0.  1.
    10030    2    1    2    0    0  0.00000000000E+00  0.00000000000E+00  0.62707148965E+03  0.16023688103E+04  0.14745735489E+04 0.  0.
        1    1    3    3  502    0  0.60886819951E+03  0.18380863172E+03  0.71879903767E+03  0.95978026343E+03  0.50400001928E-02 0. -1.
       -1    1    3    3    0  502 -0.60886819951E+03 -0.18380863172E+03 -0.91727548020E+02  0.64258854687E+03  0.50400001928E-02 0.  1.
</event>
<event>
 5   0  0.3907345E-04  0.1499622E+04  0.7818609E-02  0.8884704E-01
        1   -1    0    0  501    0  0.00000000000E+00  0.00000000000E+00  0.10515904154E+04  0.10515904154E+04  0.50400001928E-02 0.  1.
       -1   -1    0    0    0  501  0.00000000000E+00  0.00000000000E+00 -0.53463456482E+03  0.53463456485E+03  0.50400001928E-02 0. -1.
    10030    2    1    2    0    0  0.00000000000E+00  0.00000000000E+00  0.51695585060E+03  0.15862249803E+04  0.14996220646E+04 0.  0.
        5    1    3    3  502    0  0.34332947880E+03 -0.76507086374E+02 -0.44192981802E+03  0.56484734162E+03  0.46999998093E+01 0. -1.
       -5    1    3    3    0  502 -0.34332947880E+03  0.76507086374E+02  0.95888566862E+03  0.10213776387E+04  0.46999998093E+01 0.  1.
</event>
<event>
 5   0  0.4058874E-04  0.1488781E+04  0.7818609E-02  0.8891948E-01
       -1   -1    0    0    0  501  0.00000000000E+00  0.00000000000E+00  0.37734916297E+03  0.37734916300E+03  0.50400001928E-02 0.  1.
        1   -1    0    0  501    0  0.00000000000E+00  0.00000000000E+00 -0.14684477532E+04  0.14684477532E+04  0.50400001928E-02 0. -1.
    10030    2    1    2    0    0  0.00000000000E+00  0.00000000000E+00 -0.10910985903E+04  0.18457969162E+04  0.14887814219E+04 0.  0.
        4    1    3    3  502    0 -0.67572801506E+03  0.16979556377E+03 -0.22064254041E+03  0.73083762038E+03  0.12699999809E+01 0. -1.
       -4    1    3    3    0  502  0.67572801506E+03 -0.16979556377E+03 -0.87045604984E+03  0.11149592959E+04  0.12699999809E+01 0.  1.
</event>
<event>
 5   0  0.4015204E-04  0.1502347E+04  0.7818609E-02  0.8882894E-01
       -1   -1    0    0    0  501  0.00000000000E+00  0.00000000000E+00  0.28134286054E+03  0.28134286059E+03  0.50400001928E-02 0.  1.
        1   -1    0    0  501    0  0.00000000000E+00  0.00000000000E+00 -0.20056002393E+04  0.20056002394E+04  0.50400001928E-02 0. -1.
    10030    2    1    2    0    0  0.00000000000E+00  0.00000000000E+00 -0.17242573788E+04  0.22869430999E+04  0.15023465759E+04 0.  0.
        2    1    3    3  502    0 -0.10130746533E+03  0.41434777159E+02  0.26913900037E+03  0.29054404970E+03  0.25500000920E-02 0.  1.
       -2    1    3    3    0  502  0.10130746533E+03 -0.41434777159E+02 -0.19933963792E+04  0.19963990502E+04  0.25500000920E-02 0. -1.
</event>
<event>
 5   0  0.7634227E-04  0.1488706E+04  0.7818609E-02  0.8891998E-01
       -2   -1    0    0    0  501  0.00000000000E+00  0.00000000000E+00  0.69426337020E+03  0.69426337020E+03  0.25500000920E-02 0. -1.
        2   -1    0    0  501    0  0.00000000000E+00  0.00000000000E+00 -0.79805617333E+03  0.79805617334E+03  0.25500000920E-02 0.  1.
    10030    2    1    2    0    0  0.00000000000E+00  0.00000000000E+00 -0.10379280314E+03  0.14923195435E+04  0.14887057043E+04 0.  0.
        2    1    3    3  502    0 -0.58476163874E+03  0.39703913925E+03  0.18206879552E+03  0.72988718206E+03  0.25500000920E-02 0. -1.
       -2    1    3    3    0  502  0.58476163874E+03 -0.39703913925E+03 -0.28586159865E+03  0.76243236147E+03  0.25500000920E-02 0.  1.
</event>
<event>
 5   0  0.7454828E-04  0.1538402E+04  0.7818609E-02  0.8859310E-01
       -2   -1    0    0    0  501  0.00000000000E+00  0.00000000000E+00  0.42076252174E+03  0.42076252174E+03  0.25500000920E-02 0.  1.
        2   -1    0    0  501    0  0.00000000000E+00  0.00000000000E+00 -0.14061863205E+04  0.14061863205E+04  0.25500000920E-02 0. -1.
    10030    2    1    2    0    0  0.00000000000E+00  0.00000000000E+00 -0.98542379878E+03  0.18269488423E+04  0.15384024210E+04 0.  0.
        3    1    3    3  502    0 -0.32049368778E+03  0.69062486124E+03 -0.36266655692E+03  0.84333027017E+03  0.10100000352E+00 0.  1.
       -3    1    3    3    0  502  0.32049368778E+03 -0.69062486124E+03 -0.62275724186E+03  0.98361857210E+03  0.10100000352E+00 0. -1.
</event>
<event>
 5   0  0.7547580E-04  0.1503269E+04  0.7818609E-02  0.8882282E-01
       -2   -1    0    0    0  501  0.00000000000E+00  0.00000000000E+00  0.45933345186E+03  0.45933345187E+03  0.25500000920E-02 0.  1.
        2   -1    0    0  501    0  0.00000000000E+00  0.00000000000E+00 -0.12299447653E+04  0.12299447653E+04  0.25500000920E-02 0. -1.
    10030    2    1    2    0    0  0.00000000000E+00  0.00000000000E+00 -0.77061131348E+03  0.16892782172E+04  0.15032694698E+04 0.  0.
        4    1    3    3  502    0 -0.36024272252E+03  0.62413800503E+03 -0.62534919691E+03  0.95414165585E+03  0.12699999809E+01 0. -1.
       -4    1    3    3    0  502  0.36024272252E+03 -0.62413800503E+03 -0.14526211657E+03  0.73513656137E+03  0.12699999809E+01 0.  1.
</event>
<event>
 5   0  0.3907345E-04  0.1483885E+04  0.7818609E-02  0.8895240E-01
       -1   -1    0    0    0  501  0.00000000000E+00  0.00000000000E+00  0.55745266510E+03  0.55745266512E+03  0.50400001928E-02 0.  1.
        1   -1    0    0  501    0  0.00000000000E+00  0.00000000000E+00 -0.98748995786E+03  0.98748995787E+03  0.50400001928E-02 0. -1.
    10030    2    1    2    0    0  0.00000000000E+00  0.00000000000E+00 -0.43003729276E+03  0.15449426230E+04  0.14838853174E+04 0.  0.
        5    1    3    3  502    0 -0.20271752538E+03 -0.37994549977E+03 -0.84403325893E+03  0.94755855232E+03  0.46999998093E+01 0. -1.
       -5    1    3    3    0  502  0.20271752538E+03  0.37994549977E+03  0.41399596617E+03  0.59738407067E+03  0.46999998093E+01 0.  1.
</event>
<event>
 5   0  0.7359897E-04  0.1504486E+04  0.7818609E-02  0.8881475E-01
       -2   -1    0    0    0  501  0.00000000000E+00  0.00000000000E+00  0.37894668111E+03  0.37894668112E+03  0.25500000920E-02 0.  1.
        2   -1    0    0  501    0  0.00000000000E+00  0.00000000000E+00 -0.14932696675E+04  0.14932696675E+04  0.25500000920E-02 0. -1.
    10030    2    1    2    0    0  0.00000000000E+00  0.00000000000E+00 -0.11143229864E+04  0.18722163487E+04  0.15044860711E+04 0.  0.
        1    1    3    3  502    0 -0.12900077469E+03 -0.92571044084E+02 -0.14721793615E+04  0.14807169448E+04  0.50400001928E-02 0. -1.
       -1    1    3    3    0  502  0.12900077469E+03  0.92571044084E+02  0.35785637505E+03  0.39149940391E+03  0.50400001928E-02 0.  1.
</event>
<event>
 5   0  0.7672251E-04  0.1448213E+04  0.7818609E-02  0.8919640E-01
       -2   -1    0    0    0  501  0.00000000000E+00  0.00000000000E+00  0.49478112762E+03  0.49478112762E+03  0.25500000920E-02 0.  1.
        2   -1    0    0  501    0  0.00000000000E+00  0.00000000000E+00 -0.10597219516E+04  0.10597219516E+04  0.25500000920E-02 0. -1.
    10030    2    1    2    0    0  0.00000000000E+00  0.00000000000E+00 -0.56494082401E+03  0.15545030792E+04  0.14482132746E+04 0.  0.
        5    1    3    3  502    0 -0.51950414439E+03 -0.48808743404E+03 -0.14587316875E+03  0.72760907819E+03  0.46999998093E+01 0. -1.
       -5    1    3    3    0  502  0.51950414439E+03  0.48808743404E+03 -0.41906765526E+03  0.82689400106E+03  0.46999998093E+01 0.  1.
</event>
<event>
 5   0  0.4058874E-04  0.1499039E+04  0.7818609E-02  0.8885092E-01
       -1   -1    0    0    0  501  0.00000000000E+00  0.00000000000E+00  0.43449739282E+03  0.43449739285E+03  0.50400001928E-02 0.  1.
        1   -1    0    0  501    0  0.00000000000E+00  0.00000000000E+00 -0.12929409073E+04  0.12929409073E+04  0.50400001928E-02 0. -1.
    10030    2    1    2    0    0  0.00000000000E+00  0.00000000000E+00 -0.85844351444E+03  0.17274383001E+04  0.14990389632E+04 0.  0.
        4    1    3    3  502    0  0.29109746255E+03 -0.30817197430E+03 -0.11415188520E+04  0.12176923260E+04  0.12699999809E+01 0. -1.
       -4    1    3    3    0  502 -0.29109746255E+03  0.30817197430E+03  0.28307533758E+03  0.50974597408E+03  0.12699999809E+01 0.  1.
</event>
<event>
 5   0  0.4015204E-04  0.1492770E+04  0.7818609E-02  0.8889275E-01
       -1   -1    0    0    0  501  0.00000000000E+00  0.00000000000E+00  0.64562118000E+03  0.64562118002E+03  0.50400001928E-02 0. -1.
        1   -1    0    0  501    0  0.00000000000E+00  0.00000000000E+00 -0.86287558813E+03  0.86287558814E+03  0.50400001928E-02 0.  1.
    10030    2    1    2    0    0  0.00000000000E+00  0.00000000000E+00 -0.21725440813E+03  0.15084967682E+04  0.14927702508E+04 0.  0.
        2    1    3    3  502    0 -0.13302063694E+03 -0.64112479220E+03 -0.47066862335E+03  0.80638975815E+03  0.25500000920E-02 0.  1.
       -2    1    3    3    0  502  0.13302063694E+03  0.64112479220E+03  0.25341421523E+03  0.70210701002E+03  0.25500000920E-02 0. -1.
</event>
<event>
 5   0  0.4015204E-04  0.1499986E+04  0.7818609E-02  0.8884462E-01
        1   -1    0    0  501    0  0.00000000000E+00  0.00000000000E+00  0.12902236664E+04  0.12902236664E+04  0.50400001928E-02 0. -1.
       -1   -1    0    0    0  501  0.00000000000E+00  0.00000000000E+00 -0.43596256191E+03  0.43596256194E+03  0.50400001928E-02 0.  1.
    10030    2    1    2    0    0  0.00000000000E+00  0.00000000000E+00  0.85426110447E+03  0.17261862283E+04  0.14999856200E+04 0.  0.
        2    1    3    3  502    0  0.69836997026E+03 -0.26150615981E+03  0.51907326884E+03  0.90859404874E+03  0.25500000920E-02 0. -1.
       -2    1    3    3    0  502 -0.69836997026E+03  0.26150615981E+03  0.33518783564E+03  0.81759217960E+03  0.25500000920E-02 0.  1.
</event>
<event>
 5   0  0.4086710E-04  0.1500556E+04  0.7818609E-02  0.8884083E-01
       -1   -1    0    0    0  501  0.00000000000E+00  0.00000000000E+00  0.10315512171E+04  0.10315512171E+04  0.50400001928E-02 0. -1.
        1   -1    0    0  501    0  0.00000000000E+00  0.00000000000E+00 -0.54569936701E+03  0.54569936703E+03  0.50400001928E-02 0.  1.
    10030    2    1    2    0    0  0.00000000000E+00  0.00000000000E+00  0.48585185010E+03  0.15772505842E+04  0.15005556921E+04 0.  0.
        3    1    3    3  502    0  0.44071674189E+03 -0.17902932899E+03  0.85278237928E+03  0.97648376527E+03  0.10100000352E+00 0. -1.
       -3    1    3    3    0  502 -0.44071674189E+03  0.17902932899E+03 -0.36693052918E+03  0.60076681888E+03  0.10100000352E+00 0.  1.
</event>
<event>
 5   0  0.4015204E-04  0.1511725E+04  0.7818609E-02  0.8876693E-01
        1   -1    0    0  501    0  0.00000000000E+00  0.00000000000E+00  0.21840796214E+04  0.21840796214E+04  0.50400001928E-02 0. -1.
       -1   -1    0    0    0  501  0.00000000000E+00  0.00000000000E+00 -0.26158773580E+03  0.26158773585E+03  0.50400001928E-02 0.  1.
    10030    2    1    2    0    0  0.00000000000E+00  0.00000000000E+00  0.19224918856E+04  0.24456673573E+04  0.15117254288E+04 0.  0.
        2    1    3    3  502    0 -0.50573556170E+03 -0.51911540057E+03  0.13085236182E+04  0.14958219536E+04  0.25500000920E-02 0. -1.
       -2    1    3    3    0  502  0.50573556170E+03  0.51911540057E+03  0.61396826744E+03  0.94984540369E+03  0.25500000920E-02 0.  1.
</event>
<event>
 5   0  0.7634227E-04  0.1512780E+04  0.7818609E-02  0.8875999E-01
        2   -1    0    0  501    0  0.00000000000E+00  0.00000000000E+00  0.73310119285E+03  0.73310119286E+03  0.25500000920E-02 0. -1.
       -2   -1    0    0    0  501  0.00000000000E+00  0.00000000000E+00 -0.78041848792E+03  0.78041848792E+03  0.25500000920E-02 0.  1.
    10030    2    1    2    0    0  0.00000000000E+00  0.00000000000E+00 -0.47317295066E+02  0.15135196808E+04  0.15127798576E+04 0.  0.
        2    1    3    3  502    0 -0.28135403899E+03  0.30982362916E+02  0.67811558227E+03  0.73482021270E+03  0.25500000920E-02 0. -1.
       -2    1    3    3    0  502  0.28135403899E+03 -0.30982362916E+02 -0.72543287733E+03  0.77869946808E+03  0.25500000920E-02 0.  1.
</event>
<event>
 5   0  0.7634227E-04  0.1484298E+04  0.7818609E-02  0.8894962E-01
       -2   -1    0    0    0  501  0.00000000000E+00  0.00000000000E+00  0.11915158281E+04  0.11915158281E+04  0.25500000920E-02 0.  1.
        2   -1    0    0  501    0  0.00000000000E+00  0.00000000000E+00 -0.46225562535E+03  0.46225562536E+03  0.25500000920E-02 0. -1.
    10030    2    1    2    0    0  0.00000000000E+00  0.00000000000E+00  0.72926020275E+03  0.16537714535E+04  0.14842976713E+04 0.  0.
        2    1    3    3  502    0 -0.35420170195E+03  0.30188540555E+03  0.10087282083E+04  0.11109123466E+04  0.25500000920E-02 0.  1.
       -2    1    3    3    0  502  0.35420170195E+03 -0.30188540555E+03 -0.27946800552E+03  0.54285910683E+03  0.25500000920E-02 0. -1.
</event>
<event>
 5   0  0.7454828E-04  0.1501529E+04  0.7818609E-02  0.8883437E-01
        2   -1    0    0  501    0  0.00000000000E+00  0.00000000000E+00  0.12550698371E+04  0.12550698371E+04  0.25500000920E-02 0.  1.
       -2   -1    0    0    0  501  0.00000000000E+00  0.00000000000E+00 -0.44909625025E+03  0.44909625026E+03  0.25500000920E-02 0. -1.
    10030    2    1    2    0    0  0.00000000000E+00  0.00000000000E+00  0.80597358683E+03  0.17041660873E+04  0.15015287645E+04 0.  0.
        3    1    3    3  502    0  0.34400303332E+03  0.56201103988E+03 -0.53643138845E+01  0.65895620640E+03  0.10100000352E+00 0.  1.
       -3    1    3    3    0  502 -0.34400303332E+03 -0.56201103988E+03  0.81133790072E+03  0.10452098809E+04  0.10100000352E+00 0. -1.
</event>
<event>
 5   0  0.4084462E-04  0.1503282E+04  0.7818609E-02  0.8882273E-01
       -1   -1    0    0    0  501  0.00000000000E+00  0.00000000000E+00  0.10542753875E+04  0.10542753876E+04  0.50400001928E-02 0. -1.
        1   -1    0    0  501    0  0.00000000000E+00  0.00000000000E+00 -0.53587914097E+03  0.53587914100E+03  0.50400001928E-02 0.  1.
    10030    2    1    2    0    0  0.00000000000E+00  0.00000000000E+00  0.51839624657E+03  0.15901545285E+04  0.15032819949E+04 0.  0.
        1    1    3    3  502    0  0.47831529432E+02  0.88603713521E+02 -0.52871288011E+03  0.53821536849E+03  0.50400001928E-02 0.  1.
       -1    1    3    3    0  502 -0.47831529432E+02 -0.88603713521E+02  0.10471091267E+04  0.10519391601E+04  0.50400001928E-02 0. -1.
</event>
<event>
 5   0  0.4015204E-04  0.1506449E+04  0.7818609E-02  0.8880176E-01
        1   -1    0    0  501    0  0.00000000000E+00  0.00000000000E+00  0.73383270676E+03  0.73383270677E+03  0.50400001928E-02 0. -1.
       -1   -1    0    0    0  501  0.00000000000E+00  0.00000000000E+00 -0.77312885053E+03  0.77312885054E+03  0.50400001928E-02 0.  1.
    10030    2    1    2    0    0  0.00000000000E+00  0.00000000000E+00 -0.39296143771E+02  0.15069615573E+04  0.15064491191E+04 0.  0.
        2    1    3    3  502    0 -0.39298456353E+03 -0.29168767866E+03  0.55310993663E+03  0.73854530739E+03  0.25500000920E-02 0. -1.
       -2    1    3    3    0  502  0.39298456353E+03  0.29168767866E+03 -0.59240608040E+03  0.76841624993E+03  0.25500000920E-02 0.  1.
</event>
<event>
 5   0  0.4015204E-04  0.1493462E+04  0.7818609E-02  0.8888812E-01
        1   -1    0    0  501    0  0.00000000000E+00  0.00000000000E+00  0.89318823128E+03  0.89318823130E+03  0.50400001928E-02 0. -1.
       -1   -1    0    0    0  501  0.00000000000E+00  0.00000000000E+00 -0.62428843228E+03  0.62428843230E+03  0.50400001928E-02 0.  1.
    10030    2    1    2    0    0  0.00000000000E+00  0.00000000000E+00  0.26889979900E+03  0.15174766636E+04  0.14934618585E+04 0.  0.
        2    1    3    3  502    0  0.92507092868E+02  0.49027515183E+03 -0.43007354950E+03  0.65870368507E+03  0.25500000920E-02 0.  1.
       -2    1    3    3    0  502 -0.92507092868E+02 -0.49027515183E+03  0.69897334850E+03  0.85877297853E+03  0.25500000920E-02 0. -1.
</event>
<event>
 5   0  0.7454828E-04  0.1495928E+04  0.7818609E-02  0.8887165E-01
       -2   -1    0    0    0  501  0.00000000000E+00  0.00000000000E+00  0.45367810574E+03  0.45367810575E+03  0.25500000920E-02 0. -1.
        2   -1    0    0  501    0  0.00000000000E+00  0.00000000000E+00 -0.12331429139E+04  0.12331429139E+04  0.25500000920E-02 0.  1.
    10030    2    1    2    0    0  0.00000000000E+00  0.00000000000E+00 -0.77946480812E+03  0.16868210196E+04  0.14959277272E+04 0.  0.
        3    1    3    3  502    0  0.26941812920E+03  0.14562497550E+03  0.37973732447E+03  0.48784547515E+03  0.10100000352E+00 0. -1.
       -3    1    3    3    0  502 -0.26941812920E+03 -0.14562497550E+03 -0.11592021326E+04  0.11989755445E+04  0.10100000352E+00 0.  1.
</event>
<event>
 5   0  0.7634227E-04  0.1500069E+04  0.7818609E-02  0.8884407E-01
        2   -1    0    0  501    0  0.00000000000E+00  0.00000000000E+00  0.12707331038E+04  0.12707331038E+04  0.25500000920E-02 0. -1.
       -2   -1    0    0    0  501  0.00000000000E+00  0.00000000000E+00 -0.44269833195E+03  0.44269833196E+03  0.25500000920E-02 0.  1.
    10030    2    1    2    0    0  0.00000000000E+00  0.00000000000E+00  0.82803477184E+03  0.17134314357E+04  0.15000685656E+04 0.  0.
        2    1    3    3  502    0  0.24673777377E+03 -0.76080172275E+01 -0.39496758021E+03  0.46576474786E+03  0.25500000920E-02 0.  1.
       -2    1    3    3    0  502 -0.24673777377E+03  0.76080172275E+01  0.12230023520E+04  0.12476666879E+04  0.25500000920E-02 0. -1.
</event>
<event>
 5   0  0.7634227E-04  0.1513878E+04  0.7818609E-02  0.8875276E-01
        2   -1    0    0  501    0  0.00000000000E+00  0.00000000000E+00  0.16989974344E+04  0.16989974344E+04  0.25500000920E-02 0. -1.
       -2   -1    0    0    0  501  0.00000000000E+00  0.00000000000E+00 -0.33723230599E+03  0.33723230600E+03  0.25500000920E-02 0.  1.
    10030    2    1    2    0    0  0.00000000000E+00  0.00000000000E+00  0.13617651284E+04  0.20362297404E+04  0.15138782285E+04 0.  0.
        2    1    3    3  502    0 -0.53246245065E+03 -0.37806030245E+03  0.16604419807E+03  0.67380748687E+03  0.25500000920E-02 0. -1.
       -2    1    3    3    0  502  0.53246245065E+03  0.37806030245E+03  0.11957209304E+04  0.13624222536E+04  0.25500000920E-02 0.  1.
</event>
<event>
 5   0  0.4058874E-04  0.1489563E+04  0.7818609E-02  0.8891423E-01
       -1   -1    0    0    0  501  0.00000000000E+00  0.00000000000E+00  0.54538715445E+03  0.54538715447E+03  0.50400001928E-02 0. -1.
        1   -1    0    0  501    0  0.00000000000E+00  0.00000000000E+00 -0.10170748089E+04  0.10170748089E+04  0.50400001928E-02 0.  1.
    10030    2    1    2    0    0  0.00000000000E+00  0.00000000000E+00 -0.47168765443E+03  0.15624619634E+04  0.14895630714E+04 0.  0.
        4    1    3    3  502    0 -0.56857476987E+02 -0.54366650614E+03  0.29477030125E+03  0.62104523667E+03  0.12699999809E+01 0. -1.
       -4    1    3    3    0  502  0.56857476987E+02  0.54366650614E+03 -0.76645795568E+03  0.94141672670E+03  0.12699999809E+01 0.  1.
</event>
<event>
 5   0  0.2800375E-04  0.1520957E+04  0.7818609E-02  0.8870635E-01
        3   -1    0    0  501    0  0.00000000000E+00  0.00000000000E+00  0.57822539835E+03  0.57822540718E+03  0.10100000352E+00 0. -1.
       -3   -1    0    0    0  501  0.00000000000E+00  0.00000000000E+00 -0.10001760407E+04  0.10001760458E+04  0.10100000352E+00 0.  1.
    10030    2    1    2    0    0  0.00000000000E+00  0.00000000000E+00 -0.42195064232E+03  0.15784014529E+04  0.15209565418E+04 0.  0.
        2    1    3    3  502    0  0.53630665809E+02 -0.22767761585E+02  0.57590580243E+03  0.57884549973E+03  0.25500000920E-02 0. -1.
       -2    1    3    3    0  502 -0.53630665809E+02  0.22767761585E+02 -0.99785644475E+03  0.99955595322E+03  0.25500000920E-02 0.  1.
</event>
<event>
 5   0  0.7359897E-04  0.1517049E+04  0.7818609E-02  0.8873194E-01
       -2   -1    0    0    0  501  0.00000000000E+00  0.00000000000E+00  0.82196171707E+03  0.82196171708E+03  0.25500000920E-02 0.  1.
        2   -1    0    0  501    0  0.00000000000E+00  0.00000000000E+00 -0.69998333435E+03  0.69998333436E+03  0.25500000920E-02 0. -1.
    10030    2    1    2    0    0  0.00000000000E+00  0.00000000000E+00  0.12197838272E+03  0.15219450514E+04  0.15170491138E+04 0.  0.
        1    1    3    3  502    0 -0.67687581526E+03 -0.22976398808E+03  0.31559385374E+03  0.78137816712E+03  0.50400001928E-02 0.  1.
       -1    1    3    3    0  502  0.67687581526E+03  0.22976398808E+03 -0.19361547101E+03  0.74056688432E+03  0.50400001928E-02 0. -1.
</event>
<event>
 5   0  0.7454828E-04  0.1487137E+04  0.7818609E-02  0.8893052E-01
       -2   -1    0    0    0  501  0.00000000000E+00  0.00000000000E+00  0.73021017465E+03  0.73021017465E+03  0.25500000920E-02 0.  1.
        2   -1    0    0  501    0  0.00000000000E+00  0.00000000000E+00 -0.75717166077E+03  0.75717166078E+03  0.25500000920E-02 0. -1.
    10030    2    1    2    0    0  0.00000000000E+00  0.00000000000E+00 -0.26961486127E+02  0.14873818354E+04  0.14871374525E+04 0.  0.
        3    1    3    3  502    0  0.59975080474E+02  0.74030812367E+03 -0.48718793644E+02  0.74432967112E+03  0.10100000352E+00 0. -1.
       -3    1    3    3    0  502 -0.59975080474E+02 -0.74030812367E+03  0.21757307518E+02  0.74305216431E+03  0.10100000352E+00 0.  1.
</event>
<event>
 5   0  0.4015204E-04  0.1518680E+04  0.7818609E-02  0.8872125E-01
       -1   -1    0    0    0  501  0.00000000000E+00  0.00000000000E+00  0.38007199932E+03  0.38007199935E+03  0.50400001928E-02 0.  1.
        1   -1    0    0  501    0  0.00000000000E+00  0.00000000000E+00 -0.15170737137E+04  0.15170737137E+04  0.50400001928E-02 0. -1.
    10030    2    1    2    0    0  0.00000000000E+00  0.00000000000E+00 -0.11370017144E+04  0.18971457131E+04  0.15186800052E+04 0.  0.
        2    1    3    3  502    0  0.70444717917E+03 -0.11326839113E+03 -0.24389523127E+03  0.75402946926E+03  0.25500000920E-02 0. -1.
       -2    1    3    3    0  502 -0.70444717917E+03  0.11326839113E+03 -0.89310648314E+03  0.11431162438E+04  0.25500000920E-02 0.  1.
</event>
<event>
 5   0  0.7454828E-04  0.1508168E+04  0.7818609E-02  0.8879040E-01
        2   -1    0    0  501    0  0.00000000000E+00  0.00000000000E+00  0.15703413272E+04  0.15703413272E+04  0.25500000920E-02 0.  1.
       -2   -1    0    0    0  501  0.00000000000E+00  0.00000000000E+00 -0.36211384865E+03  0.36211384866E+03  0.25500000920E-02 0. -1.
    10030    2    1    2    0    0  0.00000000000E+00  0.00000000000E+00  0.12082274786E+04  0.19324551759E+04  0.15081675526E+04 0.  0.
        3    1    3    3  502    0  0.45812485480E+03  0.43533515146E+03  0.11312472826E+04  0.12958068920E+04  0.10100000352E+00 0.  1.
       -3    1    3    3    0  502 -0.45812485480E+03 -0.43533515146E+03  0.76980196011E+02  0.63664828395E+03  0.10100000352E+00 0. -1.
</event>
<event>
 5   0  0.7634227E-04  0.1500607E+04  0.7818609E-02  0.8884049E-01
       -2   -1    0    0    0  501  0.00000000000E+00  0.00000000000E+00  0.38768816376E+03  0.38768816377E+03  0.25500000920E-02 0.  1.
        2   -1    0    0  501    0  0.00000000000E+00  0.00000000000E+00 -0.14520832169E+04  0.14520832169E+04  0.25500000920E-02 0. -1.
    10030    2    1    2    0    0  0.00000000000E+00  0.00000000000E+00 -0.10643950532E+04  0.18397713807E+04  0.15006071785E+04 0.  0.
        2    1    3    3  502    0 -0.17701949958E+03  0.72910410933E+03 -0.53854097268E+03  0.92355567495E+03  0.25500000920E-02 0.  1.
       -2    1    3    3    0  502  0.17701949958E+03 -0.72910410933E+03 -0.52585408049E+03  0.91621570574E+03  0.25500000920E-02 0. -1.
</event>
<event>
 5   0  0.7672251E-04  0.1494792E+04  0.7818609E-02  0.8887924E-01
        2   -1    0    0  501    0  0.00000000000E+00  0.00000000000E+00  0.14754858946E+04  0.14754858946E+04  0.25500000920E-02 0.  1.
       -2   -1    0    0    0  501  0.00000000000E+00  0.00000000000E+00 -0.37858745888E+03  0.37858745889E+03  0.25500000920E-02 0. -1.
    10030    2    1    2    0    0  0.00000000000E+00  0.00000000000E+00  0.10968984357E+04  0.18540733535E+04  0.14947915647E+04 0.  0.
        5    1    3    3  502    0  0.17449547732E+03 -0.27249866912E+03  0.13840791874E+04  0.14214082747E+04  0.46999998093E+01 0.  1.
       -5    1    3    3    0  502 -0.17449547732E+03  0.27249866912E+03 -0.28718075170E+03  0.43266507881E+03  0.46999998093E+01 0. -1.
</event>
<event>
 5   0  0.3907345E-04  0.1509008E+04  0.7818609E-02  0.8878485E-01
       -1   -1    0    0    0  501  0.00000000000E+00  0.00000000000E+00  0.13655684219E+04  0.13655684219E+04  0.50400001928E-02 0.  1.
        1   -1    0    0  501    0  0.00000000000E+00  0.00000000000E+00 -0.41687841640E+03  0.41687841643E+03  0.50400001928E-02 0. -1.
    10030    2    1    2    0    0  0.00000000000E+00  0.00000000000E+00  0.94869000552E+03  0.17824468383E+04  0.15090076226E+04 0.  0.
        5    1    3    3  502    0 -0.65033504955E+03  0.28357882139E+03  0.77757495610E+03  0.10526146146E+04  0.46999998093E+01 0.  1.
       -5    1    3    3    0  502  0.65033504955E+03 -0.28357882139E+03  0.17111504942E+03  0.72983222370E+03  0.46999998093E+01 0. -1.
</event>
<event>
 5   0  0.3907345E-04  0.1510941E+04  0.7818609E-02  0.8877210E-01
       -1   -1    0    0    0  501  0.00000000000E+00  0.00000000000E+00  0.79344840995E+03  0.79344840996E+03  0.50400001928E-02 0. -1.
        1   -1    0    0  501    0  0.00000000000E+00  0.00000000000E+00 -0.71931062976E+03  0.71931062977E+03  0.50400001928E-02 0.  1.
    10030    2    1    2    0    0  0.00000000000E+00  0.00000000000E+00  0.74137780192E+02  0.15127590397E+04  0.15109412635E+04 0.  0.
        5    1    3    3  502    0 -0.40038124626E+03 -0.44053952246E+03  0.50274519029E+03  0.77920153334E+03  0.46999998093E+01 0. -1.
       -5    1    3    3    0  502  0.40038124626E+03  0.44053952246E+03 -0.42860741010E+03  0.73355750640E+03  0.46999998093E+01 0.  1.
</event>
<event>
 5   0  0.7359897E-04  0.1480020E+04  0.7818609E-02  0.8897849E-01
       -2   -1    0    0    0  501  0.00000000000E+00  0.00000000000E+00  0.87329439049E+03  0.87329439049E+03  0.25500000920E-02 0. -1.
        2   -1    0    0  501    0  0.00000000000E+00  0.00000000000E+00 -0.62706819547E+03  0.62706819548E+03  0.25500000920E-02 0.  1.
    10030    2    1    2    0    0  0.00000000000E+00  0.00000000000E+00  0.24622619501E+03  0.15003625860E+04  0.14800204560E+04 0.  0.
        1    1    3    3  502    0 -0.50606557754E+03 -0.45606327712E+03  0.41608184630E+03  0.79826072455E+03  0.50400001928E-02 0. -1.
       -1    1    3    3    0  502  0.50606557754E+03  0.45606327712E+03 -0.16985565128E+03  0.70210186142E+03  0.50400001928E-02 0.  1.
</event>
<event>
 5   0  0.4015204E-04  0.1500208E+04  0.7818609E-02  0.8884315E-01
        1   -1    0    0  501    0  0.00000000000E+00  0.00000000000E+00  0.17712836912E+04  0.17712836912E+04  0.50400001928E-02 0.  1.
       -1   -1    0    0    0  501  0.00000000000E+00  0.00000000000E+00 -0.31765436320E+03  0.31765436324E+03  0.50400001928E-02 0. -1.
    10030    2    1    2    0    0  0.00000000000E+00  0.00000000000E+00  0.14536293280E+04  0.20889380545E+04  0.15002079763E+04 0.  0.
        2    1    3    3  502    0 -0.14666023830E+03 -0.55254586239E+03  0.14030263547E+04  0.15150244578E+04  0.25500000920E-02 0.  1.
       -2    1    3    3    0  502  0.14666023830E+03  0.55254586239E+03  0.50602973261E+02  0.57391359668E+03  0.25500000920E-02 0. -1.
</event>
<event>
 5   0  0.7634227E-04  0.1467695E+04  0.7818609E-02  0.8906224E-01
       -2   -1    0    0    0  501  0.00000000000E+00  0.00000000000E+00  0.11020159789E+04  0.11020159789E+04  0.25500000920E-02 0. -1.
        2   -1    0    0  501    0  0.00000000000E+00  0.00000000000E+00 -0.48867877232E+03  0.48867877233E+03  0.25500000920E-02 0.  1.
    10030    2    1    2    0    0  0.00000000000E+00  0.00000000000E+00  0.61333720657E+03  0.15906947512E+04  0.14676945400E+04 0.  0.
        2    1    3    3  502    0  0.58655867304E+03 -0.13519451881E+03  0.76161270774E+03  0.97076390097E+03  0.25500000920E-02 0. -1.
       -2    1    3    3    0  502 -0.58655867304E+03  0.13519451881E+03 -0.14827550117E+03  0.61993085025E+03  0.25500000920E-02 0.  1.
</event>
<event>
 5   0  0.4084462E-04  0.1510467E+04  0.7818609E-02  0.8877522E-01
       -1   -1    0    0    0  501  0.00000000000E+00  0.00000000000E+00  0.74387699849E+03  0.74387699851E+03  0.50400001928E-02 0.  1.
        1   -1    0    0  501    0  0.00000000000E+00  0.00000000000E+00 -0.76676388069E+03  0.76676388071E+03  0.50400001928E-02 0. -1.
    10030    2    1    2    0    0  0.00000000000E+00  0.00000000000E+00 -0.22886882200E+02  0.15106408792E+04  0.15104674960E+04 0.  0.
        1    1    3    3  502    0 -0.20959783256E+03 -0.72033742533E+03 -0.98406032182E+02  0.75663796160E+03  0.50400001928E-02 0.  1.
       -1    1    3    3    0  502  0.20959783256E+03  0.72033742533E+03  0.75519149982E+02  0.75400291762E+03  0.50400001928E-02 0. -1.
</event>
<event>
 5   0  0.7547580E-04  0.1528223E+04  0.7818609E-02  0.8865899E-01
       -2   -1    0    0    0  501  0.00000000000E+00  0.00000000000E+00  0.42263856335E+03  0.42263856336E+03  0.25500000920E-02 0.  1.
        2   -1    0    0  501    0  0.00000000000E+00  0.00000000000E+00 -0.13814788189E+04  0.13814788189E+04  0.25500000920E-02 0. -1.
    10030    2    1    2    0    0  0.00000000000E+00  0.00000000000E+00 -0.95884025555E+03  0.18041173823E+04  0.15282227892E+04 0.  0.
        4    1    3    3  502    0 -0.13878103322E+03  0.96029851675E+02  0.40036029576E+03  0.43447886821E+03  0.12699999809E+01 0.  1.
       -4    1    3    3    0  502  0.13878103322E+03 -0.96029851675E+02 -0.13592005513E+04  0.13696385141E+04  0.12699999809E+01 0. -1.
</event>
<event>
 5   0  0.4058874E-04  0.1475018E+04  0.7818609E-02  0.8901237E-01
       -1   -1    0    0    0  501  0.00000000000E+00  0.00000000000E+00  0.67074823567E+03  0.67074823569E+03  0.50400001928E-02 0.  1.
        1   -1    0    0  501    0  0.00000000000E+00  0.00000000000E+00 -0.81091500134E+03  0.81091500135E+03  0.50400001928E-02 0. -1.
    10030    2    1    2    0    0  0.00000000000E+00  0.00000000000E+00 -0.14016676567E+03  0.14816632370E+04  0.14750183815E+04 0.  0.
        4    1    3    3  502    0 -0.60822147303E+03 -0.32099608324E+03  0.19747409587E+03  0.71552042399E+03  0.12699999809E+01 0.  1.
       -4    1    3    3    0  502  0.60822147303E+03  0.32099608324E+03 -0.33764086154E+03  0.76614281305E+03  0.12699999809E+01 0. -1.
</event>
<event>
 5   0  0.2800375E-04  0.1468432E+04  0.7818609E-02  0.8905721E-01
       -4   -1    0    0    0  501  0.00000000000E+00  0.00000000000E+00  0.12235175543E+04  0.12235182135E+04  0.12699999809E+01 0. -1.
        4   -1    0    0  501    0  0.00000000000E+00  0.00000000000E+00 -0.44059091750E+03  0.44059274788E+03  0.12699999809E+01 0.  1.
    10030    2    1    2    0    0  0.00000000000E+00  0.00000000000E+00  0.78292663685E+03  0.16641109613E+04  0.14684315350E+04 0.  0.
        2    1    3    3  502    0  0.33341617594E+02  0.12023045258E+03 -0.42849035206E+03  0.44628579072E+03  0.25500000920E-02 0.  1.
       -2    1    3    3    0  502 -0.33341617594E+02 -0.12023045258E+03  0.12114169889E+04  0.12178251706E+04  0.25500000920E-02 0. -1.
</event>
<event>
 5   0  0.4058874E-04  0.1452263E+04  0.7818609E-02  0.8916833E-01
        1   -1    0    0  501    0  0.00000000000E+00  0.00000000000E+00  0.60057858595E+03  0.60057858597E+03  0.50400001928E-02 0.  1.
       -1   -1    0    0    0  501  0.00000000000E+00  0.00000000000E+00 -0.87793209093E+03  0.87793209094E+03  0.50400001928E-02 0. -1.
    10030    2    1    2    0    0  0.00000000000E+00  0.00000000000E+00 -0.27735350498E+03  0.14785106769E+04  0.14522633559E+04 0.  0.
        4    1    3    3  502    0  0.70771369533E+03 -0.11906790483E+03 -0.26089801203E+02  0.71813517609E+03  0.12699999809E+01 0. -1.
       -4    1    3    3    0  502 -0.70771369533E+03  0.11906790483E+03 -0.25126370378E+03  0.76037550082E+03  0.12699999809E+01 0.  1.
</event>
<event>
 5   0  0.3907345E-04  0.1526755E+04  0.7818609E-02  0.8866854E-01
       -1   -1    0    0    0  501  0.00000000000E+00  0.00000000000E+00  0.67976777561E+03  0.67976777562E+03  0.50400001928E-02 0.  1.
        1   -1    0    0  501    0  0.00000000000E+00  0.00000000000E+00 -0.85727072214E+03  0.85727072216E+03  0.50400001928E-02 0. -1.
    10030    2    1    2    0    0  0.00000000000E+00  0.00000000000E+00 -0.17750294653E+03  0.15370384978E+04  0.15267547438E+04 0.  0.
        5    1    3    3  502    0 -0.69121978708E+02  0.71524073658E+03 -0.34812176438E+03  0.79847229885E+03  0.46999998093E+01 0.  1.
       -5    1    3    3    0  502  0.69121978708E+02 -0.71524073658E+03  0.17061881785E+03  0.73856619893E+03  0.46999998093E+01 0. -1.
</event>
<event>
 5   0  0.7359897E-04  0.1473434E+04  0.7818609E-02  0.8902314E-01
       -2   -1    0    0    0  501  0.00000000000E+00  0.00000000000E+00  0.85266183527E+03  0.85266183527E+03  0.25500000920E-02 0. -1.
        2   -1    0    0  501    0  0.00000000000E+00  0.00000000000E+00 -0.63653800465E+03  0.63653800466E+03  0.25500000920E-02 0.  1.
    10030    2    1    2    0    0  0.00000000000E+00  0.00000000000E+00  0.21612383062E+03  0.14891998399E+04  0.14734336270E+04 0.  0.
        1    1    3    3  502    0  0.29074884184E+03  0.51710298636E+03  0.54956709308E+03  0.80867445697E+03  0.50400001928E-02 0. -1.
       -1    1    3    3    0  502 -0.29074884184E+03 -0.51710298636E+03 -0.33344326246E+03  0.68052538295E+03  0.50400001928E-02 0.  1.
</event>
<event>
 5   0  0.4086710E-04  0.1507718E+04  0.7818609E-02  0.8879337E-01
       -1   -1    0    0    0  501  0.00000000000E+00  0.00000000000E+00  0.49004091084E+03  0.49004091087E+03  0.50400001928E-02 0. -1.
        1   -1    0    0  501    0  0.00000000000E+00  0.00000000000E+00 -0.11597055018E+04  0.11597055018E+04  0.50400001928E-02 0.  1.
    10030    2    1    2    0    0  0.00000000000E+00  0.00000000000E+00 -0.66966459095E+03  0.16497464127E+04  0.15077176665E+04 0.  0.
        3    1    3    3  502    0  0.67992086644E+03 -0.27886112832E+03 -0.15093091045E+03  0.75022400884E+03  0.10100000352E+00 0.  1.
       -3    1    3    3    0  502 -0.67992086644E+03  0.27886112832E+03 -0.51873368050E+03  0.89952240383E+03  0.10100000352E+00 0. -1.
</event>
<event>
 5   0  0.7359897E-04  0.1513959E+04  0.7818609E-02  0.8875223E-01
       -2   -1    0    0    0  501  0.00000000000E+00  0.00000000000E+00  0.13111247760E+04  0.13111247760E+04  0.25500000920E-02 0.  1.
        2   -1    0    0  501    0  0.00000000000E+00  0.00000000000E+00 -0.43704300194E+03  0.43704300195E+03  0.25500000920E-02 0. -1.
    10030    2    1    2    0    0  0.00000000000E+00  0.00000000000E+00  0.87408177407E+03  0.17481677780E+04  0.15139589268E+04 0.  0.
        1    1    3    3  502    0 -0.19879926790E+03 -0.67695159227E+03  0.75375985705E+03  0.10324429908E+04  0.50400001928E-02 0.  1.
       -1    1    3    3    0  502  0.19879926790E+03  0.67695159227E+03  0.12032191702E+03  0.71572478714E+03  0.50400001928E-02 0. -1.
</event>
<event>
 5   0  0.4086710E-04  0.1503886E+04  0.7818609E-02  0.8881873E-01
        1   -1    0    0  501    0  0.00000000000E+00  0.00000000000E+00  0.57038941330E+03  0.57038941332E+03  0.50400001928E-02 0.  1.
       -1   -1    0    0    0  501  0.00000000000E+00  0.00000000000E+00 -0.99128497414E+03  0.99128497415E+03  0.50400001928E-02 0. -1.
    10030    2    1    2    0    0  0.00000000000E+00  0.00000000000E+00 -0.42089556084E+03  0.15616743875E+04  0.15038862388E+04 0.  0.
        3    1    3    3  502    0 -0.14379321689E+03 -0.69414817429E+03 -0.47088421946E+03  0.85102886874E+03  0.10100000352E+00 0. -1.
       -3    1    3    3    0  502  0.14379321689E+03  0.69414817429E+03  0.49988658628E+02  0.71064551873E+03  0.10100000352E+00 0.  1.
</event>
<event>
 5   0  0.3907345E-04  0.1469839E+04  0.7818609E-02  0.8904761E-01
       -1   -1    0    0    0  501  0.00000000000E+00  0.00000000000E+00  0.10605054463E+04  0.10605054464E+04  0.50400001928E-02 0. -1.
        1   -1    0    0  501    0  0.00000000000E+00  0.00000000000E+00 -0.50929171266E+03  0.50929171269E+03  0.50400001928E-02 0.  1.
    10030    2    1    2    0    0  0.00000000000E+00  0.00000000000E+00  0.55121373369E+03  0.15697971590E+04  0.14698389505E+04 0.  0.
        5    1    3    3  502    0 -0.44395921523E+03  0.58297662221E+03  0.21592243714E+03  0.76394117292E+03  0.46999998093E+01 0. -1.
       -5    1    3    3    0  502  0.44395921523E+03 -0.58297662221E+03  0.33529129655E+03  0.80585598612E+03  0.46999998093E+01 0.  1.
</event>
<event>
 5   0  0.7547580E-04  0.1511620E+04  0.7818609E-02  0.8876762E-01
       -2   -1    0    0    0  501  0.00000000000E+00  0.00000000000E+00  0.65749356319E+03  0.65749356320E+03  0.25500000920E-02 0.  1.
        2   -1    0    0  501    0  0.00000000000E+00  0.00000000000E+00 -0.86882839089E+03  0.86882839090E+03  0.25500000920E-02 0. -1.
    10030    2    1    2    0    0  0.00000000000E+00  0.00000000000E+00 -0.21133482770E+03  0.15263219541E+04  0.15116204213E+04 0.  0.
        4    1    3    3  502    0  0.69167730332E+03  0.55304835983E+02  0.19686524635E+03  0.72127224745E+03  0.12699999809E+01 0.  1.
       -4    1    3    3    0  502 -0.69167730332E+03 -0.55304835983E+02 -0.40820007405E+03  0.80504970665E+03  0.12699999809E+01 0. -1.
</event>
<event>
 5   0  0.7634227E-04  0.1504638E+04  0.7818609E-02  0.8881375E-01
       -2   -1    0    0    0  501  0.00000000000E+00  0.00000000000E+00  0.28502195010E+03  0.28502195011E+03  0.25500000920E-02 0.  1.
        2   -1    0    0  501    0  0.00000000000E+00  0.00000000000E+00 -0.19857554112E+04  0.19857554112E+04  0.25500000920E-02 0. -1.
    10030    2    1    2    0    0  0.00000000000E+00  0.00000000000E+00 -0.17007334611E+04  0.22707773613E+04  0.15046380026E+04 0.  0.
        2    1    3    3  502    0  0.23323529076E+03  0.71422071310E+03 -0.90830748919E+03  0.11787842987E+04  0.25500000920E-02 0. -1.
       -2    1    3    3    0  502 -0.23323529076E+03 -0.71422071310E+03 -0.79242597190E+03  0.10919930626E+04  0.25500000920E-02 0.  1.
</event>
<event>
 5   0  0.4058874E-04  0.1509332E+04  0.7818609E-02  0.8878271E-01
       -1   -1    0    0    0  501  0.00000000000E+00  0.00000000000E+00  0.99550669932E+03  0.99550669933E+03  0.50400001928E-02 0. -1.
        1   -1    0    0  501    0  0.00000000000E+00  0.00000000000E+00 -0.57209138621E+03  0.57209138623E+03  0.50400001928E-02 0.  1.
    10030    2    1    2    0    0  0.00000000000E+00  0.00000000000E+00  0.42341531311E+03  0.15675980856E+04  0.15093320478E+04 0.  0.
        4    1    3    3  502    0  0.72259941323E+03  0.20892805023E+03  0.14837536350E+03  0.76669270478E+03  0.12699999809E+01 0.  1.
       -4    1    3    3    0  502 -0.72259941323E+03 -0.20892805023E+03  0.27503994961E+03  0.80090538078E+03  0.12699999809E+01 0. -1.
</event>
<event>
 5   0  0.7672251E-04  0.1471045E+04  0.7818609E-02  0.8903939E-01
        2   -1    0    0  501    0  0.00000000000E+00  0.00000000000E+00  0.13271717359E+04  0.13271717359E+04  0.25500000920E-02 0. -1.
       -2   -1    0    0    0  501  0.00000000000E+00  0.00000000000E+00 -0.40762867657E+03  0.40762867658E+03  0.25500000920E-02 0.  1.
    10030    2    1    2    0    0  0.00000000000E+00  0.00000000000E+00  0.91954305932E+03  0.17348004125E+04  0.14710448780E+04 0.  0.
        5    1    3    3  502    0  0.21446445263E+03 -0.11093538950E+03 -0.35953897962E+03  0.43311895589E+03  0.46999998093E+01 0.  1.
       -5    1    3    3    0  502 -0.21446445263E+03  0.11093538950E+03  0.12790820389E+04  0.13016814566E+04  0.46999998093E+01 0. -1.
</event>
<event>
 5   0  0.4084462E-04  0.1518204E+04  0.7818609E-02  0.8872437E-01
       -1   -1    0    0    0  501  0.00000000000E+00  0.00000000000E+00  0.49329949408E+03  0.49329949410E+03  0.50400001928E-02 0.  1.
        1   -1    0    0  501    0  0.00000000000E+00  0.00000000000E+00 -0.11681253641E+04  0.11681253642E+04  0.50400001928E-02 0. -1.
    10030    2    1    2    0    0  0.00000000000E+00  0.00000000000E+00 -0.67482587006E+03  0.16614248583E+04  0.15182037428E+04 0.  0.
        1    1    3    3  502    0  0.50134472188E+03 -0.51906857973E+03 -0.79704543395E+02  0.72603824616E+03  0.50400001928E-02 0.  1.
       -1    1    3    3    0  502 -0.50134472188E+03  0.51906857973E+03 -0.59512132667E+03  0.93538661210E+03  0.50400001928E-02 0. -1.
</event>
<event>
 5   0  0.7547580E-04  0.1484360E+04  0.7818609E-02  0.8894921E-01
       -2   -1    0    0    0  501  0.00000000000E+00  0.00000000000E+00  0.11335080319E+04  0.11335080319E+04  0.25500000920E-02 0.  1.
        2   -1    0    0  501    0  0.00000000000E+00  0.00000000000E+00 -0.48595230101E+03  0.48595230102E+03  0.25500000920E-02 0. -1.
    10030    2    1    2    0    0  0.00000000000E+00  0.00000000000E+00  0.64755573086E+03  0.16194603329E+04  0.14843595741E+04 0.  0.
        4    1    3    3  502    0 -0.49032028543E+03 -0.22769961649E+03  0.87855517560E+03  0.10315628469E+04  0.12699999809E+01 0.  1.
       -4    1    3    3    0  502  0.49032028543E+03  0.22769961649E+03 -0.23099944474E+03  0.58789748598E+03  0.12699999809E+01 0. -1.
</event>
<event>
 5   0  0.4015204E-04  0.1499875E+04  0.7818609E-02  0.8884536E-01
        1   -1    0    0  501    0  0.00000000000E+00  0.00000000000E+00  0.10435664914E+04  0.10435664914E+04  0.50400001928E-02 0.  1.
       -1   -1    0    0    0  501  0.00000000000E+00  0.00000000000E+00 -0.53892740598E+03  0.53892740600E+03  0.50400001928E-02 0. -1.
    10030    2    1    2    0    0  0.00000000000E+00  0.00000000000E+00  0.50463908538E+03  0.15824938974E+04  0.14998754377E+04 0.  0.
        2    1    3    3  502    0  0.35508613681E+03  0.39868371440E+02 -0.44334059956E+03  0.56940893813E+03  0.25500000920E-02 0. -1.
       -2    1    3    3    0  502 -0.35508613681E+03 -0.39868371440E+02  0.94797968494E+03  0.10130849593E+04  0.25500000920E-02 0.  1.
</event>
<event>
 5   0  0.4015204E-04  0.1552417E+04  0.7818609E-02  0.8850325E-01
       -1   -1    0    0    0  501  0.00000000000E+00  0.00000000000E+00  0.52325326406E+03  0.52325326409E+03  0.50400001928E-02 0. -1.
        1   -1    0    0  501    0  0.00000000000E+00  0.00000000000E+00 -0.11514496275E+04  0.11514496275E+04  0.50400001928E-02 0.  1.
    10030    2    1    2    0    0  0.00000000000E+00  0.00000000000E+00 -0.62819636343E+03  0.16747028916E+04  0.15524171811E+04 0.  0.
        2    1    3    3  502    0  0.43004248717E+03  0.56098612426E+02  0.38036253099E+03  0.57685288426E+03  0.25500000920E-02 0. -1.
       -2    1    3    3    0  502 -0.43004248717E+03 -0.56098612426E+02 -0.10085588944E+04  0.10978500073E+04  0.25500000920E-02 0.  1.
</event>
<event>
 5   0  0.7634227E-04  0.1505165E+04  0.7818609E-02  0.8881026E-01
        2   -1    0    0  501    0  0.00000000000E+00  0.00000000000E+00  0.10677602088E+04  0.10677602088E+04  0.25500000920E-02 0. -1.
       -2   -1    0    0    0  501  0.00000000000E+00  0.00000000000E+00 -0.53043772139E+03  0.53043772139E+03  0.25500000920E-02 0.  1.
    10030    2    1    2    0    0  0.00000000000E+00  0.00000000000E+00  0.53732248744E+03  0.15981979302E+04  0.15051648311E+04 0.  0.
        2    1    3    3  502    0  0.38242535692E+03 -0.58307794660E+03  0.56927001100E+03  0.90016520198E+03  0.25500000920E-02 0.  1.
       -2    1    3    3    0  502 -0.38242535692E+03  0.58307794660E+03 -0.31947523559E+02  0.69803272824E+03  0.25500000920E-02 0. -1.
</event>
<event>
 5   0  0.3907345E-04  0.1496589E+04  0.7818609E-02  0.8886724E-01
        1   -1    0    0  501    0  0.00000000000E+00  0.00000000000E+00  0.11216769493E+04  0.11216769494E+04  0.50400001928E-02 0.  1.
       -1   -1    0    0    0  501  0.00000000000E+00  0.00000000000E+00 -0.49920304920E+03  0.49920304922E+03  0.50400001928E-02 0. -1.
    10030    2    1    2    0    0  0.00000000000E+00  0.00000000000E+00  0.62247390015E+03  0.16208799986E+04  0.14965888592E+04 0.  0.
        5    1    3    3  502    0  0.50087770061E+03 -0.35022825917E+03  0.77881364225E+03  0.99000559789E+03  0.46999998093E+01 0.  1.
       -5    1    3    3    0  502 -0.50087770061E+03  0.35022825917E+03 -0.15633974211E+03  0.63087440069E+03  0.46999998093E+01 0. -1.
</event>
<event>
 5   0  0.4058874E-04  0.1534541E+04  0.7818609E-02  0.8861803E-01
        1   -1    0    0  501    0  0.00000000000E+00  0.00000000000E+00  0.88975831014E+03  0.88975831015E+03  0.50400001928E-02 0.  1.
       -1   -1    0    0    0  501  0.00000000000E+00  0.00000000000E+00 -0.66164466709E+03  0.66164466711E+03  0.50400001928E-02 0. -1.
    10030    2    1    2    0    0  0.00000000000E+00  0.00000000000E+00  0.22811364305E+03  0.15514029773E+04  0.15345407664E+04 0.  0.
        4    1    3    3  502    0  0.57171969549E+03 -0.41131417514E+03 -0.19368823787E+03  0.73045157764E+03  0.12699999809E+01 0. -1.
       -4    1    3    3    0  502 -0.57171969549E+03  0.41131417514E+03  0.42180188093E+03  0.82095139962E+03  0.12699999809E+01 0.  1.
</event>
<event>
 5   0  0.3907345E-04  0.1496861E+04  0.7818609E-02  0.8886543E-01
        1   -1    0    0  501    0  0.00000000000E+00  0.00000000000E+00  0.62475931911E+03  0.62475931913E+03  0.50400001928E-02 0.  1.
       -1   -1    0    0    0  501  0.00000000000E+00  0.00000000000E+00 -0.89658243370E+03  0.89658243371E+03  0.50400001928E-02 0. -1.
    10030    2    1    2    0    0  0.00000000000E+00  0.00000000000E+00 -0.27182311459E+03  0.15213417528E+04  0.14968610234E+04 0.  0.
        5    1    3    3  502    0 -0.36403993327E+03  0.19812693769E+03  0.49745504816E+03  0.64750519024E+03  0.46999998093E+01 0.  1.
       -5    1    3    3    0  502  0.36403993327E+03 -0.19812693769E+03 -0.76927816275E+03  0.87383656260E+03  0.46999998093E+01 0. -1.
</event>
<event>
 5   0  0.7634227E-04  0.1520474E+04  0.7818609E-02  0.8870951E-01
       -2   -1    0    0    0  501  0.00000000000E+00  0.00000000000E+00  0.11481578938E+04  0.11481578938E+04  0.25500000920E-02 0.  1.
        2   -1    0    0  501    0  0.00000000000E+00  0.00000000000E+00 -0.50338061184E+03  0.50338061185E+03  0.25500000920E-02 0. -1.
    10030    2    1    2    0    0  0.00000000000E+00  0.00000000000E+00  0.64477728191E+03  0.16515385056E+04  0.15204741669E+04 0.  0.
        2    1    3    3  502    0  0.44611204813E+03 -0.40315052339E+03 -0.18291503015E+03  0.62849360559E+03  0.25500000920E-02 0. -1.
       -2    1    3    3    0  502 -0.44611204813E+03  0.40315052339E+03  0.82769231206E+03  0.10230449000E+04  0.25500000920E-02 0.  1.
</event>
<event>
 5   0  0.7634227E-04  0.1488052E+04  0.7818609E-02  0.8892437E-01
        2   -1    0    0  501    0  0.00000000000E+00  0.00000000000E+00  0.12754808973E+04  0.12754808973E+04  0.25500000920E-02 0. -1.
       -2   -1    0    0    0  501  0.00000000000E+00  0.00000000000E+00 -0.43401266859E+03  0.43401266859E+03  0.25500000920E-02 0.  1.
    10030    2    1    2    0    0  0.00000000000E+00  0.00000000000E+00  0.84146822873E+03  0.17094935659E+04  0.14880522410E+04 0.  0.
        2    1    3    3  502    0  0.33309587814E+03  0.19615213262E+03 -0.30959501003E+03  0.49525507913E+03  0.25500000920E-02 0.  1.
       -2    1    3    3    0  502 -0.33309587814E+03 -0.19615213262E+03  0.11510632388E+04  0.12142384868E+04  0.25500000920E-02 0. -1.
</event>
<event>
 5   0  0.4084462E-04  0.1478812E+04  0.7818609E-02  0.8898666E-01
       -1   -1    0    0    0  501  0.00000000000E+00  0.00000000000E+00  0.52938014794E+03  0.52938014796E+03  0.50400001928E-02 0. -1.
        1   -1    0    0  501    0  0.00000000000E+00  0.00000000000E+00 -0.10327577401E+04  0.10327577401E+04  0.50400001928E-02 0.  1.
    10030    2    1    2    0    0  0.00000000000E+00  0.00000000000E+00 -0.50337759212E+03  0.15621378880E+04  0.14788122873E+04 0.  0.
        1    1    3    3  502    0  0.53036295648E+03  0.79221240899E+02  0.28607403633E+03  0.60778221832E+03  0.50400001928E-02 0. -1.
       -1    1    3    3    0  502 -0.53036295648E+03 -0.79221240899E+02 -0.78945162845E+03  0.95435566971E+03  0.50400001928E-02 0.  1.
</event>
<event>
 5   0  0.7454828E-04  0.1519883E+04  0.7818609E-02  0.8871338E-01
       -2   -1    0    0    0  501  0.00000000000E+00  0.00000000000E+00  0.91772801320E+03  0.91772801320E+03  0.25500000920E-02 0.  1.
        2   -1    0    0  501    0  0.00000000000E+00  0.00000000000E+00 -0.62928345468E+03  0.62928345469E+03  0.25500000920E-02 0. -1.
    10030    2    1    2    0    0  0.00000000000E+00  0.00000000000E+00  0.28844455852E+03  0.15470114679E+04  0.15198829621E+04 0.  0.
        3    1    3    3  502    0  0.68802202092E+03 -0.29123984770E+03  0.27592204312E+01  0.74712955613E+03  0.10100000352E+00 0. -1.
       -3    1    3    3    0  502 -0.68802202092E+03  0.29123984770E+03  0.28568533809E+03  0.79988191175E+03  0.10100000352E+00 0.  1.
</event>
<event>
 5   0  0.7454828E-04  0.1574039E+04  0.7818609E-02  0.8836657E-01
       -2   -1    0    0    0  501  0.00000000000E+00  0.00000000000E+00  0.47716193796E+03  0.47716193796E+03  0.25500000920E-02 0. -1.
        2   -1    0    0  501    0  0.00000000000E+00  0.00000000000E+00 -0.12980916448E+04  0.12980916448E+04  0.25500000920E-02 0.  1.
    10030    2    1    2    0    0  0.00000000000E+00  0.00000000000E+00 -0.82092970681E+03  0.17752535827E+04  0.15740392941E+04 0.  0.
        3    1    3    3  502    0 -0.25087761916E+01 -0.67339136294E+03 -0.86989273921E+03  0.11000798196E+04  0.10100000352E+00 0.  1.
       -3    1    3    3    0  502  0.25087761916E+01  0.67339136294E+03  0.48963032402E+02  0.67517376310E+03  0.10100000352E+00 0. -1.
</event>
<event>
 5   0  0.7547580E-04  0.1449139E+04  0.7818609E-02  0.8918998E-01
        2   -1    0    0  501    0  0.00000000000E+00  0.00000000000E+00  0.95649619285E+03  0.95649619286E+03  0.25500000920E-02 0. -1.
       -2   -1    0    0    0  501  0.00000000000E+00  0.00000000000E+00 -0.54887903809E+03  0.54887903810E+03  0.25500000920E-02 0.  1.
    10030    2    1    2    0    0  0.00000000000E+00  0.00000000000E+00  0.40761715476E+03  0.15053752310E+04  0.14491386549E+04 0.  0.
        4    1    3    3  502    0  0.27468372750E+02  0.30358256284E+03 -0.47902995361E+03  0.56779238575E+03  0.12699999809E+01 0.  1.
       -4    1    3    3    0  502 -0.27468372750E+02 -0.30358256284E+03  0.88664710837E+03  0.93758284521E+03  0.12699999809E+01 0. -1.
</event>
<event>
 5   0  0.4058874E-04  0.1537154E+04  0.7818609E-02  0.8860115E-01
       -1   -1    0    0    0  501  0.00000000000E+00  0.00000000000E+00  0.15356183815E+04  0.15356183815E+04  0.50400001928E-02 0.  1.
        1   -1    0    0  501    0  0.00000000000E+00  0.00000000000E+00 -0.38467282322E+03  0.38467282325E+03  0.50400001928E-02 0. -1.
    10030    2    1    2    0    0  0.00000000000E+00  0.00000000000E+00  0.11509455583E+04  0.19202912047E+04  0.15371540693E+04 0.  0.
        4    1    3    3  502    0 -0.64989888726E+03 -0.37124206229E+03  0.35722962644E+03  0.82933940662E+03  0.12699999809E+01 0.  1.
       -4    1    3    3    0  502  0.64989888726E+03  0.37124206229E+03  0.79371593182E+03  0.10909517981E+04  0.12699999809E+01 0. -1.
</event>
<event>
 5   0  0.4058874E-04  0.1488189E+04  0.7818609E-02  0.8892346E-01
        1   -1    0    0  501    0  0.00000000000E+00  0.00000000000E+00  0.95777735717E+03  0.95777735718E+03  0.50400001928E-02 0.  1.
       -1   -1    0    0    0  501  0.00000000000E+00  0.00000000000E+00 -0.57808451834E+03  0.57808451836E+03  0.50400001928E-02 0. -1.
    10030    2    1    2    0    0  0.00000000000E+00  0.00000000000E+00  0.37969283883E+03  0.15358618755E+04  0.14881885126E+04 0.  0.
        4    1    3    3  502    0 -0.42438886632E+03 -0.40235483073E+03  0.66467126755E+03  0.88531622964E+03  0.12699999809E+01 0.  1.
       -4    1    3    3    0  502  0.42438886632E+03  0.40235483073E+03 -0.28497842872E+03  0.65054564590E+03  0.12699999809E+01 0. -1.
</event>
<event>
 5   0  0.7672251E-04  0.1501570E+04  0.7818609E-02  0.8883409E-01
        2   -1    0    0  501    0  0.00000000000E+00  0.00000000000E+00  0.13970569607E+04  0.13970569607E+04  0.25500000920E-02 0.  1.
       -2   -1    0    0    0  501  0.00000000000E+00  0.00000000000E+00 -0.40347553828E+03  0.40347553828E+03  0.25500000920E-02 0. -1.
    10030    2    1    2    0    0  0.00000000000E+00  0.00000000000E+00  0.99358142243E+03  0.18005324990E+04  0.15015702571E+04 0.  0.
        5    1    3    3  502    0 -0.62117045981E+03  0.41820415102E+03  0.43211967985E+03  0.86457906508E+03  0.46999998093E+01 0. -1.
       -5    1    3    3    0  502  0.62117045981E+03 -0.41820415102E+03  0.56146174258E+03  0.93595343391E+03  0.46999998093E+01 0.  1.
</event>
<event>
 5   0  0.4058874E-04  0.1489948E+04  0.7818609E-02  0.8891165E-01
       -1   -1    0    0    0  501  0.00000000000E+00  0.00000000000E+00  0.61203884643E+03  0.61203884646E+03  0.50400001928E-02 0. -1.
        1   -1    0    0  501    0  0.00000000000E+00  0.00000000000E+00 -0.90678232820E+03  0.90678232821E+03  0.50400001928E-02 0.  1.
    10030    2    1    2    0    0  0.00000000000E+00  0.00000000000E+00 -0.29474348176E+03  0.15188211747E+04  0.14899476637E+04 0.  0.
        4    1    3    3  502    0  0.69636352743E+03 -0.88922392668E+02  0.10676872123E+03  0.71009191446E+03  0.12699999809E+01 0. -1.
       -4    1    3    3    0  502 -0.69636352743E+03  0.88922392668E+02 -0.40151220300E+03  0.80872926020E+03  0.12699999809E+01 0.  1.
</event>
<event>
 5   0  0.7454828E-04  0.1511557E+04  0.7818609E-02  0.8876804E-01
        2   -1    0    0  501    0  0.00000000000E+00  0.00000000000E+00  0.13836745079E+04  0.13836745079E+04  0.25500000920E-02 0. -1.
       -2   -1    0    0    0  501  0.00000000000E+00  0.00000000000E+00 -0.41281459386E+03  0.41281459386E+03  0.25500000920E-02 0.  1.
    10030    2    1    2    0    0  0.00000000000E+00  0.00000000000E+00  0.97085991400E+03  0.17964891017E+04  0.15115568530E+04 0.  0.
        3    1    3    3  502    0  0.30424645947E+03 -0.31533102331E+03  0.12173019014E+04  0.12937633059E+04  0.10100000352E+00 0. -1.
       -3    1    3    3    0  502 -0.30424645947E+03  0.31533102331E+03 -0.24644198744E+03  0.50272579578E+03  0.10100000352E+00 0.  1.
</event>
<event>
 5   0  0.7454828E-04  0.1473124E+04  0.7818609E-02  0.8902524E-01
        2   -1    0    0  501    0  0.00000000000E+00  0.00000000000E+00  0.13814724626E+04  0.13814724626E+04  0.25500000920E-02 0. -1.
       -2   -1    0    0    0  501  0.00000000000E+00  0.00000000000E+00 -0.39271414929E+03  0.39271414930E+03  0.25500000920E-02 0.  1.
    10030    2    1    2    0    0  0.00000000000E+00  0.00000000000E+00  0.98875831334E+03  0.17741866119E+04  0.14731242757E+04 0.  0.
        3    1    3    3  502    0 -0.38060435818E+03 -0.47674619473E+03  0.99150415225E+03  0.11641422189E+04  0.10100000352E+00 0. -1.
       -3    1    3    3    0  502  0.38060435818E+03  0.47674619473E+03 -0.27458389178E+01  0.61004439305E+03  0.10100000352E+00 0.  1.
</event>
<event>
 5   0  0.4058874E-04  0.1493632E+04  0.7818609E-02  0.8888699E-01
        1   -1    0    0  501    0  0.00000000000E+00  0.00000000000E+00  0.90701527969E+03  0.90701527970E+03  0.50400001928E-02 0.  1.
       -1   -1    0    0    0  501  0.00000000000E+00  0.00000000000E+00 -0.61491135855E+03  0.61491135857E+03  0.50400001928E-02 0. -1.
    10030    2    1    2    0    0  0.00000000000E+00  0.00000000000E+00  0.29210392114E+03  0.15219266383E+04  0.14936318126E+04 0.  0.
        4    1    3    3  502    0 -0.67859511480E+03  0.30136615521E+03  0.64412407583E+02  0.74529421069E+03  0.12699999809E+01 0.  1.
       -4    1    3    3    0  502  0.67859511480E+03 -0.30136615521E+03  0.22769151355E+03  0.77663242759E+03  0.12699999809E+01 0. -1.
</event>
<event>
 5   0  0.4086710E-04  0.1538759E+04  0.7818609E-02  0.8859080E-01
        1   -1    0    0  501    0  0.00000000000E+00  0.00000000000E+00  0.10563662231E+04  0.10563662231E+04  0.50400001928E-02 0. -1.
       -1   -1    0    0    0  501  0.00000000000E+00  0.00000000000E+00 -0.56035976979E+03  0.56035976982E+03  0.50400001928E-02 0.  1.
    10030    2    1    2    0    0  0.00000000000E+00  0.00000000000E+00  0.49600645330E+03  0.16167259929E+04  0.15387594141E+04 0.  0.
        3    1    3    3  502    0 -0.81747298973E+02  0.72143456230E+03 -0.19442310485E+02  0.72631154624E+03  0.10100000352E+00 0.  1.
       -3    1    3    3    0  502  0.81747298973E+02 -0.72143456230E+03  0.51544876379E+03  0.89041444668E+03  0.10100000352E+00 0. -1.
</event>
<event>
 5   0  0.4058874E-04  0.1505823E+04  0.7818609E-02  0.8880590E-01
        1   -1    0    0  501    0  0.00000000000E+00  0.00000000000E+00  0.16773938884E+04  0.16773938884E+04  0.50400001928E-02 0. -1.
       -1   -1    0    0    0  501  0.00000000000E+00  0.00000000000E+00 -0.33795017989E+03  0.33795017992E+03  0.50400001928E-02 0.  1.
    10030    2    1    2    0    0  0.00000000000E+00  0.00000000000E+00  0.13394437085E+04  0.20153440683E+04  0.15058227869E+04 0.  0.
        4    1    3    3  502    0  0.43667333769E+03  0.30993293592E+03 -0.38642402954E+02  0.53687696618E+03  0.12699999809E+01 0.  1.
       -4    1    3    3    0  502 -0.43667333769E+03 -0.30993293592E+03  0.13780861115E+04  0.14784671022E+04  0.12699999809E+01 0. -1.
</event>
<event>
 5   0  0.7672251E-04  0.1492902E+04  0.7818609E-02  0.8889187E-01
        2   -1    0    0  501    0  0.00000000000E+00  0.00000000000E+00  0.10145236471E+04  0.10145236471E+04  0.25500000920E-02 0. -1.
       -2   -1    0    0    0  501  0.00000000000E+00  0.00000000000E+00 -0.54921251928E+03  0.54921251929E+03  0.25500000920E-02 0.  1.
    10030    2    1    2    0    0  0.00000000000E+00  0.00000000000E+00  0.46531112781E+03  0.15637361664E+04  0.14929019902E+04 0.  0.
        5    1    3    3  502    0  0.70064197972E+02  0.73769888933E+03  0.13862795766E+03  0.75388888028E+03  0.46999998093E+01 0.  1.
       -5    1    3    3    0  502 -0.70064197972E+02 -0.73769888933E+03  0.32668317014E+03  0.80984728610E+03  0.46999998093E+01 0. -1.
</event>
<event>
 5   0  0.4058874E-04  0.1594309E+04  0.7818609E-02  0.8824052E-01
       -1   -1    0    0    0  501  0.00000000000E+00  0.00000000000E+00  0.38736393217E+03  0.38736393220E+03  0.50400001928E-02 0. -1.
        1   -1    0    0  501    0  0.00000000000E+00  0.00000000000E+00 -0.16404614664E+04  0.16404614664E+04  0.50400001928E-02 0.  1.
    10030    2    1    2    0    0  0.00000000000E+00  0.00000000000E+00 -0.12530975343E+04  0.20278253986E+04  0.15943093856E+04 0.  0.
        4    1    3    3  502    0 -0.12579564118E+03 -0.18755519900E+03 -0.15989210348E+04  0.16147914988E+04  0.12699999809E+01 0.  1.
       -4    1    3    3    0  502  0.12579564118E+03  0.18755519900E+03  0.34582350055E+03  0.41303389987E+03  0.12699999809E+01 0. -1.
</event>
<event>
 5   0  0.2800375E-04  0.1496674E+04  0.7818609E-02  0.8886668E-01
       -3   -1    0    0    0  501  0.00000000000E+00  0.00000000000E+00  0.64345782499E+03  0.64345783292E+03  0.10100000352E+00 0. -1.
        3   -1    0    0  501    0  0.00000000000E+00  0.00000000000E+00 -0.87031033197E+03  0.87031033783E+03  0.10100000352E+00 0.  1.
    10030    2    1    2    0    0  0.00000000000E+00  0.00000000000E+00 -0.22685250697E+03  0.15137681707E+04  0.14966736501E+04 0.  0.
        3    1    3    3  502    0  0.11286808698E+03  0.58583141410E+03 -0.57032735337E+03  0.82535504543E+03  0.10100000352E+00 0.  1.
       -3    1    3    3    0  502 -0.11286808698E+03 -0.58583141410E+03  0.34347484640E+03  0.68841312532E+03  0.10100000352E+00 0. -1.
</event>
<event>
 5   0  0.4015204E-04  0.1503496E+04  0.7818609E-02  0.8882131E-01
        1   -1    0    0  501    0  0.00000000000E+00  0.00000000000E+00  0.11760258496E+04  0.11760258496E+04  0.50400001928E-02 0.  1.
       -1   -1    0    0    0  501  0.00000000000E+00  0.00000000000E+00 -0.48053813126E+03  0.48053813129E+03  0.50400001928E-02 0. -1.
    10030    2    1    2    0    0  0.00000000000E+00  0.00000000000E+00  0.69548771829E+03  0.16565639809E+04  0.15034962775E+04 0.  0.
        2    1    3    3  502    0  0.73201763368E+03  0.16251482767E+03  0.40671249571E+03  0.85303923674E+03  0.25500000920E-02 0.  1.
       -2    1    3    3    0  502 -0.73201763368E+03 -0.16251482767E+03  0.28877522258E+03  0.80352474412E+03  0.25500000920E-02 0. -1.
</event>
<event>
 5   0  0.3907345E-04  0.1499710E+04  0.7818609E-02  0.8884646E-01
       -1   -1    0    0    0  501  0.00000000000E+00  0.00000000000E+00  0.62232106685E+03  0.62232106687E+03  0.50400001928E-02 0.  1.
        1   -1    0    0  501    0  0.00000000000E+00  0.00000000000E+00 -0.90352462480E+03  0.90352462481E+03  0.50400001928E-02 0. -1.
    10030    2    1    2    0    0  0.00000000000E+00  0.00000000000E+00 -0.28120355795E+03  0.15258456917E+04  0.14997098499E+04 0.  0.
        5    1    3    3  502    0  0.20207257645E+03 -0.55418726883E+03 -0.61159859013E+03  0.84972453215E+03  0.46999998093E+01 0. -1.
       -5    1    3    3    0  502 -0.20207257645E+03  0.55418726883E+03  0.33039503218E+03  0.67612115954E+03  0.46999998093E+01 0.  1.
</event>
<event>
 5   0  0.7634227E-04  0.1493245E+04  0.7818609E-02  0.8888957E-01
       -2   -1    0    0    0  501  0.00000000000E+00  0.00000000000E+00  0.45588569828E+03  0.45588569828E+03  0.25500000920E-02 0.  1.
        2   -1    0    0  501    0  0.00000000000E+00  0.00000000000E+00 -0.12227736668E+04  0.12227736668E+04  0.25500000920E-02 0. -1.
    10030    2    1    2    0    0  0.00000000000E+00  0.00000000000E+00 -0.76688796850E+03  0.16786593651E+04  0.14932448251E+04 0.  0.
        2    1    3    3  502    0 -0.19408029793E+03  0.44115323934E+02  0.42551383490E+03  0.46976094724E+03  0.25500000920E-02 0.  1.
       -2    1    3    3    0  502  0.19408029793E+03 -0.44115323934E+02 -0.11924018034E+04  0.12088984178E+04  0.25500000920E-02 0. -1.
</event>
<event>
 5   0  0.7547580E-04  0.1503545E+04  0.7818609E-02  0.8882099E-01
        2   -1    0    0  501    0  0.00000000000E+00  0.00000000000E+00  0.58213542625E+03  0.58213542625E+03  0.25500000920E-02 0.  1.
       -2   -1    0    0    0  501  0.00000000000E+00  0.00000000000E+00 -0.97084251971E+03  0.97084251972E+03  0.25500000920E-02 0. -1.
    10030    2    1    2    0    0  0.00000000000E+00  0.00000000000E+00 -0.38870709347E+03  0.15529779460E+04  0.15035449099E+04 0.  0.
        4    1    3    3  502    0 -0.13344230190E+02  0.72478467564E+03 -0.40007341761E+03  0.82798022132E+03  0.12699999809E+01 0.  1.
       -4    1    3    3    0  502  0.13344230190E+02 -0.72478467564E+03  0.11366324144E+02  0.72499772465E+03  0.12699999809E+01 0. -1.
</event>
<event>
 5   0  0.7454828E-04  0.1458247E+04  0.7818609E-02  0.8912703E-01
       -2   -1    0    0    0  501  0.00000000000E+00  0.00000000000E+00  0.16904656056E+04  0.16904656056E+04  0.25500000920E-02 0.  1.
        2   -1    0    0  501    0  0.00000000000E+00  0.00000000000E+00 -0.31448191530E+03  0.31448191531E+03  0.25500000920E-02 0. -1.
    10030    2    1    2    0    0  0.00000000000E+00  0.00000000000E+00  0.13759836903E+04  0.20049475209E+04  0.14582467026E+04 0.  0.
        3    1    3    3  502    0 -0.28806403737E+03 -0.37055185688E+02  0.16074995526E+04  0.16335264914E+04  0.10100000352E+00 0.  1.
       -3    1    3    3    0  502  0.28806403737E+03  0.37055185688E+02 -0.23151586232E+03  0.37142102945E+03  0.10100000352E+00 0. -1.
</event>
<event>
 5   0  0.4058874E-04  0.1448425E+04  0.7818609E-02  0.8919493E-01
        1   -1    0    0  501    0  0.00000000000E+00  0.00000000000E+00  0.83979425534E+03  0.83979425535E+03  0.50400001928E-02 0. -1.
       -1   -1    0    0    0  501  0.00000000000E+00  0.00000000000E+00 -0.62453823759E+03  0.62453823761E+03  0.50400001928E-02 0.  1.
    10030    2    1    2    0    0  0.00000000000E+00  0.00000000000E+00  0.21525601775E+03  0.14643324930E+04  0.14484248330E+04 0.  0.
        4    1    3    3  502    0 -0.55165462947E+03 -0.29740544757E+03  0.47453143021E+03  0.78610083426E+03  0.12699999809E+01 0. -1.
       -4    1    3    3    0  502  0.55165462947E+03  0.29740544757E+03 -0.25927541246E+03  0.67823165870E+03  0.12699999809E+01 0.  1.
</event>
<event>
 5   0  0.4086710E-04  0.1503791E+04  0.7818609E-02  0.8881936E-01
       -1   -1    0    0    0  501  0.00000000000E+00  0.00000000000E+00  0.47530977833E+03  0.47530977836E+03  0.50400001928E-02 0. -1.
        1   -1    0    0  501    0  0.00000000000E+00  0.00000000000E+00 -0.11894276092E+04  0.11894276092E+04  0.50400001928E-02 0.  1.
    10030    2    1    2    0    0  0.00000000000E+00  0.00000000000E+00 -0.71411783090E+03  0.16647373876E+04  0.15037906414E+04 0.  0.
        3    1    3    3  502    0  0.48628645425E+03  0.56958954851E+03 -0.43082211626E+03  0.86401069172E+03  0.10100000352E+00 0.  1.
       -3    1    3    3    0  502 -0.48628645425E+03 -0.56958954851E+03 -0.28329571464E+03  0.80072669588E+03  0.10100000352E+00 0. -1.
</event>
<event>
 5   0  0.3907345E-04  0.1500878E+04  0.7818609E-02  0.8883870E-01
        1   -1    0    0  501    0  0.00000000000E+00  0.00000000000E+00  0.19432212958E+04  0.19432212958E+04  0.50400001928E-02 0.  1.
       -1   -1    0    0    0  501  0.00000000000E+00  0.00000000000E+00 -0.28980657980E+03  0.28980657984E+03  0.50400001928E-02 0. -1.
    10030    2    1    2    0    0  0.00000000000E+00  0.00000000000E+00  0.16534147160E+04  0.22330278756E+04  0.15008775001E+04 0.  0.
        5    1    3    3  502    0 -0.77760707995E+02  0.34986186661E+02  0.19359683591E+04  0.19378509588E+04  0.46999998093E+01 0.  1.
       -5    1    3    3    0  502  0.77760707995E+02 -0.34986186661E+02 -0.28255364316E+03  0.29517691682E+03  0.46999998093E+01 0. -1.
</event>
<event>
 5   0  0.3907345E-04  0.1496959E+04  0.7818609E-02  0.8886478E-01
        1   -1    0    0  501    0  0.00000000000E+00  0.00000000000E+00  0.12391028646E+04  0.12391028646E+04  0.50400001928E-02 0.  1.
       -1   -1    0    0    0  501  0.00000000000E+00  0.00000000000E+00 -0.45211845804E+03  0.45211845807E+03  0.50400001928E-02 0. -1.
    10030    2    1    2    0    0  0.00000000000E+00  0.00000000000E+00  0.78698440655E+03  0.16912213227E+04  0.14969586187E+04 0.  0.
        5    1    3    3  502    0 -0.54029833370E+03  0.48086346713E+03  0.17603766249E+03  0.74442146129E+03  0.46999998093E+01 0.  1.
       -5    1    3    3    0  502  0.54029833370E+03 -0.48086346713E+03  0.61094674406E+03  0.94679986137E+03  0.46999998093E+01 0. -1.
</event>
<event>
 5   0  0.7634227E-04  0.1515094E+04  0.7818609E-02  0.8874477E-01
       -2   -1    0    0    0  501  0.00000000000E+00  0.00000000000E+00  0.48922947063E+03  0.48922947064E+03  0.25500000920E-02 0. -1.
        2   -1    0    0  501    0  0.00000000000E+00  0.00000000000E+00 -0.11730226489E+04  0.11730226489E+04  0.25500000920E-02 0.  1.
    10030    2    1    2    0    0  0.00000000000E+00  0.00000000000E+00 -0.68379317831E+03  0.16622521196E+04  0.15150937259E+04 0.  0.
        2    1    3    3  502    0  0.31171625823E+03 -0.47817224777E+03 -0.88832981737E+03  0.10559098392E+04  0.25500000920E-02 0.  1.
       -2    1    3    3    0  502 -0.31171625823E+03  0.47817224777E+03  0.20453663907E+03  0.60634228033E+03  0.25500000920E-02 0. -1.
</event>
<event>
 5   0  0.7634227E-04  0.1553045E+04  0.7818609E-02  0.8849925E-01
       -2   -1    0    0    0  501  0.00000000000E+00  0.00000000000E+00  0.15701417392E+04  0.15701417392E+04  0.25500000920E-02 0. -1.
        2   -1    0    0  501    0  0.00000000000E+00  0.00000000000E+00 -0.38403373249E+03  0.38403373250E+03  0.25500000920E-02 0.  1.
    10030    2    1    2    0    0  0.00000000000E+00  0.00000000000E+00  0.11861080067E+04  0.19541754717E+04  0.15530452571E+04 0.  0.
        2    1    3    3  502    0  0.50625320890E+03  0.51490612046E+03  0.95241924893E+03  0.11952083710E+04  0.25500000920E-02 0. -1.
       -2    1    3    3    0  502 -0.50625320890E+03 -0.51490612046E+03  0.23368875780E+03  0.75896710070E+03  0.25500000920E-02 0.  1.
</event>
<event>
 5   0  0.4086710E-04  0.1498739E+04  0.7818609E-02  0.8885292E-01
        1   -1    0    0  501    0  0.00000000000E+00  0.00000000000E+00  0.19549206957E+04  0.19549206957E+04  0.50400001928E-02 0. -1.
       -1   -1    0    0    0  501  0.00000000000E+00  0.00000000000E+00 -0.28725190162E+03  0.28725190167E+03  0.50400001928E-02 0.  1.
    10030    2    1    2    0    0  0.00000000000E+00  0.00000000000E+00  0.16676687941E+04  0.22421725973E+04  0.14987390532E+04 0.  0.
        3    1    3    3  502    0 -0.28823938821E+03 -0.49709681286E+03  0.15534394181E+04  0.16563095188E+04  0.10100000352E+00 0. -1.
       -3    1    3    3    0  502  0.28823938821E+03  0.49709681286E+03  0.11422937599E+03  0.58586307855E+03  0.10100000352E+00 0.  1.
</event>
<event>
 5   0  0.4084462E-04  0.1504904E+04  0.7818609E-02  0.8881199E-01
       -1   -1    0    0    0  501  0.00000000000E+00  0.00000000000E+00  0.81403450175E+03  0.81403450177E+03  0.50400001928E-02 0. -1.
        1   -1    0    0  501    0  0.00000000000E+00  0.00000000000E+00 -0.69552782562E+03  0.69552782564E+03  0.50400001928E-02 0.  1.
    10030    2    1    2    0    0  0.00000000000E+00  0.00000000000E+00  0.11850667613E+03  0.15095623274E+04  0.15049035145E+04 0.  0.
        1    1    3    3  502    0  0.27772658524E+03  0.28929148620E+03  0.69790481964E+03  0.80491785758E+03  0.50400001928E-02 0. -1.
       -1    1    3    3    0  502 -0.27772658524E+03 -0.28929148620E+03 -0.57939814351E+03  0.70464446983E+03  0.50400001928E-02 0.  1.
</event>
<event>
 5   0  0.7359897E-04  0.1490478E+04  0.7818609E-02  0.8890810E-01
       -2   -1    0    0    0  501  0.00000000000E+00  0.00000000000E+00  0.65682942245E+03  0.65682942245E+03  0.25500000920E-02 0. -1.
        2   -1    0    0  501    0  0.00000000000E+00  0.00000000000E+00 -0.84554850328E+03  0.84554850328E+03  0.25500000920E-02 0.  1.
    10030    2    1    2    0    0  0.00000000000E+00  0.00000000000E+00 -0.18871908083E+03  0.15023779257E+04  0.14904779570E+04 0.  0.
        1    1    3    3  502    0 -0.47391375108E+03 -0.26064671985E+03 -0.61114201232E+03  0.81610386305E+03  0.50400001928E-02 0.  1.
       -1    1    3    3    0  502  0.47391375108E+03  0.26064671985E+03  0.42242293149E+03  0.68627406268E+03  0.50400001928E-02 0. -1.
</event>
<event>
 5   0  0.7672251E-04  0.1499214E+04  0.7818609E-02  0.8884976E-01
       -2   -1    0    0    0  501  0.00000000000E+00  0.00000000000E+00  0.35620632868E+03  0.35620632869E+03  0.25500000920E-02 0. -1.
        2   -1    0    0  501    0  0.00000000000E+00  0.00000000000E+00 -0.15774856971E+04  0.15774856971E+04  0.25500000920E-02 0.  1.
    10030    2    1    2    0    0  0.00000000000E+00  0.00000000000E+00 -0.12212793684E+04  0.19336920258E+04  0.14992136455E+04 0.  0.
        5    1    3    3  502    0 -0.68150886825E+02  0.50199537561E+03 -0.13232426593E+04  0.14169111214E+04  0.46999998093E+01 0.  1.
       -5    1    3    3    0  502  0.68150886825E+02 -0.50199537561E+03  0.10196329086E+03  0.51678090444E+03  0.46999998093E+01 0. -1.
</event>
<event>
 5   0  0.4015204E-04  0.1503331E+04  0.7818609E-02  0.8882241E-01
       -1   -1    0    0    0  501  0.00000000000E+00  0.00000000000E+00  0.20477791168E+03  0.20477791175E+03  0.50400001928E-02 0.  1.
        1   -1    0    0  501    0  0.00000000000E+00  0.00000000000E+00 -0.27590913874E+04  0.27590913875E+04  0.50400001928E-02 0. -1.
    10030    2    1    2    0    0  0.00000000000E+00  0.00000000000E+00 -0.25543134758E+04  0.29638692992E+04  0.15033309317E+04 0.  0.
        2    1    3    3  502    0 -0.61867987186E+03 -0.38616242713E+03 -0.16359260741E+04  0.17911282265E+04  0.25500000920E-02 0. -1.
       -2    1    3    3    0  502  0.61867987186E+03  0.38616242713E+03 -0.91838740170E+03  0.11727410727E+04  0.25500000920E-02 0.  1.
</event>
<event>
 5   0  0.4015204E-04  0.1493611E+04  0.7818609E-02  0.8888713E-01
        1   -1    0    0  501    0  0.00000000000E+00  0.00000000000E+00  0.57992847796E+03  0.57992847798E+03  0.50400001928E-02 0. -1.
       -1   -1    0    0    0  501  0.00000000000E+00  0.00000000000E+00 -0.96170149661E+03  0.96170149662E+03  0.50400001928E-02 0.  1.
    10030    2    1    2    0    0  0.00000000000E+00  0.00000000000E+00 -0.38177301865E+03  0.15416299746E+04  0.14936105051E+04 0.  0.
        2    1    3    3  502    0 -0.56836765180E+03  0.95454680137E+02 -0.68109220795E+03  0.89221072584E+03  0.25500000920E-02 0.  1.
       -2    1    3    3    0  502  0.56836765180E+03 -0.95454680137E+02  0.29931918930E+03  0.64941924876E+03  0.25500000920E-02 0. -1.
</event>
<event>
 5   0  0.4086710E-04  0.1523459E+04  0.7818609E-02  0.8869001E-01
        1   -1    0    0  501    0  0.00000000000E+00  0.00000000000E+00  0.14998906149E+04  0.14998906149E+04  0.50400001928E-02 0.  1.
       -1   -1    0    0    0  501  0.00000000000E+00  0.00000000000E+00 -0.38684954864E+03  0.38684954868E+03  0.50400001928E-02 0. -1.
    10030    2    1    2    0    0  0.00000000000E+00  0.00000000000E+00  0.11130410662E+04  0.18867401635E+04  0.15234592314E+04 0.  0.
        3    1    3    3  502    0 -0.49580107905E+03 -0.56899212315E+03  0.68439544345E+03  0.10188070865E+04  0.10100000352E+00 0.  1.
       -3    1    3    3    0  502  0.49580107905E+03  0.56899212315E+03  0.42864562276E+03  0.86793307709E+03  0.10100000352E+00 0. -1.
</event>
<event>
 5   0  0.7454828E-04  0.1515716E+04  0.7818609E-02  0.8874069E-01
        2   -1    0    0  501    0  0.00000000000E+00  0.00000000000E+00  0.74289665476E+03  0.74289665477E+03  0.25500000920E-02 0. -1.
       -2   -1    0    0    0  501  0.00000000000E+00  0.00000000000E+00 -0.77312031940E+03  0.77312031940E+03  0.25500000920E-02 0.  1.
    10030    2    1    2    0    0  0.00000000000E+00  0.00000000000E+00 -0.30223664635E+02  0.15160169742E+04  0.15157156712E+04 0.  0.
        3    1    3    3  502    0 -0.85520261617E+02 -0.73727273086E+03 -0.16832091635E+03  0.76106289878E+03  0.10100000352E+00 0.  1.
       -3    1    3    3    0  502  0.85520261617E+02  0.73727273086E+03  0.13809725171E+03  0.75495407539E+03  0.10100000352E+00 0. -1.
</event>
<event>
 5   0  0.3907345E-04  0.1500114E+04  0.7818609E-02  0.8884377E-01
       -1   -1    0    0    0  501  0.00000000000E+00  0.00000000000E+00  0.36171536297E+03  0.36171536301E+03  0.50400001928E-02 0.  1.
        1   -1    0    0  501    0  0.00000000000E+00  0.00000000000E+00 -0.15553271916E+04  0.15553271916E+04  0.50400001928E-02 0. -1.
    10030    2    1    2    0    0  0.00000000000E+00  0.00000000000E+00 -0.11936118286E+04  0.19170425546E+04  0.15001143152E+04 0.  0.
        5    1    3    3  502    0 -0.32269358329E+02 -0.46695067107E+03 -0.13457644101E+04  0.14248467209E+04  0.46999998093E+01 0. -1.
       -5    1    3    3    0  502  0.32269358329E+02  0.46695067107E+03  0.15215258142E+03  0.49219583372E+03  0.46999998093E+01 0.  1.
</event>
<event>
 5   0  0.4015204E-04  0.1484035E+04  0.7818609E-02  0.8895139E-01
       -1   -1    0    0    0  501  0.00000000000E+00  0.00000000000E+00  0.72335046506E+03  0.72335046508E+03  0.50400001928E-02 0. -1.
        1   -1    0    0  501    0  0.00000000000E+00  0.00000000000E+00 -0.76116641780E+03  0.76116641782E+03  0.50400001928E-02 0.  1.
    10030    2    1    2    0    0  0.00000000000E+00  0.00000000000E+00 -0.37815952738E+02  0.14845168829E+04  0.14840351510E+04 0.  0.
        2    1    3    3  502    0 -0.19064738380E+03  0.64333076303E+03 -0.33582177991E+03  0.75033136912E+03  0.25500000920E-02 0.  1.
       -2    1    3    3    0  502  0.19064738380E+03 -0.64333076303E+03  0.29800582717E+03  0.73418551378E+03  0.25500000920E-02 0. -1.
</event>
<event>
 5   0  0.7454828E-04  0.1489198E+04  0.7818609E-02  0.8891668E-01
       -2   -1    0    0    0  501  0.00000000000E+00  0.00000000000E+00  0.54099054567E+03  0.54099054568E+03  0.25500000920E-02 0. -1.
        2   -1    0    0  501    0  0.00000000000E+00  0.00000000000E+00 -0.10248383478E+04  0.10248383478E+04  0.25500000920E-02 0.  1.
    10030    2    1    2    0    0  0.00000000000E+00  0.00000000000E+00 -0.48384780216E+03  0.15658288935E+04  0.14891982501E+04 0.  0.
        3    1    3    3  502    0  0.86856056275E+02  0.87543362742E+01  0.53559134027E+03  0.54265892316E+03  0.10100000352E+00 0. -1.
       -3    1    3    3    0  502 -0.86856056275E+02 -0.87543362742E+01 -0.10194391424E+04  0.10231699704E+04  0.10100000352E+00 0.  1.
</event>
<event>
 5   0  0.7672251E-04  0.1471188E+04  0.7818609E-02  0.8903842E-01
       -2   -1    0    0    0  501  0.00000000000E+00  0.00000000000E+00  0.14958778307E+04  0.14958778307E+04  0.25500000920E-02 0. -1.
        2   -1    0    0  501    0  0.00000000000E+00  0.00000000000E+00 -0.36172635209E+03  0.36172635210E+03  0.25500000920E-02 0.  1.
    10030    2    1    2    0    0  0.00000000000E+00  0.00000000000E+00  0.11341514787E+04  0.18576041828E+04  0.14711878614E+04 0.  0.
        5    1    3    3  502    0  0.69128772908E+03 -0.60309618168E+01  0.88440519371E+03  0.11225460942E+04  0.46999998093E+01 0. -1.
       -5    1    3    3    0  502 -0.69128772908E+03  0.60309618168E+01  0.24974628495E+03  0.73505808867E+03  0.46999998093E+01 0.  1.
</event>
<event>
 5   0  0.7672251E-04  0.1507424E+04  0.7818609E-02  0.8879531E-01
       -2   -1    0    0    0  501  0.00000000000E+00  0.00000000000E+00  0.12151901474E+04  0.12151901474E+04  0.25500000920E-02 0. -1.
        2   -1    0    0  501    0  0.00000000000E+00  0.00000000000E+00 -0.46748406211E+03  0.46748406211E+03  0.25500000920E-02 0.  1.
    10030    2    1    2    0    0  0.00000000000E+00  0.00000000000E+00  0.74770608533E+03  0.16826742096E+04  0.15074243283E+04 0.  0.
        5    1    3    3  502    0 -0.24269115172E+03 -0.26147895219E+03  0.11149588843E+04  0.11706518019E+04  0.46999998093E+01 0. -1.
       -5    1    3    3    0  502  0.24269115172E+03  0.26147895219E+03 -0.36725279900E+03  0.51202240765E+03  0.46999998093E+01 0.  1.
</event>
<event>
 5   0  0.7672251E-04  0.1599235E+04  0.7818609E-02  0.8821018E-01
        2   -1    0    0  501    0  0.00000000000E+00  0.00000000000E+00  0.75352410487E+03  0.75352410488E+03  0.25500000920E-02 0.  1.
       -2   -1    0    0    0  501  0.00000000000E+00  0.00000000000E+00 -0.84853024644E+03  0.84853024644E+03  0.25500000920E-02 0. -1.
    10030    2    1    2    0    0  0.00000000000E+00  0.00000000000E+00 -0.95006141562E+02  0.16020543513E+04  0.15992348100E+04 0.  0.
        5    1    3    3  502    0 -0.41307512984E+03 -0.49759936198E+03  0.42357031223E+03  0.77309125421E+03  0.46999998093E+01 0.  1.
       -5    1    3    3    0  502  0.41307512984E+03  0.49759936198E+03 -0.51857645380E+03  0.82896309711E+03  0.46999998093E+01 0. -1.
</event>
<event>
 5   0  0.7634227E-04  0.1495621E+04  0.7818609E-02  0.8887370E-01
       -2   -1    0    0    0  501  0.00000000000E+00  0.00000000000E+00  0.31085229119E+03  0.31085229120E+03  0.25500000920E-02 0. -1.
        2   -1    0    0  501    0  0.00000000000E+00  0.00000000000E+00 -0.17989903279E+04  0.17989903279E+04  0.25500000920E-02 0.  1.
    10030    2    1    2    0    0  0.00000000000E+00  0.00000000000E+00 -0.14881380367E+04  0.21098426191E+04  0.14956206274E+04 0.  0.
        2    1    3    3  502    0  0.20007685788E+03  0.71496287919E+03 -0.61775523530E+03  0.96582824478E+03  0.25500000920E-02 0. -1.
       -2    1    3    3    0  502 -0.20007685788E+03 -0.71496287919E+03 -0.87038280144E+03  0.11440143744E+04  0.25500000920E-02 0.  1.
</event>
<event>
 5   0  0.7547580E-04  0.1509454E+04  0.7818609E-02  0.8878191E-01
        2   -1    0    0  501    0  0.00000000000E+00  0.00000000000E+00  0.14200397592E+04  0.14200397592E+04  0.25500000920E-02 0.  1.
       -2   -1    0    0    0  501  0.00000000000E+00  0.00000000000E+00 -0.40112432344E+03  0.40112432345E+03  0.25500000920E-02 0. -1.
    10030    2    1    2    0    0  0.00000000000E+00  0.00000000000E+00  0.10189154358E+04  0.18211640827E+04  0.15094535272E+04 0.  0.
        4    1    3    3  502    0  0.28922450801E+02  0.28069105741E+03 -0.33508488636E+03  0.43807245044E+03  0.12699999809E+01 0. -1.
       -4    1    3    3    0  502 -0.28922450801E+02 -0.28069105741E+03  0.13540003222E+04  0.13830916322E+04  0.12699999809E+01 0.  1.
</event>
<event>
 5   0  0.7454828E-04  0.1497019E+04  0.7818609E-02  0.8886438E-01
        2   -1    0    0  501    0  0.00000000000E+00  0.00000000000E+00  0.25345266153E+04  0.25345266153E+04  0.25500000920E-02 0.  1.
       -2   -1    0    0    0  501  0.00000000000E+00  0.00000000000E+00 -0.22105365460E+03  0.22105365462E+03  0.25500000920E-02 0. -1.
    10030    2    1    2    0    0  0.00000000000E+00  0.00000000000E+00  0.23134729607E+04  0.27555802699E+04  0.14970188656E+04 0.  0.
        3    1    3    3  502    0  0.33291198923E+03 -0.65373772074E+03  0.88332440648E+03  0.11482444937E+04  0.10100000352E+00 0. -1.
       -3    1    3    3    0  502 -0.33291198923E+03  0.65373772074E+03  0.14301485542E+04  0.16073357762E+04  0.10100000352E+00 0.  1.
</event>
<event>
 5   0  0.7672251E-04  0.1472021E+04  0.7818609E-02  0.8903275E-01
       -2   -1    0    0    0  501  0.00000000000E+00  0.00000000000E+00  0.11907755051E+04  0.11907755052E+04  0.25500000920E-02 0. -1.
        2   -1    0    0  501    0  0.00000000000E+00  0.00000000000E+00 -0.45492321765E+03  0.45492321765E+03  0.25500000920E-02 0.  1.
    10030    2    1    2    0    0  0.00000000000E+00  0.00000000000E+00  0.73585228750E+03  0.16456987228E+04  0.14720209568E+04 0.  0.
        5    1    3    3  502    0  0.24165015129E+03 -0.61458306750E+03  0.73119793540E+03  0.98528150962E+03  0.46999998093E+01 0. -1.
       -5    1    3    3    0  502 -0.24165015129E+03  0.61458306750E+03  0.46543521041E+01  0.66041721318E+03  0.46999998093E+01 0.  1.
</event>
<event>
 5   0  0.7359897E-04  0.1498628E+04  0.7818609E-02  0.8885366E-01
       -2   -1    0    0    0  501  0.00000000000E+00  0.00000000000E+00  0.14758477357E+04  0.14758477357E+04  0.25500000920E-02 0. -1.
        2   -1    0    0  501    0  0.00000000000E+00  0.00000000000E+00 -0.38043987114E+03  0.38043987115E+03  0.25500000920E-02 0.  1.
    10030    2    1    2    0    0  0.00000000000E+00  0.00000000000E+00  0.10954078646E+04  0.18562876069E+04  0.14986278023E+04 0.  0.
        1    1    3    3  502    0  0.38501163672E+03  0.59974634925E+03  0.26108988552E+03  0.75901091704E+03  0.50400001928E-02 0.  1.
       -1    1    3    3    0  502 -0.38501163672E+03 -0.59974634925E+03  0.83431797908E+03  0.10972766898E+04  0.50400001928E-02 0. -1.
</event>
<event>
 5   0  0.2800375E-04  0.1494884E+04  0.7818609E-02  0.8887862E-01
        3   -1    0    0  501    0  0.00000000000E+00  0.00000000000E+00  0.51021753431E+03  0.51021754431E+03  0.10100000352E+00 0. -1.
       -3   -1    0    0    0  501  0.00000000000E+00  0.00000000000E+00 -0.10949636027E+04  0.10949636073E+04  0.10100000352E+00 0.  1.
    10030    2    1    2    0    0  0.00000000000E+00  0.00000000000E+00 -0.58474606838E+03  0.16051811517E+04  0.14948841310E+04 0.  0.
        1    1    3    3  502    0  0.31402981805E+02  0.64591529128E+03 -0.69482960684E+03  0.94920013345E+03  0.50400001928E-02 0.  1.
       -1    1    3    3    0  502 -0.31402981805E+02 -0.64591529128E+03  0.11008353845E+03  0.65598101821E+03  0.50400001928E-02 0. -1.
</event>
<event>
 5   0  0.7359897E-04  0.1511792E+04  0.7818609E-02  0.8876649E-01
        2   -1    0    0  501    0  0.00000000000E+00  0.00000000000E+00  0.18234888465E+04  0.18234888465E+04  0.25500000920E-02 0. -1.
       -2   -1    0    0    0  501  0.00000000000E+00  0.00000000000E+00 -0.31334368889E+03  0.31334368890E+03  0.25500000920E-02 0.  1.
    10030    2    1    2    0    0  0.00000000000E+00  0.00000000000E+00  0.15101451576E+04  0.21368325354E+04  0.15117919458E+04 0.  0.
        1    1    3    3  502    0  0.37885682512E+02  0.57680097238E+03  0.66616702202E+02  0.58186980650E+03  0.50400001928E-02 0.  1.
       -1    1    3    3    0  502 -0.37885682512E+02 -0.57680097238E+03  0.14435284554E+04  0.15549627289E+04  0.50400001928E-02 0. -1.
</event>
<event>
 5   0  0.4015204E-04  0.1529302E+04  0.7818609E-02  0.8865198E-01
       -1   -1    0    0    0  501  0.00000000000E+00  0.00000000000E+00  0.42241921315E+03  0.42241921318E+03  0.50400001928E-02 0.  1.
        1   -1    0    0  501    0  0.00000000000E+00  0.00000000000E+00 -0.13841496907E+04  0.13841496907E+04  0.50400001928E-02 0. -1.
    10030    2    1    2    0    0  0.00000000000E+00  0.00000000000E+00 -0.96173047757E+03  0.18065689039E+04  0.15293023550E+04 0.  0.
        2    1    3    3  502    0 -0.24483052977E+02  0.74197723095E+03 -0.69727843784E+03  0.10184924403E+04  0.25500000920E-02 0. -1.
       -2    1    3    3    0  502  0.24483052977E+02 -0.74197723095E+03 -0.26445203973E+03  0.78807646358E+03  0.25500000920E-02 0.  1.
</event>
<event>
 5   0  0.7454828E-04  0.1500707E+04  0.7818609E-02  0.8883983E-01
        2   -1    0    0  501    0  0.00000000000E+00  0.00000000000E+00  0.56150455046E+03  0.56150455046E+03  0.25500000920E-02 0. -1.
       -2   -1    0    0    0  501  0.00000000000E+00  0.00000000000E+00 -0.10027176125E+04  0.10027176125E+04  0.25500000920E-02 0.  1.
    10030    2    1    2    0    0  0.00000000000E+00  0.00000000000E+00 -0.44121306201E+03  0.15642221629E+04  0.15007071696E+04 0.  0.
        3    1    3    3  502    0 -0.67038576595E+03  0.33702593600E+03 -0.21519695302E+03  0.78058522630E+03  0.10100000352E+00 0. -1.
       -3    1    3    3    0  502  0.67038576595E+03 -0.33702593600E+03 -0.22601610899E+03  0.78363693663E+03  0.10100000352E+00 0.  1.
</event>
<event>
 5   0  0.4058874E-04  0.1495265E+04  0.7818609E-02  0.8887608E-01
        1   -1    0    0  501    0  0.00000000000E+00  0.00000000000E+00  0.14386648768E+04  0.14386648769E+04  0.50400001928E-02 0.  1.
       -1   -1    0    0    0  501  0.00000000000E+00  0.00000000000E+00 -0.38852306171E+03  0.38852306174E+03  0.50400001928E-02 0. -1.
    10030    2    1    2    0    0  0.00000000000E+00  0.00000000000E+00  0.10501418151E+04  0.18271879386E+04  0.14952651708E+04 0.  0.
        4    1    3    3  502    0 -0.62786237368E+03  0.28321330921E+03  0.88035470117E+03  0.11177866306E+04  0.12699999809E+01 0.  1.
       -4    1    3    3    0  502  0.62786237368E+03 -0.28321330921E+03  0.16978711397E+03  0.70940130799E+03  0.12699999809E+01 0. -1.
</event>
<event>
 5   0  0.4084462E-04  0.1504886E+04  0.7818609E-02  0.8881210E-01
        1   -1    0    0  501    0  0.00000000000E+00  0.00000000000E+00  0.16877766981E+04  0.16877766981E+04  0.50400001928E-02 0.  1.
       -1   -1    0    0    0  501  0.00000000000E+00  0.00000000000E+00 -0.33545335545E+03  0.33545335549E+03  0.50400001928E-02 0. -1.
    10030    2    1    2    0    0  0.00000000000E+00  0.00000000000E+00  0.13523233427E+04  0.20232300536E+04  0.15048858517E+04 0.  0.
        1    1    3    3  502    0 -0.66311126960E+03  0.13277374480E+03  0.11196742213E+04  0.13080580205E+04  0.50400001928E-02 0.  1.
       -1    1    3    3    0  502  0.66311126960E+03 -0.13277374480E+03  0.23264912132E+03  0.71517203305E+03  0.50400001928E-02 0. -1.
</event>
<event>
 5   0  0.3907345E-04  0.1497146E+04  0.7818609E-02  0.8886353E-01
       -1   -1    0    0    0  501  0.00000000000E+00  0.00000000000E+00  0.58127913148E+03  0.58127913150E+03  0.50400001928E-02 0.  1.
        1   -1    0    0  501    0  0.00000000000E+00  0.00000000000E+00 -0.96401433820E+03  0.96401433822E+03  0.50400001928E-02 0. -1.
    10030    2    1    2    0    0  0.00000000000E+00  0.00000000000E+00 -0.38273520672E+03  0.15452934697E+04  0.14971458410E+04 0.  0.
        5    1    3    3  502    0  0.17519632428E+02  0.62759664477E+03 -0.61209748777E+03  0.87685227409E+03  0.46999998093E+01 0. -1.
       -5    1    3    3    0  502 -0.17519632428E+02 -0.62759664477E+03  0.22936228104E+03  0.66844119563E+03  0.46999998093E+01 0.  1.
</event>
<event>
 5   0  0.7547580E-04  0.1488908E+04  0.7818609E-02  0.8891863E-01
       -2   -1    0    0    0  501  0.00000000000E+00  0.00000000000E+00  0.61815246382E+03  0.61815246382E+03  0.25500000920E-02 0. -1.
        2   -1    0    0  501    0  0.00000000000E+00  0.00000000000E+00 -0.89656113872E+03  0.89656113872E+03  0.25500000920E-02 0.  1.
    10030    2    1    2    0    0  0.00000000000E+00  0.00000000000E+00 -0.27840867490E+03  0.15147136025E+04  0.14889076222E+04 0.  0.
        4    1    3    3  502    0  0.52789686093E+03 -0.13959221611E+03  0.37557858245E+03  0.66273823420E+03  0.12699999809E+01 0. -1.
       -4    1    3    3    0  502 -0.52789686093E+03  0.13959221611E+03 -0.65398725735E+03  0.85197536834E+03  0.12699999809E+01 0.  1.
</event>
<event>
 5   0  0.4015204E-04  0.1511215E+04  0.7818609E-02  0.8877029E-01
        1   -1    0    0  501    0  0.00000000000E+00  0.00000000000E+00  0.99557108787E+03  0.99557108788E+03  0.50400001928E-02 0.  1.
       -1   -1    0    0    0  501  0.00000000000E+00  0.00000000000E+00 -0.57348278015E+03  0.57348278017E+03  0.50400001928E-02 0. -1.
    10030    2    1    2    0    0  0.00000000000E+00  0.00000000000E+00  0.42208830772E+03  0.15690538681E+04  0.15112152399E+04 0.  0.
        2    1    3    3  502    0 -0.17582759840E+03  0.46419754773E+03 -0.38045088998E+03  0.62540993546E+03  0.25500000920E-02 0. -1.
       -2    1    3    3    0  502  0.17582759840E+03 -0.46419754773E+03  0.80253919770E+03  0.94364393260E+03  0.25500000920E-02 0.  1.
</event>
<event>
 5   0  0.7634227E-04  0.1456621E+04  0.7818609E-02  0.8913823E-01
        2   -1    0    0  501    0  0.00000000000E+00  0.00000000000E+00  0.10459020688E+04  0.10459020688E+04  0.25500000920E-02 0.  1.
       -2   -1    0    0    0  501  0.00000000000E+00  0.00000000000E+00 -0.50715682377E+03  0.50715682378E+03  0.25500000920E-02 0. -1.
    10030    2    1    2    0    0  0.00000000000E+00  0.00000000000E+00  0.53874524504E+03  0.15530588926E+04  0.14566212565E+04 0.  0.
        2    1    3    3  502    0  0.71948702213E+03  0.61950692093E+01  0.14904511484E+03  0.73478867721E+03  0.25500000920E-02 0.  1.
       -2    1    3    3    0  502 -0.71948702213E+03 -0.61950692093E+01  0.38970013020E+03  0.81827021538E+03  0.25500000920E-02 0. -1.
</event>
<event>
 5   0  0.7359897E-04  0.1504504E+04  0.7818609E-02  0.8881463E-01
       -2   -1    0    0    0  501  0.00000000000E+00  0.00000000000E+00  0.64839100300E+03  0.64839100300E+03  0.25500000920E-02 0. -1.
        2   -1    0    0  501    0  0.00000000000E+00  0.00000000000E+00 -0.87274947459E+03  0.87274947459E+03  0.25500000920E-02 0.  1.
    10030    2    1    2    0    0  0.00000000000E+00  0.00000000000E+00 -0.22435847159E+03  0.15211404776E+04  0.15045037816E+04 0.  0.
        1    1    3    3  502    0  0.31579513819E+03 -0.52799976657E+03  0.32547291072E+03  0.69601935206E+03  0.50400001928E-02 0. -1.
       -1    1    3    3    0  502 -0.31579513819E+03  0.52799976657E+03 -0.54983138231E+03  0.82512112553E+03  0.50400001928E-02 0.  1.
</event>
<event>
 5   0  0.7672251E-04  0.1492673E+04  0.7818609E-02  0.8889340E-01
       -2   -1    0    0    0  501  0.00000000000E+00  0.00000000000E+00  0.85194916225E+03  0.85194916225E+03  0.25500000920E-02 0.  1.
        2   -1    0    0  501    0  0.00000000000E+00  0.00000000000E+00 -0.65381623537E+03  0.65381623538E+03  0.25500000920E-02 0. -1.
    10030    2    1    2    0    0  0.00000000000E+00  0.00000000000E+00  0.19813292688E+03  0.15057653976E+04  0.14926730305E+04 0.  0.
        5    1    3    3  502    0  0.73428987537E+03 -0.27350975617E+02 -0.32717837411E+02  0.73554214279E+03  0.46999998093E+01 0.  1.
       -5    1    3    3    0  502 -0.73428987537E+03  0.27350975617E+02  0.23085076429E+03  0.77022325484E+03  0.46999998093E+01 0. -1.
</event>
<event>
 5   0  0.4015204E-04  0.1502921E+04  0.7818609E-02  0.8882513E-01
       -1   -1    0    0    0  501  0.00000000000E+00  0.00000000000E+00  0.30003636424E+03  0.30003636428E+03  0.50400001928E-02 0. -1.
        1   -1    0    0  501    0  0.00000000000E+00  0.00000000000E+00 -0.18820824326E+04  0.18820824326E+04  0.50400001928E-02 0.  1.
    10030    2    1    2    0    0  0.00000000000E+00  0.00000000000E+00 -0.15820460684E+04  0.21821187969E+04  0.15029213823E+04 0.  0.
        2    1    3    3  502    0  0.15155997119E+02 -0.27281996097E+03 -0.18073996707E+04  0.18279370900E+04  0.25500000920E-02 0.  1.
       -2    1    3    3    0  502 -0.15155997119E+02  0.27281996097E+03  0.22535360238E+03  0.35418170684E+03  0.25500000920E-02 0. -1.
</event>
<event>
 5   0  0.4058874E-04  0.1495447E+04  0.7818609E-02  0.8887486E-01
        1   -1    0    0  501    0  0.00000000000E+00  0.00000000000E+00  0.10620803549E+04  0.10620803549E+04  0.50400001928E-02 0. -1.
       -1   -1    0    0    0  501  0.00000000000E+00  0.00000000000E+00 -0.52641054939E+03  0.52641054941E+03  0.50400001928E-02 0.  1.
    10030    2    1    2    0    0  0.00000000000E+00  0.00000000000E+00  0.53566980554E+03  0.15884909043E+04  0.14954468271E+04 0.  0.
        4    1    3    3  502    0  0.63066937721E+03  0.13622932786E+03  0.66921623904E+03  0.92959898914E+03  0.12699999809E+01 0. -1.
       -4    1    3    3    0  502 -0.63066937721E+03 -0.13622932786E+03 -0.13354643351E+03  0.65889191520E+03  0.12699999809E+01 0.  1.
</event>
<event>
 5   0  0.7547580E-04  0.1505616E+04  0.7818609E-02  0.8880727E-01
       -2   -1    0    0    0  501  0.00000000000E+00  0.00000000000E+00  0.60714607775E+03  0.60714607776E+03  0.25500000920E-02 0.  1.
        2   -1    0    0  501    0  0.00000000000E+00  0.00000000000E+00 -0.93341590074E+03  0.93341590074E+03  0.25500000920E-02 0. -1.
    10030    2    1    2    0    0  0.00000000000E+00  0.00000000000E+00 -0.32626982298E+03  0.15405619785E+04  0.15056158913E+04 0.  0.
        4    1    3    3  502    0  0.46600746390E+03 -0.46703811464E+03 -0.53408312627E+03  0.84884271546E+03  0.12699999809E+01 0. -1.
       -4    1    3    3    0  502 -0.46600746390E+03  0.46703811464E+03  0.20781330328E+03  0.69171926303E+03  0.12699999809E+01 0.  1.
</event>
<event>
 5   0  0.7454828E-04  0.1473951E+04  0.7818609E-02  0.8901963E-01
        2   -1    0    0  501    0  0.00000000000E+00  0.00000000000E+00  0.63477891899E+03  0.63477891900E+03  0.25500000920E-02 0. -1.
       -2   -1    0    0    0  501  0.00000000000E+00  0.00000000000E+00 -0.85562486858E+03  0.85562486858E+03  0.25500000920E-02 0.  1.
    10030    2    1    2    0    0  0.00000000000E+00  0.00000000000E+00 -0.22084594958E+03  0.14904037876E+04  0.14739506493E+04 0.  0.
        3    1    3    3  502    0  0.44317807589E+03 -0.16908367638E+03 -0.68075501154E+03  0.82971289764E+03  0.10100000352E+00 0.  1.
       -3    1    3    3    0  502 -0.44317807589E+03  0.16908367638E+03  0.45990906196E+03  0.66069088993E+03  0.10100000352E+00 0. -1.
</event>
<event>
 5   0  0.4084462E-04  0.1562007E+04  0.7818609E-02  0.8844235E-01
        1   -1    0    0  501    0  0.00000000000E+00  0.00000000000E+00  0.20497609189E+04  0.20497609189E+04  0.50400001928E-02 0.  1.
       -1   -1    0    0    0  501  0.00000000000E+00  0.00000000000E+00 -0.29757913461E+03  0.29757913465E+03  0.50400001928E-02 0. -1.
    10030    2    1    2    0    0  0.00000000000E+00  0.00000000000E+00  0.17521817843E+04  0.23473400536E+04  0.15620065051E+04 0.  0.
        1    1    3    3  502    0  0.34843578068E+03 -0.60584214929E+03  0.35224190258E+03  0.78264076118E+03  0.50400001928E-02 0. -1.
       -1    1    3    3    0  502 -0.34843578068E+03  0.60584214929E+03  0.13999398817E+04  0.15646992924E+04  0.50400001928E-02 0.  1.
</event>
<event>
 5   0  0.4086710E-04  0.1505285E+04  0.7818609E-02  0.8880946E-01
        1   -1    0    0  501    0  0.00000000000E+00  0.00000000000E+00  0.12481217913E+04  0.12481217913E+04  0.50400001928E-02 0.  1.
       -1   -1    0    0    0  501  0.00000000000E+00  0.00000000000E+00 -0.45385862674E+03  0.45385862677E+03  0.50400001928E-02 0. -1.
    10030    2    1    2    0    0  0.00000000000E+00  0.00000000000E+00  0.79426316454E+03  0.17019804181E+04  0.15052851454E+04 0.  0.
        3    1    3    3  502    0 -0.93467351204E+01  0.35112760704E+03 -0.35550126091E+03  0.49975905654E+03  0.10100000352E+00 0. -1.
       -3    1    3    3    0  502  0.93467351204E+01 -0.35112760704E+03  0.11497644254E+04  0.12022213615E+04  0.10100000352E+00 0.  1.
</event>
<event>
 5   0  0.4015204E-04  0.1480044E+04  0.7818609E-02  0.8897833E-01
       -1   -1    0    0    0  501  0.00000000000E+00  0.00000000000E+00  0.84578940410E+03  0.84578940411E+03  0.50400001928E-02 0.  1.
        1   -1    0    0  501    0  0.00000000000E+00  0.00000000000E+00 -0.64748113852E+03  0.64748113854E+03  0.50400001928E-02 0. -1.
    10030    2    1    2    0    0  0.00000000000E+00  0.00000000000E+00  0.19830826558E+03  0.14932705427E+04  0.14800441701E+04 0.  0.
        2    1    3    3  502    0  0.44020257249E+02 -0.34211032662E+03  0.75972282294E+03  0.83435965046E+03  0.25500000920E-02 0.  1.
       -2    1    3    3    0  502 -0.44020257249E+02  0.34211032662E+03 -0.56141455735E+03  0.65891089219E+03  0.25500000920E-02 0. -1.
</event>
<event>
 5   0  0.4015204E-04  0.1490594E+04  0.7818609E-02  0.8890732E-01
        1   -1    0    0  501    0  0.00000000000E+00  0.00000000000E+00  0.17133191358E+04  0.17133191358E+04  0.50400001928E-02 0. -1.
       -1   -1    0    0    0  501  0.00000000000E+00  0.00000000000E+00 -0.32420548969E+03  0.32420548973E+03  0.50400001928E-02 0.  1.
    10030    2    1    2    0    0  0.00000000000E+00  0.00000000000E+00  0.13891136461E+04  0.20375246255E+04  0.14905938004E+04 0.  0.
        2    1    3    3  502    0 -0.40028888822E+03 -0.12075746871E+03 -0.14879483446E+03  0.44379439276E+03  0.25500000920E-02 0.  1.
       -2    1    3    3    0  502  0.40028888822E+03  0.12075746871E+03  0.15379084805E+04  0.15937302327E+04  0.25500000920E-02 0. -1.
</event>
<event>
 5   0  0.7672251E-04  0.1535160E+04  0.7818609E-02  0.8861403E-01
        2   -1    0    0  501    0  0.00000000000E+00  0.00000000000E+00  0.12933338852E+04  0.12933338852E+04  0.25500000920E-02 0.  1.
       -2   -1    0    0    0  501  0.00000000000E+00  0.00000000000E+00 -0.45555073297E+03  0.45555073298E+03  0.25500000920E-02 0. -1.
    10030    2    1    2    0    0  0.00000000000E+00  0.00000000000E+00  0.83778315226E+03  0.17488846182E+04  0.15351601863E+04 0.  0.
        5    1    3    3  502    0 -0.76071908107E+03  0.90240925095E+02  0.47376560568E+03  0.90072908468E+03  0.46999998093E+01 0. -1.
       -5    1    3    3    0  502  0.76071908107E+03 -0.90240925095E+02  0.36401754657E+03  0.84815553354E+03  0.46999998093E+01 0.  1.
</event>
<event>
 5   0  0.3907345E-04  0.1504084E+04  0.7818609E-02  0.8881741E-01
       -1   -1    0    0    0  501  0.00000000000E+00  0.00000000000E+00  0.71948405948E+03  0.71948405950E+03  0.50400001928E-02 0. -1.
        1   -1    0    0  501    0  0.00000000000E+00  0.00000000000E+00 -0.78607364235E+03  0.78607364237E+03  0.50400001928E-02 0.  1.
    10030    2    1    2    0    0  0.00000000000E+00  0.00000000000E+00 -0.66589582871E+02  0.15055577019E+04  0.15040843797E+04 0.  0.
        5    1    3    3  502    0  0.81937116563E+01 -0.60853388123E+03  0.40891248726E+03  0.73322038553E+03  0.46999998093E+01 0. -1.
       -5    1    3    3    0  502 -0.81937116563E+01  0.60853388123E+03 -0.47550207013E+03  0.77233731634E+03  0.46999998093E+01 0.  1.
</event>
<event>
 5   0  0.4086710E-04  0.1504183E+04  0.7818609E-02  0.8881676E-01
        1   -1    0    0  501    0  0.00000000000E+00  0.00000000000E+00  0.15058403522E+04  0.15058403522E+04  0.50400001928E-02 0.  1.
       -1   -1    0    0    0  501  0.00000000000E+00  0.00000000000E+00 -0.37563193000E+03  0.37563193003E+03  0.50400001928E-02 0. -1.
    10030    2    1    2    0    0  0.00000000000E+00  0.00000000000E+00  0.11302084222E+04  0.18814722822E+04  0.15041831242E+04 0.  0.
        3    1    3    3  502    0  0.31661427951E+02 -0.26791804035E+03  0.14432336565E+04  0.14682322432E+04  0.10100000352E+00 0.  1.
       -3    1    3    3    0  502 -0.31661427951E+02  0.26791804035E+03 -0.31302523432E+03  0.41324003907E+03  0.10100000352E+00 0. -1.
</event>
<event>
 5   0  0.3907345E-04  0.1519633E+04  0.7818609E-02  0.8871501E-01
        1   -1    0    0  501    0  0.00000000000E+00  0.00000000000E+00  0.17183108037E+04  0.17183108037E+04  0.50400001928E-02 0.  1.
       -1   -1    0    0    0  501  0.00000000000E+00  0.00000000000E+00 -0.33598176853E+03  0.33598176857E+03  0.50400001928E-02 0. -1.
    10030    2    1    2    0    0  0.00000000000E+00  0.00000000000E+00  0.13823290352E+04  0.20542925723E+04  0.15196329857E+04 0.  0.
        5    1    3    3  502    0 -0.18335207046E+03 -0.72859165884E+03  0.84431745785E+03  0.11302025689E+04  0.46999998093E+01 0. -1.
       -5    1    3    3    0  502  0.18335207046E+03  0.72859165884E+03  0.53801157735E+03  0.92409000343E+03  0.46999998093E+01 0.  1.
</event>
<event>
 5   0  0.4084462E-04  0.1489745E+04  0.7818609E-02  0.8891301E-01
       -1   -1    0    0    0  501  0.00000000000E+00  0.00000000000E+00  0.10121162062E+04  0.10121162062E+04  0.50400001928E-02 0. -1.
        1   -1    0    0  501    0  0.00000000000E+00  0.00000000000E+00 -0.54819279425E+03  0.54819279427E+03  0.50400001928E-02 0.  1.
    10030    2    1    2    0    0  0.00000000000E+00  0.00000000000E+00  0.46392341193E+03  0.15603090005E+04  0.14897446911E+04 0.  0.
        1    1    3    3  502    0 -0.57872734180E+03 -0.44150689617E+03  0.39750243222E+03  0.82937437816E+03  0.50400001928E-02 0.  1.
       -1    1    3    3    0  502  0.57872734180E+03  0.44150689617E+03  0.66420979716E+02  0.73093462230E+03  0.50400001928E-02 0. -1.
</event>
<event>
 5   0  0.7634227E-04  0.1476515E+04  0.7818609E-02  0.8900222E-01
       -2   -1    0    0    0  501  0.00000000000E+00  0.00000000000E+00  0.10784562697E+04  0.10784562698E+04  0.25500000920E-02 0.  1.
        2   -1    0    0  501    0  0.00000000000E+00  0.00000000000E+00 -0.50537442006E+03  0.50537442006E+03  0.25500000920E-02 0. -1.
    10030    2    1    2    0    0  0.00000000000E+00  0.00000000000E+00  0.57308184969E+03  0.15838306898E+04  0.14765151024E+04 0.  0.
        2    1    3    3  502    0  0.17819183232E+03  0.97359072713E+01  0.10549712448E+04  0.10699586181E+04  0.25500000920E-02 0.  1.
       -2    1    3    3    0  502 -0.17819183232E+03 -0.97359072713E+01 -0.48188939511E+03  0.51387207175E+03  0.25500000920E-02 0. -1.
</event>
<event>
 5   0  0.7359897E-04  0.1499462E+04  0.7818609E-02  0.8884811E-01
       -2   -1    0    0    0  501  0.00000000000E+00  0.00000000000E+00  0.38865471887E+03  0.38865471888E+03  0.25500000920E-02 0. -1.
        2   -1    0    0  501    0  0.00000000000E+00  0.00000000000E+00 -0.14462617174E+04  0.14462617174E+04  0.25500000920E-02 0.  1.
    10030    2    1    2    0    0  0.00000000000E+00  0.00000000000E+00 -0.10576069985E+04  0.18349164363E+04  0.14994618251E+04 0.  0.
        1    1    3    3  502    0 -0.44518101322E+02  0.25240272506E+03 -0.13909876205E+04  0.14144028978E+04  0.50400001928E-02 0.  1.
       -1    1    3    3    0  502  0.44518101322E+02 -0.25240272506E+03  0.33338062192E+03  0.42051353850E+03  0.50400001928E-02 0. -1.
</event>
<event>
 5   0  0.3907345E-04  0.1497917E+04  0.7818609E-02  0.8885839E-01
       -1   -1    0    0    0  501  0.00000000000E+00  0.00000000000E+00  0.30548676640E+03  0.30548676644E+03  0.50400001928E-02 0. -1.
        1   -1    0    0  501    0  0.00000000000E+00  0.00000000000E+00 -0.18362140214E+04  0.18362140214E+04  0.50400001928E-02 0.  1.
    10030    2    1    2    0    0  0.00000000000E+00  0.00000000000E+00 -0.15307272550E+04  0.21417007878E+04  0.14979173327E+04 0.  0.
        5    1    3    3  502    0 -0.53270030994E+03 -0.51793721489E+03 -0.90016152376E+03  0.11671938304E+04  0.46999998093E+01 0.  1.
       -5    1    3    3    0  502  0.53270030994E+03  0.51793721489E+03 -0.63056573124E+03  0.97450695748E+03  0.46999998093E+01 0. -1.
</event>
<event>
 5   0  0.4015204E-04  0.1501896E+04  0.7818609E-02  0.8883193E-01
       -1   -1    0    0    0  501  0.00000000000E+00  0.00000000000E+00  0.57344086713E+03  0.57344086716E+03  0.50400001928E-02 0. -1.
        1   -1    0    0  501    0  0.00000000000E+00  0.00000000000E+00 -0.98340192689E+03  0.98340192691E+03  0.50400001928E-02 0.  1.
    10030    2    1    2    0    0  0.00000000000E+00  0.00000000000E+00 -0.40996105976E+03  0.15568427941E+04  0.15018959401E+04 0.  0.
        2    1    3    3  502    0 -0.59992188718E+02 -0.21495895257E+03 -0.94823180546E+03  0.97414063199E+03  0.25500000920E-02 0.  1.
       -2    1    3    3    0  502  0.59992188718E+02  0.21495895257E+03  0.53827074570E+03  0.58270216207E+03  0.25500000920E-02 0. -1.
</event>
<event>
 5   0  0.4086710E-04  0.1396490E+04  0.7818609E-02  0.8956363E-01
       -1   -1    0    0    0  501  0.00000000000E+00  0.00000000000E+00  0.32532402939E+03  0.32532402943E+03  0.50400001928E-02 0.  1.
        1   -1    0    0  501    0  0.00000000000E+00  0.00000000000E+00 -0.14986470390E+04  0.14986470390E+04  0.50400001928E-02 0. -1.
    10030    2    1    2    0    0  0.00000000000E+00  0.00000000000E+00 -0.11733230096E+04  0.18239710684E+04  0.13964897327E+04 0.  0.
        3    1    3    3  502    0 -0.52183740950E+03  0.30520176809E+03 -0.10430226403E+04  0.12055532504E+04  0.10100000352E+00 0. -1.
       -3    1    3    3    0  502  0.52183740950E+03 -0.30520176809E+03 -0.13030036931E+03  0.61841781802E+03  0.10100000352E+00 0.  1.
</event>
<event>
 5   0  0.7634227E-04  0.1292162E+04  0.7818609E-02  0.9035804E-01
       -2   -1    0    0    0  501  0.00000000000E+00  0.00000000000E+00  0.37002589855E+03  0.37002589856E+03  0.25500000920E-02 0. -1.
        2   -1    0    0  501    0  0.00000000000E+00  0.00000000000E+00 -0.11280844447E+04  0.11280844447E+04  0.25500000920E-02 0.  1.
    10030    2    1    2    0    0  0.00000000000E+00  0.00000000000E+00 -0.75805854614E+03  0.14981103432E+04  0.12921616931E+04 0.  0.
        2    1    3    3  502    0 -0.20934641912E+03 -0.56313509187E+03 -0.65454660801E+03  0.88846964887E+03  0.25500000920E-02 0.  1.
       -2    1    3    3    0  502  0.20934641912E+03  0.56313509187E+03 -0.10351193813E+03  0.60964069438E+03  0.25500000920E-02 0. -1.
</event>
<event>
 5   0  0.7359897E-04  0.1499782E+04  0.7818609E-02  0.8884598E-01
        2   -1    0    0  501    0  0.00000000000E+00  0.00000000000E+00  0.12626263074E+04  0.12626263074E+04  0.25500000920E-02 0.  1.
       -2   -1    0    0    0  501  0.00000000000E+00  0.00000000000E+00 -0.44537032664E+03  0.44537032665E+03  0.25500000920E-02 0. -1.
    10030    2    1    2    0    0  0.00000000000E+00  0.00000000000E+00  0.81725598073E+03  0.17079966340E+04  0.14997817054E+04 0.  0.
        1    1    3    3  502    0  0.70399211533E+03  0.17722835262E+03  0.62265991148E+03  0.95641003382E+03  0.50400001928E-02 0.  1.
       -1    1    3    3    0  502 -0.70399211533E+03 -0.17722835262E+03  0.19459606925E+03  0.75158660021E+03  0.50400001928E-02 0. -1.
</event>
<event>
 5   0  0.4084462E-04  0.1500507E+04  0.7818609E-02  0.8884116E-01
        1   -1    0    0  501    0  0.00000000000E+00  0.00000000000E+00  0.11791914505E+04  0.11791914505E+04  0.50400001928E-02 0.  1.
       -1   -1    0    0    0  501  0.00000000000E+00  0.00000000000E+00 -0.47734419485E+03  0.47734419488E+03  0.50400001928E-02 0. -1.
    10030    2    1    2    0    0  0.00000000000E+00  0.00000000000E+00  0.70184725565E+03  0.16565356454E+04  0.15005068391E+04 0.  0.
        1    1    3    3  502    0 -0.33496954406E+03  0.61403059570E+03  0.51334761781E+02  0.70133688460E+03  0.50400001928E-02 0. -1.
       -1    1    3    3    0  502  0.33496954406E+03 -0.61403059570E+03  0.65051249387E+03  0.95519876079E+03  0.50400001928E-02 0.  1.
</event>
<event>
 5   0  0.7634227E-04  0.1507281E+04  0.7818609E-02  0.8879625E-01
       -2   -1    0    0    0  501  0.00000000000E+00  0.00000000000E+00  0.10512706804E+04  0.10512706804E+04  0.25500000920E-02 0. -1.
        2   -1    0    0  501    0  0.00000000000E+00  0.00000000000E+00 -0.54027399611E+03  0.54027399612E+03  0.25500000920E-02 0.  1.
    10030    2    1    2    0    0  0.00000000000E+00  0.00000000000E+00  0.51099668427E+03  0.15915446765E+04  0.15072812763E+04 0.  0.
        2    1    3    3  502    0 -0.40645889011E+03 -0.56905306175E+03  0.55217547976E+03  0.89102636150E+03  0.25500000920E-02 0. -1.
       -2    1    3    3    0  502  0.40645889011E+03  0.56905306175E+03 -0.41178795493E+02  0.70051831499E+03  0.25500000920E-02 0.  1.
</event>
<event>
 5   0  0.4058874E-04  0.1503808E+04  0.7818609E-02  0.8881924E-01
       -1   -1    0    0    0  501  0.00000000000E+00  0.00000000000E+00  0.84284092227E+03  0.84284092229E+03  0.50400001928E-02 0. -1.
        1   -1    0    0  501    0  0.00000000000E+00  0.00000000000E+00 -0.67077880723E+03  0.67077880725E+03  0.50400001928E-02 0.  1.
    10030    2    1    2    0    0  0.00000000000E+00  0.00000000000E+00  0.17206211504E+03  0.15136197295E+04  0.15038082704E+04 0.  0.
        4    1    3    3  502    0  0.17961297973E+03 -0.71020333876E+03  0.25657268364E+03  0.77619634098E+03  0.12699999809E+01 0.  1.
       -4    1    3    3    0  502 -0.17961297973E+03  0.71020333876E+03 -0.84510568592E+02  0.73742338855E+03  0.12699999809E+01 0. -1.
</event>
<event>
 5   0  0.2800375E-04  0.1365544E+04  0.7818609E-02  0.8979144E-01
        3   -1    0    0  501    0  0.00000000000E+00  0.00000000000E+00  0.50011689549E+03  0.50011690569E+03  0.10100000352E+00 0. -1.
       -3   -1    0    0    0  501  0.00000000000E+00  0.00000000000E+00 -0.93213791401E+03  0.93213791949E+03  0.10100000352E+00 0.  1.
    10030    2    1    2    0    0  0.00000000000E+00  0.00000000000E+00 -0.43202101852E+03  0.14322548252E+04  0.13655444789E+04 0.  0.
        5    1    3    3  502    0 -0.87468730058E+02  0.13367116740E+03 -0.91224408669E+03  0.92613720551E+03  0.46999998093E+01 0.  1.
       -5    1    3    3    0  502  0.87468730058E+02 -0.13367116740E+03  0.48022306817E+03  0.50611761966E+03  0.46999998093E+01 0. -1.
</event>
<event>
 5   0  0.4086710E-04  0.1495217E+04  0.7818609E-02  0.8887640E-01
       -1   -1    0    0    0  501  0.00000000000E+00  0.00000000000E+00  0.71845710017E+03  0.71845710018E+03  0.50400001928E-02 0.  1.
        1   -1    0    0  501    0  0.00000000000E+00  0.00000000000E+00 -0.77794243451E+03  0.77794243452E+03  0.50400001928E-02 0. -1.
    10030    2    1    2    0    0  0.00000000000E+00  0.00000000000E+00 -0.59485334343E+02  0.14963995347E+04  0.14952167276E+04 0.  0.
        3    1    3    3  502    0 -0.40332567844E+03  0.60271122171E+03  0.15202103654E+03  0.74097424072E+03  0.10100000352E+00 0.  1.
       -3    1    3    3    0  502  0.40332567844E+03 -0.60271122171E+03 -0.21150637089E+03  0.75542529398E+03  0.10100000352E+00 0. -1.
</event>
<event>
 5   0  0.7672251E-04  0.1496869E+04  0.7818609E-02  0.8886537E-01
       -2   -1    0    0    0  501  0.00000000000E+00  0.00000000000E+00  0.70644767072E+03  0.70644767072E+03  0.25500000920E-02 0. -1.
        2   -1    0    0  501    0  0.00000000000E+00  0.00000000000E+00 -0.79291706593E+03  0.79291706594E+03  0.25500000920E-02 0.  1.
    10030    2    1    2    0    0  0.00000000000E+00  0.00000000000E+00 -0.86469395218E+02  0.14993647367E+04  0.14968692853E+04 0.  0.
        5    1    3    3  502    0  0.50788694430E+03 -0.51164801428E+03  0.15809661878E+03  0.73807145289E+03  0.46999998093E+01 0. -1.
       -5    1    3    3    0  502 -0.50788694430E+03  0.51164801428E+03 -0.24456601400E+03  0.76129328377E+03  0.46999998093E+01 0.  1.
</event>
<event>
 5   0  0.7634227E-04  0.1484229E+04  0.7818609E-02  0.8895009E-01
        2   -1    0    0  501    0  0.00000000000E+00  0.00000000000E+00  0.15668899387E+04  0.15668899387E+04  0.25500000920E-02 0.  1.
       -2   -1    0    0    0  501  0.00000000000E+00  0.00000000000E+00 -0.35148230630E+03  0.35148230631E+03  0.25500000920E-02 0. -1.
    10030    2    1    2    0    0  0.00000000000E+00  0.00000000000E+00  0.12154076324E+04  0.19183722450E+04  0.14842292133E+04 0.  0.
        2    1    3    3  502    0 -0.50172524286E+03  0.19973048181E+03 -0.50222132180E+02  0.54234928529E+03  0.25500000920E-02 0. -1.
       -2    1    3    3    0  502  0.50172524286E+03 -0.19973048181E+03  0.12656297646E+04  0.13760229597E+04  0.25500000920E-02 0.  1.
</event>
<event>
 5   0  0.2800375E-04  0.1477788E+04  0.7818609E-02  0.8899359E-01
        3   -1    0    0  501    0  0.00000000000E+00  0.00000000000E+00  0.71854852234E+03  0.71854852944E+03  0.10100000352E+00 0. -1.
       -3   -1    0    0    0  501  0.00000000000E+00  0.00000000000E+00 -0.75981552130E+03  0.75981552801E+03  0.10100000352E+00 0.  1.
    10030    2    1    2    0    0  0.00000000000E+00  0.00000000000E+00 -0.41266998955E+02  0.14783640574E+04  0.14777879825E+04 0.  0.
        4    1    3    3  502    0 -0.48298032059E+03  0.12037920325E+03  0.52565773367E+03  0.72393287569E+03  0.12699999809E+01 0. -1.
       -4    1    3    3    0  502  0.48298032059E+03 -0.12037920325E+03 -0.56692473262E+03  0.75443118175E+03  0.12699999809E+01 0.  1.
</event>
<event>
 5   0  0.3907345E-04  0.1505658E+04  0.7818609E-02  0.8880699E-01
        1   -1    0    0  501    0  0.00000000000E+00  0.00000000000E+00  0.87593929869E+03  0.87593929870E+03  0.50400001928E-02 0. -1.
       -1   -1    0    0    0  501  0.00000000000E+00  0.00000000000E+00 -0.64702119738E+03  0.64702119740E+03  0.50400001928E-02 0.  1.
    10030    2    1    2    0    0  0.00000000000E+00  0.00000000000E+00  0.22891810131E+03  0.15229604961E+04  0.15056577219E+04 0.  0.
        5    1    3    3  502    0 -0.33435469316E+03  0.42666383060E+03  0.64285498894E+03  0.84090410391E+03  0.46999998093E+01 0. -1.
       -5    1    3    3    0  502  0.33435469316E+03 -0.42666383060E+03 -0.41393688763E+03  0.68205639218E+03  0.46999998093E+01 0.  1.
</event>
<event>
 5   0  0.4015204E-04  0.1472977E+04  0.7818609E-02  0.8902624E-01
       -1   -1    0    0    0  501  0.00000000000E+00  0.00000000000E+00  0.53004734911E+03  0.53004734913E+03  0.50400001928E-02 0. -1.
        1   -1    0    0  501    0  0.00000000000E+00  0.00000000000E+00 -0.10233343849E+04  0.10233343849E+04  0.50400001928E-02 0.  1.
    10030    2    1    2    0    0  0.00000000000E+00  0.00000000000E+00 -0.49328703581E+03  0.15533817341E+04  0.14729774988E+04 0.  0.
        2    1    3    3  502    0  0.35868281934E+03  0.16060930794E+03 -0.90351355815E+03  0.98528445865E+03  0.25500000920E-02 0.  1.
       -2    1    3    3    0  502 -0.35868281934E+03 -0.16060930794E+03  0.41022652234E+03  0.56809727541E+03  0.25500000920E-02 0. -1.
</event>
<event>
 5   0  0.4084462E-04  0.1453367E+04  0.7818609E-02  0.8916069E-01
       -1   -1    0    0    0  501  0.00000000000E+00  0.00000000000E+00  0.91031808623E+03  0.91031808624E+03  0.50400001928E-02 0.  1.
        1   -1    0    0  501    0  0.00000000000E+00  0.00000000000E+00 -0.58009298766E+03  0.58009298769E+03  0.50400001928E-02 0. -1.
    10030    2    1    2    0    0  0.00000000000E+00  0.00000000000E+00  0.33022509856E+03  0.14904110739E+04  0.14533673154E+04 0.  0.
        1    1    3    3  502    0 -0.67649732687E+03  0.26258700171E+03  0.12581384348E+03  0.73649826202E+03  0.50400001928E-02 0. -1.
       -1    1    3    3    0  502  0.67649732687E+03 -0.26258700171E+03  0.20441125508E+03  0.75391281190E+03  0.50400001928E-02 0.  1.
</event>
<event>
 5   0  0.7634227E-04  0.1550674E+04  0.7818609E-02  0.8851437E-01
       -2   -1    0    0    0  501  0.00000000000E+00  0.00000000000E+00  0.29266827548E+03  0.29266827549E+03  0.25500000920E-02 0. -1.
        2   -1    0    0  501    0  0.00000000000E+00  0.00000000000E+00 -0.20540232444E+04  0.20540232444E+04  0.25500000920E-02 0.  1.
    10030    2    1    2    0    0  0.00000000000E+00  0.00000000000E+00 -0.17613549689E+04  0.23466915199E+04  0.15506739705E+04 0.  0.
        2    1    3    3  502    0 -0.37678806400E+03  0.10180188101E+03 -0.18945164572E+04  0.19343023225E+04  0.25500000920E-02 0.  1.
       -2    1    3    3    0  502  0.37678806400E+03 -0.10180188101E+03  0.13316148830E+03  0.41238919738E+03  0.25500000920E-02 0. -1.
</event>
<event>
 5   0  0.4084462E-04  0.1574966E+04  0.7818609E-02  0.8836077E-01
       -1   -1    0    0    0  501  0.00000000000E+00  0.00000000000E+00  0.84165359527E+03  0.84165359529E+03  0.50400001928E-02 0. -1.
        1   -1    0    0  501    0  0.00000000000E+00  0.00000000000E+00 -0.73679874293E+03  0.73679874294E+03  0.50400001928E-02 0.  1.
    10030    2    1    2    0    0  0.00000000000E+00  0.00000000000E+00  0.10485485234E+03  0.15784523382E+04  0.15749657914E+04 0.  0.
        1    1    3    3  502    0  0.72184194547E+03  0.84185263113E+02 -0.25153651029E+03  0.76903417921E+03  0.50400001928E-02 0.  1.
       -1    1    3    3    0  502 -0.72184194547E+03 -0.84185263113E+02  0.35639136263E+03  0.80941815902E+03  0.50400001928E-02 0. -1.
</event>
<event>
 5   0  0.7672251E-04  0.1491461E+04  0.7818609E-02  0.8890151E-01
        2   -1    0    0  501    0  0.00000000000E+00  0.00000000000E+00  0.27694748563E+03  0.27694748564E+03  0.25500000920E-02 0. -1.
       -2   -1    0    0    0  501  0.00000000000E+00  0.00000000000E+00 -0.20080122735E+04  0.20080122735E+04  0.25500000920E-02 0.  1.
    10030    2    1    2    0    0  0.00000000000E+00  0.00000000000E+00 -0.17310647879E+04  0.22849597592E+04  0.14914609620E+04 0.  0.
        5    1    3    3  502    0 -0.44852668500E+03  0.41965171612E+03 -0.21770356250E+03  0.65169063299E+03  0.46999998093E+01 0. -1.
       -5    1    3    3    0  502  0.44852668500E+03 -0.41965171612E+03 -0.15133612254E+04  0.16332691262E+04  0.46999998093E+01 0.  1.
</event>
<event>
 5   0  0.4086710E-04  0.1499015E+04  0.7818609E-02  0.8885108E-01
       -1   -1    0    0    0  501  0.00000000000E+00  0.00000000000E+00  0.15958358925E+04  0.15958358925E+04  0.50400001928E-02 0. -1.
        1   -1    0    0  501    0  0.00000000000E+00  0.00000000000E+00 -0.35201704721E+03  0.35201704725E+03  0.50400001928E-02 0.  1.
    10030    2    1    2    0    0  0.00000000000E+00  0.00000000000E+00  0.12438188453E+04  0.19478529398E+04  0.14990149282E+04 0.  0.
        3    1    3    3  502    0 -0.38580901277E+03 -0.44936302827E+03  0.12187752585E+04  0.13550604660E+04  0.10100000352E+00 0. -1.
       -3    1    3    3    0  502  0.38580901277E+03  0.44936302827E+03  0.25043586748E+02  0.59279247376E+03  0.10100000352E+00 0.  1.
</event>
<event>
 5   0  0.2800375E-04  0.1406916E+04  0.7818609E-02  0.8948828E-01
       -3   -1    0    0    0  501  0.00000000000E+00  0.00000000000E+00  0.50869758707E+03  0.50869759710E+03  0.10100000352E+00 0. -1.
        3   -1    0    0  501    0  0.00000000000E+00  0.00000000000E+00 -0.97278463756E+03  0.97278464280E+03  0.10100000352E+00 0.  1.
    10030    2    1    2    0    0  0.00000000000E+00  0.00000000000E+00 -0.46408705049E+03  0.14814822399E+04  0.14069160731E+04 0.  0.
        2    1    3    3  502    0  0.45704539945E+02  0.12969423298E+03 -0.95849407067E+03  0.96830799984E+03  0.25500000920E-02 0.  1.
       -2    1    3    3    0  502 -0.45704539945E+02 -0.12969423298E+03  0.49440702019E+03  0.51317424005E+03  0.25500000920E-02 0. -1.
</event>
<event>
 5   0  0.3907345E-04  0.1492688E+04  0.7818609E-02  0.8889330E-01
        1   -1    0    0  501    0  0.00000000000E+00  0.00000000000E+00  0.59023343031E+03  0.59023343033E+03  0.50400001928E-02 0.  1.
       -1   -1    0    0    0  501  0.00000000000E+00  0.00000000000E+00 -0.94374386477E+03  0.94374386478E+03  0.50400001928E-02 0. -1.
    10030    2    1    2    0    0  0.00000000000E+00  0.00000000000E+00 -0.35351043446E+03  0.15339772951E+04  0.14926877485E+04 0.  0.
        5    1    3    3  502    0 -0.10032639991E+03  0.41575126890E+03  0.45179432289E+03  0.62213720698E+03  0.46999998093E+01 0.  1.
       -5    1    3    3    0  502  0.10032639991E+03 -0.41575126890E+03 -0.80530475735E+03  0.91184008813E+03  0.46999998093E+01 0. -1.
</event>
<event>
 5   0  0.7634227E-04  0.1497013E+04  0.7818609E-02  0.8886442E-01
       -2   -1    0    0    0  501  0.00000000000E+00  0.00000000000E+00  0.30406604091E+03  0.30406604092E+03  0.25500000920E-02 0.  1.
        2   -1    0    0  501    0  0.00000000000E+00  0.00000000000E+00 -0.18425665940E+04  0.18425665940E+04  0.25500000920E-02 0. -1.
    10030    2    1    2    0    0  0.00000000000E+00  0.00000000000E+00 -0.15385005531E+04  0.21466326349E+04  0.14970129316E+04 0.  0.
        2    1    3    3  502    0 -0.24275092624E+03  0.56185309604E+03 -0.15139676552E+03  0.63049813190E+03  0.25500000920E-02 0.  1.
       -2    1    3    3    0  502  0.24275092624E+03 -0.56185309604E+03 -0.13871037876E+04  0.15161345030E+04  0.25500000920E-02 0. -1.
</event>
<event>
 5   0  0.2800375E-04  0.1477092E+04  0.7818609E-02  0.8899831E-01
        3   -1    0    0  501    0  0.00000000000E+00  0.00000000000E+00  0.68468223635E+03  0.68468224380E+03  0.10100000352E+00 0.  1.
       -3   -1    0    0    0  501  0.00000000000E+00  0.00000000000E+00 -0.79664693750E+03  0.79664694390E+03  0.10100000352E+00 0. -1.
    10030    2    1    2    0    0  0.00000000000E+00  0.00000000000E+00 -0.11196470115E+03  0.14813291877E+04  0.14770917602E+04 0.  0.
        4    1    3    3  502    0 -0.36412194709E+03 -0.56317232124E+03 -0.36622486942E+03  0.76411394677E+03  0.12699999809E+01 0. -1.
       -4    1    3    3    0  502  0.36412194709E+03  0.56317232124E+03  0.25426016827E+03  0.71721524094E+03  0.12699999809E+01 0.  1.
</event>
<event>
 5   0  0.4084462E-04  0.1489293E+04  0.7818609E-02  0.8891604E-01
       -1   -1    0    0    0  501  0.00000000000E+00  0.00000000000E+00  0.94826576621E+03  0.94826576622E+03  0.50400001928E-02 0.  1.
        1   -1    0    0  501    0  0.00000000000E+00  0.00000000000E+00 -0.58475016568E+03  0.58475016570E+03  0.50400001928E-02 0. -1.
    10030    2    1    2    0    0  0.00000000000E+00  0.00000000000E+00  0.36351560053E+03  0.15330159319E+04  0.14892932068E+04 0.  0.
        1    1    3    3  502    0  0.30825330355E+02  0.41563552248E+03 -0.45344492028E+03  0.61588585330E+03  0.50400001928E-02 0. -1.
       -1    1    3    3    0  502 -0.30825330355E+02 -0.41563552248E+03  0.81696052080E+03  0.91713007863E+03  0.50400001928E-02 0.  1.
</event>
<event>
 5   0  0.7634227E-04  0.1501509E+04  0.7818609E-02  0.8883450E-01
       -2   -1    0    0    0  501  0.00000000000E+00  0.00000000000E+00  0.81543826351E+03  0.81543826351E+03  0.25500000920E-02 0.  1.
        2   -1    0    0  501    0  0.00000000000E+00  0.00000000000E+00 -0.69120174949E+03  0.69120174950E+03  0.25500000920E-02 0. -1.
    10030    2    1    2    0    0  0.00000000000E+00  0.00000000000E+00  0.12423651402E+03  0.15066400130E+04  0.15015090467E+04 0.  0.
        2    1    3    3  502    0  0.55680723446E+03 -0.38966832821E+03  0.38220150742E+03  0.77971385433E+03  0.25500000920E-02 0.  1.
       -2    1    3    3    0  502 -0.55680723446E+03  0.38966832821E+03 -0.25796499341E+03  0.72692615868E+03  0.25500000920E-02 0. -1.
</event>
<event>
 5   0  0.4015204E-04  0.1522333E+04  0.7818609E-02  0.8869736E-01
        1   -1    0    0  501    0  0.00000000000E+00  0.00000000000E+00  0.45781204725E+03  0.45781204727E+03  0.50400001928E-02 0. -1.
       -1   -1    0    0    0  501  0.00000000000E+00  0.00000000000E+00 -0.12655285024E+04  0.12655285024E+04  0.50400001928E-02 0.  1.
    10030    2    1    2    0    0  0.00000000000E+00  0.00000000000E+00 -0.80771645513E+03  0.17233405497E+04  0.15223326766E+04 0.  0.
        2    1    3    3  502    0  0.64213916536E+03 -0.19081741812E+03 -0.81299329907E+03  0.10534287347E+04  0.25500000920E-02 0.  1.
       -2    1    3    3    0  502 -0.64213916536E+03  0.19081741812E+03  0.52768439379E+01  0.66991181497E+03  0.25500000920E-02 0. -1.
</event>
<event>
 5   0  0.4015204E-04  0.1501666E+04  0.7818609E-02  0.8883346E-01
       -1   -1    0    0    0  501  0.00000000000E+00  0.00000000000E+00  0.34129372804E+03  0.34129372808E+03  0.50400001928E-02 0.  1.
        1   -1    0    0  501    0  0.00000000000E+00  0.00000000000E+00 -0.16518031043E+04  0.16518031043E+04  0.50400001928E-02 0. -1.
    10030    2    1    2    0    0  0.00000000000E+00  0.00000000000E+00 -0.13105093763E+04  0.19930968324E+04  0.15016657944E+04 0.  0.
        2    1    3    3  502    0 -0.61818585589E+03 -0.22234485806E+03 -0.11377616307E+04  0.13138084018E+04  0.25500000920E-02 0. -1.
       -2    1    3    3    0  502  0.61818585589E+03  0.22234485806E+03 -0.17274774555E+03  0.67928843059E+03  0.25500000920E-02 0.  1.
</event>
<event>
 5   0  0.4058874E-04  0.1484862E+04  0.7818609E-02  0.8894583E-01
        1   -1    0    0  501    0  0.00000000000E+00  0.00000000000E+00  0.79604516878E+03  0.79604516879E+03  0.50400001928E-02 0. -1.
       -1   -1    0    0    0  501  0.00000000000E+00  0.00000000000E+00 -0.69242754281E+03  0.69242754283E+03  0.50400001928E-02 0.  1.
    10030    2    1    2    0    0  0.00000000000E+00  0.00000000000E+00  0.10361762596E+03  0.14884727116E+04  0.14848617447E+04 0.  0.
        4    1    3    3  502    0  0.47134386815E+03 -0.16797995584E+03  0.60161292154E+03  0.78251008165E+03  0.12699999809E+01 0. -1.
       -4    1    3    3    0  502 -0.47134386815E+03  0.16797995584E+03 -0.49799529558E+03  0.70596262998E+03  0.12699999809E+01 0.  1.
</event>
<event>
 5   0  0.4058874E-04  0.1498743E+04  0.7818609E-02  0.8885289E-01
       -1   -1    0    0    0  501  0.00000000000E+00  0.00000000000E+00  0.29553037562E+03  0.29553037566E+03  0.50400001928E-02 0.  1.
        1   -1    0    0  501    0  0.00000000000E+00  0.00000000000E+00 -0.19001683689E+04  0.19001683689E+04  0.50400001928E-02 0. -1.
    10030    2    1    2    0    0  0.00000000000E+00  0.00000000000E+00 -0.16046379933E+04  0.21956987446E+04  0.14987427689E+04 0.  0.
        4    1    3    3  502    0 -0.64448087279E+03 -0.81718359724E+02 -0.25509191715E+03  0.69793050141E+03  0.12699999809E+01 0. -1.
       -4    1    3    3    0  502  0.64448087279E+03  0.81718359724E+02 -0.13495460761E+04  0.14977682432E+04  0.12699999809E+01 0.  1.
</event>
<event>
 5   0  0.3907345E-04  0.1489848E+04  0.7818609E-02  0.8891232E-01
       -1   -1    0    0    0  501  0.00000000000E+00  0.00000000000E+00  0.48957526601E+03  0.48957526604E+03  0.50400001928E-02 0.  1.
        1   -1    0    0  501    0  0.00000000000E+00  0.00000000000E+00 -0.11334555390E+04  0.11334555390E+04  0.50400001928E-02 0. -1.
    10030    2    1    2    0    0  0.00000000000E+00  0.00000000000E+00 -0.64388027302E+03  0.16230308051E+04  0.14898480420E+04 0.  0.
        5    1    3    3  502    0  0.98526942809E+02 -0.41555016937E+03  0.34294717718E+03  0.54774479281E+03  0.46999998093E+01 0.  1.
       -5    1    3    3    0  502 -0.98526942809E+02  0.41555016937E+03 -0.98682745020E+03  0.10752860123E+04  0.46999998093E+01 0. -1.
</event>
<event>
 5   0  0.4086710E-04  0.1504054E+04  0.7818609E-02  0.8881762E-01
        1   -1    0    0  501    0  0.00000000000E+00  0.00000000000E+00  0.16381930524E+04  0.16381930524E+04  0.50400001928E-02 0.  1.
       -1   -1    0    0    0  501  0.00000000000E+00  0.00000000000E+00 -0.34522456364E+03  0.34522456368E+03  0.50400001928E-02 0. -1.
    10030    2    1    2    0    0  0.00000000000E+00  0.00000000000E+00  0.12929684888E+04  0.19834176161E+04  0.15040538311E+04 0.  0.
        3    1    3    3  502    0 -0.18610704337E+03 -0.74529115150E+02  0.16023058180E+04  0.16147985525E+04  0.10100000352E+00 0.  1.
       -3    1    3    3    0  502  0.18610704337E+03  0.74529115150E+02 -0.30933732922E+03  0.36861906360E+03  0.10100000352E+00 0. -1.
</event>
<event>
 5   0  0.7672251E-04  0.1490446E+04  0.7818609E-02  0.8890831E-01
       -2   -1    0    0    0  501  0.00000000000E+00  0.00000000000E+00  0.35513814346E+03  0.35513814347E+03  0.25500000920E-02 0.  1.
        2   -1    0    0  501    0  0.00000000000E+00  0.00000000000E+00 -0.15637786504E+04  0.15637786504E+04  0.25500000920E-02 0. -1.
    10030    2    1    2    0    0  0.00000000000E+00  0.00000000000E+00 -0.12086405070E+04  0.19189167939E+04  0.14904461704E+04 0.  0.
        5    1    3    3  502    0 -0.15349796619E+01  0.73706148963E+02 -0.15590531076E+04  0.15608022407E+04  0.46999998093E+01 0. -1.
       -5    1    3    3    0  502  0.15349796619E+01 -0.73706148963E+02  0.35041260057E+03  0.35811455317E+03  0.46999998093E+01 0.  1.
</event>
<event>
 5   0  0.3907345E-04  0.1486149E+04  0.7818609E-02  0.8893716E-01
        1   -1    0    0  501    0  0.00000000000E+00  0.00000000000E+00  0.11079785754E+04  0.11079785754E+04  0.50400001928E-02 0.  1.
       -1   -1    0    0    0  501  0.00000000000E+00  0.00000000000E+00 -0.49834892163E+03  0.49834892165E+03  0.50400001928E-02 0. -1.
    10030    2    1    2    0    0  0.00000000000E+00  0.00000000000E+00  0.60962965379E+03  0.16063274971E+04  0.14861492903E+04 0.  0.
        5    1    3    3  502    0  0.44191408771E+03 -0.52954219692E+03  0.60364010538E+03  0.91657321915E+03  0.46999998093E+01 0.  1.
       -5    1    3    3    0  502 -0.44191408771E+03  0.52954219692E+03  0.59895484050E+01  0.68975427793E+03  0.46999998093E+01 0. -1.
</event>
<event>
 5   0  0.7359897E-04  0.1493666E+04  0.7818609E-02  0.8888676E-01
        2   -1    0    0  501    0  0.00000000000E+00  0.00000000000E+00  0.13963354205E+04  0.13963354205E+04  0.25500000920E-02 0. -1.
       -2   -1    0    0    0  501  0.00000000000E+00  0.00000000000E+00 -0.39944525595E+03  0.39944525596E+03  0.25500000920E-02 0.  1.
    10030    2    1    2    0    0  0.00000000000E+00  0.00000000000E+00  0.99689016458E+03  0.17957806765E+04  0.14936660396E+04 0.  0.
        1    1    3    3  502    0 -0.63092120095E+03  0.39961123030E+03  0.50202416474E+03  0.89987719117E+03  0.50400001928E-02 0.  1.
       -1    1    3    3    0  502  0.63092120095E+03 -0.39961123030E+03  0.49486599985E+03  0.89590348533E+03  0.50400001928E-02 0. -1.
</event>
<event>
 5   0  0.4086710E-04  0.1509770E+04  0.7818609E-02  0.8877982E-01
       -1   -1    0    0    0  501  0.00000000000E+00  0.00000000000E+00  0.60379833404E+03  0.60379833406E+03  0.50400001928E-02 0. -1.
        1   -1    0    0  501    0  0.00000000000E+00  0.00000000000E+00 -0.94377808571E+03  0.94377808572E+03  0.50400001928E-02 0.  1.
    10030    2    1    2    0    0  0.00000000000E+00  0.00000000000E+00 -0.33997975167E+03  0.15475764198E+04  0.15097703612E+04 0.  0.
        3    1    3    3  502    0  0.21062701617E+03  0.26534528753E+03 -0.86147838982E+03  0.92569805438E+03  0.10100000352E+00 0.  1.
       -3    1    3    3    0  502 -0.21062701617E+03 -0.26534528753E+03  0.52149863815E+03  0.62187836540E+03  0.10100000352E+00 0. -1.
</event>
<event>
 5   0  0.4015204E-04  0.1472301E+04  0.7818609E-02  0.8903084E-01
       -1   -1    0    0    0  501  0.00000000000E+00  0.00000000000E+00  0.36718775360E+03  0.36718775363E+03  0.50400001928E-02 0. -1.
        1   -1    0    0  501    0  0.00000000000E+00  0.00000000000E+00 -0.14758601143E+04  0.14758601143E+04  0.50400001928E-02 0.  1.
    10030    2    1    2    0    0  0.00000000000E+00  0.00000000000E+00 -0.11086723607E+04  0.18430478680E+04  0.14723012736E+04 0.  0.
        2    1    3    3  502    0 -0.63477415001E+03  0.16336532506E+03 -0.13485449945E+03  0.66918770684E+03  0.25500000920E-02 0. -1.
       -2    1    3    3    0  502  0.63477415001E+03 -0.16336532506E+03 -0.97381786129E+03  0.11738601611E+04  0.25500000920E-02 0.  1.
</event>
<event>
 5   0  0.7359897E-04  0.1532891E+04  0.7818609E-02  0.8862871E-01
       -2   -1    0    0    0  501  0.00000000000E+00  0.00000000000E+00  0.10198229576E+04  0.10198229576E+04  0.25500000920E-02 0. -1.
        2   -1    0    0  501    0  0.00000000000E+00  0.00000000000E+00 -0.57601998618E+03  0.57601998618E+03  0.25500000920E-02 0.  1.
    10030    2    1    2    0    0  0.00000000000E+00  0.00000000000E+00  0.44380297138E+03  0.15958429437E+04  0.15328906105E+04 0.  0.
        1    1    3    3  502    0  0.12223675981E+03  0.46444390710E+03 -0.39994669711E+03  0.62498586291E+03  0.50400001928E-02 0.  1.
       -1    1    3    3    0  502 -0.12223675981E+03 -0.46444390710E+03  0.84374966849E+03  0.97085708083E+03  0.50400001928E-02 0. -1.
</event>
<event>
 5   0  0.7454828E-04  0.1501961E+04  0.7818609E-02  0.8883150E-01
        2   -1    0    0  501    0  0.00000000000E+00  0.00000000000E+00  0.63426267079E+03  0.63426267079E+03  0.25500000920E-02 0.  1.
       -2   -1    0    0    0  501  0.00000000000E+00  0.00000000000E+00 -0.88917690210E+03  0.88917690211E+03  0.25500000920E-02 0. -1.
    10030    2    1    2    0    0  0.00000000000E+00  0.00000000000E+00 -0.25491423131E+03  0.15234395729E+04  0.15019610071E+04 0.  0.
        3    1    3    3  502    0 -0.66300564917E+03 -0.18379452529E+03 -0.43278475115E+03  0.81280967599E+03  0.10100000352E+00 0. -1.
       -3    1    3    3    0  502  0.66300564917E+03  0.18379452529E+03  0.17787051983E+03  0.71062989691E+03  0.10100000352E+00 0.  1.
</event>
<event>
 5   0  0.7359897E-04  0.1497016E+04  0.7818609E-02  0.8886440E-01
        2   -1    0    0  501    0  0.00000000000E+00  0.00000000000E+00  0.16929149307E+04  0.16929149307E+04  0.25500000920E-02 0.  1.
       -2   -1    0    0    0  501  0.00000000000E+00  0.00000000000E+00 -0.33094639072E+03  0.33094639073E+03  0.25500000920E-02 0. -1.
    10030    2    1    2    0    0  0.00000000000E+00  0.00000000000E+00  0.13619685400E+04  0.20238613215E+04  0.14970158131E+04 0.  0.
        1    1    3    3  502    0  0.16338665818E+03 -0.34716699658E+02  0.16673967411E+04  0.16757423255E+04  0.50400001928E-02 0.  1.
       -1    1    3    3    0  502 -0.16338665818E+03  0.34716699658E+02 -0.30542820108E+03  0.34811899596E+03  0.50400001928E-02 0. -1.
</event>
<event>
 5   0  0.7454828E-04  0.1449343E+04  0.7818609E-02  0.8918856E-01
       -2   -1    0    0    0  501  0.00000000000E+00  0.00000000000E+00  0.47507239179E+03  0.47507239179E+03  0.25500000920E-02 0.  1.
        2   -1    0    0  501    0  0.00000000000E+00  0.00000000000E+00 -0.11054084482E+04  0.11054084482E+04  0.25500000920E-02 0. -1.
    10030    2    1    2    0    0  0.00000000000E+00  0.00000000000E+00 -0.63033605637E+03  0.15804808400E+04  0.14493433484E+04 0.  0.
        3    1    3    3  502    0 -0.61309557224E+03  0.33051459691E+03 -0.97009357605E+02  0.70323317978E+03  0.10100000352E+00 0.  1.
       -3    1    3    3    0  502  0.61309557224E+03 -0.33051459691E+03 -0.53332669877E+03  0.87724766018E+03  0.10100000352E+00 0. -1.
</event>
<event>
 5   0  0.7634227E-04  0.1480139E+04  0.7818609E-02  0.8897769E-01
       -2   -1    0    0    0  501  0.00000000000E+00  0.00000000000E+00  0.31182778573E+03  0.31182778574E+03  0.25500000920E-02 0. -1.
        2   -1    0    0  501    0  0.00000000000E+00  0.00000000000E+00 -0.17564263248E+04  0.17564263248E+04  0.25500000920E-02 0.  1.
    10030    2    1    2    0    0  0.00000000000E+00  0.00000000000E+00 -0.14445985391E+04  0.20682541105E+04  0.14801385498E+04 0.  0.
        2    1    3    3  502    0 -0.12129728543E+03  0.71023975394E+03 -0.95839977498E+03  0.11990344733E+04  0.25500000920E-02 0.  1.
       -2    1    3    3    0  502  0.12129728543E+03 -0.71023975394E+03 -0.48619876408E+03  0.86921963722E+03  0.25500000920E-02 0. -1.
</event>
<event>
 5   0  0.7359897E-04  0.1480807E+04  0.7818609E-02  0.8897317E-01
       -2   -1    0    0    0  501  0.00000000000E+00  0.00000000000E+00  0.90309134083E+03  0.90309134083E+03  0.25500000920E-02 0.  1.
        2   -1    0    0  501    0  0.00000000000E+00  0.00000000000E+00 -0.60702313661E+03  0.60702313661E+03  0.25500000920E-02 0. -1.
    10030    2    1    2    0    0  0.00000000000E+00  0.00000000000E+00  0.29606820422E+03  0.15101144774E+04  0.14808069940E+04 0.  0.
        1    1    3    3  502    0  0.27501113052E+03  0.68600838112E+03  0.19316742519E+03  0.76390593338E+03  0.50400001928E-02 0.  1.
       -1    1    3    3    0  502 -0.27501113052E+03 -0.68600838112E+03  0.10290077903E+03  0.74620854406E+03  0.50400001928E-02 0. -1.
</event>
<event>
 5   0  0.3907345E-04  0.1489239E+04  0.7818609E-02  0.8891641E-01
       -1   -1    0    0    0  501  0.00000000000E+00  0.00000000000E+00  0.81693839770E+03  0.81693839772E+03  0.50400001928E-02 0.  1.
        1   -1    0    0  501    0  0.00000000000E+00  0.00000000000E+00 -0.67870241477E+03  0.67870241478E+03  0.50400001928E-02 0. -1.
    10030    2    1    2    0    0  0.00000000000E+00  0.00000000000E+00  0.13823598294E+03  0.14956408125E+04  0.14892388167E+04 0.  0.
        5    1    3    3  502    0  0.72650544363E+03 -0.68410426842E+02 -0.79660084188E+02  0.73406945525E+03  0.46999998093E+01 0.  1.
       -5    1    3    3    0  502 -0.72650544363E+03  0.68410426842E+02  0.21789606713E+03  0.76157135725E+03  0.46999998093E+01 0. -1.
</event>
<event>
 5   0  0.3907345E-04  0.1487137E+04  0.7818609E-02  0.8893052E-01
        1   -1    0    0  501    0  0.00000000000E+00  0.00000000000E+00  0.11509008159E+04  0.11509008159E+04  0.50400001928E-02 0.  1.
       -1   -1    0    0    0  501  0.00000000000E+00  0.00000000000E+00 -0.48040101828E+03  0.48040101831E+03  0.50400001928E-02 0. -1.
    10030    2    1    2    0    0  0.00000000000E+00  0.00000000000E+00  0.67049979757E+03  0.16313018342E+04  0.14871367441E+04 0.  0.
        5    1    3    3  502    0 -0.26818175480E+03 -0.13830143810E+03  0.10807045739E+04  0.11220486654E+04  0.46999998093E+01 0.  1.
       -5    1    3    3    0  502  0.26818175480E+03  0.13830143810E+03 -0.41020477635E+03  0.50925316879E+03  0.46999998093E+01 0. -1.
</event>
<event>
 5   0  0.7634227E-04  0.1392757E+04  0.7818609E-02  0.8959078E-01
       -2   -1    0    0    0  501  0.00000000000E+00  0.00000000000E+00  0.89793083992E+03  0.89793083993E+03  0.25500000920E-02 0. -1.
        2   -1    0    0  501    0  0.00000000000E+00  0.00000000000E+00 -0.54006719071E+03  0.54006719071E+03  0.25500000920E-02 0.  1.
    10030    2    1    2    0    0  0.00000000000E+00  0.00000000000E+00  0.35786364922E+03  0.14379980306E+04  0.13927569582E+04 0.  0.
        2    1    3    3  502    0  0.52491409642E+03  0.45752718989E+03  0.16986899525E+03  0.71674361780E+03  0.25500000920E-02 0.  1.
       -2    1    3    3    0  502 -0.52491409642E+03 -0.45752718989E+03  0.18799465397E+03  0.72125441284E+03  0.25500000920E-02 0. -1.
</event>
<event>
 5   0  0.4086710E-04  0.1513458E+04  0.7818609E-02  0.8875552E-01
        1   -1    0    0  501    0  0.00000000000E+00  0.00000000000E+00  0.14174226352E+04  0.14174226352E+04  0.50400001928E-02 0. -1.
       -1   -1    0    0    0  501  0.00000000000E+00  0.00000000000E+00 -0.40400027329E+03  0.40400027332E+03  0.50400001928E-02 0.  1.
    10030    2    1    2    0    0  0.00000000000E+00  0.00000000000E+00  0.10134223619E+04  0.18214229085E+04  0.15134584659E+04 0.  0.
        3    1    3    3  502    0  0.12935991144E+03 -0.91622311618E+02  0.13972164809E+04  0.14061801233E+04  0.10100000352E+00 0. -1.
       -3    1    3    3    0  502 -0.12935991144E+03  0.91622311618E+02 -0.38379411897E+03  0.41524278517E+03  0.10100000352E+00 0.  1.
</event>
<event>
 5   0  0.3907345E-04  0.1559888E+04  0.7818609E-02  0.8845577E-01
       -1   -1    0    0    0  501  0.00000000000E+00  0.00000000000E+00  0.18215120316E+04  0.18215120316E+04  0.50400001928E-02 0.  1.
        1   -1    0    0  501    0  0.00000000000E+00  0.00000000000E+00 -0.33396019882E+03  0.33396019886E+03  0.50400001928E-02 0. -1.
    10030    2    1    2    0    0  0.00000000000E+00  0.00000000000E+00  0.14875518327E+04  0.21554722304E+04  0.15598878425E+04 0.  0.
        5    1    3    3  502    0 -0.10487794608E+03  0.31256556749E+03 -0.23291598004E+03  0.40369364785E+03  0.46999998093E+01 0. -1.
       -5    1    3    3    0  502  0.10487794608E+03 -0.31256556749E+03  0.17204678128E+04  0.17517785826E+04  0.46999998093E+01 0.  1.
</event>
<event>
 5   0  0.2800375E-04  0.1491561E+04  0.7818609E-02  0.8890084E-01
        4   -1    0    0  501    0  0.00000000000E+00  0.00000000000E+00  0.11321300215E+04  0.11321307338E+04  0.12699999809E+01 0. -1.
       -4   -1    0    0    0  501  0.00000000000E+00  0.00000000000E+00 -0.49127436348E+03  0.49127600502E+03  0.12699999809E+01 0.  1.
    10030    2    1    2    0    0  0.00000000000E+00  0.00000000000E+00  0.64085565798E+03  0.16234067388E+04  0.14915607481E+04 0.  0.
        4    1    3    3  502    0  0.49067209741E+02  0.38718927765E+03 -0.37124986190E+03  0.53865684871E+03  0.12699999809E+01 0.  1.
       -4    1    3    3    0  502 -0.49067209741E+02 -0.38718927765E+03  0.10121055199E+04  0.10847498901E+04  0.12699999809E+01 0. -1.
</event>
<event>
 5   0  0.7454828E-04  0.1506335E+04  0.7818609E-02  0.8880251E-01
       -2   -1    0    0    0  501  0.00000000000E+00  0.00000000000E+00  0.17585799361E+04  0.17585799361E+04  0.25500000920E-02 0. -1.
        2   -1    0    0  501    0  0.00000000000E+00  0.00000000000E+00 -0.32256788830E+03  0.32256788831E+03  0.25500000920E-02 0.  1.
    10030    2    1    2    0    0  0.00000000000E+00  0.00000000000E+00  0.14360120478E+04  0.20811478244E+04  0.15063351771E+04 0.  0.
        3    1    3    3  502    0  0.57648797186E+03 -0.34278442850E+03  0.24457600809E+03  0.71390264046E+03  0.10100000352E+00 0.  1.
       -3    1    3    3    0  502 -0.57648797186E+03  0.34278442850E+03  0.11914360398E+04  0.13672451840E+04  0.10100000352E+00 0. -1.
</event>
<event>
 5   0  0.3907345E-04  0.1500032E+04  0.7818609E-02  0.8884432E-01
       -1   -1    0    0    0  501  0.00000000000E+00  0.00000000000E+00  0.10991746861E+04  0.10991746861E+04  0.50400001928E-02 0.  1.
        1   -1    0    0  501    0  0.00000000000E+00  0.00000000000E+00 -0.51176936335E+03  0.51176936337E+03  0.50400001928E-02 0. -1.
    10030    2    1    2    0    0  0.00000000000E+00  0.00000000000E+00  0.58740532271E+03  0.16109440494E+04  0.15000319054E+04 0.  0.
        5    1    3    3  502    0 -0.27015893736E+03  0.53719921104E+03 -0.18769678876E+03  0.62993731298E+03  0.46999998093E+01 0. -1.
       -5    1    3    3    0  502  0.27015893736E+03 -0.53719921104E+03  0.77510211147E+03  0.98100673646E+03  0.46999998093E+01 0.  1.
</event>
<event>
 5   0  0.7634227E-04  0.1487304E+04  0.7818609E-02  0.8892940E-01
        2   -1    0    0  501    0  0.00000000000E+00  0.00000000000E+00  0.10776396860E+04  0.10776396860E+04  0.25500000920E-02 0. -1.
       -2   -1    0    0    0  501  0.00000000000E+00  0.00000000000E+00 -0.51317563007E+03  0.51317563008E+03  0.25500000920E-02 0.  1.
    10030    2    1    2    0    0  0.00000000000E+00  0.00000000000E+00  0.56446405588E+03  0.15908153160E+04  0.14873041718E+04 0.  0.
        2    1    3    3  502    0  0.64187093008E+03  0.26996285093E+03  0.30280205368E+01  0.69633856757E+03  0.25500000920E-02 0.  1.
       -2    1    3    3    0  502 -0.64187093008E+03 -0.26996285093E+03  0.56143603534E+03  0.89447674847E+03  0.25500000920E-02 0. -1.
</event>
<event>
 5   0  0.4084462E-04  0.1473529E+04  0.7818609E-02  0.8902249E-01
        1   -1    0    0  501    0  0.00000000000E+00  0.00000000000E+00  0.62843364454E+03  0.62843364456E+03  0.50400001928E-02 0.  1.
       -1   -1    0    0    0  501  0.00000000000E+00  0.00000000000E+00 -0.86376935487E+03  0.86376935489E+03  0.50400001928E-02 0. -1.
    10030    2    1    2    0    0  0.00000000000E+00  0.00000000000E+00 -0.23533571033E+03  0.14922029995E+04  0.14735287222E+04 0.  0.
        1    1    3    3  502    0 -0.19391297613E+03  0.27414637469E+03  0.54643518388E+03  0.64136564242E+03  0.50400001928E-02 0.  1.
       -1    1    3    3    0  502  0.19391297613E+03 -0.27414637469E+03 -0.78177089421E+03  0.85083735703E+03  0.50400001928E-02 0. -1.
</event>
<event>
 5   0  0.2800375E-04  0.1408382E+04  0.7818609E-02  0.8947774E-01
        3   -1    0    0  501    0  0.00000000000E+00  0.00000000000E+00  0.55506841334E+03  0.55506842253E+03  0.10100000352E+00 0. -1.
       -3   -1    0    0    0  501  0.00000000000E+00  0.00000000000E+00 -0.89337577621E+03  0.89337578192E+03  0.10100000352E+00 0.  1.
    10030    2    1    2    0    0  0.00000000000E+00  0.00000000000E+00 -0.33830736288E+03  0.14484442045E+04  0.14083816037E+04 0.  0.
        3    1    3    3  502    0  0.84423303220E+02 -0.33907549013E+02 -0.88730619706E+03  0.89195813442E+03  0.10100000352E+00 0.  1.
       -3    1    3    3    0  502 -0.84423303220E+02  0.33907549013E+02  0.54899883418E+03  0.55648607004E+03  0.10100000352E+00 0. -1.
</event>
<event>
 5   0  0.7454828E-04  0.1481141E+04  0.7818609E-02  0.8897092E-01
       -2   -1    0    0    0  501  0.00000000000E+00  0.00000000000E+00  0.44345317407E+03  0.44345317407E+03  0.25500000920E-02 0.  1.
        2   -1    0    0  501    0  0.00000000000E+00  0.00000000000E+00 -0.12367591703E+04  0.12367591703E+04  0.25500000920E-02 0. -1.
    10030    2    1    2    0    0  0.00000000000E+00  0.00000000000E+00 -0.79330599620E+03  0.16802123443E+04  0.14811411541E+04 0.  0.
        3    1    3    3  502    0  0.11318401404E+03  0.20251837772E+03 -0.11944708655E+04  0.12167929048E+04  0.10100000352E+00 0. -1.
       -3    1    3    3    0  502 -0.11318401404E+03 -0.20251837772E+03  0.40116486934E+03  0.46341943954E+03  0.10100000352E+00 0.  1.
</event>
<event>
 5   0  0.4015204E-04  0.1451391E+04  0.7818609E-02  0.8917437E-01
        1   -1    0    0  501    0  0.00000000000E+00  0.00000000000E+00  0.95308801711E+03  0.95308801713E+03  0.50400001928E-02 0. -1.
       -1   -1    0    0    0  501  0.00000000000E+00  0.00000000000E+00 -0.55255559548E+03  0.55255559550E+03  0.50400001928E-02 0.  1.
    10030    2    1    2    0    0  0.00000000000E+00  0.00000000000E+00  0.40053242164E+03  0.15056436126E+04  0.14513912179E+04 0.  0.
        2    1    3    3  502    0 -0.35803528941E+01 -0.20207683525E+03  0.92330284861E+03  0.94516454469E+03  0.25500000920E-02 0. -1.
       -2    1    3    3    0  502  0.35803528941E+01  0.20207683525E+03 -0.52277042698E+03  0.56047906794E+03  0.25500000920E-02 0.  1.
</event>
<event>
 5   0  0.4086710E-04  0.1509772E+04  0.7818609E-02  0.8877981E-01
        1   -1    0    0  501    0  0.00000000000E+00  0.00000000000E+00  0.78760870545E+03  0.78760870547E+03  0.50400001928E-02 0. -1.
       -1   -1    0    0    0  501  0.00000000000E+00  0.00000000000E+00 -0.72352259608E+03  0.72352259610E+03  0.50400001928E-02 0.  1.
    10030    2    1    2    0    0  0.00000000000E+00  0.00000000000E+00  0.64086109366E+02  0.15111313016E+04  0.15097717646E+04 0.  0.
        3    1    3    3  502    0 -0.41009664775E+03 -0.10370915402E+03  0.65784029781E+03  0.78210531052E+03  0.10100000352E+00 0. -1.
       -3    1    3    3    0  502  0.41009664775E+03  0.10370915402E+03 -0.59375418845E+03  0.72902599105E+03  0.10100000352E+00 0.  1.
</event>
<event>
 5   0  0.3907345E-04  0.1530107E+04  0.7818609E-02  0.8864675E-01
       -1   -1    0    0    0  501  0.00000000000E+00  0.00000000000E+00  0.44902002712E+03  0.44902002715E+03  0.50400001928E-02 0.  1.
        1   -1    0    0  501    0  0.00000000000E+00  0.00000000000E+00 -0.13035212213E+04  0.13035212213E+04  0.50400001928E-02 0. -1.
    10030    2    1    2    0    0  0.00000000000E+00  0.00000000000E+00 -0.85450119419E+03  0.17525412485E+04  0.15301073612E+04 0.  0.
        5    1    3    3  502    0 -0.27469124989E+03  0.55269551714E+03 -0.94502616861E+03  0.11287267901E+04  0.46999998093E+01 0. -1.
       -5    1    3    3    0  502  0.27469124989E+03 -0.55269551714E+03  0.90524974417E+02  0.62381445833E+03  0.46999998093E+01 0.  1.
</event>
<event>
 5   0  0.4015204E-04  0.1493715E+04  0.7818609E-02  0.8888643E-01
        1   -1    0    0  501    0  0.00000000000E+00  0.00000000000E+00  0.10508420260E+04  0.10508420260E+04  0.50400001928E-02 0. -1.
       -1   -1    0    0    0  501  0.00000000000E+00  0.00000000000E+00 -0.53080857615E+03  0.53080857618E+03  0.50400001928E-02 0.  1.
    10030    2    1    2    0    0  0.00000000000E+00  0.00000000000E+00  0.52003344982E+03  0.15816506022E+04  0.14937147781E+04 0.  0.
        2    1    3    3  502    0 -0.15535821508E+03  0.34234892722E+03  0.94334273924E+03  0.10154971623E+04  0.25500000920E-02 0. -1.
       -2    1    3    3    0  502  0.15535821508E+03 -0.34234892722E+03 -0.42330928942E+03  0.56615343987E+03  0.25500000920E-02 0.  1.
</event>
<event>
 5   0  0.7547580E-04  0.1487013E+04  0.7818609E-02  0.8893135E-01
       -2   -1    0    0    0  501  0.00000000000E+00  0.00000000000E+00  0.43717437780E+03  0.43717437781E+03  0.25500000920E-02 0. -1.
        2   -1    0    0  501    0  0.00000000000E+00  0.00000000000E+00 -0.12644887082E+04  0.12644887082E+04  0.25500000920E-02 0.  1.
    10030    2    1    2    0    0  0.00000000000E+00  0.00000000000E+00 -0.82731433044E+03  0.17016630860E+04  0.14870132000E+04 0.  0.
        4    1    3    3  502    0 -0.57524146666E+03 -0.33420422186E+03 -0.79354893546E+03  0.10355272728E+04  0.12699999809E+01 0.  1.
       -4    1    3    3    0  502  0.57524146666E+03  0.33420422186E+03 -0.33765394980E+02  0.66613581323E+03  0.12699999809E+01 0. -1.
</event>
<event>
 5   0  0.4058874E-04  0.1447720E+04  0.7818609E-02  0.8919983E-01
        1   -1    0    0  501    0  0.00000000000E+00  0.00000000000E+00  0.10248419742E+04  0.10248419742E+04  0.50400001928E-02 0.  1.
       -1   -1    0    0    0  501  0.00000000000E+00  0.00000000000E+00 -0.51127232132E+03  0.51127232134E+03  0.50400001928E-02 0. -1.
    10030    2    1    2    0    0  0.00000000000E+00  0.00000000000E+00  0.51356965290E+03  0.15361142956E+04  0.14477200491E+04 0.  0.
        4    1    3    3  502    0 -0.19396322484E+03  0.33333987792E+03  0.90675036646E+03  0.98536036392E+03  0.12699999809E+01 0.  1.
       -4    1    3    3    0  502  0.19396322484E+03 -0.33333987792E+03 -0.39318071357E+03  0.55075393165E+03  0.12699999809E+01 0. -1.
</event>
<event>
 5   0  0.3907345E-04  0.1582577E+04  0.7818609E-02  0.8831324E-01
       -1   -1    0    0    0  501  0.00000000000E+00  0.00000000000E+00  0.52677915781E+03  0.52677915783E+03  0.50400001928E-02 0. -1.
        1   -1    0    0  501    0  0.00000000000E+00  0.00000000000E+00 -0.11886147167E+04  0.11886147167E+04  0.50400001928E-02 0.  1.
    10030    2    1    2    0    0  0.00000000000E+00  0.00000000000E+00 -0.66183555893E+03  0.17153938746E+04  0.15825769611E+04 0.  0.
        5    1    3    3  502    0  0.28905848584E+03 -0.16422966010E+03 -0.11092247379E+04  0.11579843689E+04  0.46999998093E+01 0.  1.
       -5    1    3    3    0  502 -0.28905848584E+03  0.16422966010E+03  0.44738917899E+03  0.55740950563E+03  0.46999998093E+01 0. -1.
</event>
<event>
 5   0  0.2800375E-04  0.1514085E+04  0.7818609E-02  0.8875140E-01
       -4   -1    0    0    0  501  0.00000000000E+00  0.00000000000E+00  0.10755510777E+04  0.10755518275E+04  0.12699999809E+01 0. -1.
        4   -1    0    0  501    0  0.00000000000E+00  0.00000000000E+00 -0.53285384920E+03  0.53285536265E+03  0.12699999809E+01 0.  1.
    10030    2    1    2    0    0  0.00000000000E+00  0.00000000000E+00  0.54269722849E+03  0.16084071902E+04  0.15140850067E+04 0.  0.
        5    1    3    3  502    0  0.59315953537E+03  0.67177746612E+02  0.76590459670E+03  0.97107313076E+03  0.46999998093E+01 0. -1.
       -5    1    3    3    0  502 -0.59315953537E+03 -0.67177746612E+02 -0.22320736821E+03  0.63733405939E+03  0.46999998093E+01 0.  1.
</event>
<event>
 5   0  0.7359897E-04  0.1509862E+04  0.7818609E-02  0.8877921E-01
        2   -1    0    0  501    0  0.00000000000E+00  0.00000000000E+00  0.58780062081E+03  0.58780062081E+03  0.25500000920E-02 0.  1.
       -2   -1    0    0    0  501  0.00000000000E+00  0.00000000000E+00 -0.96958212162E+03  0.96958212162E+03  0.25500000920E-02 0. -1.
    10030    2    1    2    0    0  0.00000000000E+00  0.00000000000E+00 -0.38178150081E+03  0.15573827424E+04  0.15098622096E+04 0.  0.
        1    1    3    3  502    0 -0.16977955394E+03  0.71339673113E+03 -0.37586985807E+03  0.82403770736E+03  0.50400001928E-02 0.  1.
       -1    1    3    3    0  502  0.16977955394E+03 -0.71339673113E+03 -0.59116427352E+01  0.73334503507E+03  0.50400001928E-02 0. -1.
</event>
<event>
 5   0  0.7454828E-04  0.1481920E+04  0.7818609E-02  0.8896566E-01
       -2   -1    0    0    0  501  0.00000000000E+00  0.00000000000E+00  0.33174110460E+03  0.33174110461E+03  0.25500000920E-02 0.  1.
        2   -1    0    0  501    0  0.00000000000E+00  0.00000000000E+00 -0.16549710743E+04  0.16549710743E+04  0.25500000920E-02 0. -1.
    10030    2    1    2    0    0  0.00000000000E+00  0.00000000000E+00 -0.13232299697E+04  0.19867121789E+04  0.14819202843E+04 0.  0.
        3    1    3    3  502    0  0.60000424427E+02  0.26166371737E+03  0.26425146176E+03  0.37669191279E+03  0.10100000352E+00 0.  1.
       -3    1    3    3    0  502 -0.60000424427E+02 -0.26166371737E+03 -0.15874814314E+04  0.16100202661E+04  0.10100000352E+00 0. -1.
</event>
<event>
 5   0  0.7454828E-04  0.1493700E+04  0.7818609E-02  0.8888653E-01
       -2   -1    0    0    0  501  0.00000000000E+00  0.00000000000E+00  0.25779877814E+03  0.25779877815E+03  0.25500000920E-02 0.  1.
        2   -1    0    0  501    0  0.00000000000E+00  0.00000000000E+00 -0.21636436757E+04  0.21636436757E+04  0.25500000920E-02 0. -1.
    10030    2    1    2    0    0  0.00000000000E+00  0.00000000000E+00 -0.19058448976E+04  0.24214424539E+04  0.14936996967E+04 0.  0.
        3    1    3    3  502    0 -0.43159003660E+03  0.34194740042E+03 -0.17708761401E+04  0.18545081014E+04  0.10100000352E+00 0. -1.
       -3    1    3    3    0  502  0.43159003660E+03 -0.34194740042E+03 -0.13496875751E+03  0.56693435251E+03  0.10100000352E+00 0.  1.
</event>
<event>
 5   0  0.4058874E-04  0.1497463E+04  0.7818609E-02  0.8886142E-01
        1   -1    0    0  501    0  0.00000000000E+00  0.00000000000E+00  0.76563310929E+03  0.76563310931E+03  0.50400001928E-02 0. -1.
       -1   -1    0    0    0  501  0.00000000000E+00  0.00000000000E+00 -0.73220315095E+03  0.73220315096E+03  0.50400001928E-02 0.  1.
    10030    2    1    2    0    0  0.00000000000E+00  0.00000000000E+00  0.33429958348E+02  0.14978362603E+04  0.14974631550E+04 0.  0.
        4    1    3    3  502    0  0.74772381520E+01 -0.56933233322E+03  0.50304816254E+03  0.75977251956E+03  0.12699999809E+01 0. -1.
       -4    1    3    3    0  502 -0.74772381520E+01  0.56933233322E+03 -0.46961820420E+03  0.73806374071E+03  0.12699999809E+01 0.  1.
</event>
<event>
 5   0  0.7359897E-04  0.1458025E+04  0.7818609E-02  0.8912856E-01
        2   -1    0    0  501    0  0.00000000000E+00  0.00000000000E+00  0.18636308825E+04  0.18636308825E+04  0.25500000920E-02 0.  1.
       -2   -1    0    0    0  501  0.00000000000E+00  0.00000000000E+00 -0.28517400477E+03  0.28517400478E+03  0.25500000920E-02 0. -1.
    10030    2    1    2    0    0  0.00000000000E+00  0.00000000000E+00  0.15784568777E+04  0.21488048873E+04  0.14580248039E+04 0.  0.
        1    1    3    3  502    0 -0.67017266923E+03 -0.13415289185E+03  0.11630300186E+04  0.13489874829E+04  0.50400001928E-02 0.  1.
       -1    1    3    3    0  502  0.67017266923E+03  0.13415289185E+03  0.41542685916E+03  0.79981740435E+03  0.50400001928E-02 0. -1.
</event>
<event>
 5   0  0.4015204E-04  0.1491410E+04  0.7818609E-02  0.8890185E-01
        1   -1    0    0  501    0  0.00000000000E+00  0.00000000000E+00  0.80694455850E+03  0.80694455852E+03  0.50400001928E-02 0. -1.
       -1   -1    0    0    0  501  0.00000000000E+00  0.00000000000E+00 -0.68911298351E+03  0.68911298353E+03  0.50400001928E-02 0.  1.
    10030    2    1    2    0    0  0.00000000000E+00  0.00000000000E+00  0.11783157499E+03  0.14960575420E+04  0.14914100338E+04 0.  0.
        2    1    3    3  502    0  0.52633055077E+03 -0.22107446080E+03  0.54017974507E+03  0.78593379039E+03  0.25500000920E-02 0. -1.
       -2    1    3    3    0  502 -0.52633055077E+03  0.22107446080E+03 -0.42234817007E+03  0.71012375166E+03  0.25500000920E-02 0.  1.
</event>
<event>
 5   0  0.4084462E-04  0.1485068E+04  0.7818609E-02  0.8894444E-01
        1   -1    0    0  501    0  0.00000000000E+00  0.00000000000E+00  0.54989665271E+03  0.54989665274E+03  0.50400001928E-02 0. -1.
       -1   -1    0    0    0  501  0.00000000000E+00  0.00000000000E+00 -0.10026554640E+04  0.10026554641E+04  0.50400001928E-02 0.  1.
    10030    2    1    2    0    0  0.00000000000E+00  0.00000000000E+00 -0.45275881133E+03  0.15525521168E+04  0.14850681917E+04 0.  0.
        1    1    3    3  502    0  0.46485813738E+03 -0.54881713630E+03 -0.41932937895E+03  0.83254457242E+03  0.50400001928E-02 0.  1.
       -1    1    3    3    0  502 -0.46485813738E+03  0.54881713630E+03 -0.33429432380E+02  0.72000754438E+03  0.50400001928E-02 0. -1.
</event>
<event>
 5   0  0.3907345E-04  0.1570769E+04  0.7818609E-02  0.8838710E-01
        1   -1    0    0  501    0  0.00000000000E+00  0.00000000000E+00  0.54131972748E+03  0.54131972751E+03  0.50400001928E-02 0. -1.
       -1   -1    0    0    0  501  0.00000000000E+00  0.00000000000E+00 -0.11394908792E+04  0.11394908792E+04  0.50400001928E-02 0.  1.
    10030    2    1    2    0    0  0.00000000000E+00  0.00000000000E+00 -0.59817115170E+03  0.16808106067E+04  0.15707691011E+04 0.  0.
        5    1    3    3  502    0  0.44568295859E+02  0.70701083919E+03 -0.66188995580E+03  0.96952104841E+03  0.46999998093E+01 0.  1.
       -5    1    3    3    0  502 -0.44568295859E+02 -0.70701083919E+03  0.63718804099E+02  0.71128955829E+03  0.46999998093E+01 0. -1.
</event>
<event>
 5   0  0.7634227E-04  0.1484792E+04  0.7818609E-02  0.8894630E-01
       -2   -1    0    0    0  501  0.00000000000E+00  0.00000000000E+00  0.58446072169E+03  0.58446072169E+03  0.25500000920E-02 0.  1.
        2   -1    0    0  501    0  0.00000000000E+00  0.00000000000E+00 -0.94300885189E+03  0.94300885190E+03  0.25500000920E-02 0. -1.
    10030    2    1    2    0    0  0.00000000000E+00  0.00000000000E+00 -0.35854813021E+03  0.15274695736E+04  0.14847917486E+04 0.  0.
        2    1    3    3  502    0  0.44612288430E+03  0.55482017851E+03 -0.39580089023E+03  0.81456086519E+03  0.25500000920E-02 0. -1.
       -2    1    3    3    0  502 -0.44612288430E+03 -0.55482017851E+03  0.37252760027E+02  0.71290870840E+03  0.25500000920E-02 0.  1.
</event>
<event>
 5   0  0.7359897E-04  0.1492825E+04  0.7818609E-02  0.8889238E-01
        2   -1    0    0  501    0  0.00000000000E+00  0.00000000000E+00  0.13471248487E+04  0.13471248487E+04  0.25500000920E-02 0. -1.
       -2   -1    0    0    0  501  0.00000000000E+00  0.00000000000E+00 -0.41357115369E+03  0.41357115370E+03  0.25500000920E-02 0.  1.
    10030    2    1    2    0    0  0.00000000000E+00  0.00000000000E+00  0.93355369502E+03  0.17606960024E+04  0.14928254792E+04 0.  0.
        1    1    3    3  502    0  0.53855180494E+03 -0.45249043770E+03  0.76127379911E+03  0.10364957501E+04  0.50400001928E-02 0. -1.
       -1    1    3    3    0  502 -0.53855180494E+03  0.45249043770E+03  0.17227989591E+03  0.72420025226E+03  0.50400001928E-02 0.  1.
</event>
<event>
 5   0  0.7672251E-04  0.1441832E+04  0.7818609E-02  0.8924083E-01
        2   -1    0    0  501    0  0.00000000000E+00  0.00000000000E+00  0.10293824670E+04  0.10293824670E+04  0.25500000920E-02 0. -1.
       -2   -1    0    0    0  501  0.00000000000E+00  0.00000000000E+00 -0.50488514496E+03  0.50488514496E+03  0.25500000920E-02 0.  1.
    10030    2    1    2    0    0  0.00000000000E+00  0.00000000000E+00  0.52449732205E+03  0.15342676120E+04  0.14418320514E+04 0.  0.
        5    1    3    3  502    0  0.28932784963E+03  0.11531816464E+03  0.95407467007E+03  0.10036381070E+04  0.46999998093E+01 0. -1.
       -5    1    3    3    0  502 -0.28932784963E+03 -0.11531816464E+03 -0.42957734802E+03  0.53062950502E+03  0.46999998093E+01 0.  1.
</event>
<event>
 5   0  0.2800375E-04  0.1505777E+04  0.7818609E-02  0.8880620E-01
       -3   -1    0    0    0  501  0.00000000000E+00  0.00000000000E+00  0.82570530932E+03  0.82570531550E+03  0.10100000352E+00 0.  1.
        3   -1    0    0  501    0  0.00000000000E+00  0.00000000000E+00 -0.68649302802E+03  0.68649303545E+03  0.10100000352E+00 0. -1.
    10030    2    1    2    0    0  0.00000000000E+00  0.00000000000E+00  0.13921228130E+03  0.15121983510E+04  0.15057768073E+04 0.  0.
        4    1    3    3  502    0  0.31097978034E+03 -0.14074537578E+03 -0.60431576057E+03  0.69405823672E+03  0.12699999809E+01 0. -1.
       -4    1    3    3    0  502 -0.31097978034E+03  0.14074537578E+03  0.74352804187E+03  0.81814011424E+03  0.12699999809E+01 0.  1.
</event>
<event>
 5   0  0.2800375E-04  0.1498083E+04  0.7818609E-02  0.8885729E-01
        4   -1    0    0  501    0  0.00000000000E+00  0.00000000000E+00  0.35620696633E+03  0.35620923032E+03  0.12699999809E+01 0. -1.
       -4   -1    0    0    0  501  0.00000000000E+00  0.00000000000E+00 -0.15750965268E+04  0.15750970388E+04  0.12699999809E+01 0.  1.
    10030    2    1    2    0    0  0.00000000000E+00  0.00000000000E+00 -0.12188895605E+04  0.19313062692E+04  0.14980828230E+04 0.  0.
        3    1    3    3  502    0 -0.25477047286E+03  0.17235571269E+03  0.27103055591E+03  0.40996592294E+03  0.10100000352E+00 0. -1.
       -3    1    3    3    0  502  0.25477047286E+03 -0.17235571269E+03 -0.14899201164E+04  0.15213403462E+04  0.10100000352E+00 0.  1.
</event>
<event>
 5   0  0.7547580E-04  0.1537172E+04  0.7818609E-02  0.8860103E-01
        2   -1    0    0  501    0  0.00000000000E+00  0.00000000000E+00  0.58542991801E+03  0.58542991802E+03  0.25500000920E-02 0. -1.
       -2   -1    0    0    0  501  0.00000000000E+00  0.00000000000E+00 -0.10090441276E+04  0.10090441276E+04  0.25500000920E-02 0.  1.
    10030    2    1    2    0    0  0.00000000000E+00  0.00000000000E+00 -0.42361420963E+03  0.15944740457E+04  0.15371722362E+04 0.  0.
        4    1    3    3  502    0 -0.51492358099E+03 -0.14463182640E+03  0.36072713501E+03  0.64512815650E+03  0.12699999809E+01 0. -1.
       -4    1    3    3    0  502  0.51492358099E+03  0.14463182640E+03 -0.78434134464E+03  0.94934588917E+03  0.12699999809E+01 0.  1.
</event>
<event>
 5   0  0.7359897E-04  0.1504910E+04  0.7818609E-02  0.8881194E-01
       -2   -1    0    0    0  501  0.00000000000E+00  0.00000000000E+00  0.78239805387E+03  0.78239805387E+03  0.25500000920E-02 0. -1.
        2   -1    0    0  501    0  0.00000000000E+00  0.00000000000E+00 -0.72365825842E+03  0.72365825843E+03  0.25500000920E-02 0.  1.
    10030    2    1    2    0    0  0.00000000000E+00  0.00000000000E+00  0.58739795443E+02  0.15060563123E+04  0.15049103801E+04 0.  0.
        1    1    3    3  502    0  0.32881879967E+03  0.19826030283E+03  0.67697922799E+03  0.77828646772E+03  0.50400001928E-02 0. -1.
       -1    1    3    3    0  502 -0.32881879967E+03 -0.19826030283E+03 -0.61823943254E+03  0.72776984457E+03  0.50400001928E-02 0.  1.
</event>
<event>
 5   0  0.4084462E-04  0.1491926E+04  0.7818609E-02  0.8889840E-01
        1   -1    0    0  501    0  0.00000000000E+00  0.00000000000E+00  0.47511396947E+03  0.47511396949E+03  0.50400001928E-02 0. -1.
       -1   -1    0    0    0  501  0.00000000000E+00  0.00000000000E+00 -0.11712157991E+04  0.11712157991E+04  0.50400001928E-02 0.  1.
    10030    2    1    2    0    0  0.00000000000E+00  0.00000000000E+00 -0.69610182961E+03  0.16463297686E+04  0.14919262548E+04 0.  0.
        1    1    3    3  502    0  0.62345014455E+03  0.28242859327E+03 -0.67540904703E+03  0.96157858434E+03  0.50400001928E-02 0.  1.
       -1    1    3    3    0  502 -0.62345014455E+03 -0.28242859327E+03 -0.20692782580E+02  0.68475118423E+03  0.50400001928E-02 0. -1.
</event>
<event>
 5   0  0.3907345E-04  0.1476355E+04  0.7818609E-02  0.8900331E-01
       -1   -1    0    0    0  501  0.00000000000E+00  0.00000000000E+00  0.12936632591E+04  0.12936632591E+04  0.50400001928E-02 0.  1.
        1   -1    0    0  501    0  0.00000000000E+00  0.00000000000E+00 -0.42121143959E+03  0.42121143962E+03  0.50400001928E-02 0. -1.
    10030    2    1    2    0    0  0.00000000000E+00  0.00000000000E+00  0.87245181947E+03  0.17148746987E+04  0.14763546508E+04 0.  0.
        5    1    3    3  502    0  0.32053911591E+03  0.43947345861E+03  0.10158449124E+04  0.11523216659E+04  0.46999998093E+01 0.  1.
       -5    1    3    3    0  502 -0.32053911591E+03 -0.43947345861E+03 -0.14339309289E+03  0.56255303283E+03  0.46999998093E+01 0. -1.
</event>
<event>
 5   0  0.7672251E-04  0.1497949E+04  0.7818609E-02  0.8885818E-01
        2   -1    0    0  501    0  0.00000000000E+00  0.00000000000E+00  0.17864537731E+04  0.17864537731E+04  0.25500000920E-02 0.  1.
       -2   -1    0    0    0  501  0.00000000000E+00  0.00000000000E+00 -0.31400925890E+03  0.31400925891E+03  0.25500000920E-02 0. -1.
    10030    2    1    2    0    0  0.00000000000E+00  0.00000000000E+00  0.14724445142E+04  0.21004630320E+04  0.14979492987E+04 0.  0.
        5    1    3    3  502    0  0.72243638057E+03  0.92659599411E+02  0.98087271371E+03  0.12217338073E+04  0.46999998093E+01 0.  1.
       -5    1    3    3    0  502 -0.72243638057E+03 -0.92659599411E+02  0.49157180044E+03  0.87872922469E+03  0.46999998093E+01 0. -1.
</event>
<event>
 5   0  0.7672251E-04  0.1513234E+04  0.7818609E-02  0.8875700E-01
       -2   -1    0    0    0  501  0.00000000000E+00  0.00000000000E+00  0.35667625256E+03  0.35667625257E+03  0.25500000920E-02 0.  1.
        2   -1    0    0  501    0  0.00000000000E+00  0.00000000000E+00 -0.16050110367E+04  0.16050110367E+04  0.25500000920E-02 0. -1.
    10030    2    1    2    0    0  0.00000000000E+00  0.00000000000E+00 -0.12483347841E+04  0.19616872893E+04  0.15132340492E+04 0.  0.
        5    1    3    3  502    0  0.43897525542E+03  0.11923638504E+03  0.15959707018E+03  0.48208910504E+03  0.46999998093E+01 0.  1.
       -5    1    3    3    0  502 -0.43897525542E+03 -0.11923638504E+03 -0.14079318543E+04  0.14795981842E+04  0.46999998093E+01 0. -1.
</event>
<event>
 5   0  0.7672251E-04  0.1442107E+04  0.7818609E-02  0.8923891E-01
       -2   -1    0    0    0  501  0.00000000000E+00  0.00000000000E+00  0.80030139328E+03  0.80030139328E+03  0.25500000920E-02 0.  1.
        2   -1    0    0  501    0  0.00000000000E+00  0.00000000000E+00 -0.64965302241E+03  0.64965302242E+03  0.25500000920E-02 0. -1.
    10030    2    1    2    0    0  0.00000000000E+00  0.00000000000E+00  0.15064837087E+03  0.14499544157E+04  0.14421070959E+04 0.  0.
        5    1    3    3  502    0  0.60698926905E+02 -0.71777158949E+03  0.43280483693E+02  0.72164790907E+03  0.46999998093E+01 0. -1.
       -5    1    3    3    0  502 -0.60698926905E+02  0.71777158949E+03  0.10736788717E+03  0.72830650663E+03  0.46999998093E+01 0.  1.
</event>
<event>
 5   0  0.7547580E-04  0.1489061E+04  0.7818609E-02  0.8891760E-01
       -2   -1    0    0    0  501  0.00000000000E+00  0.00000000000E+00  0.49233662475E+03  0.49233662476E+03  0.25500000920E-02 0.  1.
        2   -1    0    0  501    0  0.00000000000E+00  0.00000000000E+00 -0.11259082613E+04  0.11259082613E+04  0.25500000920E-02 0. -1.
    10030    2    1    2    0    0  0.00000000000E+00  0.00000000000E+00 -0.63357163654E+03  0.16182448861E+04  0.14890612790E+04 0.  0.
        4    1    3    3  502    0 -0.33966534770E+03  0.63814449056E+03 -0.51034821701E+03  0.88490556263E+03  0.12699999809E+01 0.  1.
       -4    1    3    3    0  502  0.33966534770E+03 -0.63814449056E+03 -0.12322341952E+03  0.73333932342E+03  0.12699999809E+01 0. -1.
</event>
<event>
 5   0  0.7547580E-04  0.1521101E+04  0.7818609E-02  0.8870541E-01
       -2   -1    0    0    0  501  0.00000000000E+00  0.00000000000E+00  0.24195344645E+03  0.24195344647E+03  0.25500000920E-02 0.  1.
        2   -1    0    0  501    0  0.00000000000E+00  0.00000000000E+00 -0.23906951346E+04  0.23906951346E+04  0.25500000920E-02 0. -1.
    10030    2    1    2    0    0  0.00000000000E+00  0.00000000000E+00 -0.21487416881E+04  0.26326485810E+04  0.15211008214E+04 0.  0.
        4    1    3    3  502    0  0.11927006889E+03  0.73979950484E+03 -0.84932874513E+03  0.11326471590E+04  0.12699999809E+01 0.  1.
       -4    1    3    3    0  502 -0.11927006889E+03 -0.73979950484E+03 -0.12994129430E+04  0.15000014220E+04  0.12699999809E+01 0. -1.
</event>
<event>
 5   0  0.3907345E-04  0.1521965E+04  0.7818609E-02  0.8869976E-01
        1   -1    0    0  501    0  0.00000000000E+00  0.00000000000E+00  0.14947269660E+04  0.14947269660E+04  0.50400001928E-02 0. -1.
       -1   -1    0    0    0  501  0.00000000000E+00  0.00000000000E+00 -0.38742483853E+03  0.38742483857E+03  0.50400001928E-02 0.  1.
    10030    2    1    2    0    0  0.00000000000E+00  0.00000000000E+00  0.11073021274E+04  0.18821518046E+04  0.15219649845E+04 0.  0.
        5    1    3    3  502    0  0.26562316174E+03 -0.70774089327E+03  0.66159820757E+03  0.10045830550E+04  0.46999998093E+01 0.  1.
       -5    1    3    3    0  502 -0.26562316174E+03  0.70774089327E+03  0.44570391988E+03  0.87756874959E+03  0.46999998093E+01 0. -1.
</event>
<event>
 5   0  0.7454828E-04  0.1513864E+04  0.7818609E-02  0.8875285E-01
        2   -1    0    0  501    0  0.00000000000E+00  0.00000000000E+00  0.11144664979E+04  0.11144664979E+04  0.25500000920E-02 0.  1.
       -2   -1    0    0    0  501  0.00000000000E+00  0.00000000000E+00 -0.51409902012E+03  0.51409902012E+03  0.25500000920E-02 0. -1.
    10030    2    1    2    0    0  0.00000000000E+00  0.00000000000E+00  0.60036747775E+03  0.16285655180E+04  0.15138641082E+04 0.  0.
        3    1    3    3  502    0 -0.70377997088E+01  0.28747073590E+03 -0.45305096210E+03  0.53660426674E+03  0.10100000352E+00 0. -1.
       -3    1    3    3    0  502  0.70377997088E+01 -0.28747073590E+03  0.10534184398E+04  0.10919612513E+04  0.10100000352E+00 0.  1.
</event>
<event>
 5   0  0.7634227E-04  0.1475717E+04  0.7818609E-02  0.8900764E-01
       -2   -1    0    0    0  501  0.00000000000E+00  0.00000000000E+00  0.31636991726E+03  0.31636991727E+03  0.25500000920E-02 0.  1.
        2   -1    0    0  501    0  0.00000000000E+00  0.00000000000E+00 -0.17208808896E+04  0.17208808896E+04  0.25500000920E-02 0. -1.
    10030    2    1    2    0    0  0.00000000000E+00  0.00000000000E+00 -0.14045109724E+04  0.20372508069E+04  0.14757167000E+04 0.  0.
        2    1    3    3  502    0 -0.48365424783E+03 -0.12981272902E+03 -0.14503655676E+04  0.15343836078E+04  0.25500000920E-02 0. -1.
       -2    1    3    3    0  502  0.48365424783E+03  0.12981272902E+03  0.45854595245E+02  0.50286719914E+03  0.25500000920E-02 0.  1.
</event>
<event>
 5   0  0.4086710E-04  0.1505350E+04  0.7818609E-02  0.8880903E-01
        1   -1    0    0  501    0  0.00000000000E+00  0.00000000000E+00  0.69674390212E+03  0.69674390214E+03  0.50400001928E-02 0.  1.
       -1   -1    0    0    0  501  0.00000000000E+00  0.00000000000E+00 -0.81309567252E+03  0.81309567253E+03  0.50400001928E-02 0. -1.
    10030    2    1    2    0    0  0.00000000000E+00  0.00000000000E+00 -0.11635177040E+03  0.15098395747E+04  0.15053497291E+04 0.  0.
        3    1    3    3  502    0  0.22898217305E+03 -0.68172961231E+03  0.16459316806E+03  0.73775268285E+03  0.10100000352E+00 0.  1.
       -3    1    3    3    0  502 -0.22898217305E+03  0.68172961231E+03 -0.28094493845E+03  0.77208689182E+03  0.10100000352E+00 0. -1.
</event>
<event>
 5   0  0.7672251E-04  0.1517486E+04  0.7818609E-02  0.8872908E-01
        2   -1    0    0  501    0  0.00000000000E+00  0.00000000000E+00  0.93915027117E+03  0.93915027118E+03  0.25500000920E-02 0.  1.
       -2   -1    0    0    0  501  0.00000000000E+00  0.00000000000E+00 -0.61299103676E+03  0.61299103677E+03  0.25500000920E-02 0. -1.
    10030    2    1    2    0    0  0.00000000000E+00  0.00000000000E+00  0.32615923441E+03  0.15521413079E+04  0.15174856815E+04 0.  0.
        5    1    3    3  502    0  0.62068724767E+03 -0.42373088810E+03  0.26971053265E+03  0.79847754281E+03  0.46999998093E+01 0.  1.
       -5    1    3    3    0  502 -0.62068724767E+03  0.42373088810E+03  0.56448701765E+02  0.75366376514E+03  0.46999998093E+01 0. -1.
</event>
<event>
 5   0  0.7634227E-04  0.1503342E+04  0.7818609E-02  0.8882234E-01
       -2   -1    0    0    0  501  0.00000000000E+00  0.00000000000E+00  0.54689616651E+03  0.54689616651E+03  0.25500000920E-02 0.  1.
        2   -1    0    0  501    0  0.00000000000E+00  0.00000000000E+00 -0.10331193994E+04  0.10331193994E+04  0.25500000920E-02 0. -1.
    10030    2    1    2    0    0  0.00000000000E+00  0.00000000000E+00 -0.48622323287E+03  0.15800155659E+04  0.15033416632E+04 0.  0.
        2    1    3    3  502    0 -0.58678904999E+03 -0.25089864851E+03  0.17430638417E+03  0.66155440939E+03  0.25500000920E-02 0.  1.
       -2    1    3    3    0  502  0.58678904999E+03  0.25089864851E+03 -0.66052961704E+03  0.91846115651E+03  0.25500000920E-02 0. -1.
</event>
<event>
 5   0  0.4084462E-04  0.1629378E+04  0.7818609E-02  0.8802700E-01
        1   -1    0    0  501    0  0.00000000000E+00  0.00000000000E+00  0.12623733176E+04  0.12623733177E+04  0.50400001928E-02 0. -1.
       -1   -1    0    0    0  501  0.00000000000E+00  0.00000000000E+00 -0.52577036359E+03  0.52577036361E+03  0.50400001928E-02 0.  1.
    10030    2    1    2    0    0  0.00000000000E+00  0.00000000000E+00  0.73660295406E+03  0.17881436813E+04  0.16293783824E+04 0.  0.
        1    1    3    3  502    0 -0.74859729444E+03 -0.13528311532E+03  0.48309875277E+02  0.76225538674E+03  0.50400001928E-02 0.  1.
       -1    1    3    3    0  502  0.74859729444E+03  0.13528311532E+03  0.68829307878E+03  0.10258882945E+04  0.50400001928E-02 0. -1.
</event>
<event>
 5   0  0.7672251E-04  0.1493965E+04  0.7818609E-02  0.8888476E-01
       -2   -1    0    0    0  501  0.00000000000E+00  0.00000000000E+00  0.27864261482E+03  0.27864261483E+03  0.25500000920E-02 0. -1.
        2   -1    0    0  501    0  0.00000000000E+00  0.00000000000E+00 -0.20025037448E+04  0.20025037448E+04  0.25500000920E-02 0.  1.
    10030    2    1    2    0    0  0.00000000000E+00  0.00000000000E+00 -0.17238611300E+04  0.22811463596E+04  0.14939650326E+04 0.  0.
        5    1    3    3  502    0  0.98619545188E+02 -0.31668779192E+03  0.16000730127E+03  0.36829526022E+03  0.46999998093E+01 0. -1.
       -5    1    3    3    0  502 -0.98619545188E+02  0.31668779192E+03 -0.18838684312E+04  0.19128510994E+04  0.46999998093E+01 0.  1.
</event>
<event>
 5   0  0.2800375E-04  0.1493950E+04  0.7818609E-02  0.8888486E-01
        4   -1    0    0  501    0  0.00000000000E+00  0.00000000000E+00  0.57432325044E+03  0.57432465462E+03  0.12699999809E+01 0. -1.
       -4   -1    0    0    0  501  0.00000000000E+00  0.00000000000E+00 -0.97152572318E+03  0.97152655326E+03  0.12699999809E+01 0.  1.
    10030    2    1    2    0    0  0.00000000000E+00  0.00000000000E+00 -0.39720247274E+03  0.15458512079E+04  0.14939498494E+04 0.  0.
        2    1    3    3  502    0  0.60300272317E+03  0.10561583208E+03  0.24429276536E+03  0.65912513482E+03  0.25500000920E-02 0. -1.
       -2    1    3    3    0  502 -0.60300272317E+03 -0.10561583208E+03 -0.64149523809E+03  0.88672607306E+03  0.25500000920E-02 0.  1.
</event>
<event>
 5   0  0.7454828E-04  0.1516275E+04  0.7818609E-02  0.8873702E-01
        2   -1    0    0  501    0  0.00000000000E+00  0.00000000000E+00  0.65063641907E+03  0.65063641907E+03  0.25500000920E-02 0.  1.
       -2   -1    0    0    0  501  0.00000000000E+00  0.00000000000E+00 -0.88340010890E+03  0.88340010890E+03  0.25500000920E-02 0. -1.
    10030    2    1    2    0    0  0.00000000000E+00  0.00000000000E+00 -0.23276368983E+03  0.15340365280E+04  0.15162747554E+04 0.  0.
        3    1    3    3  502    0  0.56443921296E+03  0.28944783100E+03 -0.53645718211E+03  0.83075747991E+03  0.10100000352E+00 0. -1.
       -3    1    3    3    0  502 -0.56443921296E+03 -0.28944783100E+03  0.30369349227E+03  0.70327904806E+03  0.10100000352E+00 0.  1.
</event>
<event>
 5   0  0.4015204E-04  0.1505136E+04  0.7818609E-02  0.8881045E-01
        1   -1    0    0  501    0  0.00000000000E+00  0.00000000000E+00  0.16542069135E+04  0.16542069135E+04  0.50400001928E-02 0. -1.
       -1   -1    0    0    0  501  0.00000000000E+00  0.00000000000E+00 -0.34237483801E+03  0.34237483804E+03  0.50400001928E-02 0.  1.
    10030    2    1    2    0    0  0.00000000000E+00  0.00000000000E+00  0.13118320755E+04  0.19965817515E+04  0.15051363049E+04 0.  0.
        2    1    3    3  502    0 -0.50144650491E+02 -0.30307709341E+03 -0.25541681585E+03  0.39950964988E+03  0.25500000920E-02 0.  1.
       -2    1    3    3    0  502  0.50144650491E+02  0.30307709341E+03  0.15672488913E+04  0.15970721016E+04  0.25500000920E-02 0. -1.
</event>
<event>
 5   0  0.3907345E-04  0.1497336E+04  0.7818609E-02  0.8886226E-01
       -1   -1    0    0    0  501  0.00000000000E+00  0.00000000000E+00  0.10249944399E+04  0.10249944399E+04  0.50400001928E-02 0.  1.
        1   -1    0    0  501    0  0.00000000000E+00  0.00000000000E+00 -0.54683620569E+03  0.54683620572E+03  0.50400001928E-02 0. -1.
    10030    2    1    2    0    0  0.00000000000E+00  0.00000000000E+00  0.47815823422E+03  0.15718306456E+04  0.14973363956E+04 0.  0.
        5    1    3    3  502    0  0.72582711622E+03 -0.53550902690E+02  0.54880600906E+02  0.72988127265E+03  0.46999998093E+01 0.  1.
       -5    1    3    3    0  502 -0.72582711622E+03  0.53550902690E+02  0.42327763331E+03  0.84194937299E+03  0.46999998093E+01 0. -1.
</event>
<event>
 5   0  0.7634227E-04  0.1466386E+04  0.7818609E-02  0.8907119E-01
       -2   -1    0    0    0  501  0.00000000000E+00  0.00000000000E+00  0.33816843681E+03  0.33816843682E+03  0.25500000920E-02 0.  1.
        2   -1    0    0  501    0  0.00000000000E+00  0.00000000000E+00 -0.15896564438E+04  0.15896564438E+04  0.25500000920E-02 0. -1.
    10030    2    1    2    0    0  0.00000000000E+00  0.00000000000E+00 -0.12514880070E+04  0.19278248806E+04  0.14663855355E+04 0.  0.
        2    1    3    3  502    0  0.46240939076E+03  0.16855279619E+03  0.88719287123E+02  0.50010359095E+03  0.25500000920E-02 0.  1.
       -2    1    3    3    0  502 -0.46240939076E+03 -0.16855279619E+03 -0.13402072941E+04  0.14277212897E+04  0.25500000920E-02 0. -1.
</event>
<event>
 5   0  0.7359897E-04  0.1373085E+04  0.7818609E-02  0.8973535E-01
        2   -1    0    0  501    0  0.00000000000E+00  0.00000000000E+00  0.73056126054E+03  0.73056126054E+03  0.25500000920E-02 0.  1.
       -2   -1    0    0    0  501  0.00000000000E+00  0.00000000000E+00 -0.64517570318E+03  0.64517570319E+03  0.25500000920E-02 0. -1.
    10030    2    1    2    0    0  0.00000000000E+00  0.00000000000E+00  0.85385557356E+02  0.13757369637E+04  0.13730846660E+04 0.  0.
        1    1    3    3  502    0  0.45428632343E+02  0.45046772471E+03 -0.47440048166E+03  0.65577492227E+03  0.50400001928E-02 0. -1.
       -1    1    3    3    0  502 -0.45428632343E+02 -0.45046772471E+03  0.55978603902E+03  0.71996204147E+03  0.50400001928E-02 0.  1.
</event>
<event>
 5   0  0.4015204E-04  0.1518247E+04  0.7818609E-02  0.8872409E-01
        1   -1    0    0  501    0  0.00000000000E+00  0.00000000000E+00  0.14890764139E+04  0.14890764139E+04  0.50400001928E-02 0. -1.
       -1   -1    0    0    0  501  0.00000000000E+00  0.00000000000E+00 -0.38699731850E+03  0.38699731853E+03  0.50400001928E-02 0.  1.
    10030    2    1    2    0    0  0.00000000000E+00  0.00000000000E+00  0.11020790954E+04  0.18760737324E+04  0.15182471199E+04 0.  0.
        2    1    3    3  502    0  0.32754669830E+03  0.40876102877E+03  0.12299871080E+04  0.13368772210E+04  0.25500000920E-02 0. -1.
       -2    1    3    3    0  502 -0.32754669830E+03 -0.40876102877E+03 -0.12790801262E+03  0.53919651140E+03  0.25500000920E-02 0.  1.
</event>
<event>
 5   0  0.4086710E-04  0.1516773E+04  0.7818609E-02  0.8873375E-01
        1   -1    0    0  501    0  0.00000000000E+00  0.00000000000E+00  0.39576901389E+03  0.39576901392E+03  0.50400001928E-02 0.  1.
       -1   -1    0    0    0  501  0.00000000000E+00  0.00000000000E+00 -0.14532472694E+04  0.14532472694E+04  0.50400001928E-02 0. -1.
    10030    2    1    2    0    0  0.00000000000E+00  0.00000000000E+00 -0.10574782555E+04  0.18490162833E+04  0.15167732049E+04 0.  0.
        3    1    3    3  502    0  0.52054337614E+03 -0.52280300241E+03 -0.74289550678E+03  0.10469871680E+04  0.10100000352E+00 0. -1.
       -3    1    3    3    0  502 -0.52054337614E+03  0.52280300241E+03 -0.31458274867E+03  0.80202911527E+03  0.10100000352E+00 0.  1.
</event>
<event>
 5   0  0.7634227E-04  0.1489657E+04  0.7818609E-02  0.8891360E-01
       -2   -1    0    0    0  501  0.00000000000E+00  0.00000000000E+00  0.30390787269E+03  0.30390787270E+03  0.25500000920E-02 0.  1.
        2   -1    0    0  501    0  0.00000000000E+00  0.00000000000E+00 -0.18254524164E+04  0.18254524164E+04  0.25500000920E-02 0. -1.
    10030    2    1    2    0    0  0.00000000000E+00  0.00000000000E+00 -0.15215445437E+04  0.21293602891E+04  0.14896568203E+04 0.  0.
        2    1    3    3  502    0  0.45512714080E+03  0.27749256872E+03 -0.15043871973E+04  0.15960337338E+04  0.25500000920E-02 0. -1.
       -2    1    3    3    0  502 -0.45512714080E+03 -0.27749256872E+03 -0.17157346339E+02  0.53332655524E+03  0.25500000920E-02 0.  1.
</event>
<event>
 5   0  0.4084462E-04  0.1487745E+04  0.7818609E-02  0.8892643E-01
        1   -1    0    0  501    0  0.00000000000E+00  0.00000000000E+00  0.80841311667E+03  0.80841311669E+03  0.50400001928E-02 0. -1.
       -1   -1    0    0    0  501  0.00000000000E+00  0.00000000000E+00 -0.68448474606E+03  0.68448474608E+03  0.50400001928E-02 0.  1.
    10030    2    1    2    0    0  0.00000000000E+00  0.00000000000E+00  0.12392837061E+03  0.14928978628E+04  0.14877452025E+04 0.  0.
        1    1    3    3  502    0  0.53894291143E+03  0.26677382756E+02 -0.45183975037E+03  0.70379706206E+03  0.50400001928E-02 0.  1.
       -1    1    3    3    0  502 -0.53894291143E+03 -0.26677382756E+02  0.57576812098E+03  0.78910080071E+03  0.50400001928E-02 0. -1.
</event>
<event>
 5   0  0.4084462E-04  0.1501314E+04  0.7818609E-02  0.8883579E-01
       -1   -1    0    0    0  501  0.00000000000E+00  0.00000000000E+00  0.60868619720E+03  0.60868619722E+03  0.50400001928E-02 0.  1.
        1   -1    0    0  501    0  0.00000000000E+00  0.00000000000E+00 -0.92574151926E+03  0.92574151927E+03  0.50400001928E-02 0. -1.
    10030    2    1    2    0    0  0.00000000000E+00  0.00000000000E+00 -0.31705532206E+03  0.15344277165E+04  0.15013142043E+04 0.  0.
        1    1    3    3  502    0 -0.61596568487E+03  0.13985448669E+02 -0.59679415636E+03  0.85777187107E+03  0.50400001928E-02 0. -1.
       -1    1    3    3    0  502  0.61596568487E+03 -0.13985448669E+02  0.27973883430E+03  0.67665584543E+03  0.50400001928E-02 0.  1.
</event>
<event>
 5   0  0.4015204E-04  0.1644363E+04  0.7818609E-02  0.8793749E-01
        1   -1    0    0  501    0  0.00000000000E+00  0.00000000000E+00  0.13657013965E+04  0.13657013965E+04  0.50400001928E-02 0.  1.
       -1   -1    0    0    0  501  0.00000000000E+00  0.00000000000E+00 -0.49497058680E+03  0.49497058682E+03  0.50400001928E-02 0. -1.
    10030    2    1    2    0    0  0.00000000000E+00  0.00000000000E+00  0.87073080969E+03  0.18606719833E+04  0.16443625168E+04 0.  0.
        2    1    3    3  502    0 -0.33444837491E+03 -0.19046049827E+03 -0.38674087811E+03  0.54561838650E+03  0.25500000920E-02 0. -1.
       -2    1    3    3    0  502  0.33444837491E+03  0.19046049827E+03  0.12574716878E+04  0.13150535968E+04  0.25500000920E-02 0.  1.
</event>
<event>
 5   0  0.7547580E-04  0.1458247E+04  0.7818609E-02  0.8912703E-01
       -2   -1    0    0    0  501  0.00000000000E+00  0.00000000000E+00  0.48103265626E+03  0.48103265626E+03  0.25500000920E-02 0. -1.
        2   -1    0    0  501    0  0.00000000000E+00  0.00000000000E+00 -0.11051663954E+04  0.11051663954E+04  0.25500000920E-02 0.  1.
    10030    2    1    2    0    0  0.00000000000E+00  0.00000000000E+00 -0.62413373918E+03  0.15861990517E+04  0.14582470666E+04 0.  0.
        4    1    3    3  502    0 -0.67290062091E+03  0.24600093612E+03 -0.45924549608E+03  0.85101101330E+03  0.12699999809E+01 0.  1.
       -4    1    3    3    0  502  0.67290062091E+03 -0.24600093612E+03 -0.16488824310E+03  0.73518803840E+03  0.12699999809E+01 0. -1.
</event>
<event>
 5   0  0.2800375E-04  0.1351180E+04  0.7818609E-02  0.8989935E-01
        4   -1    0    0  501    0  0.00000000000E+00  0.00000000000E+00  0.75494313415E+03  0.75494420238E+03  0.12699999809E+01 0. -1.
       -4   -1    0    0    0  501  0.00000000000E+00  0.00000000000E+00 -0.60457596363E+03  0.60457729754E+03  0.12699999809E+01 0.  1.
    10030    2    1    2    0    0  0.00000000000E+00  0.00000000000E+00  0.15036717052E+03  0.13595214999E+04  0.13511803813E+04 0.  0.
        4    1    3    3  502    0  0.10647479398E+03 -0.15177367453E+03 -0.57847934908E+03  0.60746366166E+03  0.12699999809E+01 0.  1.
       -4    1    3    3    0  502 -0.10647479398E+03  0.15177367453E+03  0.72884651960E+03  0.75205783825E+03  0.12699999809E+01 0. -1.
</event>
<event>
 5   0  0.7547580E-04  0.1517386E+04  0.7818609E-02  0.8872973E-01
        2   -1    0    0  501    0  0.00000000000E+00  0.00000000000E+00  0.91564382676E+03  0.91564382676E+03  0.25500000920E-02 0. -1.
       -2   -1    0    0    0  501  0.00000000000E+00  0.00000000000E+00 -0.62864495729E+03  0.62864495730E+03  0.25500000920E-02 0.  1.
    10030    2    1    2    0    0  0.00000000000E+00  0.00000000000E+00  0.28699886946E+03  0.15442887841E+04  0.15173857445E+04 0.  0.
        4    1    3    3  502    0  0.24522814773E+03 -0.63048235648E+03  0.49305433134E+03  0.83710753958E+03  0.12699999809E+01 0. -1.
       -4    1    3    3    0  502 -0.24522814773E+03  0.63048235648E+03 -0.20605546188E+03  0.70718124448E+03  0.12699999809E+01 0.  1.
</event>
<event>
 5   0  0.7359897E-04  0.1504591E+04  0.7818609E-02  0.8881406E-01
        2   -1    0    0  501    0  0.00000000000E+00  0.00000000000E+00  0.13314060756E+04  0.13314060756E+04  0.25500000920E-02 0.  1.
       -2   -1    0    0    0  501  0.00000000000E+00  0.00000000000E+00 -0.42507557397E+03  0.42507557397E+03  0.25500000920E-02 0. -1.
    10030    2    1    2    0    0  0.00000000000E+00  0.00000000000E+00  0.90633050164E+03  0.17564816496E+04  0.15045905779E+04 0.  0.
        1    1    3    3  502    0  0.36295564267E+03 -0.28504432032E+03 -0.24040223444E+03  0.52036554213E+03  0.50400001928E-02 0. -1.
       -1    1    3    3    0  502 -0.36295564267E+03  0.28504432032E+03  0.11467327361E+04  0.12361161075E+04  0.50400001928E-02 0.  1.
</event>
<event>
 5   0  0.7672251E-04  0.1470864E+04  0.7818609E-02  0.8904062E-01
        2   -1    0    0  501    0  0.00000000000E+00  0.00000000000E+00  0.15124503156E+04  0.15124503156E+04  0.25500000920E-02 0.  1.
       -2   -1    0    0    0  501  0.00000000000E+00  0.00000000000E+00 -0.35760534152E+03  0.35760534153E+03  0.25500000920E-02 0. -1.
    10030    2    1    2    0    0  0.00000000000E+00  0.00000000000E+00  0.11548449741E+04  0.18700556571E+04  0.14708641156E+04 0.  0.
        5    1    3    3  502    0  0.16245745622E+03  0.71724382601E+03  0.57403697277E+03  0.93293711853E+03  0.46999998093E+01 0. -1.
       -5    1    3    3    0  502 -0.16245745622E+03 -0.71724382601E+03  0.58080800132E+03  0.93711853861E+03  0.46999998093E+01 0.  1.
</event>
<event>
 5   0  0.7454828E-04  0.1488262E+04  0.7818609E-02  0.8892297E-01
       -2   -1    0    0    0  501  0.00000000000E+00  0.00000000000E+00  0.13936466147E+04  0.13936466147E+04  0.25500000920E-02 0.  1.
        2   -1    0    0  501    0  0.00000000000E+00  0.00000000000E+00 -0.39732501379E+03  0.39732501380E+03  0.25500000920E-02 0. -1.
    10030    2    1    2    0    0  0.00000000000E+00  0.00000000000E+00  0.99632160087E+03  0.17909716285E+04  0.14882616173E+04 0.  0.
        3    1    3    3  502    0 -0.60651243455E+03 -0.23471857571E+03  0.93335283055E+03  0.11375841330E+04  0.10100000352E+00 0.  1.
       -3    1    3    3    0  502  0.60651243455E+03  0.23471857571E+03  0.62968770316E+02  0.65338749551E+03  0.10100000352E+00 0. -1.
</event>
<event>
 5   0  0.7547580E-04  0.1301100E+04  0.7818609E-02  0.9028693E-01
       -2   -1    0    0    0  501  0.00000000000E+00  0.00000000000E+00  0.62677315289E+03  0.62677315289E+03  0.25500000920E-02 0. -1.
        2   -1    0    0  501    0  0.00000000000E+00  0.00000000000E+00 -0.67522888562E+03  0.67522888563E+03  0.25500000920E-02 0.  1.
    10030    2    1    2    0    0  0.00000000000E+00  0.00000000000E+00 -0.48455732732E+02  0.13020020385E+04  0.13011000539E+04 0.  0.
        4    1    3    3  502    0 -0.47306514626E+03 -0.29741667700E+03  0.30911928010E+03  0.63859506308E+03  0.12699999809E+01 0. -1.
       -4    1    3    3    0  502  0.47306514626E+03  0.29741667700E+03 -0.35757501283E+03  0.66340697544E+03  0.12699999809E+01 0.  1.
</event>
<event>
 5   0  0.4086710E-04  0.1507575E+04  0.7818609E-02  0.8879431E-01
        1   -1    0    0  501    0  0.00000000000E+00  0.00000000000E+00  0.70861908177E+03  0.70861908179E+03  0.50400001928E-02 0. -1.
       -1   -1    0    0    0  501  0.00000000000E+00  0.00000000000E+00 -0.80183527914E+03  0.80183527916E+03  0.50400001928E-02 0.  1.
    10030    2    1    2    0    0  0.00000000000E+00  0.00000000000E+00 -0.93216197369E+02  0.15104543609E+04  0.15075752442E+04 0.  0.
        3    1    3    3  502    0  0.58740894798E+03 -0.13841264357E+03  0.40590523985E+03  0.72730076723E+03  0.10100000352E+00 0. -1.
       -3    1    3    3    0  502 -0.58740894798E+03  0.13841264357E+03 -0.49912143722E+03  0.78315359372E+03  0.10100000352E+00 0.  1.
</event>
<event>
 5   0  0.4015204E-04  0.1508469E+04  0.7818609E-02  0.8878841E-01
        1   -1    0    0  501    0  0.00000000000E+00  0.00000000000E+00  0.96081907701E+03  0.96081907703E+03  0.50400001928E-02 0.  1.
       -1   -1    0    0    0  501  0.00000000000E+00  0.00000000000E+00 -0.59206710154E+03  0.59206710156E+03  0.50400001928E-02 0. -1.
    10030    2    1    2    0    0  0.00000000000E+00  0.00000000000E+00  0.36875197547E+03  0.15528861786E+04  0.15084685825E+04 0.  0.
        2    1    3    3  502    0  0.59854453953E+03 -0.45314182136E+03  0.25915292677E+03  0.79419979572E+03  0.25500000920E-02 0. -1.
       -2    1    3    3    0  502 -0.59854453953E+03  0.45314182136E+03  0.10959904870E+03  0.75868638287E+03  0.25500000920E-02 0.  1.
</event>
<event>
 5   0  0.3907345E-04  0.1501809E+04  0.7818609E-02  0.8883251E-01
        1   -1    0    0  501    0  0.00000000000E+00  0.00000000000E+00  0.84397809404E+03  0.84397809406E+03  0.50400001928E-02 0. -1.
       -1   -1    0    0    0  501  0.00000000000E+00  0.00000000000E+00 -0.66809510441E+03  0.66809510443E+03  0.50400001928E-02 0.  1.
    10030    2    1    2    0    0  0.00000000000E+00  0.00000000000E+00  0.17588298963E+03  0.15120731985E+04  0.15018090863E+04 0.  0.
        5    1    3    3  502    0  0.16053310554E+03 -0.69416741474E+03 -0.15073618907E+03  0.72827382649E+03  0.46999998093E+01 0.  1.
       -5    1    3    3    0  502 -0.16053310554E+03  0.69416741474E+03  0.32661917870E+03  0.78379937200E+03  0.46999998093E+01 0. -1.
</event>
<event>
 5   0  0.7547580E-04  0.1504429E+04  0.7818609E-02  0.8881513E-01
       -2   -1    0    0    0  501  0.00000000000E+00  0.00000000000E+00  0.50960327059E+03  0.50960327060E+03  0.25500000920E-02 0. -1.
        2   -1    0    0  501    0  0.00000000000E+00  0.00000000000E+00 -0.11103280344E+04  0.11103280344E+04  0.25500000920E-02 0.  1.
    10030    2    1    2    0    0  0.00000000000E+00  0.00000000000E+00 -0.60072476380E+03  0.16199313050E+04  0.15044291911E+04 0.  0.
        4    1    3    3  502    0 -0.45010410715E+03  0.48843074923E+03 -0.68055212250E+03  0.95095273721E+03  0.12699999809E+01 0.  1.
       -4    1    3    3    0  502  0.45010410715E+03 -0.48843074923E+03  0.79827358693E+02  0.66897856779E+03  0.12699999809E+01 0. -1.
</event>
<event>
 5   0  0.4084462E-04  0.1498340E+04  0.7818609E-02  0.8885558E-01
       -1   -1    0    0    0  501  0.00000000000E+00  0.00000000000E+00  0.11086918639E+04  0.11086918639E+04  0.50400001928E-02 0. -1.
        1   -1    0    0  501    0  0.00000000000E+00  0.00000000000E+00 -0.50623231178E+03  0.50623231181E+03  0.50400001928E-02 0.  1.
    10030    2    1    2    0    0  0.00000000000E+00  0.00000000000E+00  0.60245955215E+03  0.16149241757E+04  0.14983399419E+04 0.  0.
        1    1    3    3  502    0  0.21572426557E+03 -0.45853342349E+03 -0.29348814756E+03  0.58559811475E+03  0.50400001928E-02 0.  1.
       -1    1    3    3    0  502 -0.21572426557E+03  0.45853342349E+03  0.89594769971E+03  0.10293260610E+04  0.50400001928E-02 0. -1.
</event>
<event>
 5   0  0.3907345E-04  0.1503328E+04  0.7818609E-02  0.8882243E-01
        1   -1    0    0  501    0  0.00000000000E+00  0.00000000000E+00  0.55104168605E+03  0.55104168607E+03  0.50400001928E-02 0.  1.
       -1   -1    0    0    0  501  0.00000000000E+00  0.00000000000E+00 -0.10253284623E+04  0.10253284624E+04  0.50400001928E-02 0. -1.
    10030    2    1    2    0    0  0.00000000000E+00  0.00000000000E+00 -0.47428677630E+03  0.15763701484E+04  0.15033279412E+04 0.  0.
        5    1    3    3  502    0  0.20217095084E+03 -0.45908977465E+03  0.34982197659E+03  0.61158320763E+03  0.46999998093E+01 0.  1.
       -5    1    3    3    0  502 -0.20217095084E+03  0.45908977465E+03 -0.82410875289E+03  0.96478694080E+03  0.46999998093E+01 0. -1.
</event>
<event>
 5   0  0.4084462E-04  0.1516015E+04  0.7818609E-02  0.8873872E-01
       -1   -1    0    0    0  501  0.00000000000E+00  0.00000000000E+00  0.39494593571E+03  0.39494593574E+03  0.50400001928E-02 0. -1.
        1   -1    0    0  501    0  0.00000000000E+00  0.00000000000E+00 -0.14548204595E+04  0.14548204595E+04  0.50400001928E-02 0.  1.
    10030    2    1    2    0    0  0.00000000000E+00  0.00000000000E+00 -0.10598745238E+04  0.18497663952E+04  0.15160150760E+04 0.  0.
        1    1    3    3  502    0  0.52775503941E+03  0.15459048036E+03 -0.11664674337E+04  0.12896006638E+04  0.50400001928E-02 0.  1.
       -1    1    3    3    0  502 -0.52775503941E+03 -0.15459048036E+03  0.10659290987E+03  0.56016573146E+03  0.50400001928E-02 0. -1.
</event>
<event>
 5   0  0.4015204E-04  0.1493420E+04  0.7818609E-02  0.8888841E-01
       -1   -1    0    0    0  501  0.00000000000E+00  0.00000000000E+00  0.80924886754E+03  0.80924886756E+03  0.50400001928E-02 0.  1.
        1   -1    0    0  501    0  0.00000000000E+00  0.00000000000E+00 -0.68900377692E+03  0.68900377694E+03  0.50400001928E-02 0. -1.
    10030    2    1    2    0    0  0.00000000000E+00  0.00000000000E+00  0.12024509062E+03  0.14982526445E+04  0.14934196011E+04 0.  0.
        2    1    3    3  502    0 -0.68054172150E+03 -0.18272086701E+03  0.30800834379E+03  0.76902086434E+03  0.25500000920E-02 0.  1.
       -2    1    3    3    0  502  0.68054172150E+03  0.18272086701E+03 -0.18776325317E+03  0.72923178016E+03  0.25500000920E-02 0. -1.
</event>
<event>
 5   0  0.7672251E-04  0.1522392E+04  0.7818609E-02  0.8869698E-01
       -2   -1    0    0    0  501  0.00000000000E+00  0.00000000000E+00  0.29068766826E+03  0.29068766827E+03  0.25500000920E-02 0. -1.
        2   -1    0    0  501    0  0.00000000000E+00  0.00000000000E+00 -0.19932713651E+04  0.19932713651E+04  0.25500000920E-02 0.  1.
    10030    2    1    2    0    0  0.00000000000E+00  0.00000000000E+00 -0.17025836969E+04  0.22839590334E+04  0.15223920722E+04 0.  0.
        5    1    3    3  502    0  0.14484991441E+03 -0.10315338639E+03  0.25906602849E+03  0.31426010874E+03  0.46999998093E+01 0. -1.
       -5    1    3    3    0  502 -0.14484991441E+03  0.10315338639E+03 -0.19616497254E+04  0.19696989247E+04  0.46999998093E+01 0.  1.
</event>
<event>
 5   0  0.7547580E-04  0.1500756E+04  0.7818609E-02  0.8883950E-01
        2   -1    0    0  501    0  0.00000000000E+00  0.00000000000E+00  0.62689946285E+03  0.62689946285E+03  0.25500000920E-02 0.  1.
       -2   -1    0    0    0  501  0.00000000000E+00  0.00000000000E+00 -0.89817827190E+03  0.89817827190E+03  0.25500000920E-02 0. -1.
    10030    2    1    2    0    0  0.00000000000E+00  0.00000000000E+00 -0.27127880905E+03  0.15250777348E+04  0.15007564442E+04 0.  0.
        4    1    3    3  502    0 -0.15953917714E+03  0.73284026608E+03 -0.15964981050E+03  0.76680980661E+03  0.12699999809E+01 0. -1.
       -4    1    3    3    0  502  0.15953917714E+03 -0.73284026608E+03 -0.11162899855E+03  0.75826792814E+03  0.12699999809E+01 0.  1.
</event>
<event>
 5   0  0.4086710E-04  0.1466828E+04  0.7818609E-02  0.8906816E-01
        1   -1    0    0  501    0  0.00000000000E+00  0.00000000000E+00  0.13049801921E+04  0.13049801921E+04  0.50400001928E-02 0.  1.
       -1   -1    0    0    0  501  0.00000000000E+00  0.00000000000E+00 -0.41218744521E+03  0.41218744524E+03  0.50400001928E-02 0. -1.
    10030    2    1    2    0    0  0.00000000000E+00  0.00000000000E+00  0.89279274690E+03  0.17171676373E+04  0.14668284855E+04 0.  0.
        3    1    3    3  502    0 -0.69974205771E+03  0.28437120097E+02  0.70139984145E+03  0.99116565968E+03  0.10100000352E+00 0.  1.
       -3    1    3    3    0  502  0.69974205771E+03 -0.28437120097E+02  0.19139290545E+03  0.72600197767E+03  0.10100000352E+00 0. -1.
</event>
<event>
 5   0  0.4015204E-04  0.1495954E+04  0.7818609E-02  0.8887148E-01
       -1   -1    0    0    0  501  0.00000000000E+00  0.00000000000E+00  0.32406784280E+03  0.32406784284E+03  0.50400001928E-02 0.  1.
        1   -1    0    0  501    0  0.00000000000E+00  0.00000000000E+00 -0.17263976596E+04  0.17263976596E+04  0.50400001928E-02 0. -1.
    10030    2    1    2    0    0  0.00000000000E+00  0.00000000000E+00 -0.14023298168E+04  0.20504655025E+04  0.14959544985E+04 0.  0.
        2    1    3    3  502    0 -0.21692600083E+03 -0.54590014015E+03 -0.13358417681E+04  0.14592933503E+04  0.25500000920E-02 0. -1.
       -2    1    3    3    0  502  0.21692600083E+03  0.54590014015E+03 -0.66488048706E+02  0.59117215215E+03  0.25500000920E-02 0.  1.
</event>
<event>
 5   0  0.7547580E-04  0.1494921E+04  0.7818609E-02  0.8887838E-01
        2   -1    0    0  501    0  0.00000000000E+00  0.00000000000E+00  0.11350624672E+04  0.11350624672E+04  0.25500000920E-02 0. -1.
       -2   -1    0    0    0  501  0.00000000000E+00  0.00000000000E+00 -0.49221694165E+03  0.49221694165E+03  0.25500000920E-02 0.  1.
    10030    2    1    2    0    0  0.00000000000E+00  0.00000000000E+00  0.64284552552E+03  0.16272794088E+04  0.14949207018E+04 0.  0.
        4    1    3    3  502    0  0.29113568655E+03  0.26777342800E+03  0.10117940108E+04  0.10863661123E+04  0.12699999809E+01 0. -1.
       -4    1    3    3    0  502 -0.29113568655E+03 -0.26777342800E+03 -0.36894848526E+03  0.54091329656E+03  0.12699999809E+01 0.  1.
</event>
<event>
 5   0  0.4084462E-04  0.1512407E+04  0.7818609E-02  0.8876244E-01
       -1   -1    0    0    0  501  0.00000000000E+00  0.00000000000E+00  0.65225638418E+03  0.65225638420E+03  0.50400001928E-02 0.  1.
        1   -1    0    0  501    0  0.00000000000E+00  0.00000000000E+00 -0.87671609495E+03  0.87671609496E+03  0.50400001928E-02 0. -1.
    10030    2    1    2    0    0  0.00000000000E+00  0.00000000000E+00 -0.22445971077E+03  0.15289724792E+04  0.15124069162E+04 0.  0.
        1    1    3    3  502    0 -0.14813036382E+03  0.36023215789E+03  0.54304703895E+03  0.66828878398E+03  0.50400001928E-02 0.  1.
       -1    1    3    3    0  502  0.14813036382E+03 -0.36023215789E+03 -0.76750674972E+03  0.86068369518E+03  0.50400001928E-02 0. -1.
</event>
<event>
 5   0  0.7359897E-04  0.1490103E+04  0.7818609E-02  0.8891061E-01
       -2   -1    0    0    0  501  0.00000000000E+00  0.00000000000E+00  0.46189017695E+03  0.46189017695E+03  0.25500000920E-02 0. -1.
        2   -1    0    0  501    0  0.00000000000E+00  0.00000000000E+00 -0.12018053698E+04  0.12018053698E+04  0.25500000920E-02 0.  1.
    10030    2    1    2    0    0  0.00000000000E+00  0.00000000000E+00 -0.73991519286E+03  0.16636955468E+04  0.14901034795E+04 0.  0.
        1    1    3    3  502    0 -0.60290886283E+03 -0.92114638673E+02 -0.84773192920E+03  0.10443340593E+04  0.50400001928E-02 0.  1.
       -1    1    3    3    0  502  0.60290886283E+03  0.92114638673E+02  0.10781673633E+03  0.61936148750E+03  0.50400001928E-02 0. -1.
</event>
<event>
 5   0  0.4084462E-04  0.1478177E+04  0.7818609E-02  0.8899096E-01
       -1   -1    0    0    0  501  0.00000000000E+00  0.00000000000E+00  0.79514299887E+03  0.79514299888E+03  0.50400001928E-02 0.  1.
        1   -1    0    0  501    0  0.00000000000E+00  0.00000000000E+00 -0.68698521053E+03  0.68698521055E+03  0.50400001928E-02 0. -1.
    10030    2    1    2    0    0  0.00000000000E+00  0.00000000000E+00  0.10815778834E+03  0.14821282094E+04  0.14781765531E+04 0.  0.
        1    1    3    3  502    0  0.50608295153E+03  0.29358628905E+03 -0.39872400577E+03  0.70802097127E+03  0.50400001928E-02 0. -1.
       -1    1    3    3    0  502 -0.50608295153E+03 -0.29358628905E+03  0.50688179411E+03  0.77410723816E+03  0.50400001928E-02 0.  1.
</event>
<event>
 5   0  0.4084462E-04  0.1494631E+04  0.7818609E-02  0.8888031E-01
       -1   -1    0    0    0  501  0.00000000000E+00  0.00000000000E+00  0.51900317229E+03  0.51900317231E+03  0.50400001928E-02 0. -1.
        1   -1    0    0  501    0  0.00000000000E+00  0.00000000000E+00 -0.10760633388E+04  0.10760633389E+04  0.50400001928E-02 0.  1.
    10030    2    1    2    0    0  0.00000000000E+00  0.00000000000E+00 -0.55706016655E+03  0.15950665112E+04  0.14946307724E+04 0.  0.
        1    1    3    3  502    0  0.14407017258E+02 -0.29537446010E+03 -0.10109626028E+04  0.10533275930E+04  0.50400001928E-02 0.  1.
       -1    1    3    3    0  502 -0.14407017258E+02  0.29537446010E+03  0.45390243625E+03  0.54173891819E+03  0.50400001928E-02 0. -1.
</event>
<event>
 5   0  0.7454828E-04  0.1507521E+04  0.7818609E-02  0.8879467E-01
       -2   -1    0    0    0  501  0.00000000000E+00  0.00000000000E+00  0.51550544221E+03  0.51550544222E+03  0.25500000920E-02 0.  1.
        2   -1    0    0  501    0  0.00000000000E+00  0.00000000000E+00 -0.11021316631E+04  0.11021316631E+04  0.25500000920E-02 0. -1.
    10030    2    1    2    0    0  0.00000000000E+00  0.00000000000E+00 -0.58662622088E+03  0.16176371053E+04  0.15075209721E+04 0.  0.
        3    1    3    3  502    0  0.40754834961E+03  0.61734137200E+03 -0.13800374040E+03  0.75249655774E+03  0.10100000352E+00 0. -1.
       -3    1    3    3    0  502 -0.40754834961E+03 -0.61734137200E+03 -0.44862248048E+03  0.86514054757E+03  0.10100000352E+00 0.  1.
</event>
<event>
 5   0  0.3907345E-04  0.1491481E+04  0.7818609E-02  0.8890138E-01
        1   -1    0    0  501    0  0.00000000000E+00  0.00000000000E+00  0.14076393733E+04  0.14076393734E+04  0.50400001928E-02 0. -1.
       -1   -1    0    0    0  501  0.00000000000E+00  0.00000000000E+00 -0.39507910366E+03  0.39507910370E+03  0.50400001928E-02 0.  1.
    10030    2    1    2    0    0  0.00000000000E+00  0.00000000000E+00  0.10125602697E+04  0.18027184771E+04  0.14914810115E+04 0.  0.
        5    1    3    3  502    0  0.35054590153E+03 -0.65575678693E+03  0.57473243533E+03  0.93980788191E+03  0.46999998093E+01 0.  1.
       -5    1    3    3    0  502 -0.35054590153E+03  0.65575678693E+03  0.43782783436E+03  0.86291059515E+03  0.46999998093E+01 0. -1.
</event>
<event>
 5   0  0.7454828E-04  0.1504417E+04  0.7818609E-02  0.8881521E-01
       -2   -1    0    0    0  501  0.00000000000E+00  0.00000000000E+00  0.10526908019E+04  0.10526908019E+04  0.25500000920E-02 0. -1.
        2   -1    0    0  501    0  0.00000000000E+00  0.00000000000E+00 -0.53749682586E+03  0.53749682587E+03  0.25500000920E-02 0.  1.
    10030    2    1    2    0    0  0.00000000000E+00  0.00000000000E+00  0.51519397600E+03  0.15901876277E+04  0.15044174482E+04 0.  0.
        3    1    3    3  502    0  0.41235395434E+02  0.54974117218E+03  0.79853763364E+03  0.97034946116E+03  0.10100000352E+00 0. -1.
       -3    1    3    3    0  502 -0.41235395434E+02 -0.54974117218E+03 -0.28334365764E+03  0.61983816658E+03  0.10100000352E+00 0.  1.
</event>
<event>
 5   0  0.7547580E-04  0.1504277E+04  0.7818609E-02  0.8881613E-01
        2   -1    0    0  501    0  0.00000000000E+00  0.00000000000E+00  0.19805339263E+04  0.19805339263E+04  0.25500000920E-02 0.  1.
       -2   -1    0    0    0  501  0.00000000000E+00  0.00000000000E+00 -0.28563641603E+03  0.28563641604E+03  0.25500000920E-02 0. -1.
    10030    2    1    2    0    0  0.00000000000E+00  0.00000000000E+00  0.16948975102E+04  0.22661703423E+04  0.15042773847E+04 0.  0.
        4    1    3    3  502    0 -0.23972701046E+03  0.38085661211E+03  0.17553355232E+04  0.18121051875E+04  0.12699999809E+01 0.  1.
       -4    1    3    3    0  502  0.23972701046E+03 -0.38085661211E+03 -0.60438012967E+02  0.45406515484E+03  0.12699999809E+01 0. -1.
</event>
<event>
 5   0  0.7454828E-04  0.1504840E+04  0.7818609E-02  0.8881241E-01
       -2   -1    0    0    0  501  0.00000000000E+00  0.00000000000E+00  0.58724771087E+03  0.58724771087E+03  0.25500000920E-02 0. -1.
        2   -1    0    0  501    0  0.00000000000E+00  0.00000000000E+00 -0.96404950583E+03  0.96404950583E+03  0.25500000920E-02 0.  1.
    10030    2    1    2    0    0  0.00000000000E+00  0.00000000000E+00 -0.37680179496E+03  0.15512972167E+04  0.15048400121E+04 0.  0.
        3    1    3    3  502    0 -0.37917825064E+03  0.64176579500E+03 -0.82786207397E+02  0.74999536514E+03  0.10100000352E+00 0.  1.
       -3    1    3    3    0  502  0.37917825064E+03 -0.64176579500E+03 -0.29401558756E+03  0.80130185157E+03  0.10100000352E+00 0. -1.
</event>
<event>
 5   0  0.7359897E-04  0.1429296E+04  0.7818609E-02  0.8932882E-01
        2   -1    0    0  501    0  0.00000000000E+00  0.00000000000E+00  0.73381490451E+03  0.73381490452E+03  0.25500000920E-02 0.  1.
       -2   -1    0    0    0  501  0.00000000000E+00  0.00000000000E+00 -0.69598149569E+03  0.69598149570E+03  0.25500000920E-02 0. -1.
    10030    2    1    2    0    0  0.00000000000E+00  0.00000000000E+00  0.37833408817E+02  0.14297964002E+04  0.14292957634E+04 0.  0.
        1    1    3    3  502    0  0.14083340874E+03 -0.33108594878E+03  0.63660334042E+03  0.73124261881E+03  0.50400001928E-02 0.  1.
       -1    1    3    3    0  502 -0.14083340874E+03  0.33108594878E+03 -0.59876993160E+03  0.69855378141E+03  0.50400001928E-02 0. -1.
</event>
<event>
 5   0  0.4015204E-04  0.1491361E+04  0.7818609E-02  0.8890218E-01
       -1   -1    0    0    0  501  0.00000000000E+00  0.00000000000E+00  0.91794970388E+03  0.91794970389E+03  0.50400001928E-02 0. -1.
        1   -1    0    0  501    0  0.00000000000E+00  0.00000000000E+00 -0.60574041387E+03  0.60574041389E+03  0.50400001928E-02 0.  1.
    10030    2    1    2    0    0  0.00000000000E+00  0.00000000000E+00  0.31220929001E+03  0.15236901178E+04  0.14913607660E+04 0.  0.
        2    1    3    3  502    0 -0.47305661989E+03  0.42433113213E+02  0.74341927999E+03  0.88218782614E+03  0.25500000920E-02 0. -1.
       -2    1    3    3    0  502  0.47305661989E+03 -0.42433113213E+02 -0.43120998998E+03  0.64150229164E+03  0.25500000920E-02 0.  1.
</event>
<event>
 5   0  0.4058874E-04  0.1495228E+04  0.7818609E-02  0.8887633E-01
       -1   -1    0    0    0  501  0.00000000000E+00  0.00000000000E+00  0.50186566587E+03  0.50186566589E+03  0.50400001928E-02 0.  1.
        1   -1    0    0  501    0  0.00000000000E+00  0.00000000000E+00 -0.11136970968E+04  0.11136970968E+04  0.50400001928E-02 0. -1.
    10030    2    1    2    0    0  0.00000000000E+00  0.00000000000E+00 -0.61183143095E+03  0.16155627627E+04  0.14952275213E+04 0.  0.
        4    1    3    3  502    0 -0.13433923312E+03 -0.55829601752E+03 -0.82317463558E+03  0.10036730375E+04  0.12699999809E+01 0. -1.
       -4    1    3    3    0  502  0.13433923312E+03  0.55829601752E+03  0.21134320463E+03  0.61188972518E+03  0.12699999809E+01 0.  1.
</event>
<event>
 5   0  0.7672251E-04  0.1482749E+04  0.7818609E-02  0.8896006E-01
       -2   -1    0    0    0  501  0.00000000000E+00  0.00000000000E+00  0.18406399270E+03  0.18406399272E+03  0.25500000920E-02 0.  1.
        2   -1    0    0  501    0  0.00000000000E+00  0.00000000000E+00 -0.29861145476E+04  0.29861145476E+04  0.25500000920E-02 0. -1.
    10030    2    1    2    0    0  0.00000000000E+00  0.00000000000E+00 -0.28020505549E+04  0.31701785403E+04  0.14827490230E+04 0.  0.
        5    1    3    3  502    0  0.17290471532E+03 -0.10512501162E+03  0.12384450326E+03  0.23729066487E+03  0.46999998093E+01 0.  1.
       -5    1    3    3    0  502 -0.17290471532E+03  0.10512501162E+03 -0.29258950582E+04  0.29328878755E+04  0.46999998093E+01 0. -1.
</event>
<event>
 5   0  0.4084462E-04  0.1507980E+04  0.7818609E-02  0.8879164E-01
        1   -1    0    0  501    0  0.00000000000E+00  0.00000000000E+00  0.13513323706E+04  0.13513323706E+04  0.50400001928E-02 0. -1.
       -1   -1    0    0    0  501  0.00000000000E+00  0.00000000000E+00 -0.42069662194E+03  0.42069662197E+03  0.50400001928E-02 0.  1.
    10030    2    1    2    0    0  0.00000000000E+00  0.00000000000E+00  0.93063574864E+03  0.17720289926E+04  0.15079800575E+04 0.  0.
        1    1    3    3  502    0 -0.63342493599E+03 -0.11128121886E+02 -0.15110211076E+02  0.63370285082E+03  0.50400001928E-02 0.  1.
       -1    1    3    3    0  502  0.63342493599E+03  0.11128121886E+02  0.94574595972E+03  0.11383261417E+04  0.50400001928E-02 0. -1.
</event>
<event>
 5   0  0.4058874E-04  0.1500592E+04  0.7818609E-02  0.8884059E-01
       -1   -1    0    0    0  501  0.00000000000E+00  0.00000000000E+00  0.68896195072E+03  0.68896195073E+03  0.50400001928E-02 0.  1.
        1   -1    0    0  501    0  0.00000000000E+00  0.00000000000E+00 -0.81709059777E+03  0.81709059779E+03  0.50400001928E-02 0. -1.
    10030    2    1    2    0    0  0.00000000000E+00  0.00000000000E+00 -0.12812864706E+03  0.15060525485E+04  0.15005923260E+04 0.  0.
        4    1    3    3  502    0 -0.48131770447E+03  0.36571847113E+03 -0.51012046570E+03  0.79097486381E+03  0.12699999809E+01 0. -1.
       -4    1    3    3    0  502  0.48131770447E+03 -0.36571847113E+03  0.38199181864E+03  0.71507768471E+03  0.12699999809E+01 0.  1.
</event>
<event>
 5   0  0.3907345E-04  0.1532038E+04  0.7818609E-02  0.8863423E-01
       -1   -1    0    0    0  501  0.00000000000E+00  0.00000000000E+00  0.27523031602E+03  0.27523031607E+03  0.50400001928E-02 0.  1.
        1   -1    0    0  501    0  0.00000000000E+00  0.00000000000E+00 -0.21319777945E+04  0.21319777945E+04  0.50400001928E-02 0. -1.
    10030    2    1    2    0    0  0.00000000000E+00  0.00000000000E+00 -0.18567474785E+04  0.24072081106E+04  0.15320377570E+04 0.  0.
        5    1    3    3  502    0  0.92555228128E+02  0.71343647900E+03 -0.13417182066E+04  0.15224282958E+04  0.46999998093E+01 0.  1.
       -5    1    3    3    0  502 -0.92555228128E+02 -0.71343647900E+03 -0.51502927190E+03  0.88477981483E+03  0.46999998093E+01 0. -1.
</event>
<event>
 5   0  0.7547580E-04  0.1502983E+04  0.7818609E-02  0.8882471E-01
       -2   -1    0    0    0  501  0.00000000000E+00  0.00000000000E+00  0.43567003899E+03  0.43567003900E+03  0.25500000920E-02 0.  1.
        2   -1    0    0  501    0  0.00000000000E+00  0.00000000000E+00 -0.12962557410E+04  0.12962557410E+04  0.25500000920E-02 0. -1.
    10030    2    1    2    0    0  0.00000000000E+00  0.00000000000E+00 -0.86058570202E+03  0.17319257800E+04  0.15029834187E+04 0.  0.
        4    1    3    3  502    0 -0.40390689362E+03 -0.38017475675E+03  0.15395373619E+03  0.57565353310E+03  0.12699999809E+01 0.  1.
       -4    1    3    3    0  502  0.40390689362E+03  0.38017475675E+03 -0.10145394382E+04  0.11562722469E+04  0.12699999809E+01 0. -1.
</event>
<event>
 5   0  0.4084462E-04  0.1504388E+04  0.7818609E-02  0.8881540E-01
       -1   -1    0    0    0  501  0.00000000000E+00  0.00000000000E+00  0.40055718560E+03  0.40055718563E+03  0.50400001928E-02 0.  1.
        1   -1    0    0  501    0  0.00000000000E+00  0.00000000000E+00 -0.14125223656E+04  0.14125223656E+04  0.50400001928E-02 0. -1.
    10030    2    1    2    0    0  0.00000000000E+00  0.00000000000E+00 -0.10119651800E+04  0.18130795512E+04  0.15043882257E+04 0.  0.
        1    1    3    3  502    0  0.27149000068E+03 -0.47273014180E+03 -0.11306119133E+04  0.12551748508E+04  0.50400001928E-02 0. -1.
       -1    1    3    3    0  502 -0.27149000068E+03  0.47273014180E+03  0.11864673333E+03  0.55790470045E+03  0.50400001928E-02 0.  1.
</event>
<event>
 5   0  0.7634227E-04  0.1492353E+04  0.7818609E-02  0.8889554E-01
       -2   -1    0    0    0  501  0.00000000000E+00  0.00000000000E+00  0.72667626036E+03  0.72667626036E+03  0.25500000920E-02 0. -1.
        2   -1    0    0  501    0  0.00000000000E+00  0.00000000000E+00 -0.76620017049E+03  0.76620017049E+03  0.25500000920E-02 0.  1.
    10030    2    1    2    0    0  0.00000000000E+00  0.00000000000E+00 -0.39523910134E+02  0.14928764309E+04  0.14923531413E+04 0.  0.
        2    1    3    3  502    0  0.15554341285E+03 -0.38859903160E+03 -0.63769735491E+03  0.76279805788E+03  0.25500000920E-02 0.  1.
       -2    1    3    3    0  502 -0.15554341285E+03  0.38859903160E+03  0.59817344478E+03  0.73007837297E+03  0.25500000920E-02 0. -1.
</event>
<event>
 5   0  0.7672251E-04  0.1507659E+04  0.7818609E-02  0.8879376E-01
        2   -1    0    0  501    0  0.00000000000E+00  0.00000000000E+00  0.63007287603E+03  0.63007287603E+03  0.25500000920E-02 0. -1.
       -2   -1    0    0    0  501  0.00000000000E+00  0.00000000000E+00 -0.90189383384E+03  0.90189383385E+03  0.25500000920E-02 0.  1.
    10030    2    1    2    0    0  0.00000000000E+00  0.00000000000E+00 -0.27182095782E+03  0.15319667099E+04  0.15076589028E+04 0.  0.
        5    1    3    3  502    0  0.46571518227E+03  0.47771424659E+03 -0.49247438253E+03  0.82924944368E+03  0.46999998093E+01 0.  1.
       -5    1    3    3    0  502 -0.46571518227E+03 -0.47771424659E+03  0.22065342472E+03  0.70271726621E+03  0.46999998093E+01 0. -1.
</event>
<event>
 5   0  0.4086710E-04  0.1434983E+04  0.7818609E-02  0.8928878E-01
        1   -1    0    0  501    0  0.00000000000E+00  0.00000000000E+00  0.11654174608E+04  0.11654174608E+04  0.50400001928E-02 0.  1.
       -1   -1    0    0    0  501  0.00000000000E+00  0.00000000000E+00 -0.44172489225E+03  0.44172489228E+03  0.50400001928E-02 0. -1.
    10030    2    1    2    0    0  0.00000000000E+00  0.00000000000E+00  0.72369256851E+03  0.16071423531E+04  0.14349827906E+04 0.  0.
        3    1    3    3  502    0 -0.41867979700E+03 -0.13220986891E+03 -0.27370441757E+03  0.51738413220E+03  0.10100000352E+00 0. -1.
       -3    1    3    3    0  502  0.41867979700E+03  0.13220986891E+03  0.99739698608E+03  0.10897582208E+04  0.10100000352E+00 0.  1.
</event>
<event>
 5   0  0.3907345E-04  0.1485298E+04  0.7818609E-02  0.8894289E-01
        1   -1    0    0  501    0  0.00000000000E+00  0.00000000000E+00  0.12393849969E+04  0.12393849969E+04  0.50400001928E-02 0. -1.
       -1   -1    0    0    0  501  0.00000000000E+00  0.00000000000E+00 -0.44500082875E+03  0.44500082877E+03  0.50400001928E-02 0.  1.
    10030    2    1    2    0    0  0.00000000000E+00  0.00000000000E+00  0.79438416819E+03  0.16843858257E+04  0.14852977490E+04 0.  0.
        5    1    3    3  502    0  0.51973215466E+03 -0.13272841175E+03  0.97961468147E+03  0.11168730268E+04  0.46999998093E+01 0. -1.
       -5    1    3    3    0  502 -0.51973215466E+03  0.13272841175E+03 -0.18523051328E+03  0.56751279891E+03  0.46999998093E+01 0.  1.
</event>
<event>
 5   0  0.7634227E-04  0.1509039E+04  0.7818609E-02  0.8878464E-01
        2   -1    0    0  501    0  0.00000000000E+00  0.00000000000E+00  0.10612026669E+04  0.10612026669E+04  0.25500000920E-02 0.  1.
       -2   -1    0    0    0  501  0.00000000000E+00  0.00000000000E+00 -0.53646626476E+03  0.53646626476E+03  0.25500000920E-02 0. -1.
    10030    2    1    2    0    0  0.00000000000E+00  0.00000000000E+00  0.52473640211E+03  0.15976689316E+04  0.15090386753E+04 0.  0.
        2    1    3    3  502    0  0.27011162962E+03  0.59104357837E+03 -0.14356528254E+03  0.66551017600E+03  0.25500000920E-02 0. -1.
       -2    1    3    3    0  502 -0.27011162962E+03 -0.59104357837E+03  0.66830168465E+03  0.93215875564E+03  0.25500000920E-02 0.  1.
</event>
<event>
 5   0  0.4058874E-04  0.1487433E+04  0.7818609E-02  0.8892853E-01
       -1   -1    0    0    0  501  0.00000000000E+00  0.00000000000E+00  0.28728317216E+03  0.28728317221E+03  0.50400001928E-02 0.  1.
        1   -1    0    0  501    0  0.00000000000E+00  0.00000000000E+00 -0.19253278402E+04  0.19253278403E+04  0.50400001928E-02 0. -1.
    10030    2    1    2    0    0  0.00000000000E+00  0.00000000000E+00 -0.16380446681E+04  0.22126110125E+04  0.14874330768E+04 0.  0.
        4    1    3    3  502    0 -0.72918054084E+03  0.82991536133E+02 -0.99827400422E+03  0.12390094659E+04  0.12699999809E+01 0.  1.
       -4    1    3    3    0  502  0.72918054084E+03 -0.82991536133E+02 -0.63977066386E+03  0.97360154655E+03  0.12699999809E+01 0. -1.
</event>
<event>
 5   0  0.7454828E-04  0.1591059E+04  0.7818609E-02  0.8826060E-01
        2   -1    0    0  501    0  0.00000000000E+00  0.00000000000E+00  0.93953590313E+03  0.93953590313E+03  0.25500000920E-02 0. -1.
       -2   -1    0    0    0  501  0.00000000000E+00  0.00000000000E+00 -0.67359511437E+03  0.67359511438E+03  0.25500000920E-02 0.  1.
    10030    2    1    2    0    0  0.00000000000E+00  0.00000000000E+00  0.26594078875E+03  0.16131310175E+04  0.15910585082E+04 0.  0.
        3    1    3    3  502    0  0.42618514797E+03 -0.10007063721E+03 -0.54048762882E+03  0.69553921521E+03  0.10100000352E+00 0.  1.
       -3    1    3    3    0  502 -0.42618514797E+03  0.10007063721E+03  0.80642841758E+03  0.91759180230E+03  0.10100000352E+00 0. -1.
</event>
<event>
 5   0  0.7672251E-04  0.1475029E+04  0.7818609E-02  0.8901230E-01
        2   -1    0    0  501    0  0.00000000000E+00  0.00000000000E+00  0.19931027702E+04  0.19931027702E+04  0.25500000920E-02 0.  1.
       -2   -1    0    0    0  501  0.00000000000E+00  0.00000000000E+00 -0.27290508133E+03  0.27290508134E+03  0.25500000920E-02 0. -1.
    10030    2    1    2    0    0  0.00000000000E+00  0.00000000000E+00  0.17201976889E+04  0.22660078516E+04  0.14750293199E+04 0.  0.
        5    1    3    3  502    0 -0.56697319200E+03 -0.43861597829E+03  0.11264646115E+04  0.13352105407E+04  0.46999998093E+01 0. -1.
       -5    1    3    3    0  502  0.56697319200E+03  0.43861597829E+03  0.59373307738E+03  0.93079731092E+03  0.46999998093E+01 0.  1.
</event>
<event>
 5   0  0.7359897E-04  0.1597895E+04  0.7818609E-02  0.8821842E-01
       -2   -1    0    0    0  501  0.00000000000E+00  0.00000000000E+00  0.59621747270E+03  0.59621747271E+03  0.25500000920E-02 0. -1.
        2   -1    0    0  501    0  0.00000000000E+00  0.00000000000E+00 -0.10706118159E+04  0.10706118159E+04  0.25500000920E-02 0.  1.
    10030    2    1    2    0    0  0.00000000000E+00  0.00000000000E+00 -0.47439434316E+03  0.16668292886E+04  0.15978954548E+04 0.  0.
        1    1    3    3  502    0  0.62437033974E+03 -0.46952920554E+03 -0.62579473722E+02  0.78371690461E+03  0.50400001928E-02 0. -1.
       -1    1    3    3    0  502 -0.62437033974E+03  0.46952920554E+03 -0.41181486943E+03  0.88311238397E+03  0.50400001928E-02 0.  1.
</event>
<event>
 5   0  0.4058874E-04  0.1514819E+04  0.7818609E-02  0.8874658E-01
       -1   -1    0    0    0  501  0.00000000000E+00  0.00000000000E+00  0.25997977622E+03  0.25997977627E+03  0.50400001928E-02 0. -1.
        1   -1    0    0  501    0  0.00000000000E+00  0.00000000000E+00 -0.22065912739E+04  0.22065912739E+04  0.50400001928E-02 0.  1.
    10030    2    1    2    0    0  0.00000000000E+00  0.00000000000E+00 -0.19466114977E+04  0.24665710502E+04  0.15148189406E+04 0.  0.
        4    1    3    3  502    0  0.12722562199E+03 -0.48787529388E+03 -0.18936289118E+04  0.19596021867E+04  0.12699999809E+01 0.  1.
       -4    1    3    3    0  502 -0.12722562199E+03  0.48787529388E+03 -0.52982585827E+02  0.50696886351E+03  0.12699999809E+01 0. -1.
</event>
<event>
 5   0  0.7359897E-04  0.1497357E+04  0.7818609E-02  0.8886213E-01
       -2   -1    0    0    0  501  0.00000000000E+00  0.00000000000E+00  0.42384061704E+03  0.42384061705E+03  0.25500000920E-02 0. -1.
        2   -1    0    0  501    0  0.00000000000E+00  0.00000000000E+00 -0.13224766139E+04  0.13224766139E+04  0.25500000920E-02 0.  1.
    10030    2    1    2    0    0  0.00000000000E+00  0.00000000000E+00 -0.89863599686E+03  0.17463172309E+04  0.14973567431E+04 0.  0.
        1    1    3    3  502    0 -0.19567006142E+03 -0.68251727705E+03 -0.72629760527E+03  0.10156893314E+04  0.50400001928E-02 0.  1.
       -1    1    3    3    0  502  0.19567006142E+03  0.68251727705E+03 -0.17233839159E+03  0.73062789958E+03  0.50400001928E-02 0. -1.
</event>
<event>
 5   0  0.4058874E-04  0.1503227E+04  0.7818609E-02  0.8882310E-01
        1   -1    0    0  501    0  0.00000000000E+00  0.00000000000E+00  0.70207379186E+03  0.70207379188E+03  0.50400001928E-02 0. -1.
       -1   -1    0    0    0  501  0.00000000000E+00  0.00000000000E+00 -0.80464838321E+03  0.80464838323E+03  0.50400001928E-02 0.  1.
    10030    2    1    2    0    0  0.00000000000E+00  0.00000000000E+00 -0.10257459135E+03  0.15067221751E+04  0.15032265851E+04 0.  0.
        4    1    3    3  502    0 -0.46553036962E+03 -0.36255019548E+03  0.41537000255E+03  0.72159200467E+03  0.12699999809E+01 0. -1.
       -4    1    3    3    0  502  0.46553036962E+03  0.36255019548E+03 -0.51794459390E+03  0.78513017044E+03  0.12699999809E+01 0.  1.
</event>
<event>
 5   0  0.7547580E-04  0.1510999E+04  0.7818609E-02  0.8877171E-01
       -2   -1    0    0    0  501  0.00000000000E+00  0.00000000000E+00  0.24921091254E+03  0.24921091255E+03  0.25500000920E-02 0. -1.
        2   -1    0    0  501    0  0.00000000000E+00  0.00000000000E+00 -0.22903478300E+04  0.22903478300E+04  0.25500000920E-02 0.  1.
    10030    2    1    2    0    0  0.00000000000E+00  0.00000000000E+00 -0.20411369174E+04  0.25395587425E+04  0.15109992360E+04 0.  0.
        4    1    3    3  502    0 -0.42847422815E+03 -0.43620044931E+01  0.25220934861E+02  0.42923990929E+03  0.12699999809E+01 0. -1.
       -4    1    3    3    0  502  0.42847422815E+03  0.43620044931E+01 -0.20663578523E+04  0.21103188332E+04  0.12699999809E+01 0.  1.
</event>
<event>
 5   0  0.4084462E-04  0.1635263E+04  0.7818609E-02  0.8799173E-01
       -1   -1    0    0    0  501  0.00000000000E+00  0.00000000000E+00  0.14832967714E+04  0.14832967714E+04  0.50400001928E-02 0. -1.
        1   -1    0    0  501    0  0.00000000000E+00  0.00000000000E+00 -0.45069970935E+03  0.45069970938E+03  0.50400001928E-02 0.  1.
    10030    2    1    2    0    0  0.00000000000E+00  0.00000000000E+00  0.10325970620E+04  0.19339964808E+04  0.16352631883E+04 0.  0.
        1    1    3    3  502    0  0.39101001984E+02  0.25507853185E+03 -0.40127336606E+03  0.47708936281E+03  0.50400001928E-02 0.  1.
       -1    1    3    3    0  502 -0.39101001984E+02 -0.25507853185E+03  0.14338704281E+04  0.14569071179E+04  0.50400001928E-02 0. -1.
</event>
<event>
 5   0  0.7672251E-04  0.1482945E+04  0.7818609E-02  0.8895874E-01
       -2   -1    0    0    0  501  0.00000000000E+00  0.00000000000E+00  0.28577459138E+03  0.28577459140E+03  0.25500000920E-02 0. -1.
        2   -1    0    0  501    0  0.00000000000E+00  0.00000000000E+00 -0.19238299335E+04  0.19238299335E+04  0.25500000920E-02 0.  1.
    10030    2    1    2    0    0  0.00000000000E+00  0.00000000000E+00 -0.16380553421E+04  0.22096045249E+04  0.14829453303E+04 0.  0.
        5    1    3    3  502    0 -0.41268407930E+03  0.58413540368E+03 -0.52766558235E+03  0.88880558951E+03  0.46999998093E+01 0. -1.
       -5    1    3    3    0  502  0.41268407930E+03 -0.58413540368E+03 -0.11103897597E+04  0.13207989354E+04  0.46999998093E+01 0.  1.
</event>
<event>
 5   0  0.7672251E-04  0.1511673E+04  0.7818609E-02  0.8876727E-01
       -2   -1    0    0    0  501  0.00000000000E+00  0.00000000000E+00  0.51535749978E+03  0.51535749978E+03  0.25500000920E-02 0. -1.
        2   -1    0    0  501    0  0.00000000000E+00  0.00000000000E+00 -0.11085297327E+04  0.11085297327E+04  0.25500000920E-02 0.  1.
    10030    2    1    2    0    0  0.00000000000E+00  0.00000000000E+00 -0.59317223288E+03  0.16238872324E+04  0.15116733926E+04 0.  0.
        5    1    3    3  502    0  0.33035708170E+03 -0.31418281633E+03  0.35100746571E+03  0.57539114912E+03  0.46999998093E+01 0. -1.
       -5    1    3    3    0  502 -0.33035708170E+03  0.31418281633E+03 -0.94417969859E+03  0.10484960833E+04  0.46999998093E+01 0.  1.
</event>
<event>
 5   0  0.7634227E-04  0.1466465E+04  0.7818609E-02  0.8907065E-01
       -2   -1    0    0    0  501  0.00000000000E+00  0.00000000000E+00  0.47562345533E+03  0.47562345534E+03  0.25500000920E-02 0.  1.
        2   -1    0    0  501    0  0.00000000000E+00  0.00000000000E+00 -0.11303691754E+04  0.11303691755E+04  0.25500000920E-02 0. -1.
    10030    2    1    2    0    0  0.00000000000E+00  0.00000000000E+00 -0.65474572012E+03  0.16059926308E+04  0.14664652646E+04 0.  0.
        2    1    3    3  502    0 -0.64148896138E+03 -0.28849485557E+03 -0.55418358172E+03  0.89546457859E+03  0.25500000920E-02 0. -1.
       -2    1    3    3    0  502  0.64148896138E+03  0.28849485557E+03 -0.10056213840E+03  0.71052805219E+03  0.25500000920E-02 0.  1.
</event>
<event>
 5   0  0.7634227E-04  0.1488933E+04  0.7818609E-02  0.8891846E-01
       -2   -1    0    0    0  501  0.00000000000E+00  0.00000000000E+00  0.55199070028E+03  0.55199070029E+03  0.25500000920E-02 0. -1.
        2   -1    0    0  501    0  0.00000000000E+00  0.00000000000E+00 -0.10040579791E+04  0.10040579791E+04  0.25500000920E-02 0.  1.
    10030    2    1    2    0    0  0.00000000000E+00  0.00000000000E+00 -0.45206727885E+03  0.15560486794E+04  0.14889333995E+04 0.  0.
        2    1    3    3  502    0  0.72348382790E+03  0.13896438052E+03 -0.11400694932E+03  0.74547805654E+03  0.25500000920E-02 0. -1.
       -2    1    3    3    0  502 -0.72348382790E+03 -0.13896438052E+03 -0.33806032953E+03  0.81057062289E+03  0.25500000920E-02 0.  1.
</event>
<event>
 5   0  0.7359897E-04  0.1493565E+04  0.7818609E-02  0.8888743E-01
        2   -1    0    0  501    0  0.00000000000E+00  0.00000000000E+00  0.86985708975E+03  0.86985708975E+03  0.25500000920E-02 0.  1.
       -2   -1    0    0    0  501  0.00000000000E+00  0.00000000000E+00 -0.64112189693E+03  0.64112189694E+03  0.25500000920E-02 0. -1.
    10030    2    1    2    0    0  0.00000000000E+00  0.00000000000E+00  0.22873519282E+03  0.15109789867E+04  0.14935654354E+04 0.  0.
        1    1    3    3  502    0  0.66474407423E+03 -0.19734686127E+03  0.39482524846E+03  0.79794576553E+03  0.50400001928E-02 0.  1.
       -1    1    3    3    0  502 -0.66474407423E+03  0.19734686127E+03 -0.16609005565E+03  0.71303322116E+03  0.50400001928E-02 0. -1.
</event>
<event>
 5   0  0.3907345E-04  0.1497442E+04  0.7818609E-02  0.8886156E-01
       -1   -1    0    0    0  501  0.00000000000E+00  0.00000000000E+00  0.48147568909E+03  0.48147568911E+03  0.50400001928E-02 0. -1.
        1   -1    0    0  501    0  0.00000000000E+00  0.00000000000E+00 -0.11643012989E+04  0.11643012989E+04  0.50400001928E-02 0.  1.
    10030    2    1    2    0    0  0.00000000000E+00  0.00000000000E+00 -0.68282560983E+03  0.16457769880E+04  0.14974415117E+04 0.  0.
        5    1    3    3  502    0  0.37783110250E+03 -0.40978998210E+03  0.20798109362E+03  0.59494738989E+03  0.46999998093E+01 0. -1.
       -5    1    3    3    0  502 -0.37783110250E+03  0.40978998210E+03 -0.89080670345E+03  0.10508295981E+04  0.46999998093E+01 0.  1.
</event>
<event>
 5   0  0.4086710E-04  0.1451162E+04  0.7818609E-02  0.8917595E-01
       -1   -1    0    0    0  501  0.00000000000E+00  0.00000000000E+00  0.47881249440E+03  0.47881249443E+03  0.50400001928E-02 0.  1.
        1   -1    0    0  501    0  0.00000000000E+00  0.00000000000E+00 -0.10995284676E+04  0.10995284676E+04  0.50400001928E-02 0. -1.
    10030    2    1    2    0    0  0.00000000000E+00  0.00000000000E+00 -0.62071597316E+03  0.15783409620E+04  0.14511622490E+04 0.  0.
        3    1    3    3  502    0 -0.33384309934E+03  0.49732400927E+03  0.13502405859E+03  0.61401456967E+03  0.10100000352E+00 0.  1.
       -3    1    3    3    0  502  0.33384309934E+03 -0.49732400927E+03 -0.75574003175E+03  0.96432639234E+03  0.10100000352E+00 0. -1.
</event>
<event>
 5   0  0.2800375E-04  0.1492787E+04  0.7818609E-02  0.8889264E-01
        3   -1    0    0  501    0  0.00000000000E+00  0.00000000000E+00  0.45199179929E+03  0.45199181057E+03  0.10100000352E+00 0.  1.
       -3   -1    0    0    0  501  0.00000000000E+00  0.00000000000E+00 -0.12325512906E+04  0.12325512947E+04  0.10100000352E+00 0. -1.
    10030    2    1    2    0    0  0.00000000000E+00  0.00000000000E+00 -0.78055949129E+03  0.16845431053E+04  0.14927867745E+04 0.  0.
        3    1    3    3  502    0 -0.68520983349E+02  0.13922210727E+03 -0.12141488248E+04  0.12240242233E+04  0.10100000352E+00 0. -1.
       -3    1    3    3    0  502  0.68520983349E+02 -0.13922210727E+03  0.43358933351E+03  0.46051888197E+03  0.10100000352E+00 0.  1.
</event>
<event>
 5   0  0.7454828E-04  0.1299303E+04  0.7818609E-02  0.9030118E-01
        2   -1    0    0  501    0  0.00000000000E+00  0.00000000000E+00  0.68452354615E+03  0.68452354615E+03  0.25500000920E-02 0.  1.
       -2   -1    0    0    0  501  0.00000000000E+00  0.00000000000E+00 -0.61655595766E+03  0.61655595766E+03  0.25500000920E-02 0. -1.
    10030    2    1    2    0    0  0.00000000000E+00  0.00000000000E+00  0.67967588492E+02  0.13010795038E+04  0.12993029986E+04 0.  0.
        3    1    3    3  502    0 -0.50847893826E+03  0.30716956922E+03  0.29729404849E+03  0.66429491672E+03  0.10100000352E+00 0.  1.
       -3    1    3    3    0  502  0.50847893826E+03 -0.30716956922E+03 -0.22932645999E+03  0.63678458710E+03  0.10100000352E+00 0. -1.
</event>
<event>
 5   0  0.4084462E-04  0.1538335E+04  0.7818609E-02  0.8859353E-01
       -1   -1    0    0    0  501  0.00000000000E+00  0.00000000000E+00  0.47472515051E+03  0.47472515054E+03  0.50400001928E-02 0. -1.
        1   -1    0    0  501    0  0.00000000000E+00  0.00000000000E+00 -0.12462338908E+04  0.12462338908E+04  0.50400001928E-02 0.  1.
    10030    2    1    2    0    0  0.00000000000E+00  0.00000000000E+00 -0.77150874032E+03  0.17209590414E+04  0.15383349069E+04 0.  0.
        1    1    3    3  502    0  0.10225856193E+03  0.41825049108E+03 -0.10987793071E+04  0.11801297609E+04  0.50400001928E-02 0.  1.
       -1    1    3    3    0  502 -0.10225856193E+03 -0.41825049108E+03  0.32727056676E+03  0.54082928052E+03  0.50400001928E-02 0. -1.
</event>
<event>
 5   0  0.7634227E-04  0.1487661E+04  0.7818609E-02  0.8892700E-01
       -2   -1    0    0    0  501  0.00000000000E+00  0.00000000000E+00  0.47049789208E+03  0.47049789209E+03  0.25500000920E-02 0. -1.
        2   -1    0    0  501    0  0.00000000000E+00  0.00000000000E+00 -0.11759542607E+04  0.11759542607E+04  0.25500000920E-02 0.  1.
    10030    2    1    2    0    0  0.00000000000E+00  0.00000000000E+00 -0.70545636860E+03  0.16464521528E+04  0.14876612529E+04 0.  0.
        2    1    3    3  502    0  0.17641724573E+03 -0.63570759325E+03  0.27508311140E+02  0.66030591085E+03  0.25500000920E-02 0. -1.
       -2    1    3    3    0  502 -0.17641724573E+03  0.63570759325E+03 -0.73296467974E+03  0.98614624192E+03  0.25500000920E-02 0.  1.
</event>
<event>
 5   0  0.4058874E-04  0.1497707E+04  0.7818609E-02  0.8885979E-01
       -1   -1    0    0    0  501  0.00000000000E+00  0.00000000000E+00  0.11023449243E+04  0.11023449243E+04  0.50400001928E-02 0.  1.
        1   -1    0    0  501    0  0.00000000000E+00  0.00000000000E+00 -0.50871684217E+03  0.50871684219E+03  0.50400001928E-02 0. -1.
    10030    2    1    2    0    0  0.00000000000E+00  0.00000000000E+00  0.59362808212E+03  0.16110617665E+04  0.14977068190E+04 0.  0.
        4    1    3    3  502    0 -0.53676952386E+03 -0.90780320583E+02  0.84994791788E+03  0.10093441754E+04  0.12699999809E+01 0.  1.
       -4    1    3    3    0  502  0.53676952386E+03  0.90780320583E+02 -0.25631983576E+03  0.60171759111E+03  0.12699999809E+01 0. -1.
</event>
<event>
 5   0  0.4084462E-04  0.1522423E+04  0.7818609E-02  0.8869677E-01
        1   -1    0    0  501    0  0.00000000000E+00  0.00000000000E+00  0.20628126140E+04  0.20628126140E+04  0.50400001928E-02 0.  1.
       -1   -1    0    0    0  501  0.00000000000E+00  0.00000000000E+00 -0.28089945415E+03  0.28089945420E+03  0.50400001928E-02 0. -1.
    10030    2    1    2    0    0  0.00000000000E+00  0.00000000000E+00  0.17819131598E+04  0.23437120682E+04  0.15224229863E+04 0.  0.
        1    1    3    3  502    0 -0.32006109668E+03 -0.50622864720E+03  0.16142356370E+04  0.17217616678E+04  0.50400001928E-02 0.  1.
       -1    1    3    3    0  502  0.32006109668E+03  0.50622864720E+03  0.16767752281E+03  0.62195040038E+03  0.50400001928E-02 0. -1.
</event>
<event>
 5   0  0.4015204E-04  0.1489323E+04  0.7818609E-02  0.8891585E-01
        1   -1    0    0  501    0  0.00000000000E+00  0.00000000000E+00  0.11017533395E+04  0.11017533395E+04  0.50400001928E-02 0. -1.
       -1   -1    0    0    0  501  0.00000000000E+00  0.00000000000E+00 -0.50330720804E+03  0.50330720807E+03  0.50400001928E-02 0.  1.
    10030    2    1    2    0    0  0.00000000000E+00  0.00000000000E+00  0.59844613145E+03  0.16050605476E+04  0.14893225269E+04 0.  0.
        2    1    3    3  502    0  0.13621573187E+03  0.76178379124E+02  0.10839294299E+04  0.10951077025E+04  0.25500000920E-02 0. -1.
       -2    1    3    3    0  502 -0.13621573187E+03 -0.76178379124E+02 -0.48548329848E+03  0.50995284504E+03  0.25500000920E-02 0.  1.
</event>
<event>
 5   0  0.4086710E-04  0.1489880E+04  0.7818609E-02  0.8891211E-01
        1   -1    0    0  501    0  0.00000000000E+00  0.00000000000E+00  0.99717624767E+03  0.99717624768E+03  0.50400001928E-02 0. -1.
       -1   -1    0    0    0  501  0.00000000000E+00  0.00000000000E+00 -0.55650681697E+03  0.55650681700E+03  0.50400001928E-02 0.  1.
    10030    2    1    2    0    0  0.00000000000E+00  0.00000000000E+00  0.44066943070E+03  0.15536830647E+04  0.14898796993E+04 0.  0.
        3    1    3    3  502    0  0.32492756668E+03 -0.34326039261E+03 -0.38010924599E+03  0.60653826739E+03  0.10100000352E+00 0.  1.
       -3    1    3    3    0  502 -0.32492756668E+03  0.34326039261E+03  0.82077867669E+03  0.94714479729E+03  0.10100000352E+00 0. -1.
</event>
<event>
 5   0  0.7547580E-04  0.1503739E+04  0.7818609E-02  0.8881970E-01
        2   -1    0    0  501    0  0.00000000000E+00  0.00000000000E+00  0.99874145557E+03  0.99874145557E+03  0.25500000920E-02 0. -1.
       -2   -1    0    0    0  501  0.00000000000E+00  0.00000000000E+00 -0.56602033281E+03  0.56602033281E+03  0.25500000920E-02 0.  1.
    10030    2    1    2    0    0  0.00000000000E+00  0.00000000000E+00  0.43272112276E+03  0.15647617884E+04  0.15037393006E+04 0.  0.
        4    1    3    3  502    0  0.14124885859E+03 -0.48661374855E+03  0.79438610038E+03  0.94222877779E+03  0.12699999809E+01 0. -1.
       -4    1    3    3    0  502 -0.14124885859E+03  0.48661374855E+03 -0.36166497762E+03  0.62253301058E+03  0.12699999809E+01 0.  1.
</event>
<event>
 5   0  0.7547580E-04  0.1497934E+04  0.7818609E-02  0.8885828E-01
        2   -1    0    0  501    0  0.00000000000E+00  0.00000000000E+00  0.79996700901E+03  0.79996700902E+03  0.25500000920E-02 0. -1.
       -2   -1    0    0    0  501  0.00000000000E+00  0.00000000000E+00 -0.70121875065E+03  0.70121875065E+03  0.25500000920E-02 0.  1.
    10030    2    1    2    0    0  0.00000000000E+00  0.00000000000E+00  0.98748258366E+02  0.15011857597E+04  0.14979343999E+04 0.  0.
        4    1    3    3  502    0  0.63500102548E+03  0.30316225457E+03  0.30647844050E+03  0.76750524581E+03  0.12699999809E+01 0. -1.
       -4    1    3    3    0  502 -0.63500102548E+03 -0.30316225457E+03 -0.20773018213E+03  0.73368051386E+03  0.12699999809E+01 0.  1.
</event>
<event>
 5   0  0.4015204E-04  0.1478136E+04  0.7818609E-02  0.8899124E-01
       -1   -1    0    0    0  501  0.00000000000E+00  0.00000000000E+00  0.11413906978E+04  0.11413906978E+04  0.50400001928E-02 0. -1.
        1   -1    0    0  501    0  0.00000000000E+00  0.00000000000E+00 -0.47855758796E+03  0.47855758799E+03  0.50400001928E-02 0.  1.
    10030    2    1    2    0    0  0.00000000000E+00  0.00000000000E+00  0.66283310984E+03  0.16199482858E+04  0.14781355544E+04 0.  0.
        2    1    3    3  502    0 -0.18231470687E+03 -0.19145904994E+03  0.10877947709E+04  0.11194608898E+04  0.25500000920E-02 0. -1.
       -2    1    3    3    0  502  0.18231470687E+03  0.19145904994E+03 -0.42496166109E+03  0.50048739599E+03  0.25500000920E-02 0.  1.
</event>
<event>
 5   0  0.7547580E-04  0.1491610E+04  0.7818609E-02  0.8890051E-01
        2   -1    0    0  501    0  0.00000000000E+00  0.00000000000E+00  0.21851437084E+04  0.21851437084E+04  0.25500000920E-02 0. -1.
       -2   -1    0    0    0  501  0.00000000000E+00  0.00000000000E+00 -0.25454855204E+03  0.25454855205E+03  0.25500000920E-02 0.  1.
    10030    2    1    2    0    0  0.00000000000E+00  0.00000000000E+00  0.19305951563E+04  0.24396922604E+04  0.14916100924E+04 0.  0.
        4    1    3    3  502    0 -0.10271185228E+03  0.45035316832E+03  0.75842765654E+01  0.46198142275E+03  0.12699999809E+01 0.  1.
       -4    1    3    3    0  502  0.10271185228E+03 -0.45035316832E+03  0.19230108797E+04  0.19777108376E+04  0.12699999809E+01 0. -1.
</event>
<event>
 5   0  0.7359897E-04  0.1500536E+04  0.7818609E-02  0.8884096E-01
        2   -1    0    0  501    0  0.00000000000E+00  0.00000000000E+00  0.74378713583E+03  0.74378713583E+03  0.25500000920E-02 0.  1.
       -2   -1    0    0    0  501  0.00000000000E+00  0.00000000000E+00 -0.75680582846E+03  0.75680582846E+03  0.25500000920E-02 0. -1.
    10030    2    1    2    0    0  0.00000000000E+00  0.00000000000E+00 -0.13018692632E+02  0.15005929643E+04  0.15005364901E+04 0.  0.
        1    1    3    3  502    0  0.42192431320E+03 -0.33093035076E+03 -0.53128372091E+03  0.75484926658E+03  0.50400001928E-02 0. -1.
       -1    1    3    3    0  502 -0.42192431320E+03  0.33093035076E+03  0.51826502828E+03  0.74574369772E+03  0.50400001928E-02 0.  1.
</event>
<event>
 5   0  0.7547580E-04  0.1482930E+04  0.7818609E-02  0.8895884E-01
        2   -1    0    0  501    0  0.00000000000E+00  0.00000000000E+00  0.17674199668E+04  0.17674199668E+04  0.25500000920E-02 0. -1.
       -2   -1    0    0    0  501  0.00000000000E+00  0.00000000000E+00 -0.31105819937E+03  0.31105819938E+03  0.25500000920E-02 0.  1.
    10030    2    1    2    0    0  0.00000000000E+00  0.00000000000E+00  0.14563617674E+04  0.20784781662E+04  0.14829301702E+04 0.  0.
        4    1    3    3  502    0 -0.31569230290E+03  0.21605541283E+03  0.16184214928E+04  0.16630187349E+04  0.12699999809E+01 0. -1.
       -4    1    3    3    0  502  0.31569230290E+03 -0.21605541283E+03 -0.16205972536E+03  0.41545943124E+03  0.12699999809E+01 0.  1.
</event>
<event>
 5   0  0.3907345E-04  0.1481022E+04  0.7818609E-02  0.8897172E-01
        1   -1    0    0  501    0  0.00000000000E+00  0.00000000000E+00  0.55314081048E+03  0.55314081051E+03  0.50400001928E-02 0. -1.
       -1   -1    0    0    0  501  0.00000000000E+00  0.00000000000E+00 -0.99135078775E+03  0.99135078776E+03  0.50400001928E-02 0.  1.
    10030    2    1    2    0    0  0.00000000000E+00  0.00000000000E+00 -0.43820997727E+03  0.15444915983E+04  0.14810220501E+04 0.  0.
        5    1    3    3  502    0 -0.57908868891E+03 -0.24988121449E+03  0.18553111715E+03  0.65744065619E+03  0.46999998093E+01 0. -1.
       -5    1    3    3    0  502  0.57908868891E+03  0.24988121449E+03 -0.62374109442E+03  0.88705094208E+03  0.46999998093E+01 0.  1.
</event>
<event>
 5   0  0.7672251E-04  0.1545512E+04  0.7818609E-02  0.8854740E-01
        2   -1    0    0  501    0  0.00000000000E+00  0.00000000000E+00  0.78937634364E+03  0.78937634364E+03  0.25500000920E-02 0. -1.
       -2   -1    0    0    0  501  0.00000000000E+00  0.00000000000E+00 -0.75648545783E+03  0.75648545783E+03  0.25500000920E-02 0.  1.
    10030    2    1    2    0    0  0.00000000000E+00  0.00000000000E+00  0.32890885809E+02  0.15458618015E+04  0.15455118566E+04 0.  0.
        5    1    3    3  502    0 -0.74124945573E+03  0.21774493126E+03  0.32759378741E+02  0.77327800796E+03  0.46999998093E+01 0. -1.
       -5    1    3    3    0  502  0.74124945573E+03 -0.21774493126E+03  0.13150706792E+00  0.77258379351E+03  0.46999998093E+01 0.  1.
</event>
<event>
 5   0  0.3907345E-04  0.1484051E+04  0.7818609E-02  0.8895129E-01
        1   -1    0    0  501    0  0.00000000000E+00  0.00000000000E+00  0.16044286351E+04  0.16044286351E+04  0.50400001928E-02 0. -1.
       -1   -1    0    0    0  501  0.00000000000E+00  0.00000000000E+00 -0.34317620087E+03  0.34317620091E+03  0.50400001928E-02 0.  1.
    10030    2    1    2    0    0  0.00000000000E+00  0.00000000000E+00  0.12612524342E+04  0.19476048360E+04  0.14840508396E+04 0.  0.
        5    1    3    3  502    0  0.14109139802E+03  0.72068551066E+03  0.49121183594E+03  0.88351884283E+03  0.46999998093E+01 0.  1.
       -5    1    3    3    0  502 -0.14109139802E+03 -0.72068551066E+03  0.77004059827E+03  0.10640859932E+04  0.46999998093E+01 0. -1.
</event>
<event>
 5   0  0.4086710E-04  0.1475610E+04  0.7818609E-02  0.8900836E-01
        1   -1    0    0  501    0  0.00000000000E+00  0.00000000000E+00  0.61123526915E+03  0.61123526917E+03  0.50400001928E-02 0. -1.
       -1   -1    0    0    0  501  0.00000000000E+00  0.00000000000E+00 -0.89058401729E+03  0.89058401730E+03  0.50400001928E-02 0.  1.
    10030    2    1    2    0    0  0.00000000000E+00  0.00000000000E+00 -0.27934874814E+03  0.15018192865E+04  0.14756101945E+04 0.  0.
        3    1    3    3  502    0 -0.28610920864E+03  0.57159985747E+02 -0.82937630763E+03  0.87919896104E+03  0.10100000352E+00 0.  1.
       -3    1    3    3    0  502  0.28610920864E+03 -0.57159985747E+02  0.55002755949E+03  0.62262032543E+03  0.10100000352E+00 0. -1.
</event>
<event>
 5   0  0.7454828E-04  0.1285325E+04  0.7818609E-02  0.9041284E-01
        2   -1    0    0  501    0  0.00000000000E+00  0.00000000000E+00  0.63080343868E+03  0.63080343869E+03  0.25500000920E-02 0.  1.
       -2   -1    0    0    0  501  0.00000000000E+00  0.00000000000E+00 -0.65474481735E+03  0.65474481735E+03  0.25500000920E-02 0. -1.
    10030    2    1    2    0    0  0.00000000000E+00  0.00000000000E+00 -0.23941378664E+02  0.12855482560E+04  0.12853253008E+04 0.  0.
        3    1    3    3  502    0 -0.30069636787E+03  0.63715489881E+02 -0.57645968003E+03  0.65328687588E+03  0.10100000352E+00 0. -1.
       -3    1    3    3    0  502  0.30069636787E+03 -0.63715489881E+02  0.55251830136E+03  0.63226138016E+03  0.10100000352E+00 0.  1.
</event>
<event>
 5   0  0.4084462E-04  0.1499389E+04  0.7818609E-02  0.8884859E-01
       -1   -1    0    0    0  501  0.00000000000E+00  0.00000000000E+00  0.62611598117E+03  0.62611598119E+03  0.50400001928E-02 0.  1.
        1   -1    0    0  501    0  0.00000000000E+00  0.00000000000E+00 -0.89766389628E+03  0.89766389629E+03  0.50400001928E-02 0. -1.
    10030    2    1    2    0    0  0.00000000000E+00  0.00000000000E+00 -0.27154791511E+03  0.15237798775E+04  0.14993888238E+04 0.  0.
        1    1    3    3  502    0  0.32368196575E+03  0.40993545975E+03 -0.68231853607E+03  0.85928789169E+03  0.50400001928E-02 0. -1.
       -1    1    3    3    0  502 -0.32368196575E+03 -0.40993545975E+03  0.41077062096E+03  0.66449198579E+03  0.50400001928E-02 0.  1.
</event>
<event>
 5   0  0.4058874E-04  0.1486029E+04  0.7818609E-02  0.8893797E-01
       -1   -1    0    0    0  501  0.00000000000E+00  0.00000000000E+00  0.56284506509E+03  0.56284506511E+03  0.50400001928E-02 0.  1.
        1   -1    0    0  501    0  0.00000000000E+00  0.00000000000E+00 -0.98085720608E+03  0.98085720609E+03  0.50400001928E-02 0. -1.
    10030    2    1    2    0    0  0.00000000000E+00  0.00000000000E+00 -0.41801214098E+03  0.15437022712E+04  0.14860291222E+04 0.  0.
        4    1    3    3  502    0  0.36589297497E+03  0.10884751751E+03 -0.87119653190E+03  0.95116268918E+03  0.12699999809E+01 0. -1.
       -4    1    3    3    0  502 -0.36589297497E+03 -0.10884751751E+03  0.45318439091E+03  0.59253958202E+03  0.12699999809E+01 0.  1.
</event>
<event>
 5   0  0.3907345E-04  0.1483170E+04  0.7818609E-02  0.8895723E-01
       -1   -1    0    0    0  501  0.00000000000E+00  0.00000000000E+00  0.40530617222E+03  0.40530617225E+03  0.50400001928E-02 0.  1.
        1   -1    0    0  501    0  0.00000000000E+00  0.00000000000E+00 -0.13568708915E+04  0.13568708915E+04  0.50400001928E-02 0. -1.
    10030    2    1    2    0    0  0.00000000000E+00  0.00000000000E+00 -0.95156471929E+03  0.17621770638E+04  0.14831697776E+04 0.  0.
        5    1    3    3  502    0  0.58978724698E+03  0.14525383326E+03 -0.98122517835E+03  0.11540245289E+04  0.46999998093E+01 0. -1.
       -5    1    3    3    0  502 -0.58978724698E+03 -0.14525383326E+03  0.29660459056E+02  0.60815253482E+03  0.46999998093E+01 0.  1.
</event>
<event>
 5   0  0.4058874E-04  0.1490171E+04  0.7818609E-02  0.8891015E-01
        1   -1    0    0  501    0  0.00000000000E+00  0.00000000000E+00  0.11305655416E+04  0.11305655417E+04  0.50400001928E-02 0.  1.
       -1   -1    0    0    0  501  0.00000000000E+00  0.00000000000E+00 -0.49103986126E+03  0.49103986129E+03  0.50400001928E-02 0. -1.
    10030    2    1    2    0    0  0.00000000000E+00  0.00000000000E+00  0.63952568038E+03  0.16216054029E+04  0.14901714623E+04 0.  0.
        4    1    3    3  502    0 -0.20316105808E+03 -0.55577352761E+03  0.81245758625E+03  0.10051107262E+04  0.12699999809E+01 0.  1.
       -4    1    3    3    0  502  0.20316105808E+03  0.55577352761E+03 -0.17293190587E+03  0.61649467677E+03  0.12699999809E+01 0. -1.
</event>
<event>
 5   0  0.4084462E-04  0.1508236E+04  0.7818609E-02  0.8878994E-01
       -1   -1    0    0    0  501  0.00000000000E+00  0.00000000000E+00  0.72984958005E+03  0.72984958007E+03  0.50400001928E-02 0.  1.
        1   -1    0    0  501    0  0.00000000000E+00  0.00000000000E+00 -0.77919359467E+03  0.77919359469E+03  0.50400001928E-02 0. -1.
    10030    2    1    2    0    0  0.00000000000E+00  0.00000000000E+00 -0.49344014626E+02  0.15090431748E+04  0.15082362121E+04 0.  0.
        1    1    3    3  502    0 -0.41493266962E+02 -0.75276159322E+03 -0.42637405161E+02  0.75510903568E+03  0.50400001928E-02 0. -1.
       -1    1    3    3    0  502  0.41493266962E+02  0.75276159322E+03 -0.67066094647E+01  0.75393413907E+03  0.50400001928E-02 0.  1.
</event>
<event>
 5   0  0.7547580E-04  0.1508209E+04  0.7818609E-02  0.8879012E-01
        2   -1    0    0  501    0  0.00000000000E+00  0.00000000000E+00  0.12101367078E+04  0.12101367078E+04  0.25500000920E-02 0.  1.
       -2   -1    0    0    0  501  0.00000000000E+00  0.00000000000E+00 -0.46992516185E+03  0.46992516186E+03  0.25500000920E-02 0. -1.
    10030    2    1    2    0    0  0.00000000000E+00  0.00000000000E+00  0.74021154593E+03  0.16800618697E+04  0.15082091212E+04 0.  0.
        4    1    3    3  502    0 -0.41899677528E+03 -0.55148155271E+03  0.37817902822E+02  0.69362958944E+03  0.12699999809E+01 0.  1.
       -4    1    3    3    0  502  0.41899677528E+03  0.55148155271E+03  0.70239364311E+03  0.98643228022E+03  0.12699999809E+01 0. -1.
</event>
<event>
 5   0  0.4058874E-04  0.1412668E+04  0.7818609E-02  0.8944699E-01
        1   -1    0    0  501    0  0.00000000000E+00  0.00000000000E+00  0.33425054253E+03  0.33425054257E+03  0.50400001928E-02 0. -1.
       -1   -1    0    0    0  501  0.00000000000E+00  0.00000000000E+00 -0.14926164157E+04  0.14926164157E+04  0.50400001928E-02 0.  1.
    10030    2    1    2    0    0  0.00000000000E+00  0.00000000000E+00 -0.11583658731E+04  0.18268669583E+04  0.14126681801E+04 0.  0.
        4    1    3    3  502    0 -0.21758031511E+03  0.24577124710E+03 -0.13879898012E+04  0.14262755696E+04  0.12699999809E+01 0.  1.
       -4    1    3    3    0  502  0.21758031511E+03 -0.24577124710E+03  0.22962392803E+03  0.40059138863E+03  0.12699999809E+01 0. -1.
</event>
<event>
 5   0  0.4084462E-04  0.1495906E+04  0.7818609E-02  0.8887180E-01
       -1   -1    0    0    0  501  0.00000000000E+00  0.00000000000E+00  0.59441795209E+03  0.59441795211E+03  0.50400001928E-02 0. -1.
        1   -1    0    0  501    0  0.00000000000E+00  0.00000000000E+00 -0.94114526767E+03  0.94114526769E+03  0.50400001928E-02 0.  1.
    10030    2    1    2    0    0  0.00000000000E+00  0.00000000000E+00 -0.34672731559E+03  0.15355632198E+04  0.14959059364E+04 0.  0.
        1    1    3    3  502    0 -0.48872274460E+03 -0.55320240890E+03 -0.49539011825E+02  0.73982223542E+03  0.50400001928E-02 0. -1.
       -1    1    3    3    0  502  0.48872274460E+03  0.55320240890E+03 -0.29718830376E+03  0.79574098438E+03  0.50400001928E-02 0.  1.
</event>
<event>
 5   0  0.4086710E-04  0.1515350E+04  0.7818609E-02  0.8874309E-01
        1   -1    0    0  501    0  0.00000000000E+00  0.00000000000E+00  0.21448986369E+04  0.21448986369E+04  0.50400001928E-02 0. -1.
       -1   -1    0    0    0  501  0.00000000000E+00  0.00000000000E+00 -0.26764500154E+03  0.26764500158E+03  0.50400001928E-02 0.  1.
    10030    2    1    2    0    0  0.00000000000E+00  0.00000000000E+00  0.18772536354E+04  0.24125436385E+04  0.15153499913E+04 0.  0.
        3    1    3    3  502    0 -0.17478422865E+03 -0.17187670018E+03 -0.20276682069E+03  0.31812815095E+03  0.10100000352E+00 0.  1.
       -3    1    3    3    0  502  0.17478422865E+03  0.17187670018E+03  0.20800204561E+04  0.20944154876E+04  0.10100000352E+00 0. -1.
</event>
<event>
 5   0  0.4086710E-04  0.1488425E+04  0.7818609E-02  0.8892187E-01
        1   -1    0    0  501    0  0.00000000000E+00  0.00000000000E+00  0.18758404791E+04  0.18758404791E+04  0.50400001928E-02 0. -1.
       -1   -1    0    0    0  501  0.00000000000E+00  0.00000000000E+00 -0.29525547319E+03  0.29525547324E+03  0.50400001928E-02 0.  1.
    10030    2    1    2    0    0  0.00000000000E+00  0.00000000000E+00  0.15805850059E+04  0.21710959524E+04  0.14884248968E+04 0.  0.
        3    1    3    3  502    0  0.32268801129E+03 -0.59698721857E+03  0.12359125709E+04  0.14099649588E+04  0.10100000352E+00 0. -1.
       -3    1    3    3    0  502 -0.32268801129E+03  0.59698721857E+03  0.34467243502E+03  0.76113099361E+03  0.10100000352E+00 0.  1.
</event>
<event>
 5   0  0.7547580E-04  0.1504584E+04  0.7818609E-02  0.8881410E-01
        2   -1    0    0  501    0  0.00000000000E+00  0.00000000000E+00  0.61223625678E+03  0.61223625678E+03  0.25500000920E-02 0. -1.
       -2   -1    0    0    0  501  0.00000000000E+00  0.00000000000E+00 -0.92438719881E+03  0.92438719882E+03  0.25500000920E-02 0.  1.
    10030    2    1    2    0    0  0.00000000000E+00  0.00000000000E+00 -0.31215094204E+03  0.15366234556E+04  0.15045841398E+04 0.  0.
        4    1    3    3  502    0  0.24332522561E+03 -0.62149172716E+03  0.19842202170E+03  0.69629881800E+03  0.12699999809E+01 0. -1.
       -4    1    3    3    0  502 -0.24332522561E+03  0.62149172716E+03 -0.51057296374E+03  0.84032463760E+03  0.12699999809E+01 0.  1.
</event>
<event>
 5   0  0.4015204E-04  0.1519960E+04  0.7818609E-02  0.8871287E-01
       -1   -1    0    0    0  501  0.00000000000E+00  0.00000000000E+00  0.90106715036E+03  0.90106715038E+03  0.50400001928E-02 0. -1.
        1   -1    0    0  501    0  0.00000000000E+00  0.00000000000E+00 -0.64098381791E+03  0.64098381793E+03  0.50400001928E-02 0.  1.
    10030    2    1    2    0    0  0.00000000000E+00  0.00000000000E+00  0.26008333246E+03  0.15420509683E+04  0.15199598182E+04 0.  0.
        2    1    3    3  502    0 -0.42559309504E+03 -0.60263748997E+03 -0.55004545530E+02  0.73981546814E+03  0.25500000920E-02 0.  1.
       -2    1    3    3    0  502  0.42559309504E+03  0.60263748997E+03  0.31508787799E+03  0.80223550017E+03  0.25500000920E-02 0. -1.
</event>
<event>
 5   0  0.4058874E-04  0.1493813E+04  0.7818609E-02  0.8888578E-01
       -1   -1    0    0    0  501  0.00000000000E+00  0.00000000000E+00  0.37232270712E+03  0.37232270715E+03  0.50400001928E-02 0. -1.
        1   -1    0    0  501    0  0.00000000000E+00  0.00000000000E+00 -0.14983492367E+04  0.14983492367E+04  0.50400001928E-02 0.  1.
    10030    2    1    2    0    0  0.00000000000E+00  0.00000000000E+00 -0.11260265296E+04  0.18706719439E+04  0.14938131664E+04 0.  0.
        4    1    3    3  502    0 -0.40027576244E+03  0.16947218737E+03  0.19761274374E+03  0.47748708640E+03  0.12699999809E+01 0. -1.
       -4    1    3    3    0  502  0.40027576244E+03 -0.16947218737E+03 -0.13236392733E+04  0.13931848575E+04  0.12699999809E+01 0.  1.
</event>
<event>
 5   0  0.7547580E-04  0.1495421E+04  0.7818609E-02  0.8887504E-01
        2   -1    0    0  501    0  0.00000000000E+00  0.00000000000E+00  0.13258992775E+04  0.13258992775E+04  0.25500000920E-02 0. -1.
       -2   -1    0    0    0  501  0.00000000000E+00  0.00000000000E+00 -0.42165392124E+03  0.42165392125E+03  0.25500000920E-02 0.  1.
    10030    2    1    2    0    0  0.00000000000E+00  0.00000000000E+00  0.90424535627E+03  0.17475531988E+04  0.14954205155E+04 0.  0.
        4    1    3    3  502    0 -0.28524061075E+02  0.74258495802E+03  0.54865082116E+03  0.92372364828E+03  0.12699999809E+01 0.  1.
       -4    1    3    3    0  502  0.28524061075E+02 -0.74258495802E+03  0.35559453511E+03  0.82382955048E+03  0.12699999809E+01 0. -1.
</event>
<event>
 5   0  0.7672251E-04  0.1496546E+04  0.7818609E-02  0.8886753E-01
       -2   -1    0    0    0  501  0.00000000000E+00  0.00000000000E+00  0.37712959288E+03  0.37712959288E+03  0.25500000920E-02 0. -1.
        2   -1    0    0  501    0  0.00000000000E+00  0.00000000000E+00 -0.14846683999E+04  0.14846683999E+04  0.25500000920E-02 0.  1.
    10030    2    1    2    0    0  0.00000000000E+00  0.00000000000E+00 -0.11075388071E+04  0.18617979928E+04  0.14965458753E+04 0.  0.
        5    1    3    3  502    0  0.65335533644E+03  0.20248565530E+03 -0.17639211204E+03  0.70640633027E+03  0.46999998093E+01 0. -1.
       -5    1    3    3    0  502 -0.65335533644E+03 -0.20248565530E+03 -0.93114669501E+03  0.11553916625E+04  0.46999998093E+01 0.  1.
</event>
<event>
 5   0  0.4058874E-04  0.1500267E+04  0.7818609E-02  0.8884276E-01
        1   -1    0    0  501    0  0.00000000000E+00  0.00000000000E+00  0.14373122825E+04  0.14373122825E+04  0.50400001928E-02 0. -1.
       -1   -1    0    0    0  501  0.00000000000E+00  0.00000000000E+00 -0.39149456885E+03  0.39149456888E+03  0.50400001928E-02 0.  1.
    10030    2    1    2    0    0  0.00000000000E+00  0.00000000000E+00  0.10458177136E+04  0.18288068514E+04  0.15002665795E+04 0.  0.
        4    1    3    3  502    0  0.14477540861E+02  0.23698781576E+03 -0.34448094554E+03  0.41837968253E+03  0.12699999809E+01 0.  1.
       -4    1    3    3    0  502 -0.14477540861E+02 -0.23698781576E+03  0.13902986592E+04  0.14104271688E+04  0.12699999809E+01 0. -1.
</event>
<event>
 5   0  0.7547580E-04  0.1497462E+04  0.7818609E-02  0.8886143E-01
       -2   -1    0    0    0  501  0.00000000000E+00  0.00000000000E+00  0.35313364106E+03  0.35313364107E+03  0.25500000920E-02 0.  1.
        2   -1    0    0  501    0  0.00000000000E+00  0.00000000000E+00 -0.15874946205E+04  0.15874946205E+04  0.25500000920E-02 0. -1.
    10030    2    1    2    0    0  0.00000000000E+00  0.00000000000E+00 -0.12343609795E+04  0.19406282616E+04  0.14974615261E+04 0.  0.
        4    1    3    3  502    0 -0.61712382330E+02  0.37408824742E+03  0.21952832768E+03  0.43811497868E+03  0.12699999809E+01 0.  1.
       -4    1    3    3    0  502  0.61712382330E+02 -0.37408824742E+03 -0.14538893072E+04  0.15025132829E+04  0.12699999809E+01 0. -1.
</event>
<event>
 5   0  0.7454828E-04  0.1483335E+04  0.7818609E-02  0.8895611E-01
       -2   -1    0    0    0  501  0.00000000000E+00  0.00000000000E+00  0.59251097425E+03  0.59251097426E+03  0.25500000920E-02 0. -1.
        2   -1    0    0  501    0  0.00000000000E+00  0.00000000000E+00 -0.92837199464E+03  0.92837199464E+03  0.25500000920E-02 0.  1.
    10030    2    1    2    0    0  0.00000000000E+00  0.00000000000E+00 -0.33586102039E+03  0.15208829689E+04  0.14833348847E+04 0.  0.
        3    1    3    3  502    0 -0.90769664770E+02  0.57948404566E+03 -0.63332527592E+03  0.86321596749E+03  0.10100000352E+00 0.  1.
       -3    1    3    3    0  502  0.90769664770E+02 -0.57948404566E+03  0.29746425553E+03  0.65766700141E+03  0.10100000352E+00 0. -1.
</event>
<event>
 5   0  0.3907345E-04  0.1516649E+04  0.7818609E-02  0.8873457E-01
       -1   -1    0    0    0  501  0.00000000000E+00  0.00000000000E+00  0.31640886075E+03  0.31640886079E+03  0.50400001928E-02 0.  1.
        1   -1    0    0  501    0  0.00000000000E+00  0.00000000000E+00 -0.18174450238E+04  0.18174450238E+04  0.50400001928E-02 0. -1.
    10030    2    1    2    0    0  0.00000000000E+00  0.00000000000E+00 -0.15010361631E+04  0.21338538846E+04  0.15166485546E+04 0.  0.
        5    1    3    3  502    0  0.44772175938E+02 -0.60776700914E+02  0.31108889679E+03  0.32015113121E+03  0.46999998093E+01 0.  1.
       -5    1    3    3    0  502 -0.44772175938E+02  0.60776700914E+02 -0.18121250598E+04  0.18137027534E+04  0.46999998093E+01 0. -1.
</event>
<event>
 5   0  0.7634227E-04  0.1500421E+04  0.7818609E-02  0.8884173E-01
       -2   -1    0    0    0  501  0.00000000000E+00  0.00000000000E+00  0.94885905654E+03  0.94885905654E+03  0.25500000920E-02 0.  1.
        2   -1    0    0  501    0  0.00000000000E+00  0.00000000000E+00 -0.59314968656E+03  0.59314968656E+03  0.25500000920E-02 0. -1.
    10030    2    1    2    0    0  0.00000000000E+00  0.00000000000E+00  0.35570936998E+03  0.15420087431E+04  0.15004205437E+04 0.  0.
        2    1    3    3  502    0 -0.43509376725E+03  0.37792733204E+03 -0.31574925193E+03  0.65714020171E+03  0.25500000920E-02 0. -1.
       -2    1    3    3    0  502  0.43509376725E+03 -0.37792733204E+03  0.67145862191E+03  0.88486854139E+03  0.25500000920E-02 0.  1.
</event>
<event>
 5   0  0.3907345E-04  0.1494021E+04  0.7818609E-02  0.8888439E-01
        1   -1    0    0  501    0  0.00000000000E+00  0.00000000000E+00  0.67582151131E+03  0.67582151133E+03  0.50400001928E-02 0.  1.
       -1   -1    0    0    0  501  0.00000000000E+00  0.00000000000E+00 -0.82569820577E+03  0.82569820579E+03  0.50400001928E-02 0. -1.
    10030    2    1    2    0    0  0.00000000000E+00  0.00000000000E+00 -0.14987669447E+03  0.15015197171E+04  0.14940208959E+04 0.  0.
        5    1    3    3  502    0  0.55382678995E+03  0.16195536270E+03  0.40183589303E+03  0.70316984271E+03  0.46999998093E+01 0.  1.
       -5    1    3    3    0  502 -0.55382678995E+03 -0.16195536270E+03 -0.55171258749E+03  0.79834987441E+03  0.46999998093E+01 0. -1.
</event>
<event>
 5   0  0.7634227E-04  0.1499573E+04  0.7818609E-02  0.8884737E-01
       -2   -1    0    0    0  501  0.00000000000E+00  0.00000000000E+00  0.39634168993E+03  0.39634168994E+03  0.25500000920E-02 0. -1.
        2   -1    0    0  501    0  0.00000000000E+00  0.00000000000E+00 -0.14184227469E+04  0.14184227469E+04  0.25500000920E-02 0.  1.
    10030    2    1    2    0    0  0.00000000000E+00  0.00000000000E+00 -0.10220810570E+04  0.18147644369E+04  0.14995733641E+04 0.  0.
        2    1    3    3  502    0  0.62882022543E+03  0.98495782288E+02 -0.31427959515E+02  0.63726290626E+03  0.25500000920E-02 0. -1.
       -2    1    3    3    0  502 -0.62882022543E+03 -0.98495782288E+02 -0.99065309747E+03  0.11775015306E+04  0.25500000920E-02 0.  1.
</event>
<event>
 5   0  0.4086710E-04  0.1498851E+04  0.7818609E-02  0.8885218E-01
        1   -1    0    0  501    0  0.00000000000E+00  0.00000000000E+00  0.52675112529E+03  0.52675112531E+03  0.50400001928E-02 0. -1.
       -1   -1    0    0    0  501  0.00000000000E+00  0.00000000000E+00 -0.10662307364E+04  0.10662307364E+04  0.50400001928E-02 0.  1.
    10030    2    1    2    0    0  0.00000000000E+00  0.00000000000E+00 -0.53947961107E+03  0.15929818617E+04  0.14988505465E+04 0.  0.
        3    1    3    3  502    0 -0.57153564769E+03  0.13195847703E+02  0.24526563208E+03  0.62207906849E+03  0.10100000352E+00 0. -1.
       -3    1    3    3    0  502  0.57153564769E+03 -0.13195847703E+02 -0.78474524315E+03  0.97090279319E+03  0.10100000352E+00 0.  1.
</event>
<event>
 5   0  0.7454828E-04  0.1486111E+04  0.7818609E-02  0.8893742E-01
        2   -1    0    0  501    0  0.00000000000E+00  0.00000000000E+00  0.11708629816E+04  0.11708629816E+04  0.25500000920E-02 0. -1.
       -2   -1    0    0    0  501  0.00000000000E+00  0.00000000000E+00 -0.47155947630E+03  0.47155947631E+03  0.25500000920E-02 0.  1.
    10030    2    1    2    0    0  0.00000000000E+00  0.00000000000E+00  0.69930350529E+03  0.16424224579E+04  0.14861110785E+04 0.  0.
        3    1    3    3  502    0 -0.30122986015E+02  0.53042489738E+01 -0.47086344533E+03  0.47185582935E+03  0.10100000352E+00 0.  1.
       -3    1    3    3    0  502  0.30122986015E+02 -0.53042489738E+01  0.11701669506E+04  0.11705666285E+04  0.10100000352E+00 0. -1.
</event>
<event>
 5   0  0.4015204E-04  0.1520666E+04  0.7818609E-02  0.8870825E-01
        1   -1    0    0  501    0  0.00000000000E+00  0.00000000000E+00  0.10955327956E+04  0.10955327956E+04  0.50400001928E-02 0.  1.
       -1   -1    0    0    0  501  0.00000000000E+00  0.00000000000E+00 -0.52769407601E+03  0.52769407604E+03  0.50400001928E-02 0. -1.
    10030    2    1    2    0    0  0.00000000000E+00  0.00000000000E+00  0.56783871959E+03  0.16232268716E+04  0.15206658625E+04 0.  0.
        2    1    3    3  502    0  0.71008960623E+03 -0.13640709817E+03  0.32963061616E+02  0.72382367241E+03  0.25500000920E-02 0. -1.
       -2    1    3    3    0  502 -0.71008960623E+03  0.13640709817E+03  0.53487565797E+03  0.89940319924E+03  0.25500000920E-02 0.  1.
</event>
<event>
 5   0  0.4084462E-04  0.1559997E+04  0.7818609E-02  0.8845507E-01
        1   -1    0    0  501    0  0.00000000000E+00  0.00000000000E+00  0.13525739031E+04  0.13525739031E+04  0.50400001928E-02 0. -1.
       -1   -1    0    0    0  501  0.00000000000E+00  0.00000000000E+00 -0.44980733567E+03  0.44980733570E+03  0.50400001928E-02 0.  1.
    10030    2    1    2    0    0  0.00000000000E+00  0.00000000000E+00  0.90276656744E+03  0.18023812388E+04  0.15599970047E+04 0.  0.
        1    1    3    3  502    0 -0.21542230998E+03 -0.28545253491E+03  0.12522736848E+04  0.13023360945E+04  0.50400001928E-02 0. -1.
       -1    1    3    3    0  502  0.21542230998E+03  0.28545253491E+03 -0.34950711733E+03  0.50004514437E+03  0.50400001928E-02 0.  1.
</event>
<event>
 5   0  0.7634227E-04  0.1497799E+04  0.7818609E-02  0.8885918E-01
       -2   -1    0    0    0  501  0.00000000000E+00  0.00000000000E+00  0.33002029821E+03  0.33002029822E+03  0.25500000920E-02 0. -1.
        2   -1    0    0  501    0  0.00000000000E+00  0.00000000000E+00 -0.16994423010E+04  0.16994423010E+04  0.25500000920E-02 0.  1.
    10030    2    1    2    0    0  0.00000000000E+00  0.00000000000E+00 -0.13694220028E+04  0.20294625993E+04  0.14977989918E+04 0.  0.
        2    1    3    3  502    0 -0.51872117778E+02 -0.31426451583E+03 -0.16030898160E+04  0.16344264624E+04  0.25500000920E-02 0.  1.
       -2    1    3    3    0  502  0.51872117778E+02  0.31426451583E+03  0.23366781323E+03  0.39503613690E+03  0.25500000920E-02 0. -1.
</event>
<event>
 5   0  0.4086710E-04  0.1500580E+04  0.7818609E-02  0.8884067E-01
       -1   -1    0    0    0  501  0.00000000000E+00  0.00000000000E+00  0.18938582200E+03  0.18938582206E+03  0.50400001928E-02 0. -1.
        1   -1    0    0  501    0  0.00000000000E+00  0.00000000000E+00 -0.29724241235E+04  0.29724241235E+04  0.50400001928E-02 0.  1.
    10030    2    1    2    0    0  0.00000000000E+00  0.00000000000E+00 -0.27830383015E+04  0.31618099455E+04  0.15005798693E+04 0.  0.
        3    1    3    3  502    0 -0.21000282974E+03  0.13796743579E+03 -0.28811348422E+04  0.28920709173E+04  0.10100000352E+00 0.  1.
       -3    1    3    3    0  502  0.21000282974E+03 -0.13796743579E+03  0.98096540705E+02  0.26973902821E+03  0.10100000352E+00 0. -1.
</event>
<event>
 5   0  0.7547580E-04  0.1496423E+04  0.7818609E-02  0.8886835E-01
       -2   -1    0    0    0  501  0.00000000000E+00  0.00000000000E+00  0.10937022115E+04  0.10937022115E+04  0.25500000920E-02 0.  1.
        2   -1    0    0  501    0  0.00000000000E+00  0.00000000000E+00 -0.51185814054E+03  0.51185814054E+03  0.25500000920E-02 0. -1.
    10030    2    1    2    0    0  0.00000000000E+00  0.00000000000E+00  0.58184407092E+03  0.16055603520E+04  0.14964229085E+04 0.  0.
        4    1    3    3  502    0  0.29285699066E+03 -0.67766378917E+03  0.42156156475E+03  0.85012304633E+03  0.12699999809E+01 0.  1.
       -4    1    3    3    0  502 -0.29285699066E+03  0.67766378917E+03  0.16028250617E+03  0.75543730568E+03  0.12699999809E+01 0. -1.
</event>
<event>
 5   0  0.7454828E-04  0.1538432E+04  0.7818609E-02  0.8859290E-01
       -2   -1    0    0    0  501  0.00000000000E+00  0.00000000000E+00  0.45347667922E+03  0.45347667923E+03  0.25500000920E-02 0.  1.
        2   -1    0    0  501    0  0.00000000000E+00  0.00000000000E+00 -0.13047938500E+04  0.13047938500E+04  0.25500000920E-02 0. -1.
    10030    2    1    2    0    0  0.00000000000E+00  0.00000000000E+00 -0.85131717078E+03  0.17582705292E+04  0.15384324258E+04 0.  0.
        3    1    3    3  502    0 -0.24447317455E+03  0.63702167943E+02 -0.12560256860E+04  0.12811813429E+04  0.10100000352E+00 0. -1.
       -3    1    3    3    0  502  0.24447317455E+03 -0.63702167943E+02  0.40470851520E+03  0.47708918637E+03  0.10100000352E+00 0.  1.
</event>
<event>
 5   0  0.7672251E-04  0.1496292E+04  0.7818609E-02  0.8886922E-01
       -2   -1    0    0    0  501  0.00000000000E+00  0.00000000000E+00  0.67771164543E+03  0.67771164544E+03  0.25500000920E-02 0.  1.
        2   -1    0    0  501    0  0.00000000000E+00  0.00000000000E+00 -0.82590057272E+03  0.82590057272E+03  0.25500000920E-02 0. -1.
    10030    2    1    2    0    0  0.00000000000E+00  0.00000000000E+00 -0.14818892728E+03  0.15036122182E+04  0.14962919984E+04 0.  0.
        5    1    3    3  502    0  0.62013255505E+03  0.16105167780E+03 -0.46224613021E+03  0.79006050632E+03  0.46999998093E+01 0. -1.
       -5    1    3    3    0  502 -0.62013255505E+03 -0.16105167780E+03  0.31405720293E+03  0.71355171184E+03  0.46999998093E+01 0.  1.
</event>
<event>
 5   0  0.4058874E-04  0.1517345E+04  0.7818609E-02  0.8873000E-01
        1   -1    0    0  501    0  0.00000000000E+00  0.00000000000E+00  0.86628397932E+03  0.86628397933E+03  0.50400001928E-02 0.  1.
       -1   -1    0    0    0  501  0.00000000000E+00  0.00000000000E+00 -0.66442892846E+03  0.66442892847E+03  0.50400001928E-02 0. -1.
    10030    2    1    2    0    0  0.00000000000E+00  0.00000000000E+00  0.20185505086E+03  0.15307129078E+04  0.15173452292E+04 0.  0.
        4    1    3    3  502    0  0.44257300662E+03  0.31474136509E+03 -0.43350330098E+03  0.69488108187E+03  0.12699999809E+01 0. -1.
       -4    1    3    3    0  502 -0.44257300662E+03 -0.31474136509E+03  0.63535835184E+03  0.83583182593E+03  0.12699999809E+01 0.  1.
</event>
<event>
 5   0  0.4086710E-04  0.1509822E+04  0.7818609E-02  0.8877948E-01
        1   -1    0    0  501    0  0.00000000000E+00  0.00000000000E+00  0.37341815845E+03  0.37341815848E+03  0.50400001928E-02 0. -1.
       -1   -1    0    0    0  501  0.00000000000E+00  0.00000000000E+00 -0.15261450296E+04  0.15261450296E+04  0.50400001928E-02 0.  1.
    10030    2    1    2    0    0  0.00000000000E+00  0.00000000000E+00 -0.11527268711E+04  0.18995631881E+04  0.15098215345E+04 0.  0.
        3    1    3    3  502    0 -0.15650067666E+03 -0.31118978528E+03  0.26626823344E+03  0.43844079030E+03  0.10100000352E+00 0. -1.
       -3    1    3    3    0  502  0.15650067666E+03  0.31118978528E+03 -0.14189951046E+04  0.14611223978E+04  0.10100000352E+00 0.  1.
</event>
<event>
 5   0  0.3907345E-04  0.1462759E+04  0.7818609E-02  0.8909603E-01
        1   -1    0    0  501    0  0.00000000000E+00  0.00000000000E+00  0.77146603808E+03  0.77146603810E+03  0.50400001928E-02 0. -1.
       -1   -1    0    0    0  501  0.00000000000E+00  0.00000000000E+00 -0.69337568122E+03  0.69337568124E+03  0.50400001928E-02 0.  1.
    10030    2    1    2    0    0  0.00000000000E+00  0.00000000000E+00  0.78090356857E+02  0.14648417193E+04  0.14627587494E+04 0.  0.
        5    1    3    3  502    0 -0.36378434886E+03  0.31138689357E+03 -0.51454654703E+03  0.70290901902E+03  0.46999998093E+01 0.  1.
       -5    1    3    3    0  502  0.36378434886E+03 -0.31138689357E+03  0.59263690389E+03  0.76193270032E+03  0.46999998093E+01 0. -1.
</event>
<event>
 5   0  0.7547580E-04  0.1517697E+04  0.7818609E-02  0.8872769E-01
       -2   -1    0    0    0  501  0.00000000000E+00  0.00000000000E+00  0.49041446625E+03  0.49041446626E+03  0.25500000920E-02 0.  1.
        2   -1    0    0  501    0  0.00000000000E+00  0.00000000000E+00 -0.11742134519E+04  0.11742134519E+04  0.25500000920E-02 0. -1.
    10030    2    1    2    0    0  0.00000000000E+00  0.00000000000E+00 -0.68379898567E+03  0.16646279182E+04  0.15176972864E+04 0.  0.
        4    1    3    3  502    0  0.69031435642E+03  0.16728996340E+03 -0.48967002597E+02  0.71198260005E+03  0.12699999809E+01 0.  1.
       -4    1    3    3    0  502 -0.69031435642E+03 -0.16728996340E+03 -0.63483198307E+03  0.95264531813E+03  0.12699999809E+01 0. -1.
</event>
<event>
 5   0  0.7359897E-04  0.1575270E+04  0.7818609E-02  0.8835886E-01
        2   -1    0    0  501    0  0.00000000000E+00  0.00000000000E+00  0.16418465246E+04  0.16418465246E+04  0.25500000920E-02 0. -1.
       -2   -1    0    0    0  501  0.00000000000E+00  0.00000000000E+00 -0.37784836245E+03  0.37784836246E+03  0.25500000920E-02 0.  1.
    10030    2    1    2    0    0  0.00000000000E+00  0.00000000000E+00  0.12639981621E+04  0.20196948870E+04  0.15752701619E+04 0.  0.
        1    1    3    3  502    0  0.75422437827E+02 -0.32382733726E+02  0.16363481019E+04  0.16384054127E+04  0.50400001928E-02 0. -1.
       -1    1    3    3    0  502 -0.75422437827E+02  0.32382733726E+02 -0.37234993980E+03  0.38128947437E+03  0.50400001928E-02 0.  1.
</event>
<event>
 5   0  0.7672251E-04  0.1495338E+04  0.7818609E-02  0.8887559E-01
       -2   -1    0    0    0  501  0.00000000000E+00  0.00000000000E+00  0.45246015338E+03  0.45246015339E+03  0.25500000920E-02 0.  1.
        2   -1    0    0  501    0  0.00000000000E+00  0.00000000000E+00 -0.12354871929E+04  0.12354871929E+04  0.25500000920E-02 0. -1.
    10030    2    1    2    0    0  0.00000000000E+00  0.00000000000E+00 -0.78302703952E+03  0.16879473463E+04  0.14953377208E+04 0.  0.
        5    1    3    3  502    0  0.31199683077E+03 -0.10944196911E+03 -0.11484599541E+04  0.11951158618E+04  0.46999998093E+01 0. -1.
       -5    1    3    3    0  502 -0.31199683077E+03  0.10944196911E+03  0.36543291459E+03  0.49283148446E+03  0.46999998093E+01 0.  1.
</event>
<event>
 5   0  0.7547580E-04  0.1497864E+04  0.7818609E-02  0.8885875E-01
        2   -1    0    0  501    0  0.00000000000E+00  0.00000000000E+00  0.50424021036E+03  0.50424021036E+03  0.25500000920E-02 0. -1.
       -2   -1    0    0    0  501  0.00000000000E+00  0.00000000000E+00 -0.11123650694E+04  0.11123650694E+04  0.25500000920E-02 0.  1.
    10030    2    1    2    0    0  0.00000000000E+00  0.00000000000E+00 -0.60812485904E+03  0.16166052798E+04  0.14978640747E+04 0.  0.
        4    1    3    3  502    0  0.46777320992E+03 -0.58488097117E+03 -0.30432086025E+03  0.80839985480E+03  0.12699999809E+01 0.  1.
       -4    1    3    3    0  502 -0.46777320992E+03  0.58488097117E+03 -0.30380399880E+03  0.80820542497E+03  0.12699999809E+01 0. -1.
</event>
<event>
 5   0  0.7634227E-04  0.1503270E+04  0.7818609E-02  0.8882281E-01
       -2   -1    0    0    0  501  0.00000000000E+00  0.00000000000E+00  0.46473861126E+03  0.46473861127E+03  0.25500000920E-02 0. -1.
        2   -1    0    0  501    0  0.00000000000E+00  0.00000000000E+00 -0.12156408393E+04  0.12156408393E+04  0.25500000920E-02 0.  1.
    10030    2    1    2    0    0  0.00000000000E+00  0.00000000000E+00 -0.75090222802E+03  0.16803794506E+04  0.15032700828E+04 0.  0.
        2    1    3    3  502    0 -0.47357228858E+03  0.53393452621E+03 -0.11187765949E+03  0.72240805746E+03  0.25500000920E-02 0. -1.
       -2    1    3    3    0  502  0.47357228858E+03 -0.53393452621E+03 -0.63902456852E+03  0.95797139309E+03  0.25500000920E-02 0.  1.
</event>
<event>
 5   0  0.7672251E-04  0.1504676E+04  0.7818609E-02  0.8881349E-01
       -2   -1    0    0    0  501  0.00000000000E+00  0.00000000000E+00  0.49891738942E+03  0.49891738943E+03  0.25500000920E-02 0.  1.
        2   -1    0    0  501    0  0.00000000000E+00  0.00000000000E+00 -0.11344817867E+04  0.11344817867E+04  0.25500000920E-02 0. -1.
    10030    2    1    2    0    0  0.00000000000E+00  0.00000000000E+00 -0.63556439728E+03  0.16333991761E+04  0.15046762992E+04 0.  0.
        5    1    3    3  502    0  0.13092177855E+03 -0.48447965070E+03  0.29063804137E+03  0.57996000304E+03  0.46999998093E+01 0.  1.
       -5    1    3    3    0  502 -0.13092177855E+03  0.48447965070E+03 -0.92620243865E+03  0.10534391731E+04  0.46999998093E+01 0. -1.
</event>
<event>
 5   0  0.7672251E-04  0.1498270E+04  0.7818609E-02  0.8885604E-01
        2   -1    0    0  501    0  0.00000000000E+00  0.00000000000E+00  0.13317358768E+04  0.13317358768E+04  0.25500000920E-02 0. -1.
       -2   -1    0    0    0  501  0.00000000000E+00  0.00000000000E+00 -0.42140717057E+03  0.42140717058E+03  0.25500000920E-02 0.  1.
    10030    2    1    2    0    0  0.00000000000E+00  0.00000000000E+00  0.91032870620E+03  0.17531430474E+04  0.14982697324E+04 0.  0.
        5    1    3    3  502    0  0.49517179252E+03 -0.54228746729E+03  0.28196347581E+03  0.78663606132E+03  0.46999998093E+01 0.  1.
       -5    1    3    3    0  502 -0.49517179252E+03  0.54228746729E+03  0.62836523040E+03  0.96650698604E+03  0.46999998093E+01 0. -1.
</event>
<event>
 5   0  0.4015204E-04  0.1468154E+04  0.7818609E-02  0.8905911E-01
       -1   -1    0    0    0  501  0.00000000000E+00  0.00000000000E+00  0.87193048743E+03  0.87193048745E+03  0.50400001928E-02 0.  1.
        1   -1    0    0  501    0  0.00000000000E+00  0.00000000000E+00 -0.61801809652E+03  0.61801809654E+03  0.50400001928E-02 0. -1.
    10030    2    1    2    0    0  0.00000000000E+00  0.00000000000E+00  0.25391239091E+03  0.14899485840E+04  0.14681536979E+04 0.  0.
        2    1    3    3  502    0  0.43501557195E+03 -0.82785622620E+02  0.72111902174E+03  0.84622966781E+03  0.25500000920E-02 0.  1.
       -2    1    3    3    0  502 -0.43501557195E+03  0.82785622620E+02 -0.46720663083E+03  0.64371891618E+03  0.25500000920E-02 0. -1.
</event>
<event>
 5   0  0.4015204E-04  0.1496817E+04  0.7818609E-02  0.8886573E-01
       -1   -1    0    0    0  501  0.00000000000E+00  0.00000000000E+00  0.13948919869E+04  0.13948919869E+04  0.50400001928E-02 0. -1.
        1   -1    0    0  501    0  0.00000000000E+00  0.00000000000E+00 -0.40154719263E+03  0.40154719266E+03  0.50400001928E-02 0.  1.
    10030    2    1    2    0    0  0.00000000000E+00  0.00000000000E+00  0.99334479428E+03  0.17964391796E+04  0.14968165705E+04 0.  0.
        2    1    3    3  502    0  0.18378894151E+03 -0.68664995480E+03  0.21559493720E+03  0.74279722159E+03  0.25500000920E-02 0.  1.
       -2    1    3    3    0  502 -0.18378894151E+03  0.68664995480E+03  0.77774985708E+03  0.10536419580E+04  0.25500000920E-02 0. -1.
</event>
<event>
 5   0  0.2800375E-04  0.1516796E+04  0.7818609E-02  0.8873360E-01
        4   -1    0    0  501    0  0.00000000000E+00  0.00000000000E+00  0.64521179654E+03  0.64521304643E+03  0.12699999809E+01 0. -1.
       -4   -1    0    0    0  501  0.00000000000E+00  0.00000000000E+00 -0.89143779414E+03  0.89143869880E+03  0.12699999809E+01 0.  1.
    10030    2    1    2    0    0  0.00000000000E+00  0.00000000000E+00 -0.24622599760E+03  0.15366517452E+04  0.15167964083E+04 0.  0.
        5    1    3    3  502    0 -0.40895817857E+03 -0.41850641978E+03 -0.61187141451E+03  0.84664226985E+03  0.46999998093E+01 0.  1.
       -5    1    3    3    0  502  0.40895817857E+03  0.41850641978E+03  0.36564541690E+03  0.69000947538E+03  0.46999998093E+01 0. -1.
</event>
<event>
 5   0  0.3907345E-04  0.1500351E+04  0.7818609E-02  0.8884220E-01
        1   -1    0    0  501    0  0.00000000000E+00  0.00000000000E+00  0.15466666771E+04  0.15466666771E+04  0.50400001928E-02 0. -1.
       -1   -1    0    0    0  501  0.00000000000E+00  0.00000000000E+00 -0.36385559503E+03  0.36385559506E+03  0.50400001928E-02 0.  1.
    10030    2    1    2    0    0  0.00000000000E+00  0.00000000000E+00  0.11828110821E+04  0.19105222722E+04  0.15003510578E+04 0.  0.
        5    1    3    3  502    0  0.23487909249E+03 -0.71012822520E+03  0.66445547823E+03  0.10004866100E+04  0.46999998093E+01 0. -1.
       -5    1    3    3    0  502 -0.23487909249E+03  0.71012822520E+03  0.51835560385E+03  0.91003566213E+03  0.46999998093E+01 0.  1.
</event>
<event>
 5   0  0.7454828E-04  0.1506783E+04  0.7818609E-02  0.8879955E-01
       -2   -1    0    0    0  501  0.00000000000E+00  0.00000000000E+00  0.26672933709E+03  0.26672933710E+03  0.25500000920E-02 0. -1.
        2   -1    0    0  501    0  0.00000000000E+00  0.00000000000E+00 -0.21279947410E+04  0.21279947410E+04  0.25500000920E-02 0.  1.
    10030    2    1    2    0    0  0.00000000000E+00  0.00000000000E+00 -0.18612654039E+04  0.23947240781E+04  0.15067828332E+04 0.  0.
        3    1    3    3  502    0 -0.19733107577E+03 -0.27534947271E+03  0.13886052386E+03  0.36611356281E+03  0.10100000352E+00 0. -1.
       -3    1    3    3    0  502  0.19733107577E+03  0.27534947271E+03 -0.20001259277E+04  0.20286105153E+04  0.10100000352E+00 0.  1.
</event>
<event>
 5   0  0.4084462E-04  0.1564758E+04  0.7818609E-02  0.8842496E-01
       -1   -1    0    0    0  501  0.00000000000E+00  0.00000000000E+00  0.95288457191E+03  0.95288457192E+03  0.50400001928E-02 0.  1.
        1   -1    0    0  501    0  0.00000000000E+00  0.00000000000E+00 -0.64238270729E+03  0.64238270731E+03  0.50400001928E-02 0. -1.
    10030    2    1    2    0    0  0.00000000000E+00  0.00000000000E+00  0.31050186462E+03  0.15952672792E+04  0.15647575800E+04 0.  0.
        1    1    3    3  502    0  0.14871153015E+03 -0.38471135262E+03 -0.52254171531E+03  0.66570848597E+03  0.50400001928E-02 0. -1.
       -1    1    3    3    0  502 -0.14871153015E+03  0.38471135262E+03  0.83304357993E+03  0.92955879325E+03  0.50400001928E-02 0.  1.
</event>
<event>
 5   0  0.4015204E-04  0.1489952E+04  0.7818609E-02  0.8891162E-01
        1   -1    0    0  501    0  0.00000000000E+00  0.00000000000E+00  0.88431301251E+03  0.88431301253E+03  0.50400001928E-02 0. -1.
       -1   -1    0    0    0  501  0.00000000000E+00  0.00000000000E+00 -0.62759363248E+03  0.62759363250E+03  0.50400001928E-02 0.  1.
    10030    2    1    2    0    0  0.00000000000E+00  0.00000000000E+00  0.25671938003E+03  0.15119066450E+04  0.14899519667E+04 0.  0.
        2    1    3    3  502    0 -0.47765009406E+03 -0.81661221584E+02 -0.44581459335E+03  0.65845942860E+03  0.25500000920E-02 0.  1.
       -2    1    3    3    0  502  0.47765009406E+03  0.81661221584E+02  0.70253397338E+03  0.85344721643E+03  0.25500000920E-02 0. -1.
</event>
<event>
 5   0  0.3907345E-04  0.1483508E+04  0.7818609E-02  0.8895495E-01
        1   -1    0    0  501    0  0.00000000000E+00  0.00000000000E+00  0.47422109005E+03  0.47422109008E+03  0.50400001928E-02 0.  1.
       -1   -1    0    0    0  501  0.00000000000E+00  0.00000000000E+00 -0.11602163260E+04  0.11602163260E+04  0.50400001928E-02 0. -1.
    10030    2    1    2    0    0  0.00000000000E+00  0.00000000000E+00 -0.68599523593E+03  0.16344374161E+04  0.14835080732E+04 0.  0.
        5    1    3    3  502    0  0.32019203060E+03 -0.89163350599E+02 -0.10735620946E+04  0.11238463865E+04  0.46999998093E+01 0. -1.
       -5    1    3    3    0  502 -0.32019203060E+03  0.89163350599E+02  0.38756685865E+03  0.51059102957E+03  0.46999998093E+01 0.  1.
</event>
<event>
 5   0  0.7634227E-04  0.1513702E+04  0.7818609E-02  0.8875392E-01
       -2   -1    0    0    0  501  0.00000000000E+00  0.00000000000E+00  0.53139355667E+03  0.53139355668E+03  0.25500000920E-02 0.  1.
        2   -1    0    0  501    0  0.00000000000E+00  0.00000000000E+00 -0.10779639799E+04  0.10779639799E+04  0.25500000920E-02 0. -1.
    10030    2    1    2    0    0  0.00000000000E+00  0.00000000000E+00 -0.54657042319E+03  0.16093575365E+04  0.15137015733E+04 0.  0.
        2    1    3    3  502    0 -0.93304967228E+02 -0.63469101450E+03 -0.70026640161E+03  0.94969023056E+03  0.25500000920E-02 0. -1.
       -2    1    3    3    0  502  0.93304967228E+02  0.63469101450E+03  0.15369597842E+03  0.65966730598E+03  0.25500000920E-02 0.  1.
</event>
<event>
 5   0  0.7547580E-04  0.1537626E+04  0.7818609E-02  0.8859810E-01
       -2   -1    0    0    0  501  0.00000000000E+00  0.00000000000E+00  0.38130165457E+03  0.38130165458E+03  0.25500000920E-02 0. -1.
        2   -1    0    0  501    0  0.00000000000E+00  0.00000000000E+00 -0.15501468114E+04  0.15501468114E+04  0.25500000920E-02 0.  1.
    10030    2    1    2    0    0  0.00000000000E+00  0.00000000000E+00 -0.11688451569E+04  0.19314484660E+04  0.15376261497E+04 0.  0.
        4    1    3    3  502    0 -0.30282608320E+03  0.70461344624E+02 -0.14676511999E+04  0.15002233485E+04  0.12699999809E+01 0.  1.
       -4    1    3    3    0  502  0.30282608320E+03 -0.70461344624E+02  0.29880604305E+03  0.43122511756E+03  0.12699999809E+01 0. -1.
</event>
<event>
 5   0  0.4086710E-04  0.1503909E+04  0.7818609E-02  0.8881857E-01
        1   -1    0    0  501    0  0.00000000000E+00  0.00000000000E+00  0.99993785996E+03  0.99993785997E+03  0.50400001928E-02 0.  1.
       -1   -1    0    0    0  501  0.00000000000E+00  0.00000000000E+00 -0.56547108105E+03  0.56547108107E+03  0.50400001928E-02 0. -1.
    10030    2    1    2    0    0  0.00000000000E+00  0.00000000000E+00  0.43446677891E+03  0.15654089410E+04  0.15039094955E+04 0.  0.
        3    1    3    3  502    0 -0.29387380130E+03 -0.42758943940E+03  0.78377130324E+03  0.93994255450E+03  0.10100000352E+00 0.  1.
       -3    1    3    3    0  502  0.29387380130E+03  0.42758943940E+03 -0.34930452432E+03  0.62546638654E+03  0.10100000352E+00 0. -1.
</event>
<event>
 5   0  0.7634227E-04  0.1517769E+04  0.7818609E-02  0.8872722E-01
        2   -1    0    0  501    0  0.00000000000E+00  0.00000000000E+00  0.18196550888E+04  0.18196550888E+04  0.25500000920E-02 0.  1.
       -2   -1    0    0    0  501  0.00000000000E+00  0.00000000000E+00 -0.31649183968E+03  0.31649183969E+03  0.25500000920E-02 0. -1.
    10030    2    1    2    0    0  0.00000000000E+00  0.00000000000E+00  0.15031632492E+04  0.21361469285E+04  0.15177693984E+04 0.  0.
        2    1    3    3  502    0 -0.53924239629E+03 -0.19782769152E+03  0.14496245642E+04  0.15592721169E+04  0.25500000920E-02 0.  1.
       -2    1    3    3    0  502  0.53924239629E+03  0.19782769152E+03  0.53538684977E+02  0.57687481163E+03  0.25500000920E-02 0. -1.
</event>
<event>
 5   0  0.3907345E-04  0.1495845E+04  0.7818609E-02  0.8887220E-01
       -1   -1    0    0    0  501  0.00000000000E+00  0.00000000000E+00  0.50635648583E+03  0.50635648585E+03  0.50400001928E-02 0.  1.
        1   -1    0    0  501    0  0.00000000000E+00  0.00000000000E+00 -0.11047322929E+04  0.11047322929E+04  0.50400001928E-02 0. -1.
    10030    2    1    2    0    0  0.00000000000E+00  0.00000000000E+00 -0.59837580707E+03  0.16110887788E+04  0.14958453953E+04 0.  0.
        5    1    3    3  502    0 -0.65543489361E+03  0.33641159586E+03 -0.43794928823E+03  0.85708186928E+03  0.46999998093E+01 0.  1.
       -5    1    3    3    0  502  0.65543489361E+03 -0.33641159586E+03 -0.16042651884E+03  0.75400690948E+03  0.46999998093E+01 0. -1.
</event>
<event>
 5   0  0.2800375E-04  0.1447891E+04  0.7818609E-02  0.8919864E-01
       -3   -1    0    0    0  501  0.00000000000E+00  0.00000000000E+00  0.85050048739E+03  0.85050049339E+03  0.10100000352E+00 0. -1.
        3   -1    0    0  501    0  0.00000000000E+00  0.00000000000E+00 -0.61622234398E+03  0.61622235226E+03  0.10100000352E+00 0.  1.
    10030    2    1    2    0    0  0.00000000000E+00  0.00000000000E+00  0.23427814341E+03  0.14667228456E+04  0.14478914522E+04 0.  0.
        3    1    3    3  502    0 -0.52597332157E+03 -0.44565458888E+03 -0.10673631858E+03  0.69760203519E+03  0.10100000352E+00 0.  1.
       -3    1    3    3    0  502  0.52597332157E+03  0.44565458888E+03  0.34101446199E+03  0.76912081046E+03  0.10100000352E+00 0. -1.
</event>
<event>
 5   0  0.4058874E-04  0.1494983E+04  0.7818609E-02  0.8887796E-01
       -1   -1    0    0    0  501  0.00000000000E+00  0.00000000000E+00  0.51395802708E+03  0.51395802711E+03  0.50400001928E-02 0. -1.
        1   -1    0    0  501    0  0.00000000000E+00  0.00000000000E+00 -0.10871381146E+04  0.10871381146E+04  0.50400001928E-02 0.  1.
    10030    2    1    2    0    0  0.00000000000E+00  0.00000000000E+00 -0.57318008754E+03  0.16010961417E+04  0.14949827565E+04 0.  0.
        4    1    3    3  502    0 -0.22922758932E+03 -0.55650743634E+03  0.18815234511E+03  0.63059395199E+03  0.12699999809E+01 0. -1.
       -4    1    3    3    0  502  0.22922758932E+03  0.55650743634E+03 -0.76133243266E+03  0.97050218976E+03  0.12699999809E+01 0.  1.
</event>
<event>
 5   0  0.4015204E-04  0.1503936E+04  0.7818609E-02  0.8881840E-01
        1   -1    0    0  501    0  0.00000000000E+00  0.00000000000E+00  0.61008434688E+03  0.61008434690E+03  0.50400001928E-02 0.  1.
       -1   -1    0    0    0  501  0.00000000000E+00  0.00000000000E+00 -0.92684848136E+03  0.92684848138E+03  0.50400001928E-02 0. -1.
    10030    2    1    2    0    0  0.00000000000E+00  0.00000000000E+00 -0.31676413449E+03  0.15369328283E+04  0.15039358370E+04 0.  0.
        2    1    3    3  502    0 -0.68437352509E+02 -0.74514793758E+03 -0.82409677587E+02  0.75280839199E+03  0.25500000920E-02 0. -1.
       -2    1    3    3    0  502  0.68437352509E+02  0.74514793758E+03 -0.23435445690E+03  0.78412443628E+03  0.25500000920E-02 0.  1.
</event>
<event>
 5   0  0.3907345E-04  0.1502316E+04  0.7818609E-02  0.8882914E-01
       -1   -1    0    0    0  501  0.00000000000E+00  0.00000000000E+00  0.85929278225E+03  0.85929278227E+03  0.50400001928E-02 0.  1.
        1   -1    0    0  501    0  0.00000000000E+00  0.00000000000E+00 -0.65663109369E+03  0.65663109371E+03  0.50400001928E-02 0. -1.
    10030    2    1    2    0    0  0.00000000000E+00  0.00000000000E+00  0.20266168856E+03  0.15159238760E+04  0.15023160246E+04 0.  0.
        5    1    3    3  502    0 -0.11399924364E+03  0.99484045094E+02 -0.64108029684E+03  0.65871005744E+03  0.46999998093E+01 0. -1.
       -5    1    3    3    0  502  0.11399924364E+03 -0.99484045094E+02  0.84374198540E+03  0.85721381854E+03  0.46999998093E+01 0.  1.
</event>
<event>
 5   0  0.4084462E-04  0.1519016E+04  0.7818609E-02  0.8871905E-01
       -1   -1    0    0    0  501  0.00000000000E+00  0.00000000000E+00  0.71626292350E+03  0.71626292352E+03  0.50400001928E-02 0. -1.
        1   -1    0    0  501    0  0.00000000000E+00  0.00000000000E+00 -0.80536357154E+03  0.80536357156E+03  0.50400001928E-02 0.  1.
    10030    2    1    2    0    0  0.00000000000E+00  0.00000000000E+00 -0.89100648042E+02  0.15216264951E+04  0.15190155579E+04 0.  0.
        1    1    3    3  502    0  0.35628058213E+03 -0.24628108726E+03  0.58043059002E+03  0.72421674725E+03  0.50400001928E-02 0. -1.
       -1    1    3    3    0  502 -0.35628058213E+03  0.24628108726E+03 -0.66953123806E+03  0.79740974782E+03  0.50400001928E-02 0.  1.
</event>
<event>
 5   0  0.7454828E-04  0.1470979E+04  0.7818609E-02  0.8903984E-01
       -2   -1    0    0    0  501  0.00000000000E+00  0.00000000000E+00  0.30084761354E+03  0.30084761355E+03  0.25500000920E-02 0.  1.
        2   -1    0    0  501    0  0.00000000000E+00  0.00000000000E+00 -0.17980699897E+04  0.17980699897E+04  0.25500000920E-02 0. -1.
    10030    2    1    2    0    0  0.00000000000E+00  0.00000000000E+00 -0.14972223761E+04  0.20989176032E+04  0.14709793546E+04 0.  0.
        3    1    3    3  502    0 -0.66341324760E+03 -0.18148783625E+03 -0.37682608552E+03  0.78425307187E+03  0.10100000352E+00 0. -1.
       -3    1    3    3    0  502  0.66341324760E+03  0.18148783625E+03 -0.11203962906E+04  0.13146645314E+04  0.10100000352E+00 0.  1.
</event>
<event>
 5   0  0.7454828E-04  0.1477829E+04  0.7818609E-02  0.8899332E-01
       -2   -1    0    0    0  501  0.00000000000E+00  0.00000000000E+00  0.24132761775E+03  0.24132761776E+03  0.25500000920E-02 0.  1.
        2   -1    0    0  501    0  0.00000000000E+00  0.00000000000E+00 -0.22624616696E+04  0.22624616696E+04  0.25500000920E-02 0. -1.
    10030    2    1    2    0    0  0.00000000000E+00  0.00000000000E+00 -0.20211340519E+04  0.25037892874E+04  0.14778287925E+04 0.  0.
        3    1    3    3  502    0 -0.65848028812E+03 -0.24648881766E+03 -0.62555627425E+03  0.94110237994E+03  0.10100000352E+00 0.  1.
       -3    1    3    3    0  502  0.65848028812E+03  0.24648881766E+03 -0.13955777776E+04  0.15626869074E+04  0.10100000352E+00 0. -1.
</event>
<event>
 5   0  0.3907345E-04  0.1498568E+04  0.7818609E-02  0.8885406E-01
       -1   -1    0    0    0  501  0.00000000000E+00  0.00000000000E+00  0.63324126370E+03  0.63324126372E+03  0.50400001928E-02 0.  1.
        1   -1    0    0  501    0  0.00000000000E+00  0.00000000000E+00 -0.88659217150E+03  0.88659217152E+03  0.50400001928E-02 0. -1.
    10030    2    1    2    0    0  0.00000000000E+00  0.00000000000E+00 -0.25335090780E+03  0.15198334352E+04  0.14985683129E+04 0.  0.
        5    1    3    3  502    0 -0.68085335941E+03  0.31105100866E+03 -0.16016877301E+03  0.76549993654E+03  0.46999998093E+01 0. -1.
       -5    1    3    3    0  502  0.68085335941E+03 -0.31105100866E+03 -0.93182134792E+02  0.75433349869E+03  0.46999998093E+01 0.  1.
</event>
<event>
 5   0  0.4086710E-04  0.1500638E+04  0.7818609E-02  0.8884029E-01
        1   -1    0    0  501    0  0.00000000000E+00  0.00000000000E+00  0.69874780282E+03  0.69874780284E+03  0.50400001928E-02 0.  1.
       -1   -1    0    0    0  501  0.00000000000E+00  0.00000000000E+00 -0.80569619885E+03  0.80569619886E+03  0.50400001928E-02 0. -1.
    10030    2    1    2    0    0  0.00000000000E+00  0.00000000000E+00 -0.10694839602E+03  0.15044440017E+04  0.15006377960E+04 0.  0.
        3    1    3    3  502    0  0.49106240540E+02  0.59200058936E+03  0.40605759977E+03  0.71955465754E+03  0.10100000352E+00 0.  1.
       -3    1    3    3    0  502 -0.49106240540E+02 -0.59200058936E+03 -0.51300599579E+03  0.78488934416E+03  0.10100000352E+00 0. -1.
</event>
<event>
 5   0  0.4086710E-04  0.1496031E+04  0.7818609E-02  0.8887096E-01
       -1   -1    0    0    0  501  0.00000000000E+00  0.00000000000E+00  0.38671442636E+03  0.38671442639E+03  0.50400001928E-02 0. -1.
        1   -1    0    0  501    0  0.00000000000E+00  0.00000000000E+00 -0.14468749797E+04  0.14468749797E+04  0.50400001928E-02 0.  1.
    10030    2    1    2    0    0  0.00000000000E+00  0.00000000000E+00 -0.10601605533E+04  0.18335894061E+04  0.14960313203E+04 0.  0.
        3    1    3    3  502    0  0.29609430144E+03 -0.52401843544E+03  0.14273458950E+02  0.60205556044E+03  0.10100000352E+00 0. -1.
       -3    1    3    3    0  502 -0.29609430144E+03  0.52401843544E+03 -0.10744340123E+04  0.12315338457E+04  0.10100000352E+00 0.  1.
</event>
<event>
 5   0  0.7634227E-04  0.1495322E+04  0.7818609E-02  0.8887570E-01
       -2   -1    0    0    0  501  0.00000000000E+00  0.00000000000E+00  0.86941118006E+03  0.86941118007E+03  0.25500000920E-02 0. -1.
        2   -1    0    0  501    0  0.00000000000E+00  0.00000000000E+00 -0.64296058772E+03  0.64296058772E+03  0.25500000920E-02 0.  1.
    10030    2    1    2    0    0  0.00000000000E+00  0.00000000000E+00  0.22645059235E+03  0.15123717678E+04  0.14953222038E+04 0.  0.
        2    1    3    3  502    0 -0.37616716032E+03 -0.61027256445E+03  0.32792567349E+03  0.78833342107E+03  0.25500000920E-02 0. -1.
       -2    1    3    3    0  502  0.37616716032E+03  0.61027256445E+03 -0.10147508115E+03  0.72403834672E+03  0.25500000920E-02 0.  1.
</event>
<event>
 5   0  0.7634227E-04  0.1478633E+04  0.7818609E-02  0.8898787E-01
        2   -1    0    0  501    0  0.00000000000E+00  0.00000000000E+00  0.12270996721E+04  0.12270996721E+04  0.25500000920E-02 0.  1.
       -2   -1    0    0    0  501  0.00000000000E+00  0.00000000000E+00 -0.44543162712E+03  0.44543162713E+03  0.25500000920E-02 0. -1.
    10030    2    1    2    0    0  0.00000000000E+00  0.00000000000E+00  0.78166804501E+03  0.16725312993E+04  0.14786331575E+04 0.  0.
        2    1    3    3  502    0 -0.51656319251E+03 -0.12664016936E+02 -0.20726828789E+03  0.55673876491E+03  0.25500000920E-02 0. -1.
       -2    1    3    3    0  502  0.51656319251E+03  0.12664016936E+02  0.98893633291E+03  0.11157925344E+04  0.25500000920E-02 0.  1.
</event>
<event>
 5   0  0.4058874E-04  0.1520261E+04  0.7818609E-02  0.8871090E-01
        1   -1    0    0  501    0  0.00000000000E+00  0.00000000000E+00  0.49475902855E+03  0.49475902858E+03  0.50400001928E-02 0. -1.
       -1   -1    0    0    0  501  0.00000000000E+00  0.00000000000E+00 -0.11678376289E+04  0.11678376289E+04  0.50400001928E-02 0.  1.
    10030    2    1    2    0    0  0.00000000000E+00  0.00000000000E+00 -0.67307860030E+03  0.16625966574E+04  0.15202607813E+04 0.  0.
        4    1    3    3  502    0 -0.24330604892E+03  0.30488498282E+03  0.37695749039E+03  0.54244930515E+03  0.12699999809E+01 0. -1.
       -4    1    3    3    0  502  0.24330604892E+03 -0.30488498282E+03 -0.10500360907E+04  0.11201473523E+04  0.12699999809E+01 0.  1.
</event>
<event>
 5   0  0.7359897E-04  0.1502185E+04  0.7818609E-02  0.8883001E-01
       -2   -1    0    0    0  501  0.00000000000E+00  0.00000000000E+00  0.24616467403E+03  0.24616467404E+03  0.25500000920E-02 0. -1.
        2   -1    0    0  501    0  0.00000000000E+00  0.00000000000E+00 -0.22917184850E+04  0.22917184850E+04  0.25500000920E-02 0.  1.
    10030    2    1    2    0    0  0.00000000000E+00  0.00000000000E+00 -0.20455538109E+04  0.25378831590E+04  0.15021852533E+04 0.  0.
        1    1    3    3  502    0  0.40999136791E+03  0.46893330304E+03 -0.17318449871E+04  0.18404560369E+04  0.50400001928E-02 0.  1.
       -1    1    3    3    0  502 -0.40999136791E+03 -0.46893330304E+03 -0.31370882383E+03  0.69742712209E+03  0.50400001928E-02 0. -1.
</event>
<event>
 5   0  0.2800375E-04  0.1508972E+04  0.7818609E-02  0.8878508E-01
        3   -1    0    0  501    0  0.00000000000E+00  0.00000000000E+00  0.15549676124E+04  0.15549676157E+04  0.10100000352E+00 0.  1.
       -3   -1    0    0    0  501  0.00000000000E+00  0.00000000000E+00 -0.36608443684E+03  0.36608445077E+03  0.10100000352E+00 0. -1.
    10030    2    1    2    0    0  0.00000000000E+00  0.00000000000E+00  0.11888831756E+04  0.19210520664E+04  0.15089724440E+04 0.  0.
        3    1    3    3  502    0 -0.69602288975E+03 -0.17567515131E+03  0.89011522380E+03  0.11435098354E+04  0.10100000352E+00 0.  1.
       -3    1    3    3    0  502  0.69602288975E+03  0.17567515131E+03  0.29876795176E+03  0.77754223104E+03  0.10100000352E+00 0. -1.
</event>
<event>
 5   0  0.7672251E-04  0.1490788E+04  0.7818609E-02  0.8890602E-01
       -2   -1    0    0    0  501  0.00000000000E+00  0.00000000000E+00  0.52062515802E+03  0.52062515802E+03  0.25500000920E-02 0.  1.
        2   -1    0    0  501    0  0.00000000000E+00  0.00000000000E+00 -0.10672019465E+04  0.10672019466E+04  0.25500000920E-02 0. -1.
    10030    2    1    2    0    0  0.00000000000E+00  0.00000000000E+00 -0.54657678853E+03  0.15878271046E+04  0.14907879555E+04 0.  0.
        5    1    3    3  502    0  0.46053209653E+03  0.36741387487E+03  0.21306056835E+03  0.62649793548E+03  0.46999998093E+01 0.  1.
       -5    1    3    3    0  502 -0.46053209653E+03 -0.36741387487E+03 -0.75963735688E+03  0.96132916909E+03  0.46999998093E+01 0. -1.
</event>
<event>
 5   0  0.7672251E-04  0.1490773E+04  0.7818609E-02  0.8890612E-01
        2   -1    0    0  501    0  0.00000000000E+00  0.00000000000E+00  0.50520821238E+03  0.50520821239E+03  0.25500000920E-02 0. -1.
       -2   -1    0    0    0  501  0.00000000000E+00  0.00000000000E+00 -0.10997468019E+04  0.10997468019E+04  0.25500000920E-02 0.  1.
    10030    2    1    2    0    0  0.00000000000E+00  0.00000000000E+00 -0.59453858953E+03  0.16049550143E+04  0.14907731093E+04 0.  0.
        5    1    3    3  502    0 -0.39309948829E+03  0.53455443821E+03  0.68302192375E+02  0.66705542093E+03  0.46999998093E+01 0. -1.
       -5    1    3    3    0  502  0.39309948829E+03 -0.53455443821E+03 -0.66284078190E+03  0.93789959338E+03  0.46999998093E+01 0.  1.
</event>
<event>
 5   0  0.7634227E-04  0.1563522E+04  0.7818609E-02  0.8843276E-01
       -2   -1    0    0    0  501  0.00000000000E+00  0.00000000000E+00  0.58350930017E+03  0.58350930017E+03  0.25500000920E-02 0.  1.
        2   -1    0    0  501    0  0.00000000000E+00  0.00000000000E+00 -0.10473706582E+04  0.10473706582E+04  0.25500000920E-02 0. -1.
    10030    2    1    2    0    0  0.00000000000E+00  0.00000000000E+00 -0.46386135805E+03  0.16308799584E+04  0.15635223309E+04 0.  0.
        2    1    3    3  502    0  0.70940421128E+03  0.11672896649E+03  0.88331673225E+02  0.72434968841E+03  0.25500000920E-02 0.  1.
       -2    1    3    3    0  502 -0.70940421128E+03 -0.11672896649E+03 -0.55219303127E+03  0.90653026998E+03  0.25500000920E-02 0. -1.
</event>
<event>
 5   0  0.3907345E-04  0.1514842E+04  0.7818609E-02  0.8874642E-01
       -1   -1    0    0    0  501  0.00000000000E+00  0.00000000000E+00  0.76498210879E+03  0.76498210880E+03  0.50400001928E-02 0.  1.
        1   -1    0    0  501    0  0.00000000000E+00  0.00000000000E+00 -0.74993507965E+03  0.74993507967E+03  0.50400001928E-02 0. -1.
    10030    2    1    2    0    0  0.00000000000E+00  0.00000000000E+00  0.15047029137E+02  0.15149171885E+04  0.15148424588E+04 0.  0.
        5    1    3    3  502    0  0.12062569628E+03 -0.33728547211E+03 -0.65985697772E+03  0.75082978720E+03  0.46999998093E+01 0. -1.
       -5    1    3    3    0  502 -0.12062569628E+03  0.33728547211E+03  0.67490400686E+03  0.76408740127E+03  0.46999998093E+01 0.  1.
</event>
<event>
 5   0  0.7454828E-04  0.1418032E+04  0.7818609E-02  0.8940868E-01
       -2   -1    0    0    0  501  0.00000000000E+00  0.00000000000E+00  0.45997578302E+03  0.45997578303E+03  0.25500000920E-02 0. -1.
        2   -1    0    0  501    0  0.00000000000E+00  0.00000000000E+00 -0.10928923920E+04  0.10928923920E+04  0.25500000920E-02 0.  1.
    10030    2    1    2    0    0  0.00000000000E+00  0.00000000000E+00 -0.63291660900E+03  0.15528681750E+04  0.14180324873E+04 0.  0.
        3    1    3    3  502    0 -0.68666401975E+03  0.14116739390E+03 -0.43270426972E+03  0.82381351309E+03  0.10100000352E+00 0. -1.
       -3    1    3    3    0  502  0.68666401975E+03 -0.14116739390E+03 -0.20021233928E+03  0.72905466196E+03  0.10100000352E+00 0.  1.
</event>
<event>
 5   0  0.4086710E-04  0.1462360E+04  0.7818609E-02  0.8909876E-01
       -1   -1    0    0    0  501  0.00000000000E+00  0.00000000000E+00  0.35719297337E+03  0.35719297340E+03  0.50400001928E-02 0. -1.
        1   -1    0    0  501    0  0.00000000000E+00  0.00000000000E+00 -0.14967370849E+04  0.14967370849E+04  0.50400001928E-02 0.  1.
    10030    2    1    2    0    0  0.00000000000E+00  0.00000000000E+00 -0.11395441115E+04  0.18539300583E+04  0.14623596955E+04 0.  0.
        3    1    3    3  502    0  0.27297515224E+03  0.86228129682E+02  0.28319360161E+03  0.40267772509E+03  0.10100000352E+00 0. -1.
       -3    1    3    3    0  502 -0.27297515224E+03 -0.86228129682E+02 -0.14227377131E+04  0.14512523332E+04  0.10100000352E+00 0.  1.
</event>
<event>
 5   0  0.7547580E-04  0.1502368E+04  0.7818609E-02  0.8882880E-01
       -2   -1    0    0    0  501  0.00000000000E+00  0.00000000000E+00  0.77690410951E+03  0.77690410952E+03  0.25500000920E-02 0. -1.
        2   -1    0    0  501    0  0.00000000000E+00  0.00000000000E+00 -0.72631559770E+03  0.72631559770E+03  0.25500000920E-02 0.  1.
    10030    2    1    2    0    0  0.00000000000E+00  0.00000000000E+00  0.50588511815E+02  0.15032197072E+04  0.15023682274E+04 0.  0.
        4    1    3    3  502    0  0.67832504229E+03  0.21146901659E+03 -0.21863060545E+03  0.74340094332E+03  0.12699999809E+01 0.  1.
       -4    1    3    3    0  502 -0.67832504229E+03 -0.21146901659E+03  0.26921911727E+03  0.75981876391E+03  0.12699999809E+01 0. -1.
</event>
<event>
 5   0  0.4015204E-04  0.1536328E+04  0.7818609E-02  0.8860648E-01
        1   -1    0    0  501    0  0.00000000000E+00  0.00000000000E+00  0.11904345386E+04  0.11904345386E+04  0.50400001928E-02 0.  1.
       -1   -1    0    0    0  501  0.00000000000E+00  0.00000000000E+00 -0.49568109563E+03  0.49568109565E+03  0.50400001928E-02 0. -1.
    10030    2    1    2    0    0  0.00000000000E+00  0.00000000000E+00  0.69475344298E+03  0.16861156343E+04  0.15363279551E+04 0.  0.
        2    1    3    3  502    0 -0.24228321083E+03  0.60218499377E+03  0.79821699832E+03  0.10288237446E+04  0.25500000920E-02 0.  1.
       -2    1    3    3    0  502  0.24228321083E+03 -0.60218499377E+03 -0.10346355534E+03  0.65729188970E+03  0.25500000920E-02 0. -1.
</event>
<event>
 5   0  0.4084462E-04  0.1459023E+04  0.7818609E-02  0.8912169E-01
        1   -1    0    0  501    0  0.00000000000E+00  0.00000000000E+00  0.62756076985E+03  0.62756076987E+03  0.50400001928E-02 0.  1.
       -1   -1    0    0    0  501  0.00000000000E+00  0.00000000000E+00 -0.84802442602E+03  0.84802442603E+03  0.50400001928E-02 0. -1.
    10030    2    1    2    0    0  0.00000000000E+00  0.00000000000E+00 -0.22046365617E+03  0.14755851959E+04  0.14590227711E+04 0.  0.
        1    1    3    3  502    0  0.42935929420E+02 -0.12339274619E+03 -0.83609608742E+03  0.84624224148E+03  0.50400001928E-02 0. -1.
       -1    1    3    3    0  502 -0.42935929420E+02  0.12339274619E+03  0.61563243125E+03  0.62934295442E+03  0.50400001928E-02 0.  1.
</event>
<event>
 5   0  0.7672251E-04  0.1494173E+04  0.7818609E-02  0.8888337E-01
       -2   -1    0    0    0  501  0.00000000000E+00  0.00000000000E+00  0.14544591219E+04  0.14544591219E+04  0.25500000920E-02 0. -1.
        2   -1    0    0  501    0  0.00000000000E+00  0.00000000000E+00 -0.38374277904E+03  0.38374277905E+03  0.25500000920E-02 0.  1.
    10030    2    1    2    0    0  0.00000000000E+00  0.00000000000E+00  0.10707163429E+04  0.18382019010E+04  0.14941729290E+04 0.  0.
        5    1    3    3  502    0  0.58276996973E+03  0.46742067320E+03  0.53089318618E+03  0.91650018467E+03  0.46999998093E+01 0. -1.
       -5    1    3    3    0  502 -0.58276996973E+03 -0.46742067320E+03  0.53982315671E+03  0.92170171633E+03  0.46999998093E+01 0.  1.
</event>
<event>
 5   0  0.3907345E-04  0.1510680E+04  0.7818609E-02  0.8877382E-01
       -1   -1    0    0    0  501  0.00000000000E+00  0.00000000000E+00  0.53776426709E+03  0.53776426711E+03  0.50400001928E-02 0. -1.
        1   -1    0    0  501    0  0.00000000000E+00  0.00000000000E+00 -0.10609447380E+04  0.10609447380E+04  0.50400001928E-02 0.  1.
    10030    2    1    2    0    0  0.00000000000E+00  0.00000000000E+00 -0.52318047095E+03  0.15987090052E+04  0.15106795418E+04 0.  0.
        5    1    3    3  502    0  0.23898663188E+02  0.41697031661E+03  0.40443227442E+03  0.58139740766E+03  0.46999998093E+01 0. -1.
       -5    1    3    3    0  502 -0.23898663188E+02 -0.41697031661E+03 -0.92761274537E+03  0.10173115975E+04  0.46999998093E+01 0.  1.
</event>
<event>
 5   0  0.7454828E-04  0.1507964E+04  0.7818609E-02  0.8879174E-01
       -2   -1    0    0    0  501  0.00000000000E+00  0.00000000000E+00  0.51297837261E+03  0.51297837262E+03  0.25500000920E-02 0. -1.
        2   -1    0    0  501    0  0.00000000000E+00  0.00000000000E+00 -0.11082115193E+04  0.11082115193E+04  0.25500000920E-02 0.  1.
    10030    2    1    2    0    0  0.00000000000E+00  0.00000000000E+00 -0.59523314673E+03  0.16211898920E+04  0.15079635827E+04 0.  0.
        3    1    3    3  502    0 -0.26204729958E+03 -0.53133183680E+03 -0.79901027915E+03  0.99468575158E+03  0.10100000352E+00 0.  1.
       -3    1    3    3    0  502  0.26204729958E+03  0.53133183680E+03  0.20377713242E+03  0.62650414038E+03  0.10100000352E+00 0. -1.
</event>
<event>
 5   0  0.7359897E-04  0.1654800E+04  0.7818609E-02  0.8787572E-01
        2   -1    0    0  501    0  0.00000000000E+00  0.00000000000E+00  0.19220853567E+04  0.19220853567E+04  0.25500000920E-02 0. -1.
       -2   -1    0    0    0  501  0.00000000000E+00  0.00000000000E+00 -0.35617063387E+03  0.35617063388E+03  0.25500000920E-02 0.  1.
    10030    2    1    2    0    0  0.00000000000E+00  0.00000000000E+00  0.15659147228E+04  0.22782559906E+04  0.16547995164E+04 0.  0.
        1    1    3    3  502    0  0.61405579145E+03 -0.55381059951E+03  0.82237360647E+03  0.11662199809E+04  0.50400001928E-02 0.  1.
       -1    1    3    3    0  502 -0.61405579145E+03  0.55381059951E+03  0.74354111637E+03  0.11120360097E+04  0.50400001928E-02 0. -1.
</event>
<event>
 5   0  0.4015204E-04  0.1489678E+04  0.7818609E-02  0.8891346E-01
        1   -1    0    0  501    0  0.00000000000E+00  0.00000000000E+00  0.17852790533E+04  0.17852790533E+04  0.50400001928E-02 0. -1.
       -1   -1    0    0    0  501  0.00000000000E+00  0.00000000000E+00 -0.31075545013E+03  0.31075545017E+03  0.50400001928E-02 0.  1.
    10030    2    1    2    0    0  0.00000000000E+00  0.00000000000E+00  0.14745236031E+04  0.20960345034E+04  0.14896780805E+04 0.  0.
        2    1    3    3  502    0 -0.20977043585E+03  0.56775276688E+03  0.12647358073E+03  0.61833842407E+03  0.25500000920E-02 0.  1.
       -2    1    3    3    0  502  0.20977043585E+03 -0.56775276688E+03  0.13480500224E+04  0.14776960794E+04  0.25500000920E-02 0. -1.
</event>
<event>
 5   0  0.4015204E-04  0.1505593E+04  0.7818609E-02  0.8880742E-01
       -1   -1    0    0    0  501  0.00000000000E+00  0.00000000000E+00  0.72901040908E+03  0.72901040910E+03  0.50400001928E-02 0.  1.
        1   -1    0    0  501    0  0.00000000000E+00  0.00000000000E+00 -0.77735901248E+03  0.77735901249E+03  0.50400001928E-02 0. -1.
    10030    2    1    2    0    0  0.00000000000E+00  0.00000000000E+00 -0.48348603393E+02  0.15063694216E+04  0.15055933205E+04 0.  0.
        2    1    3    3  502    0 -0.46090923161E+03 -0.37827003337E+01  0.57132254548E+03  0.73407157661E+03  0.25500000920E-02 0.  1.
       -2    1    3    3    0  502  0.46090923161E+03  0.37827003337E+01 -0.61967114887E+03  0.77229784498E+03  0.25500000920E-02 0. -1.
</event>
<event>
 5   0  0.7454828E-04  0.1489315E+04  0.7818609E-02  0.8891590E-01
        2   -1    0    0  501    0  0.00000000000E+00  0.00000000000E+00  0.70234213915E+03  0.70234213916E+03  0.25500000920E-02 0. -1.
       -2   -1    0    0    0  501  0.00000000000E+00  0.00000000000E+00 -0.78952186737E+03  0.78952186737E+03  0.25500000920E-02 0.  1.
    10030    2    1    2    0    0  0.00000000000E+00  0.00000000000E+00 -0.87179728215E+02  0.14918640065E+04  0.14893145769E+04 0.  0.
        3    1    3    3  502    0 -0.57393061420E+03  0.42952848279E+03 -0.24548735803E+03  0.75773024263E+03  0.10100000352E+00 0.  1.
       -3    1    3    3    0  502  0.57393061420E+03 -0.42952848279E+03  0.15830762982E+03  0.73413376390E+03  0.10100000352E+00 0. -1.
</event>
<event>
 5   0  0.7454828E-04  0.1512756E+04  0.7818609E-02  0.8876014E-01
        2   -1    0    0  501    0  0.00000000000E+00  0.00000000000E+00  0.50108732479E+03  0.50108732480E+03  0.25500000920E-02 0.  1.
       -2   -1    0    0    0  501  0.00000000000E+00  0.00000000000E+00 -0.11417325888E+04  0.11417325888E+04  0.25500000920E-02 0. -1.
    10030    2    1    2    0    0  0.00000000000E+00  0.00000000000E+00 -0.64064526403E+03  0.16428199136E+04  0.15127560657E+04 0.  0.
        3    1    3    3  502    0  0.18386985257E+03  0.68700858374E+03 -0.40656812678E+02  0.71234956548E+03  0.10100000352E+00 0.  1.
       -3    1    3    3    0  502 -0.18386985257E+03 -0.68700858374E+03 -0.59998845135E+03  0.93047034814E+03  0.10100000352E+00 0. -1.
</event>
<event>
 5   0  0.4058874E-04  0.1499893E+04  0.7818609E-02  0.8884524E-01
       -1   -1    0    0    0  501  0.00000000000E+00  0.00000000000E+00  0.63103883234E+03  0.63103883236E+03  0.50400001928E-02 0.  1.
        1   -1    0    0  501    0  0.00000000000E+00  0.00000000000E+00 -0.89126039094E+03  0.89126039095E+03  0.50400001928E-02 0. -1.
    10030    2    1    2    0    0  0.00000000000E+00  0.00000000000E+00 -0.26022155859E+03  0.15222992233E+04  0.14998932181E+04 0.  0.
        4    1    3    3  502    0  0.69014000095E+03  0.89976137999E+02  0.15339946400E+03  0.71268642107E+03  0.12699999809E+01 0.  1.
       -4    1    3    3    0  502 -0.69014000095E+03 -0.89976137999E+02 -0.41362102260E+03  0.80961280225E+03  0.12699999809E+01 0. -1.
</event>
<event>
 5   0  0.4058874E-04  0.1481740E+04  0.7818609E-02  0.8896687E-01
        1   -1    0    0  501    0  0.00000000000E+00  0.00000000000E+00  0.89412557706E+03  0.89412557708E+03  0.50400001928E-02 0.  1.
       -1   -1    0    0    0  501  0.00000000000E+00  0.00000000000E+00 -0.61388276278E+03  0.61388276280E+03  0.50400001928E-02 0. -1.
    10030    2    1    2    0    0  0.00000000000E+00  0.00000000000E+00  0.28024281428E+03  0.15080083399E+04  0.14817398956E+04 0.  0.
        4    1    3    3  502    0  0.21016254896E+03 -0.43301776749E+03  0.71332371504E+03  0.86052601314E+03  0.12699999809E+01 0.  1.
       -4    1    3    3    0  502 -0.21016254896E+03  0.43301776749E+03 -0.43308090076E+03  0.64748232674E+03  0.12699999809E+01 0. -1.
</event>
<event>
 5   0  0.4084462E-04  0.1507748E+04  0.7818609E-02  0.8879317E-01
        1   -1    0    0  501    0  0.00000000000E+00  0.00000000000E+00  0.77968759831E+03  0.77968759833E+03  0.50400001928E-02 0.  1.
       -1   -1    0    0    0  501  0.00000000000E+00  0.00000000000E+00 -0.72891462579E+03  0.72891462581E+03  0.50400001928E-02 0. -1.
    10030    2    1    2    0    0  0.00000000000E+00  0.00000000000E+00  0.50772972518E+02  0.15086022241E+04  0.15077475836E+04 0.  0.
        1    1    3    3  502    0  0.27783166746E+03  0.60213125444E+03  0.38416080423E+03  0.76637589115E+03  0.50400001928E-02 0.  1.
       -1    1    3    3    0  502 -0.27783166746E+03 -0.60213125444E+03 -0.33338783171E+03  0.74222633298E+03  0.50400001928E-02 0. -1.
</event>
<event>
 5   0  0.4084462E-04  0.1507278E+04  0.7818609E-02  0.8879628E-01
        1   -1    0    0  501    0  0.00000000000E+00  0.00000000000E+00  0.64037105808E+03  0.64037105810E+03  0.50400001928E-02 0. -1.
       -1   -1    0    0    0  501  0.00000000000E+00  0.00000000000E+00 -0.88694145170E+03  0.88694145171E+03  0.50400001928E-02 0.  1.
    10030    2    1    2    0    0  0.00000000000E+00  0.00000000000E+00 -0.24657039362E+03  0.15273125098E+04  0.15072778588E+04 0.  0.
        1    1    3    3  502    0  0.12814856916E+03 -0.70549772527E+03  0.11179534494E+03  0.72570468878E+03  0.50400001928E-02 0. -1.
       -1    1    3    3    0  502 -0.12814856916E+03  0.70549772527E+03 -0.35836573855E+03  0.80160782103E+03  0.50400001928E-02 0.  1.
</event>
<event>
 5   0  0.4015204E-04  0.1474055E+04  0.7818609E-02  0.8901892E-01
       -1   -1    0    0    0  501  0.00000000000E+00  0.00000000000E+00  0.29377465528E+03  0.29377465532E+03  0.50400001928E-02 0.  1.
        1   -1    0    0  501    0  0.00000000000E+00  0.00000000000E+00 -0.18490681534E+04  0.18490681534E+04  0.50400001928E-02 0. -1.
    10030    2    1    2    0    0  0.00000000000E+00  0.00000000000E+00 -0.15552934981E+04  0.21428428087E+04  0.14740547607E+04 0.  0.
        2    1    3    3  502    0 -0.43349475299E+03 -0.34244258907E+03 -0.14868777952E+04  0.15861873173E+04  0.25500000920E-02 0. -1.
       -2    1    3    3    0  502  0.43349475299E+03  0.34244258907E+03 -0.68415702869E+02  0.55665549138E+03  0.25500000920E-02 0.  1.
</event>
<event>
 5   0  0.3907345E-04  0.1494150E+04  0.7818609E-02  0.8888353E-01
        1   -1    0    0  501    0  0.00000000000E+00  0.00000000000E+00  0.88433191968E+03  0.88433191970E+03  0.50400001928E-02 0.  1.
       -1   -1    0    0    0  501  0.00000000000E+00  0.00000000000E+00 -0.63112150413E+03  0.63112150415E+03  0.50400001928E-02 0. -1.
    10030    2    1    2    0    0  0.00000000000E+00  0.00000000000E+00  0.25321041555E+03  0.15154534238E+04  0.14941497801E+04 0.  0.
        5    1    3    3  502    0  0.54084786335E+03  0.40803032427E+02 -0.39444857655E+03  0.67066613772E+03  0.46999998093E+01 0. -1.
       -5    1    3    3    0  502 -0.54084786335E+03 -0.40803032427E+02  0.64765899210E+03  0.84478728612E+03  0.46999998093E+01 0.  1.
</event>
<event>
 5   0  0.4015204E-04  0.1509256E+04  0.7818609E-02  0.8878321E-01
       -1   -1    0    0    0  501  0.00000000000E+00  0.00000000000E+00  0.39267745732E+03  0.39267745736E+03  0.50400001928E-02 0. -1.
        1   -1    0    0  501    0  0.00000000000E+00  0.00000000000E+00 -0.14502063373E+04  0.14502063373E+04  0.50400001928E-02 0.  1.
    10030    2    1    2    0    0  0.00000000000E+00  0.00000000000E+00 -0.10575288800E+04  0.18428837947E+04  0.15092558924E+04 0.  0.
        2    1    3    3  502    0 -0.45930010496E+03 -0.19301767287E+03  0.16331710248E+03  0.52429465420E+03  0.25500000920E-02 0. -1.
       -2    1    3    3    0  502  0.45930010496E+03  0.19301767287E+03 -0.12208459825E+04  0.13185891405E+04  0.25500000920E-02 0.  1.
</event>
<event>
 5   0  0.7359897E-04  0.1497168E+04  0.7818609E-02  0.8886338E-01
       -2   -1    0    0    0  501  0.00000000000E+00  0.00000000000E+00  0.54967122555E+03  0.54967122555E+03  0.25500000920E-02 0.  1.
        2   -1    0    0  501    0  0.00000000000E+00  0.00000000000E+00 -0.10194790589E+04  0.10194790589E+04  0.25500000920E-02 0. -1.
    10030    2    1    2    0    0  0.00000000000E+00  0.00000000000E+00 -0.46980783340E+03  0.15691502845E+04  0.14971683990E+04 0.  0.
        1    1    3    3  502    0 -0.60422877647E+03  0.59185620987E+02  0.22408150037E+03  0.64715366868E+03  0.50400001928E-02 0.  1.
       -1    1    3    3    0  502  0.60422877647E+03 -0.59185620987E+02 -0.69388933377E+03  0.92199661582E+03  0.50400001928E-02 0. -1.
</event>
<event>
 5   0  0.7359897E-04  0.1499284E+04  0.7818609E-02  0.8884929E-01
       -2   -1    0    0    0  501  0.00000000000E+00  0.00000000000E+00  0.32735609060E+03  0.32735609061E+03  0.25500000920E-02 0.  1.
        2   -1    0    0  501    0  0.00000000000E+00  0.00000000000E+00 -0.17166713020E+04  0.17166713020E+04  0.25500000920E-02 0. -1.
    10030    2    1    2    0    0  0.00000000000E+00  0.00000000000E+00 -0.13893152114E+04  0.20440273926E+04  0.14992835706E+04 0.  0.
        1    1    3    3  502    0 -0.21635456015E+03  0.16811552791E+03  0.25664494299E+03  0.37541810453E+03  0.50400001928E-02 0.  1.
       -1    1    3    3    0  502  0.21635456015E+03 -0.16811552791E+03 -0.16459601544E+04  0.16686092881E+04  0.50400001928E-02 0. -1.
</event>
<event>
 5   0  0.7634227E-04  0.1493024E+04  0.7818609E-02  0.8889105E-01
       -2   -1    0    0    0  501  0.00000000000E+00  0.00000000000E+00  0.76974977215E+03  0.76974977215E+03  0.25500000920E-02 0.  1.
        2   -1    0    0  501    0  0.00000000000E+00  0.00000000000E+00 -0.72397583662E+03  0.72397583662E+03  0.25500000920E-02 0. -1.
    10030    2    1    2    0    0  0.00000000000E+00  0.00000000000E+00  0.45773935530E+02  0.14937256088E+04  0.14930240926E+04 0.  0.
        2    1    3    3  502    0 -0.93347319193E+02  0.65276805188E+03  0.37299479383E+03  0.75759155736E+03  0.25500000920E-02 0.  1.
       -2    1    3    3    0  502  0.93347319193E+02 -0.65276805188E+03 -0.32722085830E+03  0.73613405142E+03  0.25500000920E-02 0. -1.
</event>
<event>
 5   0  0.4058874E-04  0.1501092E+04  0.7818609E-02  0.8883727E-01
        1   -1    0    0  501    0  0.00000000000E+00  0.00000000000E+00  0.46874898217E+03  0.46874898220E+03  0.50400001928E-02 0. -1.
       -1   -1    0    0    0  501  0.00000000000E+00  0.00000000000E+00 -0.12017503695E+04  0.12017503695E+04  0.50400001928E-02 0.  1.
    10030    2    1    2    0    0  0.00000000000E+00  0.00000000000E+00 -0.73300138732E+03  0.16704993517E+04  0.15010919526E+04 0.  0.
        4    1    3    3  502    0  0.13189712933E+03 -0.37538177559E+03 -0.10747261340E+04  0.11460131788E+04  0.12699999809E+01 0.  1.
       -4    1    3    3    0  502 -0.13189712933E+03  0.37538177559E+03  0.34172474663E+03  0.52448617287E+03  0.12699999809E+01 0. -1.
</event>
<event>
 5   0  0.4058874E-04  0.1522138E+04  0.7818609E-02  0.8869863E-01
        1   -1    0    0  501    0  0.00000000000E+00  0.00000000000E+00  0.13443045628E+04  0.13443045628E+04  0.50400001928E-02 0.  1.
       -1   -1    0    0    0  501  0.00000000000E+00  0.00000000000E+00 -0.43087415776E+03  0.43087415779E+03  0.50400001928E-02 0. -1.
    10030    2    1    2    0    0  0.00000000000E+00  0.00000000000E+00  0.91343040501E+03  0.17751787206E+04  0.15221380966E+04 0.  0.
        4    1    3    3  502    0 -0.15786137227E+03  0.74442057493E+03  0.47062616416E+03  0.89474734116E+03  0.12699999809E+01 0.  1.
       -4    1    3    3    0  502  0.15786137227E+03 -0.74442057493E+03  0.44280424085E+03  0.88043137941E+03  0.12699999809E+01 0. -1.
</event>
<event>
 5   0  0.4084462E-04  0.1477989E+04  0.7818609E-02  0.8899223E-01
       -1   -1    0    0    0  501  0.00000000000E+00  0.00000000000E+00  0.11086206463E+04  0.11086206463E+04  0.50400001928E-02 0.  1.
        1   -1    0    0  501    0  0.00000000000E+00  0.00000000000E+00 -0.49260593912E+03  0.49260593914E+03  0.50400001928E-02 0. -1.
    10030    2    1    2    0    0  0.00000000000E+00  0.00000000000E+00  0.61601470714E+03  0.16012265854E+04  0.14779893296E+04 0.  0.
        1    1    3    3  502    0 -0.17800497136E+02  0.13006700396E+03 -0.47987175659E+03  0.49750496080E+03  0.50400001928E-02 0. -1.
       -1    1    3    3    0  502  0.17800497136E+02 -0.13006700396E+03  0.10958864637E+04  0.11037216246E+04  0.50400001928E-02 0.  1.
</event>
<event>
 5   0  0.4015204E-04  0.1495661E+04  0.7818609E-02  0.8887343E-01
        1   -1    0    0  501    0  0.00000000000E+00  0.00000000000E+00  0.17217606057E+04  0.17217606057E+04  0.50400001928E-02 0.  1.
       -1   -1    0    0    0  501  0.00000000000E+00  0.00000000000E+00 -0.32481334679E+03  0.32481334683E+03  0.50400001928E-02 0. -1.
    10030    2    1    2    0    0  0.00000000000E+00  0.00000000000E+00  0.13969472589E+04  0.20465739525E+04  0.14956614921E+04 0.  0.
        2    1    3    3  502    0 -0.20543832660E+03  0.40273623829E+03  0.15135835762E+04  0.15796634534E+04  0.25500000920E-02 0.  1.
       -2    1    3    3    0  502  0.20543832660E+03 -0.40273623829E+03 -0.11663631736E+03  0.46691049913E+03  0.25500000920E-02 0. -1.
</event>
<event>
 5   0  0.4015204E-04  0.1502041E+04  0.7818609E-02  0.8883097E-01
        1   -1    0    0  501    0  0.00000000000E+00  0.00000000000E+00  0.77044820374E+03  0.77044820375E+03  0.50400001928E-02 0.  1.
       -1   -1    0    0    0  501  0.00000000000E+00  0.00000000000E+00 -0.73208303580E+03  0.73208303582E+03  0.50400001928E-02 0. -1.
    10030    2    1    2    0    0  0.00000000000E+00  0.00000000000E+00  0.38365167938E+02  0.15025312396E+04  0.15020413575E+04 0.  0.
        2    1    3    3  502    0  0.43395529404E+03  0.36993481043E+03 -0.46971304065E+03  0.73878231012E+03  0.25500000920E-02 0. -1.
       -2    1    3    3    0  502 -0.43395529404E+03 -0.36993481043E+03  0.50807820858E+03  0.76374892945E+03  0.25500000920E-02 0.  1.
</event>
<event>
 5   0  0.7454828E-04  0.1496826E+04  0.7818609E-02  0.8886567E-01
       -2   -1    0    0    0  501  0.00000000000E+00  0.00000000000E+00  0.20319324128E+03  0.20319324130E+03  0.25500000920E-02 0.  1.
        2   -1    0    0  501    0  0.00000000000E+00  0.00000000000E+00 -0.27565963261E+04  0.27565963261E+04  0.25500000920E-02 0. -1.
    10030    2    1    2    0    0  0.00000000000E+00  0.00000000000E+00 -0.25534030848E+04  0.29597895674E+04  0.14968256310E+04 0.  0.
        3    1    3    3  502    0 -0.45248975744E+02 -0.74298165920E+03 -0.14305374137E+04  0.16126086065E+04  0.10100000352E+00 0.  1.
       -3    1    3    3    0  502  0.45248975744E+02  0.74298165920E+03 -0.11228656711E+04  0.13471809609E+04  0.10100000352E+00 0. -1.
</event>
<event>
 5   0  0.7359897E-04  0.1482742E+04  0.7818609E-02  0.8896011E-01
       -2   -1    0    0    0  501  0.00000000000E+00  0.00000000000E+00  0.66700776034E+03  0.66700776035E+03  0.25500000920E-02 0. -1.
        2   -1    0    0  501    0  0.00000000000E+00  0.00000000000E+00 -0.82402480709E+03  0.82402480709E+03  0.25500000920E-02 0.  1.
    10030    2    1    2    0    0  0.00000000000E+00  0.00000000000E+00 -0.15701704675E+03  0.14910325674E+04  0.14827419749E+04 0.  0.
        1    1    3    3  502    0  0.25914489409E+01  0.40510345643E+03  0.54586204265E+03  0.67976532395E+03  0.50400001928E-02 0. -1.
       -1    1    3    3    0  502 -0.25914489409E+01 -0.40510345643E+03 -0.70287908939E+03  0.81126724349E+03  0.50400001928E-02 0.  1.
</event>
<event>
 5   0  0.7454828E-04  0.1491295E+04  0.7818609E-02  0.8890262E-01
        2   -1    0    0  501    0  0.00000000000E+00  0.00000000000E+00  0.97373222925E+03  0.97373222925E+03  0.25500000920E-02 0.  1.
       -2   -1    0    0    0  501  0.00000000000E+00  0.00000000000E+00 -0.57098915158E+03  0.57098915159E+03  0.25500000920E-02 0. -1.
    10030    2    1    2    0    0  0.00000000000E+00  0.00000000000E+00  0.40274307766E+03  0.15447213808E+04  0.14912954630E+04 0.  0.
        3    1    3    3  502    0 -0.73498805258E+03  0.11265836004E+03  0.14378128251E+03  0.75734563504E+03  0.10100000352E+00 0.  1.
       -3    1    3    3    0  502  0.73498805258E+03 -0.11265836004E+03  0.25896179515E+03  0.78737574580E+03  0.10100000352E+00 0. -1.
</event>
<event>
 5   0  0.4084462E-04  0.1502674E+04  0.7818609E-02  0.8882676E-01
       -1   -1    0    0    0  501  0.00000000000E+00  0.00000000000E+00  0.31545111473E+03  0.31545111477E+03  0.50400001928E-02 0. -1.
        1   -1    0    0  501    0  0.00000000000E+00  0.00000000000E+00 -0.17895247161E+04  0.17895247161E+04  0.50400001928E-02 0.  1.
    10030    2    1    2    0    0  0.00000000000E+00  0.00000000000E+00 -0.14740736014E+04  0.21049758309E+04  0.15026743714E+04 0.  0.
        1    1    3    3  502    0 -0.75085636070E+03  0.12641181208E+02 -0.77025994055E+03  0.10757534336E+04  0.50400001928E-02 0. -1.
       -1    1    3    3    0  502  0.75085636070E+03 -0.12641181208E+02 -0.70381366083E+03  0.10292223973E+04  0.50400001928E-02 0.  1.
</event>
<event>
 5   0  0.7634227E-04  0.1481207E+04  0.7818609E-02  0.8897047E-01
       -2   -1    0    0    0  501  0.00000000000E+00  0.00000000000E+00  0.20461846643E+03  0.20461846644E+03  0.25500000920E-02 0. -1.
        2   -1    0    0  501    0  0.00000000000E+00  0.00000000000E+00 -0.26805658578E+04  0.26805658578E+04  0.25500000920E-02 0.  1.
    10030    2    1    2    0    0  0.00000000000E+00  0.00000000000E+00 -0.24759473914E+04  0.28851843243E+04  0.14812066365E+04 0.  0.
        2    1    3    3  502    0  0.23761034081E+03  0.48858796605E+03 -0.22183426927E+04  0.22839048091E+04  0.25500000920E-02 0.  1.
       -2    1    3    3    0  502 -0.23761034081E+03 -0.48858796605E+03 -0.25760469873E+03  0.60127951524E+03  0.25500000920E-02 0. -1.
</event>
<event>
 5   0  0.7634227E-04  0.1486602E+04  0.7818609E-02  0.8893412E-01
       -2   -1    0    0    0  501  0.00000000000E+00  0.00000000000E+00  0.83719013764E+03  0.83719013764E+03  0.25500000920E-02 0.  1.
        2   -1    0    0  501    0  0.00000000000E+00  0.00000000000E+00 -0.65994119996E+03  0.65994119997E+03  0.25500000920E-02 0. -1.
    10030    2    1    2    0    0  0.00000000000E+00  0.00000000000E+00  0.17724893768E+03  0.14971313376E+04  0.14866018486E+04 0.  0.
        2    1    3    3  502    0 -0.71143377358E+03  0.21096896181E+03  0.45304132261E+02  0.74343687118E+03  0.25500000920E-02 0. -1.
       -2    1    3    3    0  502  0.71143377358E+03 -0.21096896181E+03  0.13194480541E+03  0.75369446642E+03  0.25500000920E-02 0.  1.
</event>
<event>
 5   0  0.4084462E-04  0.1287091E+04  0.7818609E-02  0.9039865E-01
       -1   -1    0    0    0  501  0.00000000000E+00  0.00000000000E+00  0.40117471305E+03  0.40117471308E+03  0.50400001928E-02 0. -1.
        1   -1    0    0  501    0  0.00000000000E+00  0.00000000000E+00 -0.10323457897E+04  0.10323457897E+04  0.50400001928E-02 0.  1.
    10030    2    1    2    0    0  0.00000000000E+00  0.00000000000E+00 -0.63117107662E+03  0.14335205028E+04  0.12870913347E+04 0.  0.
        1    1    3    3  502    0  0.38146570539E+03  0.51823819480E+03 -0.30666739657E+03  0.71283364335E+03  0.50400001928E-02 0.  1.
       -1    1    3    3    0  502 -0.38146570539E+03 -0.51823819480E+03 -0.32450368005E+03  0.72068685941E+03  0.50400001928E-02 0. -1.
</event>
<event>
 5   0  0.4058874E-04  0.1516865E+04  0.7818609E-02  0.8873315E-01
       -1   -1    0    0    0  501  0.00000000000E+00  0.00000000000E+00  0.10705644309E+04  0.10705644309E+04  0.50400001928E-02 0.  1.
        1   -1    0    0  501    0  0.00000000000E+00  0.00000000000E+00 -0.53730499050E+03  0.53730499052E+03  0.50400001928E-02 0. -1.
    10030    2    1    2    0    0  0.00000000000E+00  0.00000000000E+00  0.53325944043E+03  0.16078694215E+04  0.15168646761E+04 0.  0.
        4    1    3    3  502    0 -0.55822049063E+03 -0.47507070685E+03  0.60227905818E+02  0.73548032347E+03  0.12699999809E+01 0.  1.
       -4    1    3    3    0  502  0.55822049063E+03  0.47507070685E+03  0.47303153461E+03  0.87238909799E+03  0.12699999809E+01 0. -1.
</event>
<event>
 5   0  0.3907345E-04  0.1505393E+04  0.7818609E-02  0.8880875E-01
       -1   -1    0    0    0  501  0.00000000000E+00  0.00000000000E+00  0.58776688252E+03  0.58776688254E+03  0.50400001928E-02 0.  1.
        1   -1    0    0  501    0  0.00000000000E+00  0.00000000000E+00 -0.96390572620E+03  0.96390572621E+03  0.50400001928E-02 0. -1.
    10030    2    1    2    0    0  0.00000000000E+00  0.00000000000E+00 -0.37613884368E+03  0.15516726088E+04  0.15053927909E+04 0.  0.
        5    1    3    3  502    0 -0.49371421062E+03  0.21865367697E+03  0.35242379827E+03  0.64481607905E+03  0.46999998093E+01 0.  1.
       -5    1    3    3    0  502  0.49371421062E+03 -0.21865367697E+03 -0.72856264195E+03  0.90685652970E+03  0.46999998093E+01 0. -1.
</event>
<event>
 5   0  0.7547580E-04  0.1509078E+04  0.7818609E-02  0.8878438E-01
       -2   -1    0    0    0  501  0.00000000000E+00  0.00000000000E+00  0.61317476110E+03  0.61317476111E+03  0.25500000920E-02 0.  1.
        2   -1    0    0  501    0  0.00000000000E+00  0.00000000000E+00 -0.92849451063E+03  0.92849451064E+03  0.25500000920E-02 0. -1.
    10030    2    1    2    0    0  0.00000000000E+00  0.00000000000E+00 -0.31531974953E+03  0.15416692717E+04  0.15090783939E+04 0.  0.
        4    1    3    3  502    0  0.71885258870E+03  0.19835863657E+03 -0.40142547183E+02  0.74679865424E+03  0.12699999809E+01 0. -1.
       -4    1    3    3    0  502 -0.71885258870E+03 -0.19835863657E+03 -0.27517720235E+03  0.79487061750E+03  0.12699999809E+01 0.  1.
</event>
<event>
 5   0  0.3907345E-04  0.1509652E+04  0.7818609E-02  0.8878060E-01
       -1   -1    0    0    0  501  0.00000000000E+00  0.00000000000E+00  0.57132523272E+03  0.57132523274E+03  0.50400001928E-02 0. -1.
        1   -1    0    0  501    0  0.00000000000E+00  0.00000000000E+00 -0.99726395993E+03  0.99726395995E+03  0.50400001928E-02 0.  1.
    10030    2    1    2    0    0  0.00000000000E+00  0.00000000000E+00 -0.42593872722E+03  0.15685891927E+04  0.15096517003E+04 0.  0.
        5    1    3    3  502    0 -0.94094681746E+02  0.23647991359E+03  0.52538086774E+03  0.58380108329E+03  0.46999998093E+01 0. -1.
       -5    1    3    3    0  502  0.94094681746E+02 -0.23647991359E+03 -0.95131959496E+03  0.98478810940E+03  0.46999998093E+01 0.  1.
</event>
<event>
 5   0  0.7359897E-04  0.1499849E+04  0.7818609E-02  0.8884553E-01
        2   -1    0    0  501    0  0.00000000000E+00  0.00000000000E+00  0.97899036884E+03  0.97899036884E+03  0.25500000920E-02 0. -1.
       -2   -1    0    0    0  501  0.00000000000E+00  0.00000000000E+00 -0.57445586591E+03  0.57445586591E+03  0.25500000920E-02 0.  1.
    10030    2    1    2    0    0  0.00000000000E+00  0.00000000000E+00  0.40453450293E+03  0.15534462348E+04  0.14998490058E+04 0.  0.
        1    1    3    3  502    0 -0.19157993357E+03  0.34228035012E+03  0.86426974958E+03  0.94911585651E+03  0.50400001928E-02 0. -1.
       -1    1    3    3    0  502  0.19157993357E+03 -0.34228035012E+03 -0.45973524665E+03  0.60433037824E+03  0.50400001928E-02 0.  1.
</event>
<event>
 5   0  0.3907345E-04  0.1517317E+04  0.7818609E-02  0.8873018E-01
       -1   -1    0    0    0  501  0.00000000000E+00  0.00000000000E+00  0.45215802789E+03  0.45215802792E+03  0.50400001928E-02 0. -1.
        1   -1    0    0  501    0  0.00000000000E+00  0.00000000000E+00 -0.12729244791E+04  0.12729244791E+04  0.50400001928E-02 0.  1.
    10030    2    1    2    0    0  0.00000000000E+00  0.00000000000E+00 -0.82076645117E+03  0.17250825070E+04  0.15173173987E+04 0.  0.
        5    1    3    3  502    0 -0.19974917169E+03 -0.71669253252E+03 -0.57899030763E+03  0.94276178545E+03  0.46999998093E+01 0.  1.
       -5    1    3    3    0  502  0.19974917169E+03  0.71669253252E+03 -0.24177614354E+03  0.78232072154E+03  0.46999998093E+01 0. -1.
</event>
<event>
 5   0  0.4086710E-04  0.1488497E+04  0.7818609E-02  0.8892138E-01
       -1   -1    0    0    0  501  0.00000000000E+00  0.00000000000E+00  0.41165915440E+03  0.41165915443E+03  0.50400001928E-02 0.  1.
        1   -1    0    0  501    0  0.00000000000E+00  0.00000000000E+00 -0.13455451870E+04  0.13455451870E+04  0.50400001928E-02 0. -1.
    10030    2    1    2    0    0  0.00000000000E+00  0.00000000000E+00 -0.93388603258E+03  0.17572043414E+04  0.14884972206E+04 0.  0.
        3    1    3    3  502    0  0.63739477264E+03  0.32637838002E+03 -0.22758197013E+03  0.75139104763E+03  0.10100000352E+00 0.  1.
       -3    1    3    3    0  502 -0.63739477264E+03 -0.32637838002E+03 -0.70630406245E+03  0.10058132938E+04  0.10100000352E+00 0. -1.
</event>
<event>
 5   0  0.4086710E-04  0.1497071E+04  0.7818609E-02  0.8886403E-01
       -1   -1    0    0    0  501  0.00000000000E+00  0.00000000000E+00  0.45585347361E+03  0.45585347364E+03  0.50400001928E-02 0. -1.
        1   -1    0    0  501    0  0.00000000000E+00  0.00000000000E+00 -0.12291347540E+04  0.12291347540E+04  0.50400001928E-02 0.  1.
    10030    2    1    2    0    0  0.00000000000E+00  0.00000000000E+00 -0.77328128037E+03  0.16849882276E+04  0.14970709364E+04 0.  0.
        3    1    3    3  502    0 -0.29286711748E+02  0.71121142859E+03 -0.12600013574E+03  0.72287997071E+03  0.10100000352E+00 0. -1.
       -3    1    3    3    0  502  0.29286711748E+02 -0.71121142859E+03 -0.64728114463E+03  0.96210825692E+03  0.10100000352E+00 0.  1.
</event>
<event>
 5   0  0.3907345E-04  0.1487580E+04  0.7818609E-02  0.8892754E-01
        1   -1    0    0  501    0  0.00000000000E+00  0.00000000000E+00  0.50618508987E+03  0.50618508990E+03  0.50400001928E-02 0. -1.
       -1   -1    0    0    0  501  0.00000000000E+00  0.00000000000E+00 -0.10929272957E+04  0.10929272957E+04  0.50400001928E-02 0.  1.
    10030    2    1    2    0    0  0.00000000000E+00  0.00000000000E+00 -0.58674220579E+03  0.15991123856E+04  0.14875799157E+04 0.  0.
        5    1    3    3  502    0  0.11543530879E+02 -0.63816567082E+02 -0.10898662138E+04  0.10918041314E+04  0.46999998093E+01 0.  1.
       -5    1    3    3    0  502 -0.11543530879E+02  0.63816567082E+02  0.50312400800E+03  0.50730825419E+03  0.46999998093E+01 0. -1.
</event>
<event>
 5   0  0.7547580E-04  0.1496236E+04  0.7818609E-02  0.8886959E-01
       -2   -1    0    0    0  501  0.00000000000E+00  0.00000000000E+00  0.10549476412E+04  0.10549476412E+04  0.25500000920E-02 0. -1.
        2   -1    0    0  501    0  0.00000000000E+00  0.00000000000E+00 -0.53052954946E+03  0.53052954946E+03  0.25500000920E-02 0.  1.
    10030    2    1    2    0    0  0.00000000000E+00  0.00000000000E+00  0.52441809170E+03  0.15854771906E+04  0.14962364743E+04 0.  0.
        4    1    3    3  502    0  0.26847765480E+02 -0.36649795688E+03  0.95271757956E+03  0.10211336613E+04  0.12699999809E+01 0. -1.
       -4    1    3    3    0  502 -0.26847765480E+02  0.36649795688E+03 -0.42829948786E+03  0.56434352934E+03  0.12699999809E+01 0.  1.
</event>
<event>
 5   0  0.7454828E-04  0.1485862E+04  0.7818609E-02  0.8893909E-01
        2   -1    0    0  501    0  0.00000000000E+00  0.00000000000E+00  0.56839127498E+03  0.56839127499E+03  0.25500000920E-02 0.  1.
       -2   -1    0    0    0  501  0.00000000000E+00  0.00000000000E+00 -0.97106790183E+03  0.97106790183E+03  0.25500000920E-02 0. -1.
    10030    2    1    2    0    0  0.00000000000E+00  0.00000000000E+00 -0.40267662684E+03  0.15394591768E+04  0.14858620701E+04 0.  0.
        3    1    3    3  502    0 -0.58560178706E+03  0.24493318390E+03  0.19862388505E+03  0.66511140082E+03  0.10100000352E+00 0.  1.
       -3    1    3    3    0  502  0.58560178706E+03 -0.24493318390E+03 -0.60130051190E+03  0.87434777600E+03  0.10100000352E+00 0. -1.
</event>
<event>
 5   0  0.7634227E-04  0.1494493E+04  0.7818609E-02  0.8888123E-01
        2   -1    0    0  501    0  0.00000000000E+00  0.00000000000E+00  0.66182470504E+03  0.66182470504E+03  0.25500000920E-02 0. -1.
       -2   -1    0    0    0  501  0.00000000000E+00  0.00000000000E+00 -0.84369367441E+03  0.84369367442E+03  0.25500000920E-02 0.  1.
    10030    2    1    2    0    0  0.00000000000E+00  0.00000000000E+00 -0.18186896937E+03  0.15055183795E+04  0.14944929805E+04 0.  0.
        2    1    3    3  502    0 -0.31863752738E+03  0.24943754942E+03  0.54189444450E+03  0.67631246765E+03  0.25500000920E-02 0. -1.
       -2    1    3    3    0  502  0.31863752738E+03 -0.24943754942E+03 -0.72376341387E+03  0.82920591181E+03  0.25500000920E-02 0.  1.
</event>
<event>
 5   0  0.7359897E-04  0.1366601E+04  0.7818609E-02  0.8978356E-01
       -2   -1    0    0    0  501  0.00000000000E+00  0.00000000000E+00  0.27550943694E+03  0.27550943696E+03  0.25500000920E-02 0. -1.
        2   -1    0    0  501    0  0.00000000000E+00  0.00000000000E+00 -0.16946762499E+04  0.16946762499E+04  0.25500000920E-02 0.  1.
    10030    2    1    2    0    0  0.00000000000E+00  0.00000000000E+00 -0.14191668130E+04  0.19701856869E+04  0.13666005992E+04 0.  0.
        1    1    3    3  502    0  0.21018569361E+03  0.14985706375E+03  0.20250910725E+03  0.32809313296E+03  0.50400001928E-02 0. -1.
       -1    1    3    3    0  502 -0.21018569361E+03 -0.14985706375E+03 -0.16216759202E+04  0.16420925539E+04  0.50400001928E-02 0.  1.
</event>
<event>
 5   0  0.7672251E-04  0.1452597E+04  0.7818609E-02  0.8916602E-01
       -2   -1    0    0    0  501  0.00000000000E+00  0.00000000000E+00  0.38067347592E+03  0.38067347592E+03  0.25500000920E-02 0.  1.
        2   -1    0    0  501    0  0.00000000000E+00  0.00000000000E+00 -0.13857273865E+04  0.13857273865E+04  0.25500000920E-02 0. -1.
    10030    2    1    2    0    0  0.00000000000E+00  0.00000000000E+00 -0.10050539106E+04  0.17664008625E+04  0.14525972063E+04 0.  0.
        5    1    3    3  502    0  0.28186956809E+03  0.33701234275E+03  0.20073322118E+03  0.48305661021E+03  0.46999998093E+01 0.  1.
       -5    1    3    3    0  502 -0.28186956809E+03 -0.33701234275E+03 -0.12057871318E+04  0.12833442523E+04  0.46999998093E+01 0. -1.
</event>
<event>
 5   0  0.7454828E-04  0.1494772E+04  0.7818609E-02  0.8887937E-01
       -2   -1    0    0    0  501  0.00000000000E+00  0.00000000000E+00  0.46400987013E+03  0.46400987014E+03  0.25500000920E-02 0.  1.
        2   -1    0    0  501    0  0.00000000000E+00  0.00000000000E+00 -0.12038224436E+04  0.12038224436E+04  0.25500000920E-02 0. -1.
    10030    2    1    2    0    0  0.00000000000E+00  0.00000000000E+00 -0.73981257343E+03  0.16678323137E+04  0.14947715487E+04 0.  0.
        3    1    3    3  502    0  0.52913562577E+03 -0.44158763502E+03 -0.69252099912E+03  0.97702072357E+03  0.10100000352E+00 0.  1.
       -3    1    3    3    0  502 -0.52913562577E+03  0.44158763502E+03 -0.47291574316E+02  0.69081159014E+03  0.10100000352E+00 0. -1.
</event>
<event>
 5   0  0.4084462E-04  0.1475792E+04  0.7818609E-02  0.8900712E-01
        1   -1    0    0  501    0  0.00000000000E+00  0.00000000000E+00  0.60745574879E+03  0.60745574881E+03  0.50400001928E-02 0. -1.
       -1   -1    0    0    0  501  0.00000000000E+00  0.00000000000E+00 -0.89634638185E+03  0.89634638186E+03  0.50400001928E-02 0.  1.
    10030    2    1    2    0    0  0.00000000000E+00  0.00000000000E+00 -0.28889063306E+03  0.15038021307E+04  0.14757923466E+04 0.  0.
        1    1    3    3  502    0 -0.53021451549E+03  0.74299536461E+02 -0.66186510987E+03  0.85130093225E+03  0.50400001928E-02 0.  1.
       -1    1    3    3    0  502  0.53021451549E+03 -0.74299536461E+02  0.37297447682E+03  0.65250119842E+03  0.50400001928E-02 0. -1.
</event>
<event>
 5   0  0.4086710E-04  0.1515041E+04  0.7818609E-02  0.8874512E-01
        1   -1    0    0  501    0  0.00000000000E+00  0.00000000000E+00  0.17570758279E+04  0.17570758279E+04  0.50400001928E-02 0. -1.
       -1   -1    0    0    0  501  0.00000000000E+00  0.00000000000E+00 -0.32658642314E+03  0.32658642318E+03  0.50400001928E-02 0.  1.
    10030    2    1    2    0    0  0.00000000000E+00  0.00000000000E+00  0.14304894047E+04  0.20836622511E+04  0.15150407386E+04 0.  0.
        3    1    3    3  502    0  0.34940234374E+03  0.98901589952E+02  0.16295709057E+04  0.16695403167E+04  0.10100000352E+00 0. -1.
       -3    1    3    3    0  502 -0.34940234374E+03 -0.98901589952E+02 -0.19908150093E+03  0.41412193436E+03  0.10100000352E+00 0.  1.
</event>
<event>
 5   0  0.3907345E-04  0.1493150E+04  0.7818609E-02  0.8889021E-01
       -1   -1    0    0    0  501  0.00000000000E+00  0.00000000000E+00  0.56670726905E+03  0.56670726907E+03  0.50400001928E-02 0.  1.
        1   -1    0    0  501    0  0.00000000000E+00  0.00000000000E+00 -0.98353131023E+03  0.98353131025E+03  0.50400001928E-02 0. -1.
    10030    2    1    2    0    0  0.00000000000E+00  0.00000000000E+00 -0.41682404119E+03  0.15502385793E+04  0.14931501504E+04 0.  0.
        5    1    3    3  502    0 -0.53147529539E+03 -0.49150217702E+03 -0.18918403427E+02  0.72416874802E+03  0.46999998093E+01 0.  1.
       -5    1    3    3    0  502  0.53147529539E+03  0.49150217702E+03 -0.39790563776E+03  0.82606983130E+03  0.46999998093E+01 0. -1.
</event>
<event>
 5   0  0.4086710E-04  0.1464309E+04  0.7818609E-02  0.8908540E-01
        1   -1    0    0  501    0  0.00000000000E+00  0.00000000000E+00  0.17861813132E+04  0.17861813132E+04  0.50400001928E-02 0.  1.
       -1   -1    0    0    0  501  0.00000000000E+00  0.00000000000E+00 -0.30010943768E+03  0.30010943773E+03  0.50400001928E-02 0. -1.
    10030    2    1    2    0    0  0.00000000000E+00  0.00000000000E+00  0.14860718755E+04  0.20862907509E+04  0.14643085324E+04 0.  0.
        3    1    3    3  502    0 -0.47112917258E+03  0.55980132132E+03  0.70508153849E+03  0.10161103300E+04  0.10100000352E+00 0.  1.
       -3    1    3    3    0  502  0.47112917258E+03 -0.55980132132E+03  0.78099033702E+03  0.10701804209E+04  0.10100000352E+00 0. -1.
</event>
<event>
 5   0  0.7634227E-04  0.1477856E+04  0.7818609E-02  0.8899313E-01
        2   -1    0    0  501    0  0.00000000000E+00  0.00000000000E+00  0.66745854324E+03  0.66745854324E+03  0.25500000920E-02 0. -1.
       -2   -1    0    0    0  501  0.00000000000E+00  0.00000000000E+00 -0.81805060260E+03  0.81805060260E+03  0.25500000920E-02 0.  1.
    10030    2    1    2    0    0  0.00000000000E+00  0.00000000000E+00 -0.15059205936E+03  0.14855091458E+04  0.14778563712E+04 0.  0.
        2    1    3    3  502    0  0.68321046171E+03  0.98039940453E+02  0.18993869380E+03  0.71586665820E+03  0.25500000920E-02 0. -1.
       -2    1    3    3    0  502 -0.68321046171E+03 -0.98039940453E+02 -0.34053075316E+03  0.76964248764E+03  0.25500000920E-02 0.  1.
</event>
<event>
 5   0  0.7454828E-04  0.1470743E+04  0.7818609E-02  0.8904145E-01
       -2   -1    0    0    0  501  0.00000000000E+00  0.00000000000E+00  0.34776825357E+03  0.34776825358E+03  0.25500000920E-02 0. -1.
        2   -1    0    0  501    0  0.00000000000E+00  0.00000000000E+00 -0.15549750622E+04  0.15549750622E+04  0.25500000920E-02 0.  1.
    10030    2    1    2    0    0  0.00000000000E+00  0.00000000000E+00 -0.12072068086E+04  0.19027433158E+04  0.14707426175E+04 0.  0.
        3    1    3    3  502    0 -0.22728289614E+03 -0.51842014914E+03  0.36975771002E+01  0.56606593979E+03  0.10100000352E+00 0.  1.
       -3    1    3    3    0  502  0.22728289614E+03  0.51842014914E+03 -0.12109043857E+04  0.13366773760E+04  0.10100000352E+00 0. -1.
</event>
<event>
 5   0  0.4086710E-04  0.1503051E+04  0.7818609E-02  0.8882427E-01
        1   -1    0    0  501    0  0.00000000000E+00  0.00000000000E+00  0.18894449076E+04  0.18894449076E+04  0.50400001928E-02 0.  1.
       -1   -1    0    0    0  501  0.00000000000E+00  0.00000000000E+00 -0.29891868544E+03  0.29891868549E+03  0.50400001928E-02 0. -1.
    10030    2    1    2    0    0  0.00000000000E+00  0.00000000000E+00  0.15905262221E+04  0.21883635931E+04  0.15030507484E+04 0.  0.
        3    1    3    3  502    0  0.50732622833E+03 -0.40248736374E+03  0.24006300356E+03  0.69065638041E+03  0.10100000352E+00 0. -1.
       -3    1    3    3    0  502 -0.50732622833E+03  0.40248736374E+03  0.13504632186E+04  0.14977072127E+04  0.10100000352E+00 0.  1.
</event>
<event>
 5   0  0.4015204E-04  0.1506717E+04  0.7818609E-02  0.8879999E-01
        1   -1    0    0  501    0  0.00000000000E+00  0.00000000000E+00  0.15130112887E+04  0.15130112887E+04  0.50400001928E-02 0. -1.
       -1   -1    0    0    0  501  0.00000000000E+00  0.00000000000E+00 -0.37511203640E+03  0.37511203643E+03  0.50400001928E-02 0.  1.
    10030    2    1    2    0    0  0.00000000000E+00  0.00000000000E+00  0.11378992523E+04  0.18881233252E+04  0.15067166232E+04 0.  0.
        2    1    3    3  502    0  0.32758231218E+03  0.45509151883E+03 -0.61529671536E+02  0.56409605764E+03  0.25500000920E-02 0. -1.
       -2    1    3    3    0  502 -0.32758231218E+03 -0.45509151883E+03  0.11994289239E+04  0.13240272675E+04  0.25500000920E-02 0.  1.
</event>
<event>
 5   0  0.7634227E-04  0.1226776E+04  0.7818609E-02  0.9089737E-01
        2   -1    0    0  501    0  0.00000000000E+00  0.00000000000E+00  0.78248740596E+03  0.78248740596E+03  0.25500000920E-02 0. -1.
       -2   -1    0    0    0  501  0.00000000000E+00  0.00000000000E+00 -0.48083150488E+03  0.48083150489E+03  0.25500000920E-02 0.  1.
    10030    2    1    2    0    0  0.00000000000E+00  0.00000000000E+00  0.30165590108E+03  0.12633189109E+04  0.12267756062E+04 0.  0.
        2    1    3    3  502    0  0.13648652208E+03  0.59061354285E+03  0.54271001161E+02  0.60860354031E+03  0.25500000920E-02 0.  1.
       -2    1    3    3    0  502 -0.13648652208E+03 -0.59061354285E+03  0.24738489991E+03  0.65471537054E+03  0.25500000920E-02 0. -1.
</event>
<event>
 5   0  0.4058874E-04  0.1501672E+04  0.7818609E-02  0.8883342E-01
        1   -1    0    0  501    0  0.00000000000E+00  0.00000000000E+00  0.88914850598E+03  0.88914850600E+03  0.50400001928E-02 0.  1.
       -1   -1    0    0    0  501  0.00000000000E+00  0.00000000000E+00 -0.63403926169E+03  0.63403926171E+03  0.50400001928E-02 0. -1.
    10030    2    1    2    0    0  0.00000000000E+00  0.00000000000E+00  0.25510924430E+03  0.15231877677E+04  0.15016724840E+04 0.  0.
        4    1    3    3  502    0  0.28320876218E+03  0.61078596000E+03  0.46471251774E+03  0.81806236251E+03  0.12699999809E+01 0.  1.
       -4    1    3    3    0  502 -0.28320876218E+03 -0.61078596000E+03 -0.20960327345E+03  0.70512540519E+03  0.12699999809E+01 0. -1.
</event>
<event>
 5   0  0.2800375E-04  0.1512133E+04  0.7818609E-02  0.8876424E-01
       -3   -1    0    0    0  501  0.00000000000E+00  0.00000000000E+00  0.85937400976E+03  0.85937401570E+03  0.10100000352E+00 0.  1.
        3   -1    0    0  501    0  0.00000000000E+00  0.00000000000E+00 -0.66517805484E+03  0.66517806251E+03  0.10100000352E+00 0. -1.
    10030    2    1    2    0    0  0.00000000000E+00  0.00000000000E+00  0.19419595492E+03  0.15245520782E+04  0.15121332515E+04 0.  0.
        5    1    3    3  502    0  0.26520051729E+03 -0.66905853101E+03  0.33061194336E+03  0.79202082004E+03  0.46999998093E+01 0.  1.
       -5    1    3    3    0  502 -0.26520051729E+03  0.66905853101E+03 -0.13641598843E+03  0.73253125816E+03  0.46999998093E+01 0. -1.
</event>
<event>
 5   0  0.7359897E-04  0.1501795E+04  0.7818609E-02  0.8883260E-01
        2   -1    0    0  501    0  0.00000000000E+00  0.00000000000E+00  0.10394666650E+04  0.10394666650E+04  0.25500000920E-02 0. -1.
       -2   -1    0    0    0  501  0.00000000000E+00  0.00000000000E+00 -0.54243883722E+03  0.54243883723E+03  0.25500000920E-02 0.  1.
    10030    2    1    2    0    0  0.00000000000E+00  0.00000000000E+00  0.49702782783E+03  0.15819055023E+04  0.15017950448E+04 0.  0.
        1    1    3    3  502    0  0.52017152357E+03 -0.20758983029E+03 -0.27834210176E+03  0.62541688274E+03  0.50400001928E-02 0.  1.
       -1    1    3    3    0  502 -0.52017152357E+03  0.20758983029E+03  0.77536992959E+03  0.95648861954E+03  0.50400001928E-02 0. -1.
</event>
<event>
 5   0  0.4058874E-04  0.1499767E+04  0.7818609E-02  0.8884608E-01
       -1   -1    0    0    0  501  0.00000000000E+00  0.00000000000E+00  0.25966632073E+03  0.25966632078E+03  0.50400001928E-02 0. -1.
        1   -1    0    0  501    0  0.00000000000E+00  0.00000000000E+00 -0.21655690882E+04  0.21655690883E+04  0.50400001928E-02 0.  1.
    10030    2    1    2    0    0  0.00000000000E+00  0.00000000000E+00 -0.19059027675E+04  0.24252354090E+04  0.14997671252E+04 0.  0.
        4    1    3    3  502    0  0.63166415014E+02 -0.30441877434E+01  0.25534480714E+03  0.26306243840E+03  0.12699999809E+01 0. -1.
       -4    1    3    3    0  502 -0.63166415014E+02  0.30441877434E+01 -0.21612475747E+04  0.21621729706E+04  0.12699999809E+01 0.  1.
</event>
<event>
 5   0  0.4086710E-04  0.1502047E+04  0.7818609E-02  0.8883093E-01
       -1   -1    0    0    0  501  0.00000000000E+00  0.00000000000E+00  0.79075445677E+03  0.79075445679E+03  0.50400001928E-02 0. -1.
        1   -1    0    0  501    0  0.00000000000E+00  0.00000000000E+00 -0.71328833034E+03  0.71328833036E+03  0.50400001928E-02 0.  1.
    10030    2    1    2    0    0  0.00000000000E+00  0.00000000000E+00  0.77466126432E+02  0.15040427871E+04  0.15020465055E+04 0.  0.
        3    1    3    3  502    0 -0.28067291351E+03  0.62008093136E+03 -0.27911323917E+03  0.73565063467E+03  0.10100000352E+00 0.  1.
       -3    1    3    3    0  502  0.28067291351E+03 -0.62008093136E+03  0.35657936560E+03  0.76839215248E+03  0.10100000352E+00 0. -1.
</event>
<event>
 5   0  0.4015204E-04  0.1420762E+04  0.7818609E-02  0.8938926E-01
        1   -1    0    0  501    0  0.00000000000E+00  0.00000000000E+00  0.14616848203E+04  0.14616848204E+04  0.50400001928E-02 0. -1.
       -1   -1    0    0    0  501  0.00000000000E+00  0.00000000000E+00 -0.34524613334E+03  0.34524613338E+03  0.50400001928E-02 0.  1.
    10030    2    1    2    0    0  0.00000000000E+00  0.00000000000E+00  0.11164386870E+04  0.18069309537E+04  0.14207618132E+04 0.  0.
        2    1    3    3  502    0  0.53782299614E+03  0.45150020698E+03  0.42162602246E+03  0.81906929798E+03  0.25500000920E-02 0.  1.
       -2    1    3    3    0  502 -0.53782299614E+03 -0.45150020698E+03  0.69481266455E+03  0.98786165575E+03  0.25500000920E-02 0. -1.
</event>
<event>
 5   0  0.7359897E-04  0.1492466E+04  0.7818609E-02  0.8889479E-01
       -2   -1    0    0    0  501  0.00000000000E+00  0.00000000000E+00  0.43200595683E+03  0.43200595684E+03  0.25500000920E-02 0.  1.
        2   -1    0    0  501    0  0.00000000000E+00  0.00000000000E+00 -0.12890178900E+04  0.12890178900E+04  0.25500000920E-02 0. -1.
    10030    2    1    2    0    0  0.00000000000E+00  0.00000000000E+00 -0.85701193316E+03  0.17210238468E+04  0.14924656203E+04 0.  0.
        1    1    3    3  502    0 -0.50582451986E+03 -0.53883574187E+03 -0.30944164759E+03  0.80122190116E+03  0.50400001928E-02 0. -1.
       -1    1    3    3    0  502  0.50582451986E+03  0.53883574187E+03 -0.54757028557E+03  0.91980194568E+03  0.50400001928E-02 0.  1.
</event>
<event>
 5   0  0.7672251E-04  0.1508935E+04  0.7818609E-02  0.8878533E-01
        2   -1    0    0  501    0  0.00000000000E+00  0.00000000000E+00  0.94252378355E+03  0.94252378356E+03  0.25500000920E-02 0. -1.
       -2   -1    0    0    0  501  0.00000000000E+00  0.00000000000E+00 -0.60393295508E+03  0.60393295509E+03  0.25500000920E-02 0.  1.
    10030    2    1    2    0    0  0.00000000000E+00  0.00000000000E+00  0.33859082847E+03  0.15464567386E+04  0.15089349540E+04 0.  0.
        5    1    3    3  502    0 -0.11072894558E+03 -0.57866507193E+03 -0.31368196485E+03  0.66748230683E+03  0.46999998093E+01 0.  1.
       -5    1    3    3    0  502  0.11072894558E+03  0.57866507193E+03  0.65227279332E+03  0.87897443181E+03  0.46999998093E+01 0. -1.
</event>
<event>
 5   0  0.3907345E-04  0.1511636E+04  0.7818609E-02  0.8876752E-01
        1   -1    0    0  501    0  0.00000000000E+00  0.00000000000E+00  0.11109349403E+04  0.11109349403E+04  0.50400001928E-02 0. -1.
       -1   -1    0    0    0  501  0.00000000000E+00  0.00000000000E+00 -0.51421629608E+03  0.51421629610E+03  0.50400001928E-02 0.  1.
    10030    2    1    2    0    0  0.00000000000E+00  0.00000000000E+00  0.59671864419E+03  0.16251512364E+04  0.15116360014E+04 0.  0.
        5    1    3    3  502    0 -0.62411065033E+03 -0.14139113551E+03  0.73071996097E+03  0.97132863050E+03  0.46999998093E+01 0. -1.
       -5    1    3    3    0  502  0.62411065033E+03  0.14139113551E+03 -0.13400131679E+03  0.65382260588E+03  0.46999998093E+01 0.  1.
</event>
<event>
 5   0  0.7547580E-04  0.1477032E+04  0.7818609E-02  0.8899872E-01
        2   -1    0    0  501    0  0.00000000000E+00  0.00000000000E+00  0.14818761296E+04  0.14818761296E+04  0.25500000920E-02 0. -1.
       -2   -1    0    0    0  501  0.00000000000E+00  0.00000000000E+00 -0.36805095180E+03  0.36805095181E+03  0.25500000920E-02 0.  1.
    10030    2    1    2    0    0  0.00000000000E+00  0.00000000000E+00  0.11138251778E+04  0.18499270814E+04  0.14770320510E+04 0.  0.
        4    1    3    3  502    0  0.28841015535E+03  0.27379014109E+03 -0.22250034469E+03  0.45568571994E+03  0.12699999809E+01 0.  1.
       -4    1    3    3    0  502 -0.28841015535E+03 -0.27379014109E+03  0.13363255224E+04  0.13942413614E+04  0.12699999809E+01 0. -1.
</event>
<event>
 5   0  0.4084462E-04  0.1517192E+04  0.7818609E-02  0.8873100E-01
       -1   -1    0    0    0  501  0.00000000000E+00  0.00000000000E+00  0.34874392044E+03  0.34874392048E+03  0.50400001928E-02 0. -1.
        1   -1    0    0  501    0  0.00000000000E+00  0.00000000000E+00 -0.16501165655E+04  0.16501165655E+04  0.50400001928E-02 0.  1.
    10030    2    1    2    0    0  0.00000000000E+00  0.00000000000E+00 -0.13013726451E+04  0.19988604860E+04  0.15171923020E+04 0.  0.
        1    1    3    3  502    0  0.52753384434E+03 -0.28753032832E+02  0.66519650603E+02  0.53248808227E+03  0.50400001928E-02 0. -1.
       -1    1    3    3    0  502 -0.52753384434E+03  0.28753032832E+02 -0.13678922957E+04  0.14663724038E+04  0.50400001928E-02 0.  1.
</event>
<event>
 5   0  0.3907345E-04  0.1481136E+04  0.7818609E-02  0.8897095E-01
        1   -1    0    0  501    0  0.00000000000E+00  0.00000000000E+00  0.92088564103E+03  0.92088564104E+03  0.50400001928E-02 0. -1.
       -1   -1    0    0    0  501  0.00000000000E+00  0.00000000000E+00 -0.59555824007E+03  0.59555824009E+03  0.50400001928E-02 0.  1.
    10030    2    1    2    0    0  0.00000000000E+00  0.00000000000E+00  0.32532740096E+03  0.15164438811E+04  0.14811360933E+04 0.  0.
        5    1    3    3  502    0 -0.22460700573E+02 -0.10524786440E+03  0.91282168819E+03  0.91915565627E+03  0.46999998093E+01 0. -1.
       -5    1    3    3    0  502  0.22460700573E+02  0.10524786440E+03 -0.58749428723E+03  0.59728822486E+03  0.46999998093E+01 0.  1.
</event>
<event>
 5   0  0.4015204E-04  0.1487236E+04  0.7818609E-02  0.8892985E-01
        1   -1    0    0  501    0  0.00000000000E+00  0.00000000000E+00  0.95546364221E+03  0.95546364222E+03  0.50400001928E-02 0. -1.
       -1   -1    0    0    0  501  0.00000000000E+00  0.00000000000E+00 -0.57874279111E+03  0.57874279113E+03  0.50400001928E-02 0.  1.
    10030    2    1    2    0    0  0.00000000000E+00  0.00000000000E+00  0.37672085110E+03  0.15342064334E+04  0.14872359532E+04 0.  0.
        2    1    3    3  502    0  0.30501592211E+03  0.39965680582E+03  0.75357666967E+03  0.90589076176E+03  0.25500000920E-02 0. -1.
       -2    1    3    3    0  502 -0.30501592211E+03 -0.39965680582E+03 -0.37685581856E+03  0.62831567159E+03  0.25500000920E-02 0.  1.
</event>
<event>
 5   0  0.4015204E-04  0.1516589E+04  0.7818609E-02  0.8873496E-01
        1   -1    0    0  501    0  0.00000000000E+00  0.00000000000E+00  0.12962097889E+04  0.12962097889E+04  0.50400001928E-02 0.  1.
       -1   -1    0    0    0  501  0.00000000000E+00  0.00000000000E+00 -0.44360898509E+03  0.44360898512E+03  0.50400001928E-02 0. -1.
    10030    2    1    2    0    0  0.00000000000E+00  0.00000000000E+00  0.85260080376E+03  0.17398187740E+04  0.15165886838E+04 0.  0.
        2    1    3    3  502    0  0.72066210605E+03  0.22863975635E+03  0.35960224976E+03  0.83722385735E+03  0.25500000920E-02 0. -1.
       -2    1    3    3    0  502 -0.72066210605E+03 -0.22863975635E+03  0.49299855400E+03  0.90259491663E+03  0.25500000920E-02 0.  1.
</event>
<event>
 5   0  0.3907345E-04  0.1498124E+04  0.7818609E-02  0.8885702E-01
        1   -1    0    0  501    0  0.00000000000E+00  0.00000000000E+00  0.59744395758E+03  0.59744395760E+03  0.50400001928E-02 0.  1.
       -1   -1    0    0    0  501  0.00000000000E+00  0.00000000000E+00 -0.93915703633E+03  0.93915703634E+03  0.50400001928E-02 0. -1.
    10030    2    1    2    0    0  0.00000000000E+00  0.00000000000E+00 -0.34171307874E+03  0.15366009939E+04  0.14981237554E+04 0.  0.
        5    1    3    3  502    0  0.44261681448E+03 -0.95212089855E+02  0.44120817769E+03  0.63218805159E+03  0.46999998093E+01 0.  1.
       -5    1    3    3    0  502 -0.44261681448E+03  0.95212089855E+02 -0.78292125644E+03  0.90441294235E+03  0.46999998093E+01 0. -1.
</event>
<event>
 5   0  0.3907345E-04  0.1486583E+04  0.7818609E-02  0.8893424E-01
        1   -1    0    0  501    0  0.00000000000E+00  0.00000000000E+00  0.96618245197E+03  0.96618245199E+03  0.50400001928E-02 0.  1.
       -1   -1    0    0    0  501  0.00000000000E+00  0.00000000000E+00 -0.57181983393E+03  0.57181983395E+03  0.50400001928E-02 0. -1.
    10030    2    1    2    0    0  0.00000000000E+00  0.00000000000E+00  0.39436261805E+03  0.15380022859E+04  0.14865830475E+04 0.  0.
        5    1    3    3  502    0 -0.22453292754E+03  0.69648806830E+03  0.62487792393E+02  0.73446407606E+03  0.46999998093E+01 0.  1.
       -5    1    3    3    0  502  0.22453292754E+03 -0.69648806830E+03  0.33187482565E+03  0.80353820988E+03  0.46999998093E+01 0. -1.
</event>
<event>
 5   0  0.4015204E-04  0.1518722E+04  0.7818609E-02  0.8872098E-01
        1   -1    0    0  501    0  0.00000000000E+00  0.00000000000E+00  0.13734769806E+04  0.13734769806E+04  0.50400001928E-02 0. -1.
       -1   -1    0    0    0  501  0.00000000000E+00  0.00000000000E+00 -0.41983157423E+03  0.41983157426E+03  0.50400001928E-02 0.  1.
    10030    2    1    2    0    0  0.00000000000E+00  0.00000000000E+00  0.95364540640E+03  0.17933085549E+04  0.15187218349E+04 0.  0.
        2    1    3    3  502    0 -0.26666062207E+03  0.45653586678E+03  0.11204363913E+04  0.12389150866E+04  0.25500000920E-02 0. -1.
       -2    1    3    3    0  502  0.26666062207E+03 -0.45653586678E+03 -0.16679098487E+03  0.55439346827E+03  0.25500000920E-02 0.  1.
</event>
<event>
 5   0  0.4015204E-04  0.1536870E+04  0.7818609E-02  0.8860299E-01
        1   -1    0    0  501    0  0.00000000000E+00  0.00000000000E+00  0.21944573055E+04  0.21944573055E+04  0.50400001928E-02 0. -1.
       -1   -1    0    0    0  501  0.00000000000E+00  0.00000000000E+00 -0.26908341509E+03  0.26908341514E+03  0.50400001928E-02 0.  1.
    10030    2    1    2    0    0  0.00000000000E+00  0.00000000000E+00  0.19253738904E+04  0.24635407206E+04  0.15368696315E+04 0.  0.
        2    1    3    3  502    0 -0.54176674995E+03 -0.12076196343E+03  0.18145172086E+04  0.18975161036E+04  0.25500000920E-02 0. -1.
       -2    1    3    3    0  502  0.54176674995E+03  0.12076196343E+03  0.11085668181E+03  0.56602461702E+03  0.25500000920E-02 0.  1.
</event>
<event>
 5   0  0.2800375E-04  0.1347537E+04  0.7818609E-02  0.8992695E-01
       -4   -1    0    0    0  501  0.00000000000E+00  0.00000000000E+00  0.52249168240E+03  0.52249322587E+03  0.12699999809E+01 0.  1.
        4   -1    0    0  501    0  0.00000000000E+00  0.00000000000E+00 -0.86884082633E+03  0.86884175452E+03  0.12699999809E+01 0. -1.
    10030    2    1    2    0    0  0.00000000000E+00  0.00000000000E+00 -0.34634914393E+03  0.13913349804E+04  0.13475367521E+04 0.  0.
        5    1    3    3  502    0  0.18295331895E+03  0.44673839287E+03  0.31209567049E+03  0.57486772923E+03  0.46999998093E+01 0.  1.
       -5    1    3    3    0  502 -0.18295331895E+03 -0.44673839287E+03 -0.65844481441E+03  0.81646725115E+03  0.46999998093E+01 0. -1.
</event>
<event>
 5   0  0.7359897E-04  0.1524025E+04  0.7818609E-02  0.8868632E-01
        2   -1    0    0  501    0  0.00000000000E+00  0.00000000000E+00  0.16070978687E+04  0.16070978687E+04  0.25500000920E-02 0. -1.
       -2   -1    0    0    0  501  0.00000000000E+00  0.00000000000E+00 -0.36131160814E+03  0.36131160815E+03  0.25500000920E-02 0.  1.
    10030    2    1    2    0    0  0.00000000000E+00  0.00000000000E+00  0.12457862606E+04  0.19684094769E+04  0.15240250856E+04 0.  0.
        1    1    3    3  502    0  0.42649229156E+03 -0.49699057911E+03  0.11260612977E+04  0.13026547343E+04  0.50400001928E-02 0. -1.
       -1    1    3    3    0  502 -0.42649229156E+03  0.49699057911E+03  0.11972496282E+03  0.66575474256E+03  0.50400001928E-02 0.  1.
</event>
<event>
 5   0  0.3907345E-04  0.1501812E+04  0.7818609E-02  0.8883249E-01
        1   -1    0    0  501    0  0.00000000000E+00  0.00000000000E+00  0.11050450777E+04  0.11050450777E+04  0.50400001928E-02 0.  1.
       -1   -1    0    0    0  501  0.00000000000E+00  0.00000000000E+00 -0.51025966311E+03  0.51025966314E+03  0.50400001928E-02 0. -1.
    10030    2    1    2    0    0  0.00000000000E+00  0.00000000000E+00  0.59478541456E+03  0.16153047408E+04  0.15018121442E+04 0.  0.
        5    1    3    3  502    0 -0.46390427775E+02  0.17562387046E+01  0.11034842656E+04  0.11044703575E+04  0.46999998093E+01 0.  1.
       -5    1    3    3    0  502  0.46390427775E+02 -0.17562387046E+01 -0.50869885103E+03  0.51083438334E+03  0.46999998093E+01 0. -1.
</event>
<event>
 5   0  0.4015204E-04  0.1518114E+04  0.7818609E-02  0.8872496E-01
       -1   -1    0    0    0  501  0.00000000000E+00  0.00000000000E+00  0.51916265365E+03  0.51916265367E+03  0.50400001928E-02 0.  1.
        1   -1    0    0  501    0  0.00000000000E+00  0.00000000000E+00 -0.11098012105E+04  0.11098012105E+04  0.50400001928E-02 0. -1.
    10030    2    1    2    0    0  0.00000000000E+00  0.00000000000E+00 -0.59063855685E+03  0.16289638642E+04  0.15181137526E+04 0.  0.
        2    1    3    3  502    0 -0.73739526018E+03 -0.23044462386E+02 -0.48691998579E+03  0.88395355622E+03  0.25500000920E-02 0. -1.
       -2    1    3    3    0  502  0.73739526018E+03  0.23044462386E+02 -0.10371857106E+03  0.74501030796E+03  0.25500000920E-02 0.  1.
</event>
<event>
 5   0  0.4084462E-04  0.1389039E+04  0.7818609E-02  0.8961791E-01
       -1   -1    0    0    0  501  0.00000000000E+00  0.00000000000E+00  0.11962756279E+04  0.11962756279E+04  0.50400001928E-02 0. -1.
        1   -1    0    0  501    0  0.00000000000E+00  0.00000000000E+00 -0.40321563825E+03  0.40321563829E+03  0.50400001928E-02 0.  1.
    10030    2    1    2    0    0  0.00000000000E+00  0.00000000000E+00  0.79305998968E+03  0.15994912662E+04  0.13890385752E+04 0.  0.
        1    1    3    3  502    0 -0.60090740401E+03  0.34821637948E+03  0.39242866059E+03  0.79771210898E+03  0.50400001928E-02 0.  1.
       -1    1    3    3    0  502  0.60090740401E+03 -0.34821637948E+03  0.40063132909E+03  0.80177915725E+03  0.50400001928E-02 0. -1.
</event>
<event>
 5   0  0.7672251E-04  0.1489132E+04  0.7818609E-02  0.8891712E-01
        2   -1    0    0  501    0  0.00000000000E+00  0.00000000000E+00  0.61884401085E+03  0.61884401086E+03  0.25500000920E-02 0. -1.
       -2   -1    0    0    0  501  0.00000000000E+00  0.00000000000E+00 -0.89582906774E+03  0.89582906774E+03  0.25500000920E-02 0.  1.
    10030    2    1    2    0    0  0.00000000000E+00  0.00000000000E+00 -0.27698505689E+03  0.15146730786E+04  0.14891318992E+04 0.  0.
        5    1    3    3  502    0  0.39232656467E+03 -0.51408103105E+03 -0.51381589610E+03  0.82597112838E+03  0.46999998093E+01 0. -1.
       -5    1    3    3    0  502 -0.39232656467E+03  0.51408103105E+03  0.23683083922E+03  0.68870195022E+03  0.46999998093E+01 0.  1.
</event>
<event>
 5   0  0.7672251E-04  0.1529502E+04  0.7818609E-02  0.8865068E-01
       -2   -1    0    0    0  501  0.00000000000E+00  0.00000000000E+00  0.33153498981E+03  0.33153498982E+03  0.25500000920E-02 0.  1.
        2   -1    0    0  501    0  0.00000000000E+00  0.00000000000E+00 -0.17640502382E+04  0.17640502382E+04  0.25500000920E-02 0. -1.
    10030    2    1    2    0    0  0.00000000000E+00  0.00000000000E+00 -0.14325152484E+04  0.20955852280E+04  0.15295023737E+04 0.  0.
        5    1    3    3  502    0  0.66095723245E+03 -0.22238057032E+03 -0.11462726824E+04  0.13417454057E+04  0.46999998093E+01 0. -1.
       -5    1    3    3    0  502 -0.66095723245E+03  0.22238057032E+03 -0.28624256597E+03  0.75383982235E+03  0.46999998093E+01 0.  1.
</event>
<event>
 5   0  0.7547580E-04  0.1505376E+04  0.7818609E-02  0.8880886E-01
       -2   -1    0    0    0  501  0.00000000000E+00  0.00000000000E+00  0.52780939213E+03  0.52780939214E+03  0.25500000920E-02 0.  1.
        2   -1    0    0  501    0  0.00000000000E+00  0.00000000000E+00 -0.10733781090E+04  0.10733781090E+04  0.25500000920E-02 0. -1.
    10030    2    1    2    0    0  0.00000000000E+00  0.00000000000E+00 -0.54556871689E+03  0.16011875012E+04  0.15053757634E+04 0.  0.
        4    1    3    3  502    0 -0.34763743087E+03  0.27928019607E+03 -0.91775081983E+03  0.10203516019E+04  0.12699999809E+01 0. -1.
       -4    1    3    3    0  502  0.34763743087E+03 -0.27928019607E+03  0.37218210293E+03  0.58083589929E+03  0.12699999809E+01 0.  1.
</event>
<event>
 5   0  0.3907345E-04  0.1605521E+04  0.7818609E-02  0.8817164E-01
        1   -1    0    0  501    0  0.00000000000E+00  0.00000000000E+00  0.87718745592E+03  0.87718745593E+03  0.50400001928E-02 0.  1.
       -1   -1    0    0    0  501  0.00000000000E+00  0.00000000000E+00 -0.73464806775E+03  0.73464806777E+03  0.50400001928E-02 0. -1.
    10030    2    1    2    0    0  0.00000000000E+00  0.00000000000E+00  0.14253938817E+03  0.16118355237E+04  0.16055205630E+04 0.  0.
        5    1    3    3  502    0 -0.80085628326E+03 -0.54997090262E+02  0.68707558308E+02  0.80569118460E+03  0.46999998093E+01 0. -1.
       -5    1    3    3    0  502  0.80085628326E+03  0.54997090262E+02  0.73831829858E+02  0.80614433910E+03  0.46999998093E+01 0.  1.
</event>
<event>
 5   0  0.7634227E-04  0.1501526E+04  0.7818609E-02  0.8883439E-01
        2   -1    0    0  501    0  0.00000000000E+00  0.00000000000E+00  0.19695337938E+04  0.19695337938E+04  0.25500000920E-02 0.  1.
       -2   -1    0    0    0  501  0.00000000000E+00  0.00000000000E+00 -0.28618190812E+03  0.28618190813E+03  0.25500000920E-02 0. -1.
    10030    2    1    2    0    0  0.00000000000E+00  0.00000000000E+00  0.16833518857E+04  0.22557157020E+04  0.15015258096E+04 0.  0.
        2    1    3    3  502    0 -0.21397026779E+02 -0.14809894978E+03 -0.26355247551E+03  0.30306936341E+03  0.25500000920E-02 0. -1.
       -2    1    3    3    0  502  0.21397026779E+02  0.14809894978E+03  0.19469043612E+04  0.19526463386E+04  0.25500000920E-02 0.  1.
</event>
<event>
 5   0  0.4015204E-04  0.1349707E+04  0.7818609E-02  0.8991050E-01
       -1   -1    0    0    0  501  0.00000000000E+00  0.00000000000E+00  0.47292176763E+03  0.47292176766E+03  0.50400001928E-02 0. -1.
        1   -1    0    0  501    0  0.00000000000E+00  0.00000000000E+00 -0.96300809784E+03  0.96300809785E+03  0.50400001928E-02 0.  1.
    10030    2    1    2    0    0  0.00000000000E+00  0.00000000000E+00 -0.49008633021E+03  0.14359298655E+04  0.13497073637E+04 0.  0.
        2    1    3    3  502    0 -0.39032748652E+03  0.26586692703E+03 -0.75790368264E+03  0.89300546571E+03  0.25500000920E-02 0.  1.
       -2    1    3    3    0  502  0.39032748652E+03 -0.26586692703E+03  0.26781735243E+03  0.54292439980E+03  0.25500000920E-02 0. -1.
</event>
<event>
 5   0  0.7634227E-04  0.1508431E+04  0.7818609E-02  0.8878865E-01
       -2   -1    0    0    0  501  0.00000000000E+00  0.00000000000E+00  0.13482669749E+04  0.13482669749E+04  0.25500000920E-02 0.  1.
        2   -1    0    0  501    0  0.00000000000E+00  0.00000000000E+00 -0.42190556628E+03  0.42190556629E+03  0.25500000920E-02 0. -1.
    10030    2    1    2    0    0  0.00000000000E+00  0.00000000000E+00  0.92636140861E+03  0.17701725412E+04  0.15084314258E+04 0.  0.
        2    1    3    3  502    0  0.42935498671E+03  0.56505931624E+03  0.16352273263E+03  0.72827015562E+03  0.25500000920E-02 0. -1.
       -2    1    3    3    0  502 -0.42935498671E+03 -0.56505931624E+03  0.76283867598E+03  0.10419023856E+04  0.25500000920E-02 0.  1.
</event>
<event>
 5   0  0.3907345E-04  0.1497437E+04  0.7818609E-02  0.8886159E-01
        1   -1    0    0  501    0  0.00000000000E+00  0.00000000000E+00  0.10423801157E+04  0.10423801157E+04  0.50400001928E-02 0.  1.
       -1   -1    0    0    0  501  0.00000000000E+00  0.00000000000E+00 -0.53778796078E+03  0.53778796081E+03  0.50400001928E-02 0. -1.
    10030    2    1    2    0    0  0.00000000000E+00  0.00000000000E+00  0.50459215488E+03  0.15801680765E+04  0.14974371129E+04 0.  0.
        5    1    3    3  502    0 -0.49723994552E+03  0.44577408620E+03 -0.10492581775E+03  0.67601302988E+03  0.46999998093E+01 0. -1.
       -5    1    3    3    0  502  0.49723994552E+03 -0.44577408620E+03  0.60951797264E+03  0.90415504661E+03  0.46999998093E+01 0.  1.
</event>
<event>
 5   0  0.7547580E-04  0.1532060E+04  0.7818609E-02  0.8863409E-01
        2   -1    0    0  501    0  0.00000000000E+00  0.00000000000E+00  0.70953922736E+03  0.70953922737E+03  0.25500000920E-02 0.  1.
       -2   -1    0    0    0  501  0.00000000000E+00  0.00000000000E+00 -0.82701858058E+03  0.82701858058E+03  0.25500000920E-02 0. -1.
    10030    2    1    2    0    0  0.00000000000E+00  0.00000000000E+00 -0.11747935322E+03  0.15365578080E+04  0.15320602138E+04 0.  0.
        4    1    3    3  502    0 -0.29855722322E+03 -0.23170588242E+03 -0.72701134781E+03  0.81937240876E+03  0.12699999809E+01 0. -1.
       -4    1    3    3    0  502  0.29855722322E+03  0.23170588242E+03  0.60953199459E+03  0.71718539920E+03  0.12699999809E+01 0.  1.
</event>
<event>
 5   0  0.4084462E-04  0.1569102E+04  0.7818609E-02  0.8839758E-01
       -1   -1    0    0    0  501  0.00000000000E+00  0.00000000000E+00  0.88115189989E+03  0.88115189990E+03  0.50400001928E-02 0.  1.
        1   -1    0    0  501    0  0.00000000000E+00  0.00000000000E+00 -0.69854016205E+03  0.69854016207E+03  0.50400001928E-02 0. -1.
    10030    2    1    2    0    0  0.00000000000E+00  0.00000000000E+00  0.18261173783E+03  0.15796920620E+04  0.15691016423E+04 0.  0.
        1    1    3    3  502    0  0.67323419768E+03  0.94756289400E+02  0.48547999938E+03  0.83541239465E+03  0.50400001928E-02 0.  1.
       -1    1    3    3    0  502 -0.67323419768E+03 -0.94756289400E+02 -0.30286826155E+03  0.74427966732E+03  0.50400001928E-02 0. -1.
</event>
<event>
 5   0  0.3907345E-04  0.1494692E+04  0.7818609E-02  0.8887990E-01
        1   -1    0    0  501    0  0.00000000000E+00  0.00000000000E+00  0.78602070928E+03  0.78602070929E+03  0.50400001928E-02 0. -1.
       -1   -1    0    0    0  501  0.00000000000E+00  0.00000000000E+00 -0.71057454597E+03  0.71057454599E+03  0.50400001928E-02 0.  1.
    10030    2    1    2    0    0  0.00000000000E+00  0.00000000000E+00  0.75446163307E+02  0.14965952553E+04  0.14946923545E+04 0.  0.
        5    1    3    3  502    0  0.69600077618E+03 -0.13318489064E+03  0.27540457160E+03  0.76027959567E+03  0.46999998093E+01 0.  1.
       -5    1    3    3    0  502 -0.69600077618E+03  0.13318489064E+03 -0.19995840830E+03  0.73631565961E+03  0.46999998093E+01 0. -1.
</event>
<event>
 5   0  0.4084462E-04  0.1503801E+04  0.7818609E-02  0.8881929E-01
        1   -1    0    0  501    0  0.00000000000E+00  0.00000000000E+00  0.15709948767E+04  0.15709948767E+04  0.50400001928E-02 0. -1.
       -1   -1    0    0    0  501  0.00000000000E+00  0.00000000000E+00 -0.35987039195E+03  0.35987039198E+03  0.50400001928E-02 0.  1.
    10030    2    1    2    0    0  0.00000000000E+00  0.00000000000E+00  0.12111244847E+04  0.19308652687E+04  0.15038012396E+04 0.  0.
        1    1    3    3  502    0 -0.23317111102E+03  0.11693230421E+03  0.15110368348E+04  0.15333865289E+04  0.50400001928E-02 0. -1.
       -1    1    3    3    0  502  0.23317111102E+03 -0.11693230421E+03 -0.29991235011E+03  0.39747873975E+03  0.50400001928E-02 0.  1.
</event>
<event>
 5   0  0.7634227E-04  0.1489136E+04  0.7818609E-02  0.8891709E-01
        2   -1    0    0  501    0  0.00000000000E+00  0.00000000000E+00  0.59303072733E+03  0.59303072734E+03  0.25500000920E-02 0. -1.
       -2   -1    0    0    0  501  0.00000000000E+00  0.00000000000E+00 -0.93482796411E+03  0.93482796412E+03  0.25500000920E-02 0.  1.
    10030    2    1    2    0    0  0.00000000000E+00  0.00000000000E+00 -0.34179723678E+03  0.15278586915E+04  0.14891362698E+04 0.  0.
        2    1    3    3  502    0 -0.38269674040E+03 -0.46650889929E+03 -0.61846937729E+03  0.86405539110E+03  0.25500000920E-02 0.  1.
       -2    1    3    3    0  502  0.38269674040E+03  0.46650889929E+03  0.27667214051E+03  0.66380330036E+03  0.25500000920E-02 0. -1.
</event>
<event>
 5   0  0.7454828E-04  0.1507486E+04  0.7818609E-02  0.8879490E-01
       -2   -1    0    0    0  501  0.00000000000E+00  0.00000000000E+00  0.21863252181E+03  0.21863252183E+03  0.25500000920E-02 0.  1.
        2   -1    0    0  501    0  0.00000000000E+00  0.00000000000E+00 -0.25985531657E+04  0.25985531657E+04  0.25500000920E-02 0. -1.
    10030    2    1    2    0    0  0.00000000000E+00  0.00000000000E+00 -0.23799206439E+04  0.28171856876E+04  0.15074856307E+04 0.  0.
        3    1    3    3  502    0  0.18913344008E+03  0.50278324640E+03 -0.20185260690E+03  0.57385271292E+03  0.10100000352E+00 0.  1.
       -3    1    3    3    0  502 -0.18913344008E+03 -0.50278324640E+03 -0.21780680370E+04  0.22433329747E+04  0.10100000352E+00 0. -1.
</event>
<event>
 5   0  0.3907345E-04  0.1401408E+04  0.7818609E-02  0.8952800E-01
        1   -1    0    0  501    0  0.00000000000E+00  0.00000000000E+00  0.47519133625E+03  0.47519133627E+03  0.50400001928E-02 0. -1.
       -1   -1    0    0    0  501  0.00000000000E+00  0.00000000000E+00 -0.10332388422E+04  0.10332388422E+04  0.50400001928E-02 0.  1.
    10030    2    1    2    0    0  0.00000000000E+00  0.00000000000E+00 -0.55804750593E+03  0.15084301785E+04  0.14014080721E+04 0.  0.
        5    1    3    3  502    0  0.25848321835E+03 -0.34237779748E+03  0.31729545702E+03  0.53360531052E+03  0.46999998093E+01 0. -1.
       -5    1    3    3    0  502 -0.25848321835E+03  0.34237779748E+03 -0.87534296295E+03  0.97482486794E+03  0.46999998093E+01 0.  1.
</event>
<event>
 5   0  0.7672251E-04  0.1501089E+04  0.7818609E-02  0.8883729E-01
       -2   -1    0    0    0  501  0.00000000000E+00  0.00000000000E+00  0.55747559208E+03  0.55747559208E+03  0.25500000920E-02 0. -1.
        2   -1    0    0  501    0  0.00000000000E+00  0.00000000000E+00 -0.10104782219E+04  0.10104782219E+04  0.25500000920E-02 0.  1.
    10030    2    1    2    0    0  0.00000000000E+00  0.00000000000E+00 -0.45300262981E+03  0.15679538140E+04  0.15010888648E+04 0.  0.
        5    1    3    3  502    0 -0.10665508517E+03  0.71967703718E+03 -0.41906188754E+03  0.83961020755E+03  0.46999998093E+01 0. -1.
       -5    1    3    3    0  502  0.10665508517E+03 -0.71967703718E+03 -0.33940742266E+02  0.72834360642E+03  0.46999998093E+01 0.  1.
</event>
<event>
 5   0  0.7672251E-04  0.1503278E+04  0.7818609E-02  0.8882276E-01
       -2   -1    0    0    0  501  0.00000000000E+00  0.00000000000E+00  0.31162609240E+03  0.31162609241E+03  0.25500000920E-02 0.  1.
        2   -1    0    0  501    0  0.00000000000E+00  0.00000000000E+00 -0.18129466951E+04  0.18129466951E+04  0.25500000920E-02 0. -1.
    10030    2    1    2    0    0  0.00000000000E+00  0.00000000000E+00 -0.15013206027E+04  0.21245727875E+04  0.15032784098E+04 0.  0.
        5    1    3    3  502    0 -0.20364279599E+03  0.69641854918E+03 -0.10278611345E+04  0.12581692199E+04  0.46999998093E+01 0.  1.
       -5    1    3    3    0  502  0.20364279599E+03 -0.69641854918E+03 -0.47345946821E+03  0.86640356765E+03  0.46999998093E+01 0. -1.
</event>
<event>
 5   0  0.7672251E-04  0.1478569E+04  0.7818609E-02  0.8898831E-01
        2   -1    0    0  501    0  0.00000000000E+00  0.00000000000E+00  0.11951522314E+04  0.11951522314E+04  0.25500000920E-02 0. -1.
       -2   -1    0    0    0  501  0.00000000000E+00  0.00000000000E+00 -0.45729862197E+03  0.45729862198E+03  0.25500000920E-02 0.  1.
    10030    2    1    2    0    0  0.00000000000E+00  0.00000000000E+00  0.73785360946E+03  0.16524508534E+04  0.14785688601E+04 0.  0.
        5    1    3    3  502    0  0.87008276726E+01  0.41998350023E+03  0.10487901414E+04  0.11297985199E+04  0.46999998093E+01 0. -1.
       -5    1    3    3    0  502 -0.87008276726E+01 -0.41998350023E+03 -0.31093653192E+03  0.52265233354E+03  0.46999998093E+01 0.  1.
</event>
<event>
 5   0  0.4084462E-04  0.1482587E+04  0.7818609E-02  0.8896115E-01
        1   -1    0    0  501    0  0.00000000000E+00  0.00000000000E+00  0.55426048970E+03  0.55426048972E+03  0.50400001928E-02 0. -1.
       -1   -1    0    0    0  501  0.00000000000E+00  0.00000000000E+00 -0.99144068027E+03  0.99144068028E+03  0.50400001928E-02 0.  1.
    10030    2    1    2    0    0  0.00000000000E+00  0.00000000000E+00 -0.43718019057E+03  0.15457011700E+04  0.14825874638E+04 0.  0.
        1    1    3    3  502    0 -0.19174069795E+03  0.60791712974E+03  0.17592128190E+03  0.66126850018E+03  0.50400001928E-02 0. -1.
       -1    1    3    3    0  502  0.19174069795E+03 -0.60791712974E+03 -0.61310147247E+03  0.88443266982E+03  0.50400001928E-02 0.  1.
</event>
<event>
 5   0  0.7547580E-04  0.1509517E+04  0.7818609E-02  0.8878149E-01
       -2   -1    0    0    0  501  0.00000000000E+00  0.00000000000E+00  0.35997242877E+03  0.35997242878E+03  0.25500000920E-02 0.  1.
        2   -1    0    0  501    0  0.00000000000E+00  0.00000000000E+00 -0.15825117136E+04  0.15825117136E+04  0.25500000920E-02 0. -1.
    10030    2    1    2    0    0  0.00000000000E+00  0.00000000000E+00 -0.12225392848E+04  0.19424841423E+04  0.15095172541E+04 0.  0.
        4    1    3    3  502    0 -0.53171659743E+03 -0.13325308752E+03 -0.12789073124E+04  0.13914325179E+04  0.12699999809E+01 0. -1.
       -4    1    3    3    0  502  0.53171659743E+03  0.13325308752E+03  0.56368027633E+02  0.55105162441E+03  0.12699999809E+01 0.  1.
</event>
<event>
 5   0  0.4084462E-04  0.1493691E+04  0.7818609E-02  0.8888659E-01
        1   -1    0    0  501    0  0.00000000000E+00  0.00000000000E+00  0.16557211563E+04  0.16557211563E+04  0.50400001928E-02 0. -1.
       -1   -1    0    0    0  501  0.00000000000E+00  0.00000000000E+00 -0.33687952161E+03  0.33687952164E+03  0.50400001928E-02 0.  1.
    10030    2    1    2    0    0  0.00000000000E+00  0.00000000000E+00  0.13188416347E+04  0.19926006779E+04  0.14936914689E+04 0.  0.
        1    1    3    3  502    0  0.15775178894E+03 -0.62544472772E+03  0.15723735576E+03  0.66392041723E+03  0.50400001928E-02 0.  1.
       -1    1    3    3    0  502 -0.15775178894E+03  0.62544472772E+03  0.11616042789E+04  0.13286802607E+04  0.50400001928E-02 0. -1.
</event>
<event>
 5   0  0.4084462E-04  0.1505252E+04  0.7818609E-02  0.8880968E-01
        1   -1    0    0  501    0  0.00000000000E+00  0.00000000000E+00  0.46676148618E+03  0.46676148620E+03  0.50400001928E-02 0. -1.
       -1   -1    0    0    0  501  0.00000000000E+00  0.00000000000E+00 -0.12135665772E+04  0.12135665772E+04  0.50400001928E-02 0.  1.
    10030    2    1    2    0    0  0.00000000000E+00  0.00000000000E+00 -0.74680509103E+03  0.16803280634E+04  0.15052523233E+04 0.  0.
        1    1    3    3  502    0  0.59603541583E+02 -0.65464128390E+03  0.35749544122E+02  0.65832045593E+03  0.50400001928E-02 0. -1.
       -1    1    3    3    0  502 -0.59603541583E+02  0.65464128390E+03 -0.78255463515E+03  0.10220076075E+04  0.50400001928E-02 0.  1.
</event>
<event>
 5   0  0.4015204E-04  0.1502465E+04  0.7818609E-02  0.8882816E-01
        1   -1    0    0  501    0  0.00000000000E+00  0.00000000000E+00  0.10863469605E+04  0.10863469605E+04  0.50400001928E-02 0. -1.
       -1   -1    0    0    0  501  0.00000000000E+00  0.00000000000E+00 -0.51949323766E+03  0.51949323768E+03  0.50400001928E-02 0.  1.
    10030    2    1    2    0    0  0.00000000000E+00  0.00000000000E+00  0.56685372279E+03  0.16058401981E+04  0.15024645084E+04 0.  0.
        2    1    3    3  502    0 -0.16302170187E+03  0.43520371714E+03 -0.34741345838E+03  0.58023655673E+03  0.25500000920E-02 0.  1.
       -2    1    3    3    0  502  0.16302170187E+03 -0.43520371714E+03  0.91426718118E+03  0.10256036414E+04  0.25500000920E-02 0. -1.
</event>
<event>
 5   0  0.7547580E-04  0.1487323E+04  0.7818609E-02  0.8892927E-01
       -2   -1    0    0    0  501  0.00000000000E+00  0.00000000000E+00  0.10248522453E+04  0.10248522453E+04  0.25500000920E-02 0. -1.
        2   -1    0    0  501    0  0.00000000000E+00  0.00000000000E+00 -0.53962170598E+03  0.53962170598E+03  0.25500000920E-02 0.  1.
    10030    2    1    2    0    0  0.00000000000E+00  0.00000000000E+00  0.48523053936E+03  0.15644739513E+04  0.14873231216E+04 0.  0.
        4    1    3    3  502    0 -0.33314737872E+02 -0.32163947648E+03  0.94703134714E+03  0.10007156489E+04  0.12699999809E+01 0. -1.
       -4    1    3    3    0  502  0.33314737872E+02  0.32163947648E+03 -0.46180080778E+03  0.56375830243E+03  0.12699999809E+01 0.  1.
</event>
<event>
 5   0  0.4058874E-04  0.1458318E+04  0.7818609E-02  0.8912654E-01
        1   -1    0    0  501    0  0.00000000000E+00  0.00000000000E+00  0.92359810773E+03  0.92359810774E+03  0.50400001928E-02 0.  1.
       -1   -1    0    0    0  501  0.00000000000E+00  0.00000000000E+00 -0.57565427984E+03  0.57565427986E+03  0.50400001928E-02 0. -1.
    10030    2    1    2    0    0  0.00000000000E+00  0.00000000000E+00  0.34794382789E+03  0.14992523876E+04  0.14583184887E+04 0.  0.
        4    1    3    3  502    0  0.10552040948E+02 -0.60740379003E+03 -0.24061016216E+03  0.65341072285E+03  0.12699999809E+01 0. -1.
       -4    1    3    3    0  502 -0.10552040948E+02  0.60740379003E+03  0.58855399005E+03  0.84584166474E+03  0.12699999809E+01 0.  1.
</event>
<event>
 5   0  0.4086710E-04  0.1484471E+04  0.7818609E-02  0.8894846E-01
       -1   -1    0    0    0  501  0.00000000000E+00  0.00000000000E+00  0.12806822974E+04  0.12806822974E+04  0.50400001928E-02 0.  1.
        1   -1    0    0  501    0  0.00000000000E+00  0.00000000000E+00 -0.43017195238E+03  0.43017195241E+03  0.50400001928E-02 0. -1.
    10030    2    1    2    0    0  0.00000000000E+00  0.00000000000E+00  0.85051034504E+03  0.17108542498E+04  0.14844710901E+04 0.  0.
        3    1    3    3  502    0  0.66000830869E+03 -0.27590696633E+03  0.19713575852E+03  0.74202300442E+03  0.10100000352E+00 0. -1.
       -3    1    3    3    0  502 -0.66000830869E+03  0.27590696633E+03  0.65337458652E+03  0.96883124543E+03  0.10100000352E+00 0.  1.
</event>
<event>
 5   0  0.7359897E-04  0.1515418E+04  0.7818609E-02  0.8874265E-01
       -2   -1    0    0    0  501  0.00000000000E+00  0.00000000000E+00  0.39905926610E+03  0.39905926610E+03  0.25500000920E-02 0.  1.
        2   -1    0    0  501    0  0.00000000000E+00  0.00000000000E+00 -0.14386902465E+04  0.14386902465E+04  0.25500000920E-02 0. -1.
    10030    2    1    2    0    0  0.00000000000E+00  0.00000000000E+00 -0.10396309804E+04  0.18377495126E+04  0.15154176638E+04 0.  0.
        1    1    3    3  502    0 -0.47228876313E+03  0.31522952425E+03 -0.11282200016E+04  0.12630545122E+04  0.50400001928E-02 0. -1.
       -1    1    3    3    0  502  0.47228876313E+03 -0.31522952425E+03  0.88589021240E+02  0.57469500037E+03  0.50400001928E-02 0.  1.
</event>
<event>
 5   0  0.7672251E-04  0.1453810E+04  0.7818609E-02  0.8915763E-01
        2   -1    0    0  501    0  0.00000000000E+00  0.00000000000E+00  0.12610785394E+04  0.12610785394E+04  0.25500000920E-02 0.  1.
       -2   -1    0    0    0  501  0.00000000000E+00  0.00000000000E+00 -0.41899933003E+03  0.41899933004E+03  0.25500000920E-02 0. -1.
    10030    2    1    2    0    0  0.00000000000E+00  0.00000000000E+00  0.84207920935E+03  0.16800778694E+04  0.14538102533E+04 0.  0.
        5    1    3    3  502    0 -0.90271222619E+02  0.72065563786E+03  0.45523420057E+03  0.85717775833E+03  0.46999998093E+01 0. -1.
       -5    1    3    3    0  502  0.90271222619E+02 -0.72065563786E+03  0.38684500878E+03  0.82290011109E+03  0.46999998093E+01 0.  1.
</event>
<event>
 5   0  0.4058874E-04  0.1393987E+04  0.7818609E-02  0.8958183E-01
        1   -1    0    0  501    0  0.00000000000E+00  0.00000000000E+00  0.70065044693E+03  0.70065044695E+03  0.50400001928E-02 0. -1.
       -1   -1    0    0    0  501  0.00000000000E+00  0.00000000000E+00 -0.69335540597E+03  0.69335540599E+03  0.50400001928E-02 0.  1.
    10030    2    1    2    0    0  0.00000000000E+00  0.00000000000E+00  0.72950409620E+01  0.13940058529E+04  0.13939867648E+04 0.  0.
        4    1    3    3  502    0  0.16486148271E+03 -0.50998021911E+03  0.44923080916E+03  0.69933473041E+03  0.12699999809E+01 0. -1.
       -4    1    3    3    0  502 -0.16486148271E+03  0.50998021911E+03 -0.44193576820E+03  0.69467112253E+03  0.12699999809E+01 0.  1.
</event>
<event>
 5   0  0.7547580E-04  0.1493630E+04  0.7818609E-02  0.8888700E-01
       -2   -1    0    0    0  501  0.00000000000E+00  0.00000000000E+00  0.27964212003E+03  0.27964212004E+03  0.25500000920E-02 0.  1.
        2   -1    0    0  501    0  0.00000000000E+00  0.00000000000E+00 -0.19944516721E+04  0.19944516721E+04  0.25500000920E-02 0. -1.
    10030    2    1    2    0    0  0.00000000000E+00  0.00000000000E+00 -0.17148095521E+04  0.22740937921E+04  0.14936300665E+04 0.  0.
        4    1    3    3  502    0  0.25573121988E+03  0.51327106795E+03 -0.15858122680E+04  0.16863118953E+04  0.12699999809E+01 0. -1.
       -4    1    3    3    0  502 -0.25573121988E+03 -0.51327106795E+03 -0.12899728404E+03  0.58778189680E+03  0.12699999809E+01 0.  1.
</event>
<event>
 5   0  0.7634227E-04  0.1522819E+04  0.7818609E-02  0.8869419E-01
       -2   -1    0    0    0  501  0.00000000000E+00  0.00000000000E+00  0.31595374016E+03  0.31595374017E+03  0.25500000920E-02 0. -1.
        2   -1    0    0  501    0  0.00000000000E+00  0.00000000000E+00 -0.18349034037E+04  0.18349034037E+04  0.25500000920E-02 0.  1.
    10030    2    1    2    0    0  0.00000000000E+00  0.00000000000E+00 -0.15189496636E+04  0.21508571439E+04  0.15228192188E+04 0.  0.
        2    1    3    3  502    0 -0.42433157253E+03 -0.25580774446E+03 -0.15760548249E+04  0.16521028106E+04  0.25500000920E-02 0.  1.
       -2    1    3    3    0  502  0.42433157253E+03  0.25580774446E+03  0.57105161324E+02  0.49875433334E+03  0.25500000920E-02 0. -1.
</event>
<event>
 5   0  0.4084462E-04  0.1507008E+04  0.7818609E-02  0.8879806E-01
       -1   -1    0    0    0  501  0.00000000000E+00  0.00000000000E+00  0.12308891076E+04  0.12308891077E+04  0.50400001928E-02 0.  1.
        1   -1    0    0  501    0  0.00000000000E+00  0.00000000000E+00 -0.46126676156E+03  0.46126676159E+03  0.50400001928E-02 0. -1.
    10030    2    1    2    0    0  0.00000000000E+00  0.00000000000E+00  0.76962234608E+03  0.16921558692E+04  0.15070079397E+04 0.  0.
        1    1    3    3  502    0  0.57543764415E+03  0.65743199348E+02 -0.15639889064E+03  0.59992604843E+03  0.50400001928E-02 0. -1.
       -1    1    3    3    0  502 -0.57543764415E+03 -0.65743199348E+02  0.92602123673E+03  0.10922298208E+04  0.50400001928E-02 0.  1.
</event>
<event>
 5   0  0.7634227E-04  0.1499913E+04  0.7818609E-02  0.8884511E-01
        2   -1    0    0  501    0  0.00000000000E+00  0.00000000000E+00  0.15363561535E+04  0.15363561535E+04  0.25500000920E-02 0. -1.
       -2   -1    0    0    0  501  0.00000000000E+00  0.00000000000E+00 -0.36608357637E+03  0.36608357638E+03  0.25500000920E-02 0.  1.
    10030    2    1    2    0    0  0.00000000000E+00  0.00000000000E+00  0.11702725771E+04  0.19024397298E+04  0.14999130045E+04 0.  0.
        2    1    3    3  502    0  0.44441275286E+03 -0.60278612784E+03  0.53470464325E+03  0.92019718884E+03  0.25500000920E-02 0. -1.
       -2    1    3    3    0  502 -0.44441275286E+03  0.60278612784E+03  0.63556793384E+03  0.98224254100E+03  0.25500000920E-02 0.  1.
</event>
<event>
 5   0  0.4015204E-04  0.1488769E+04  0.7818609E-02  0.8891956E-01
       -1   -1    0    0    0  501  0.00000000000E+00  0.00000000000E+00  0.99283563066E+03  0.99283563067E+03  0.50400001928E-02 0.  1.
        1   -1    0    0  501    0  0.00000000000E+00  0.00000000000E+00 -0.55810705960E+03  0.55810705962E+03  0.50400001928E-02 0. -1.
    10030    2    1    2    0    0  0.00000000000E+00  0.00000000000E+00  0.43472857106E+03  0.15509426903E+04  0.14887693905E+04 0.  0.
        2    1    3    3  502    0  0.55799409861E+02  0.27857280126E+03 -0.49940413981E+03  0.57456146287E+03  0.25500000920E-02 0. -1.
       -2    1    3    3    0  502 -0.55799409861E+02 -0.27857280126E+03  0.93413271087E+03  0.97638122743E+03  0.25500000920E-02 0.  1.
</event>
<event>
 5   0  0.4058874E-04  0.1503077E+04  0.7818609E-02  0.8882410E-01
       -1   -1    0    0    0  501  0.00000000000E+00  0.00000000000E+00  0.47179256448E+03  0.47179256450E+03  0.50400001928E-02 0.  1.
        1   -1    0    0  501    0  0.00000000000E+00  0.00000000000E+00 -0.11971572560E+04  0.11971572560E+04  0.50400001928E-02 0. -1.
    10030    2    1    2    0    0  0.00000000000E+00  0.00000000000E+00 -0.72536469152E+03  0.16689498205E+04  0.15030767005E+04 0.  0.
        4    1    3    3  502    0 -0.44477829837E+02 -0.29798241353E+03 -0.11271656761E+04  0.11667372756E+04  0.12699999809E+01 0. -1.
       -4    1    3    3    0  502  0.44477829837E+02  0.29798241353E+03  0.40180098457E+03  0.50221254487E+03  0.12699999809E+01 0.  1.
</event>
<event>
 5   0  0.7359897E-04  0.1398684E+04  0.7818609E-02  0.8954771E-01
        2   -1    0    0  501    0  0.00000000000E+00  0.00000000000E+00  0.11233670484E+04  0.11233670484E+04  0.25500000920E-02 0.  1.
       -2   -1    0    0    0  501  0.00000000000E+00  0.00000000000E+00 -0.43536927976E+03  0.43536927977E+03  0.25500000920E-02 0. -1.
    10030    2    1    2    0    0  0.00000000000E+00  0.00000000000E+00  0.68799776860E+03  0.15587363281E+04  0.13986843858E+04 0.  0.
        1    1    3    3  502    0  0.68740858678E+03 -0.12150471874E+03  0.29690789331E+03  0.75858306005E+03  0.50400001928E-02 0. -1.
       -1    1    3    3    0  502 -0.68740858678E+03  0.12150471874E+03  0.39108987529E+03  0.80015326809E+03  0.50400001928E-02 0.  1.
</event>
<event>
 5   0  0.7634227E-04  0.1535894E+04  0.7818609E-02  0.8860928E-01
        2   -1    0    0  501    0  0.00000000000E+00  0.00000000000E+00  0.51244380493E+03  0.51244380494E+03  0.25500000920E-02 0.  1.
       -2   -1    0    0    0  501  0.00000000000E+00  0.00000000000E+00 -0.11508441501E+04  0.11508441501E+04  0.25500000920E-02 0. -1.
    10030    2    1    2    0    0  0.00000000000E+00  0.00000000000E+00 -0.63840034515E+03  0.16632879550E+04  0.15358944692E+04 0.  0.
        2    1    3    3  502    0  0.10960012507E+03 -0.64493515593E+03 -0.75479339608E+03  0.99883262539E+03  0.25500000920E-02 0. -1.
       -2    1    3    3    0  502 -0.10960012507E+03  0.64493515593E+03  0.11639305093E+03  0.66445532963E+03  0.25500000920E-02 0.  1.
</event>
<event>
 5   0  0.4084462E-04  0.1490720E+04  0.7818609E-02  0.8890647E-01
       -1   -1    0    0    0  501  0.00000000000E+00  0.00000000000E+00  0.82556542677E+03  0.82556542678E+03  0.50400001928E-02 0. -1.
        1   -1    0    0  501    0  0.00000000000E+00  0.00000000000E+00 -0.67294680093E+03  0.67294680095E+03  0.50400001928E-02 0.  1.
    10030    2    1    2    0    0  0.00000000000E+00  0.00000000000E+00  0.15261862584E+03  0.14985122277E+04  0.14907201118E+04 0.  0.
        1    1    3    3  502    0  0.50569487690E+03 -0.44171575752E+03  0.40160783859E+03  0.78238671704E+03  0.50400001928E-02 0. -1.
       -1    1    3    3    0  502 -0.50569487690E+03  0.44171575752E+03 -0.24898921276E+03  0.71612551069E+03  0.50400001928E-02 0.  1.
</event>
<event>
 5   0  0.4015204E-04  0.1526778E+04  0.7818609E-02  0.8866839E-01
       -1   -1    0    0    0  501  0.00000000000E+00  0.00000000000E+00  0.48789476305E+03  0.48789476308E+03  0.50400001928E-02 0.  1.
        1   -1    0    0  501    0  0.00000000000E+00  0.00000000000E+00 -0.11944436999E+04  0.11944436999E+04  0.50400001928E-02 0. -1.
    10030    2    1    2    0    0  0.00000000000E+00  0.00000000000E+00 -0.70654893680E+03  0.16823384629E+04  0.15267780794E+04 0.  0.
        2    1    3    3  502    0  0.19816189882E+03  0.73622131524E+03 -0.31098632652E+03  0.82340904686E+03  0.25500000920E-02 0. -1.
       -2    1    3    3    0  502 -0.19816189882E+03 -0.73622131524E+03 -0.39556261028E+03  0.85892941608E+03  0.25500000920E-02 0.  1.
</event>
<event>
 5   0  0.7359897E-04  0.1503009E+04  0.7818609E-02  0.8882454E-01
        2   -1    0    0  501    0  0.00000000000E+00  0.00000000000E+00  0.77613743495E+03  0.77613743496E+03  0.25500000920E-02 0. -1.
       -2   -1    0    0    0  501  0.00000000000E+00  0.00000000000E+00 -0.72765328332E+03  0.72765328333E+03  0.25500000920E-02 0.  1.
    10030    2    1    2    0    0  0.00000000000E+00  0.00000000000E+00  0.48484151630E+02  0.15037907183E+04  0.15030089193E+04 0.  0.
        1    1    3    3  502    0  0.36141236506E+03  0.23451809571E+02 -0.63457599774E+03  0.73065421502E+03  0.50400001928E-02 0.  1.
       -1    1    3    3    0  502 -0.36141236506E+03 -0.23451809571E+02  0.68306014937E+03  0.77313650326E+03  0.50400001928E-02 0. -1.
</event>
<event>
 5   0  0.4015204E-04  0.1494980E+04  0.7818609E-02  0.8887798E-01
        1   -1    0    0  501    0  0.00000000000E+00  0.00000000000E+00  0.10138372182E+04  0.10138372182E+04  0.50400001928E-02 0.  1.
       -1   -1    0    0    0  501  0.00000000000E+00  0.00000000000E+00 -0.55111553475E+03  0.55111553478E+03  0.50400001928E-02 0. -1.
    10030    2    1    2    0    0  0.00000000000E+00  0.00000000000E+00  0.46272168347E+03  0.15649527530E+04  0.14949801881E+04 0.  0.
        2    1    3    3  502    0  0.55945870846E+03 -0.32611115690E+03  0.62219766826E+03  0.89803812365E+03  0.25500000920E-02 0.  1.
       -2    1    3    3    0  502 -0.55945870846E+03  0.32611115690E+03 -0.15947598479E+03  0.66691462936E+03  0.25500000920E-02 0. -1.
</event>
<event>
 5   0  0.4086710E-04  0.1481991E+04  0.7818609E-02  0.8896518E-01
       -1   -1    0    0    0  501  0.00000000000E+00  0.00000000000E+00  0.24397038494E+03  0.24397038499E+03  0.50400001928E-02 0. -1.
        1   -1    0    0  501    0  0.00000000000E+00  0.00000000000E+00 -0.22505774586E+04  0.22505774586E+04  0.50400001928E-02 0.  1.
    10030    2    1    2    0    0  0.00000000000E+00  0.00000000000E+00 -0.20066070737E+04  0.24945478436E+04  0.14819908893E+04 0.  0.
        3    1    3    3  502    0 -0.45383667948E+03 -0.39876286222E+03 -0.28108782667E+03  0.66632569246E+03  0.10100000352E+00 0. -1.
       -3    1    3    3    0  502  0.45383667948E+03  0.39876286222E+03 -0.17255192470E+04  0.18282221511E+04  0.10100000352E+00 0.  1.
</event>
<event>
 5   0  0.7547580E-04  0.1490458E+04  0.7818609E-02  0.8890823E-01
       -2   -1    0    0    0  501  0.00000000000E+00  0.00000000000E+00  0.29196442098E+03  0.29196442099E+03  0.25500000920E-02 0.  1.
        2   -1    0    0  501    0  0.00000000000E+00  0.00000000000E+00 -0.19021714532E+04  0.19021714532E+04  0.25500000920E-02 0. -1.
    10030    2    1    2    0    0  0.00000000000E+00  0.00000000000E+00 -0.16102070323E+04  0.21941358742E+04  0.14904581671E+04 0.  0.
        4    1    3    3  502    0 -0.24767966487E+03  0.69348656223E+03 -0.63663755679E+03  0.97343608933E+03  0.12699999809E+01 0. -1.
       -4    1    3    3    0  502  0.24767966487E+03 -0.69348656223E+03 -0.97356947548E+03  0.12206997849E+04  0.12699999809E+01 0.  1.
</event>
<event>
 5   0  0.7547580E-04  0.1467475E+04  0.7818609E-02  0.8906375E-01
        2   -1    0    0  501    0  0.00000000000E+00  0.00000000000E+00  0.17475536555E+04  0.17475536555E+04  0.25500000920E-02 0.  1.
       -2   -1    0    0    0  501  0.00000000000E+00  0.00000000000E+00 -0.30807088183E+03  0.30807088184E+03  0.25500000920E-02 0. -1.
    10030    2    1    2    0    0  0.00000000000E+00  0.00000000000E+00  0.14394827737E+04  0.20556245373E+04  0.14674745595E+04 0.  0.
        4    1    3    3  502    0 -0.60627727019E+03 -0.17515521292E+03  0.19539400815E+03  0.66062993293E+03  0.12699999809E+01 0. -1.
       -4    1    3    3    0  502  0.60627727019E+03  0.17515521292E+03  0.12440887655E+04  0.13949946044E+04  0.12699999809E+01 0.  1.
</event>
<event>
 5   0  0.7547580E-04  0.1499737E+04  0.7818609E-02  0.8884628E-01
       -2   -1    0    0    0  501  0.00000000000E+00  0.00000000000E+00  0.55997685593E+03  0.55997685594E+03  0.25500000920E-02 0.  1.
        2   -1    0    0  501    0  0.00000000000E+00  0.00000000000E+00 -0.10041539796E+04  0.10041539796E+04  0.25500000920E-02 0. -1.
    10030    2    1    2    0    0  0.00000000000E+00  0.00000000000E+00 -0.44417712371E+03  0.15641308356E+04  0.14997372949E+04 0.  0.
        4    1    3    3  502    0  0.45817644399E+03  0.57681722659E+03 -0.75863023061E+02  0.74054073344E+03  0.12699999809E+01 0.  1.
       -4    1    3    3    0  502 -0.45817644399E+03 -0.57681722659E+03 -0.36831410065E+03  0.82359010214E+03  0.12699999809E+01 0. -1.
</event>
<event>
 5   0  0.7454828E-04  0.1497411E+04  0.7818609E-02  0.8886176E-01
        2   -1    0    0  501    0  0.00000000000E+00  0.00000000000E+00  0.10667174784E+04  0.10667174784E+04  0.25500000920E-02 0.  1.
       -2   -1    0    0    0  501  0.00000000000E+00  0.00000000000E+00 -0.52549997467E+03  0.52549997467E+03  0.25500000920E-02 0. -1.
    10030    2    1    2    0    0  0.00000000000E+00  0.00000000000E+00  0.54121750371E+03  0.15922174531E+04  0.14974111097E+04 0.  0.
        3    1    3    3  502    0 -0.40366405625E+03 -0.70218282403E+02 -0.39571198679E+03  0.56961676957E+03  0.10100000352E+00 0. -1.
       -3    1    3    3    0  502  0.40366405625E+03  0.70218282403E+02  0.93692949049E+03  0.10226006835E+04  0.10100000352E+00 0.  1.
</event>
<event>
 5   0  0.4084462E-04  0.1497508E+04  0.7818609E-02  0.8886111E-01
       -1   -1    0    0    0  501  0.00000000000E+00  0.00000000000E+00  0.46388640570E+03  0.46388640572E+03  0.50400001928E-02 0. -1.
        1   -1    0    0  501    0  0.00000000000E+00  0.00000000000E+00 -0.12085564476E+04  0.12085564477E+04  0.50400001928E-02 0.  1.
    10030    2    1    2    0    0  0.00000000000E+00  0.00000000000E+00 -0.74467004195E+03  0.16724428534E+04  0.14975084729E+04 0.  0.
        1    1    3    3  502    0 -0.82049476996E+02  0.57865884427E+03 -0.89504202347E+03  0.10689613644E+04  0.50400001928E-02 0.  1.
       -1    1    3    3    0  502  0.82049476996E+02 -0.57865884427E+03  0.15037198152E+03  0.60348148901E+03  0.50400001928E-02 0. -1.
</event>
<event>
 5   0  0.7634227E-04  0.1464789E+04  0.7818609E-02  0.8908211E-01
       -2   -1    0    0    0  501  0.00000000000E+00  0.00000000000E+00  0.64775874767E+03  0.64775874767E+03  0.25500000920E-02 0. -1.
        2   -1    0    0  501    0  0.00000000000E+00  0.00000000000E+00 -0.82808872956E+03  0.82808872957E+03  0.25500000920E-02 0.  1.
    10030    2    1    2    0    0  0.00000000000E+00  0.00000000000E+00 -0.18032998190E+03  0.14758474772E+04  0.14647890202E+04 0.  0.
        2    1    3    3  502    0 -0.38333996636E+02 -0.49669249943E+03  0.45075754597E+03  0.67182981442E+03  0.25500000920E-02 0. -1.
       -2    1    3    3    0  502  0.38333996636E+02  0.49669249943E+03 -0.63108752787E+03  0.80401766282E+03  0.25500000920E-02 0.  1.
</event>
<event>
 5   0  0.7359897E-04  0.1493137E+04  0.7818609E-02  0.8889030E-01
        2   -1    0    0  501    0  0.00000000000E+00  0.00000000000E+00  0.12513935380E+04  0.12513935380E+04  0.25500000920E-02 0. -1.
       -2   -1    0    0    0  501  0.00000000000E+00  0.00000000000E+00 -0.44539478723E+03  0.44539478724E+03  0.25500000920E-02 0.  1.
    10030    2    1    2    0    0  0.00000000000E+00  0.00000000000E+00  0.80599875073E+03  0.16967883252E+04  0.14931365090E+04 0.  0.
        1    1    3    3  502    0 -0.18381131447E+03 -0.53275528962E+03  0.95942469193E+03  0.11127041554E+04  0.50400001928E-02 0.  1.
       -1    1    3    3    0  502  0.18381131447E+03  0.53275528962E+03 -0.15342594120E+03  0.58408416980E+03  0.50400001928E-02 0. -1.
</event>
<event>
 5   0  0.4015204E-04  0.1497732E+04  0.7818609E-02  0.8885962E-01
        1   -1    0    0  501    0  0.00000000000E+00  0.00000000000E+00  0.11519694309E+04  0.11519694309E+04  0.50400001928E-02 0.  1.
       -1   -1    0    0    0  501  0.00000000000E+00  0.00000000000E+00 -0.48681883350E+03  0.48681883353E+03  0.50400001928E-02 0. -1.
    10030    2    1    2    0    0  0.00000000000E+00  0.00000000000E+00  0.66515059738E+03  0.16387882644E+04  0.14977321718E+04 0.  0.
        2    1    3    3  502    0 -0.73573023294E+03 -0.69576703125E+02  0.20009131045E+03  0.76562159439E+03  0.25500000920E-02 0.  1.
       -2    1    3    3    0  502  0.73573023294E+03  0.69576703125E+02  0.46505928693E+03  0.87316667003E+03  0.25500000920E-02 0. -1.
</event>
<event>
 5   0  0.4015204E-04  0.1479879E+04  0.7818609E-02  0.8897944E-01
        1   -1    0    0  501    0  0.00000000000E+00  0.00000000000E+00  0.42556352969E+03  0.42556352972E+03  0.50400001928E-02 0.  1.
       -1   -1    0    0    0  501  0.00000000000E+00  0.00000000000E+00 -0.12865541726E+04  0.12865541726E+04  0.50400001928E-02 0. -1.
    10030    2    1    2    0    0  0.00000000000E+00  0.00000000000E+00 -0.86099064290E+03  0.17121177023E+04  0.14798790962E+04 0.  0.
        2    1    3    3  502    0  0.27078410250E+03  0.68147406775E+03 -0.31608428479E+03  0.79852376939E+03  0.25500000920E-02 0.  1.
       -2    1    3    3    0  502 -0.27078410250E+03 -0.68147406775E+03 -0.54490635811E+03  0.91359393294E+03  0.25500000920E-02 0. -1.
</event>
<event>
 5   0  0.7359897E-04  0.1506705E+04  0.7818609E-02  0.8880006E-01
        2   -1    0    0  501    0  0.00000000000E+00  0.00000000000E+00  0.15673234285E+04  0.15673234285E+04  0.25500000920E-02 0. -1.
       -2   -1    0    0    0  501  0.00000000000E+00  0.00000000000E+00 -0.36210769799E+03  0.36210769800E+03  0.25500000920E-02 0.  1.
    10030    2    1    2    0    0  0.00000000000E+00  0.00000000000E+00  0.12052157305E+04  0.19294311265E+04  0.15067048533E+04 0.  0.
        1    1    3    3  502    0  0.69454823238E+03  0.74541484938E+02  0.24134778508E+03  0.73905509501E+03  0.50400001928E-02 0. -1.
       -1    1    3    3    0  502 -0.69454823238E+03 -0.74541484938E+02  0.96386794541E+03  0.11903760315E+04  0.50400001928E-02 0.  1.
</event>
<event>
 5   0  0.7547580E-04  0.1504045E+04  0.7818609E-02  0.8881768E-01
       -2   -1    0    0    0  501  0.00000000000E+00  0.00000000000E+00  0.26075426270E+03  0.26075426271E+03  0.25500000920E-02 0.  1.
        2   -1    0    0  501    0  0.00000000000E+00  0.00000000000E+00 -0.21688523986E+04  0.21688523986E+04  0.25500000920E-02 0. -1.
    10030    2    1    2    0    0  0.00000000000E+00  0.00000000000E+00 -0.19080981359E+04  0.24296066614E+04  0.15040445580E+04 0.  0.
        4    1    3    3  502    0  0.19173111799E+03  0.42421056752E+03 -0.19081102966E+04  0.19640778865E+04  0.12699999809E+01 0. -1.
       -4    1    3    3    0  502 -0.19173111799E+03 -0.42421056752E+03  0.12160669573E-01  0.46552877489E+03  0.12699999809E+01 0.  1.
</event>
<event>
 5   0  0.7547580E-04  0.1465742E+04  0.7818609E-02  0.8907559E-01
        2   -1    0    0  501    0  0.00000000000E+00  0.00000000000E+00  0.10888474879E+04  0.10888474879E+04  0.25500000920E-02 0.  1.
       -2   -1    0    0    0  501  0.00000000000E+00  0.00000000000E+00 -0.49327401405E+03  0.49327401406E+03  0.25500000920E-02 0. -1.
    10030    2    1    2    0    0  0.00000000000E+00  0.00000000000E+00  0.59557347389E+03  0.15821215020E+04  0.14657423663E+04 0.  0.
        4    1    3    3  502    0  0.31586618242E+03 -0.77271961737E+02 -0.41113810089E+03  0.52419323934E+03  0.12699999809E+01 0. -1.
       -4    1    3    3    0  502 -0.31586618242E+03  0.77271961737E+02  0.10067115748E+04  0.10579282627E+04  0.12699999809E+01 0.  1.
</event>
<event>
 5   0  0.4086710E-04  0.1469542E+04  0.7818609E-02  0.8904964E-01
        1   -1    0    0  501    0  0.00000000000E+00  0.00000000000E+00  0.11169446459E+04  0.11169446460E+04  0.50400001928E-02 0. -1.
       -1   -1    0    0    0  501  0.00000000000E+00  0.00000000000E+00 -0.48336156460E+03  0.48336156463E+03  0.50400001928E-02 0.  1.
    10030    2    1    2    0    0  0.00000000000E+00  0.00000000000E+00  0.63358308135E+03  0.16003062106E+04  0.14695415771E+04 0.  0.
        3    1    3    3  502    0  0.42091595760E+02 -0.17501582829E+03  0.10925619060E+04  0.11072911862E+04  0.10100000352E+00 0. -1.
       -3    1    3    3    0  502 -0.42091595760E+02  0.17501582829E+03 -0.45897882461E+03  0.49301502434E+03  0.10100000352E+00 0.  1.
</event>
<event>
 5   0  0.3907345E-04  0.1506428E+04  0.7818609E-02  0.8880189E-01
       -1   -1    0    0    0  501  0.00000000000E+00  0.00000000000E+00  0.97716597587E+03  0.97716597588E+03  0.50400001928E-02 0.  1.
        1   -1    0    0  501    0  0.00000000000E+00  0.00000000000E+00 -0.58058869969E+03  0.58058869971E+03  0.50400001928E-02 0. -1.
    10030    2    1    2    0    0  0.00000000000E+00  0.00000000000E+00  0.39657727617E+03  0.15577546756E+04  0.15064282570E+04 0.  0.
        5    1    3    3  502    0 -0.44520827834E+03  0.50810432487E+03  0.54269660800E+03  0.86655762324E+03  0.46999998093E+01 0.  1.
       -5    1    3    3    0  502  0.44520827834E+03 -0.50810432487E+03 -0.14611933183E+03  0.69119705236E+03  0.46999998093E+01 0. -1.
</event>
<event>
 5   0  0.7634227E-04  0.1491733E+04  0.7818609E-02  0.8889969E-01
        2   -1    0    0  501    0  0.00000000000E+00  0.00000000000E+00  0.12430962824E+04  0.12430962824E+04  0.25500000920E-02 0.  1.
       -2   -1    0    0    0  501  0.00000000000E+00  0.00000000000E+00 -0.44752492720E+03  0.44752492721E+03  0.25500000920E-02 0. -1.
    10030    2    1    2    0    0  0.00000000000E+00  0.00000000000E+00  0.79557135517E+03  0.16906212096E+04  0.14917326480E+04 0.  0.
        2    1    3    3  502    0 -0.12658159257E+03  0.54542559942E+03 -0.16066363900E+03  0.58251591307E+03  0.25500000920E-02 0. -1.
       -2    1    3    3    0  502  0.12658159257E+03 -0.54542559942E+03  0.95623499416E+03  0.11081052965E+04  0.25500000920E-02 0.  1.
</event>
<event>
 5   0  0.4015204E-04  0.1483602E+04  0.7818609E-02  0.8895431E-01
        1   -1    0    0  501    0  0.00000000000E+00  0.00000000000E+00  0.20794153219E+04  0.20794153219E+04  0.50400001928E-02 0. -1.
       -1   -1    0    0    0  501  0.00000000000E+00  0.00000000000E+00 -0.26462673257E+03  0.26462673262E+03  0.50400001928E-02 0.  1.
    10030    2    1    2    0    0  0.00000000000E+00  0.00000000000E+00  0.18147885893E+04  0.23440420545E+04  0.14836022140E+04 0.  0.
        2    1    3    3  502    0 -0.49985762886E+02 -0.19143864977E+02  0.20763601813E+04  0.20770499914E+04  0.25500000920E-02 0. -1.
       -2    1    3    3    0  502  0.49985762886E+02  0.19143864977E+02 -0.26157159198E+03  0.26699206317E+03  0.25500000920E-02 0.  1.
</event>
<event>
 5   0  0.4015204E-04  0.1457313E+04  0.7818609E-02  0.8913346E-01
        1   -1    0    0  501    0  0.00000000000E+00  0.00000000000E+00  0.96850577707E+03  0.96850577708E+03  0.50400001928E-02 0.  1.
       -1   -1    0    0    0  501  0.00000000000E+00  0.00000000000E+00 -0.54820541487E+03  0.54820541490E+03  0.50400001928E-02 0. -1.
    10030    2    1    2    0    0  0.00000000000E+00  0.00000000000E+00  0.42030036219E+03  0.15167111920E+04  0.14573127480E+04 0.  0.
        2    1    3    3  502    0 -0.27426555263E+03  0.36590305505E+03  0.80057653343E+03  0.92197040351E+03  0.25500000920E-02 0.  1.
       -2    1    3    3    0  502  0.27426555263E+03 -0.36590305505E+03 -0.38027617124E+03  0.59474078847E+03  0.25500000920E-02 0. -1.
</event>
<event>
 5   0  0.4084462E-04  0.1521587E+04  0.7818609E-02  0.8870224E-01
        1   -1    0    0  501    0  0.00000000000E+00  0.00000000000E+00  0.10424647384E+04  0.10424647384E+04  0.50400001928E-02 0.  1.
       -1   -1    0    0    0  501  0.00000000000E+00  0.00000000000E+00 -0.55522888069E+03  0.55522888071E+03  0.50400001928E-02 0. -1.
    10030    2    1    2    0    0  0.00000000000E+00  0.00000000000E+00  0.48723585769E+03  0.15976936191E+04  0.15215867111E+04 0.  0.
        1    1    3    3  502    0 -0.44282015141E+03 -0.61193341547E+03  0.14822022351E+03  0.76975413356E+03  0.50400001928E-02 0.  1.
       -1    1    3    3    0  502  0.44282015141E+03  0.61193341547E+03  0.33901563418E+03  0.82793948553E+03  0.50400001928E-02 0. -1.
</event>
<event>
 5   0  0.7634227E-04  0.1453965E+04  0.7818609E-02  0.8915656E-01
       -2   -1    0    0    0  501  0.00000000000E+00  0.00000000000E+00  0.38461714369E+03  0.38461714370E+03  0.25500000920E-02 0. -1.
        2   -1    0    0  501    0  0.00000000000E+00  0.00000000000E+00 -0.13741031384E+04  0.13741031384E+04  0.25500000920E-02 0.  1.
    10030    2    1    2    0    0  0.00000000000E+00  0.00000000000E+00 -0.98948599471E+03  0.17587202821E+04  0.14539650948E+04 0.  0.
        2    1    3    3  502    0 -0.53079971694E+03  0.18126570176E+03 -0.10541735535E+04  0.11941053032E+04  0.25500000920E-02 0.  1.
       -2    1    3    3    0  502  0.53079971694E+03 -0.18126570176E+03  0.64687558817E+02  0.56461497891E+03  0.25500000920E-02 0. -1.
</event>
<event>
 5   0  0.7547580E-04  0.1485691E+04  0.7818609E-02  0.8894024E-01
        2   -1    0    0  501    0  0.00000000000E+00  0.00000000000E+00  0.16296955017E+04  0.16296955017E+04  0.25500000920E-02 0.  1.
       -2   -1    0    0    0  501  0.00000000000E+00  0.00000000000E+00 -0.33860286463E+03  0.33860286464E+03  0.25500000920E-02 0. -1.
    10030    2    1    2    0    0  0.00000000000E+00  0.00000000000E+00  0.12910926371E+04  0.19682983664E+04  0.14856911730E+04 0.  0.
        4    1    3    3  502    0 -0.55512929753E+03  0.24027390110E+03  0.74300605190E+02  0.60944423646E+03  0.12699999809E+01 0. -1.
       -4    1    3    3    0  502  0.55512929753E+03 -0.24027390110E+03  0.12167920319E+04  0.13588541299E+04  0.12699999809E+01 0.  1.
</event>
<event>
 5   0  0.4084462E-04  0.1471263E+04  0.7818609E-02  0.8903791E-01
        1   -1    0    0  501    0  0.00000000000E+00  0.00000000000E+00  0.10149032816E+04  0.10149032816E+04  0.50400001928E-02 0.  1.
       -1   -1    0    0    0  501  0.00000000000E+00  0.00000000000E+00 -0.53320716960E+03  0.53320716962E+03  0.50400001928E-02 0. -1.
    10030    2    1    2    0    0  0.00000000000E+00  0.00000000000E+00  0.48169611197E+03  0.15481104512E+04  0.14712630033E+04 0.  0.
        1    1    3    3  502    0  0.63309791537E+03 -0.88824480170E+02  0.62379548923E+03  0.89320970165E+03  0.50400001928E-02 0.  1.
       -1    1    3    3    0  502 -0.63309791537E+03  0.88824480170E+02 -0.14209937725E+03  0.65490074955E+03  0.50400001928E-02 0. -1.
</event>
<event>
 5   0  0.7359897E-04  0.1493172E+04  0.7818609E-02  0.8889006E-01
       -2   -1    0    0    0  501  0.00000000000E+00  0.00000000000E+00  0.57277017338E+03  0.57277017338E+03  0.25500000920E-02 0. -1.
        2   -1    0    0  501    0  0.00000000000E+00  0.00000000000E+00 -0.97314882757E+03  0.97314882758E+03  0.25500000920E-02 0.  1.
    10030    2    1    2    0    0  0.00000000000E+00  0.00000000000E+00 -0.40037865420E+03  0.15459190010E+04  0.14931719562E+04 0.  0.
        1    1    3    3  502    0 -0.51845496827E+03 -0.32013430064E+03  0.24645385884E+03  0.65728306622E+03  0.50400001928E-02 0.  1.
       -1    1    3    3    0  502  0.51845496827E+03  0.32013430064E+03 -0.64683251304E+03  0.88863593475E+03  0.50400001928E-02 0. -1.
</event>
<event>
 5   0  0.4015204E-04  0.1489492E+04  0.7818609E-02  0.8891471E-01
       -1   -1    0    0    0  501  0.00000000000E+00  0.00000000000E+00  0.87035531522E+03  0.87035531523E+03  0.50400001928E-02 0.  1.
        1   -1    0    0  501    0  0.00000000000E+00  0.00000000000E+00 -0.63726418541E+03  0.63726418543E+03  0.50400001928E-02 0. -1.
    10030    2    1    2    0    0  0.00000000000E+00  0.00000000000E+00  0.23309112981E+03  0.15076195007E+04  0.14894915522E+04 0.  0.
        2    1    3    3  502    0  0.66571396570E+03  0.33383374777E+03  0.11136312269E+03  0.75300849954E+03  0.25500000920E-02 0.  1.
       -2    1    3    3    0  502 -0.66571396570E+03 -0.33383374777E+03  0.12172800712E+03  0.75461100112E+03  0.25500000920E-02 0. -1.
</event>
<event>
 5   0  0.4084462E-04  0.1505411E+04  0.7818609E-02  0.8880863E-01
       -1   -1    0    0    0  501  0.00000000000E+00  0.00000000000E+00  0.66203430080E+03  0.66203430082E+03  0.50400001928E-02 0. -1.
        1   -1    0    0  501    0  0.00000000000E+00  0.00000000000E+00 -0.85579462649E+03  0.85579462650E+03  0.50400001928E-02 0.  1.
    10030    2    1    2    0    0  0.00000000000E+00  0.00000000000E+00 -0.19376032568E+03  0.15178289273E+04  0.15054107708E+04 0.  0.
        1    1    3    3  502    0  0.60948195903E+03  0.85132406085E+02  0.34011130544E+03  0.70312977825E+03  0.50400001928E-02 0. -1.
       -1    1    3    3    0  502 -0.60948195903E+03 -0.85132406085E+02 -0.53387163112E+03  0.81469914907E+03  0.50400001928E-02 0.  1.
</event>
<event>
 5   0  0.4084462E-04  0.1499244E+04  0.7818609E-02  0.8884956E-01
        1   -1    0    0  501    0  0.00000000000E+00  0.00000000000E+00  0.48638239677E+03  0.48638239679E+03  0.50400001928E-02 0.  1.
       -1   -1    0    0    0  501  0.00000000000E+00  0.00000000000E+00 -0.11553321569E+04  0.11553321569E+04  0.50400001928E-02 0. -1.
    10030    2    1    2    0    0  0.00000000000E+00  0.00000000000E+00 -0.66894976009E+03  0.16417145537E+04  0.14992441076E+04 0.  0.
        1    1    3    3  502    0 -0.52059226904E+03 -0.53016270913E+03 -0.22582725201E+03  0.77658660593E+03  0.50400001928E-02 0. -1.
       -1    1    3    3    0  502  0.52059226904E+03  0.53016270913E+03 -0.44312250808E+03  0.86512794772E+03  0.50400001928E-02 0.  1.
</event>
<event>
 5   0  0.4084462E-04  0.1479639E+04  0.7818609E-02  0.8898107E-01
       -1   -1    0    0    0  501  0.00000000000E+00  0.00000000000E+00  0.64246743691E+03  0.64246743693E+03  0.50400001928E-02 0. -1.
        1   -1    0    0  501    0  0.00000000000E+00  0.00000000000E+00 -0.85192304106E+03  0.85192304108E+03  0.50400001928E-02 0.  1.
    10030    2    1    2    0    0  0.00000000000E+00  0.00000000000E+00 -0.20945560415E+03  0.14943904780E+04  0.14796388920E+04 0.  0.
        1    1    3    3  502    0  0.31329207705E+03 -0.58050335667E+03  0.23356945194E+03  0.69977908053E+03  0.50400001928E-02 0. -1.
       -1    1    3    3    0  502 -0.31329207705E+03  0.58050335667E+03 -0.44302505609E+03  0.79461139748E+03  0.50400001928E-02 0.  1.
</event>
<event>
 5   0  0.4084462E-04  0.1505564E+04  0.7818609E-02  0.8880762E-01
       -1   -1    0    0    0  501  0.00000000000E+00  0.00000000000E+00  0.41528957473E+03  0.41528957476E+03  0.50400001928E-02 0. -1.
        1   -1    0    0  501    0  0.00000000000E+00  0.00000000000E+00 -0.13645429713E+04  0.13645429713E+04  0.50400001928E-02 0.  1.
    10030    2    1    2    0    0  0.00000000000E+00  0.00000000000E+00 -0.94925339653E+03  0.17798325460E+04  0.15055636423E+04 0.  0.
        1    1    3    3  502    0 -0.19281887539E+03 -0.67157801236E+03 -0.14344106505E+03  0.71328219139E+03  0.50400001928E-02 0. -1.
       -1    1    3    3    0  502  0.19281887539E+03  0.67157801236E+03 -0.80581233149E+03  0.10665503546E+04  0.50400001928E-02 0.  1.
</event>
<event>
 5   0  0.4015204E-04  0.1503873E+04  0.7818609E-02  0.8881882E-01
        1   -1    0    0  501    0  0.00000000000E+00  0.00000000000E+00  0.11006639111E+04  0.11006639111E+04  0.50400001928E-02 0. -1.
       -1   -1    0    0    0  501  0.00000000000E+00  0.00000000000E+00 -0.51369749714E+03  0.51369749716E+03  0.50400001928E-02 0.  1.
    10030    2    1    2    0    0  0.00000000000E+00  0.00000000000E+00  0.58696641397E+03  0.16143614083E+04  0.15038727291E+04 0.  0.
        2    1    3    3  502    0  0.51958016787E+03  0.67255557756E+02  0.87248184746E+03  0.10176990887E+04  0.25500000920E-02 0. -1.
       -2    1    3    3    0  502 -0.51958016787E+03 -0.67255557756E+02 -0.28551543349E+03  0.59666231962E+03  0.25500000920E-02 0.  1.
</event>
<event>
 5   0  0.4084462E-04  0.1493517E+04  0.7818609E-02  0.8888776E-01
        1   -1    0    0  501    0  0.00000000000E+00  0.00000000000E+00  0.80655858234E+03  0.80655858236E+03  0.50400001928E-02 0. -1.
       -1   -1    0    0    0  501  0.00000000000E+00  0.00000000000E+00 -0.69139181136E+03  0.69139181138E+03  0.50400001928E-02 0.  1.
    10030    2    1    2    0    0  0.00000000000E+00  0.00000000000E+00  0.11516677098E+03  0.14979503937E+04  0.14935166544E+04 0.  0.
        1    1    3    3  502    0  0.15505176082E+03  0.55290438343E+03 -0.42122642848E+03  0.71216290961E+03  0.50400001928E-02 0.  1.
       -1    1    3    3    0  502 -0.15505176082E+03 -0.55290438343E+03  0.53639319946E+03  0.78578748412E+03  0.50400001928E-02 0. -1.
</event>
<event>
 5   0  0.7634227E-04  0.1486876E+04  0.7818609E-02  0.8893227E-01
       -2   -1    0    0    0  501  0.00000000000E+00  0.00000000000E+00  0.41384465456E+03  0.41384465457E+03  0.25500000920E-02 0. -1.
        2   -1    0    0  501    0  0.00000000000E+00  0.00000000000E+00 -0.13355257076E+04  0.13355257076E+04  0.25500000920E-02 0.  1.
    10030    2    1    2    0    0  0.00000000000E+00  0.00000000000E+00 -0.92168105308E+03  0.17493703622E+04  0.14868761551E+04 0.  0.
        2    1    3    3  502    0  0.14270677182E+03  0.25741026991E+03  0.34238005408E+03  0.45149681197E+03  0.25500000920E-02 0. -1.
       -2    1    3    3    0  502 -0.14270677182E+03 -0.25741026991E+03 -0.12640611072E+04  0.12978735502E+04  0.25500000920E-02 0.  1.
</event>
<event>
 5   0  0.4015204E-04  0.1495309E+04  0.7818609E-02  0.8887578E-01
        1   -1    0    0  501    0  0.00000000000E+00  0.00000000000E+00  0.61169450866E+03  0.61169450868E+03  0.50400001928E-02 0. -1.
       -1   -1    0    0    0  501  0.00000000000E+00  0.00000000000E+00 -0.91383425647E+03  0.91383425648E+03  0.50400001928E-02 0.  1.
    10030    2    1    2    0    0  0.00000000000E+00  0.00000000000E+00 -0.30213974781E+03  0.15255287652E+04  0.14953091942E+04 0.  0.
        2    1    3    3  502    0 -0.29958178444E+03  0.55752979913E+03 -0.55710646063E+03  0.84318226438E+03  0.25500000920E-02 0.  1.
       -2    1    3    3    0  502  0.29958178444E+03 -0.55752979913E+03  0.25496671282E+03  0.68234650078E+03  0.25500000920E-02 0. -1.
</event>
<event>
 5   0  0.3907345E-04  0.1510875E+04  0.7818609E-02  0.8877253E-01
        1   -1    0    0  501    0  0.00000000000E+00  0.00000000000E+00  0.15254130407E+04  0.15254130407E+04  0.50400001928E-02 0. -1.
       -1   -1    0    0    0  501  0.00000000000E+00  0.00000000000E+00 -0.37411904418E+03  0.37411904421E+03  0.50400001928E-02 0.  1.
    10030    2    1    2    0    0  0.00000000000E+00  0.00000000000E+00  0.11512939965E+04  0.18995320849E+04  0.15108753341E+04 0.  0.
        5    1    3    3  502    0 -0.14900430567E+03  0.27177766431E+03 -0.29047930417E+03  0.42481254463E+03  0.46999998093E+01 0.  1.
       -5    1    3    3    0  502  0.14900430567E+03 -0.27177766431E+03  0.14417733007E+04  0.14747195403E+04  0.46999998093E+01 0. -1.
</event>
<event>
 5   0  0.7359897E-04  0.1516059E+04  0.7818609E-02  0.8873843E-01
        2   -1    0    0  501    0  0.00000000000E+00  0.00000000000E+00  0.26697985735E+04  0.26697985735E+04  0.25500000920E-02 0.  1.
       -2   -1    0    0    0  501  0.00000000000E+00  0.00000000000E+00 -0.21522560781E+03  0.21522560783E+03  0.25500000920E-02 0. -1.
    10030    2    1    2    0    0  0.00000000000E+00  0.00000000000E+00  0.24545729657E+04  0.28850241814E+04  0.15160593930E+04 0.  0.
        1    1    3    3  502    0  0.73065522742E+03  0.37888903277E+02  0.84995758991E+03  0.11214814020E+04  0.50400001928E-02 0.  1.
       -1    1    3    3    0  502 -0.73065522742E+03 -0.37888903277E+02  0.16046153758E+04  0.17635427794E+04  0.50400001928E-02 0. -1.
</event>
<event>
 5   0  0.7359897E-04  0.1485837E+04  0.7818609E-02  0.8893926E-01
        2   -1    0    0  501    0  0.00000000000E+00  0.00000000000E+00  0.16839158333E+04  0.16839158333E+04  0.25500000920E-02 0.  1.
       -2   -1    0    0    0  501  0.00000000000E+00  0.00000000000E+00 -0.32776457152E+03  0.32776457153E+03  0.25500000920E-02 0. -1.
    10030    2    1    2    0    0  0.00000000000E+00  0.00000000000E+00  0.13561512617E+04  0.20116804048E+04  0.14858370726E+04 0.  0.
        1    1    3    3  502    0 -0.56010965074E+03  0.44467522820E+03  0.95043945236E+03  0.11894511474E+04  0.50400001928E-02 0.  1.
       -1    1    3    3    0  502  0.56010965074E+03 -0.44467522820E+03  0.40571180939E+03  0.82222925740E+03  0.50400001928E-02 0. -1.
</event>
<event>
 5   0  0.7634227E-04  0.1490060E+04  0.7818609E-02  0.8891090E-01
       -2   -1    0    0    0  501  0.00000000000E+00  0.00000000000E+00  0.86076323369E+03  0.86076323369E+03  0.25500000920E-02 0. -1.
        2   -1    0    0  501    0  0.00000000000E+00  0.00000000000E+00 -0.64485746873E+03  0.64485746873E+03  0.25500000920E-02 0.  1.
    10030    2    1    2    0    0  0.00000000000E+00  0.00000000000E+00  0.21590576496E+03  0.15056207024E+04  0.14900598646E+04 0.  0.
        2    1    3    3  502    0  0.73191111684E+03 -0.79804919953E+02  0.22319165541E+03  0.76933557259E+03  0.25500000920E-02 0.  1.
       -2    1    3    3    0  502 -0.73191111684E+03  0.79804919953E+02 -0.72858904484E+01  0.73628512983E+03  0.25500000920E-02 0. -1.
</event>
<event>
 5   0  0.7672251E-04  0.1503752E+04  0.7818609E-02  0.8881961E-01
        2   -1    0    0  501    0  0.00000000000E+00  0.00000000000E+00  0.14564857414E+04  0.14564857414E+04  0.25500000920E-02 0. -1.
       -2   -1    0    0    0  501  0.00000000000E+00  0.00000000000E+00 -0.38813827109E+03  0.38813827110E+03  0.25500000920E-02 0.  1.
    10030    2    1    2    0    0  0.00000000000E+00  0.00000000000E+00  0.10683474703E+04  0.18446240125E+04  0.15037524497E+04 0.  0.
        5    1    3    3  502    0  0.54786451704E+03 -0.31768495781E+03  0.37078141143E+02  0.63441007243E+03  0.46999998093E+01 0.  1.
       -5    1    3    3    0  502 -0.54786451704E+03  0.31768495781E+03  0.10312693291E+04  0.12102139400E+04  0.46999998093E+01 0. -1.
</event>
<event>
 5   0  0.4058874E-04  0.1506092E+04  0.7818609E-02  0.8880412E-01
        1   -1    0    0  501    0  0.00000000000E+00  0.00000000000E+00  0.23843847407E+04  0.23843847407E+04  0.50400001928E-02 0.  1.
       -1   -1    0    0    0  501  0.00000000000E+00  0.00000000000E+00 -0.23782994368E+03  0.23782994374E+03  0.50400001928E-02 0. -1.
    10030    2    1    2    0    0  0.00000000000E+00  0.00000000000E+00  0.21465547970E+04  0.26222146845E+04  0.15060917484E+04 0.  0.
        4    1    3    3  502    0  0.32023007924E+03  0.45926809165E+03  0.19500624693E+04  0.20288468968E+04  0.12699999809E+01 0.  1.
       -4    1    3    3    0  502 -0.32023007924E+03 -0.45926809165E+03  0.19649232773E+03  0.59336778764E+03  0.12699999809E+01 0. -1.
</event>
<event>
 5   0  0.7359897E-04  0.1526701E+04  0.7818609E-02  0.8866889E-01
       -2   -1    0    0    0  501  0.00000000000E+00  0.00000000000E+00  0.26609399533E+04  0.26609399533E+04  0.25500000920E-02 0.  1.
        2   -1    0    0  501    0  0.00000000000E+00  0.00000000000E+00 -0.21898419235E+03  0.21898419237E+03  0.25500000920E-02 0. -1.
    10030    2    1    2    0    0  0.00000000000E+00  0.00000000000E+00  0.24419557610E+04  0.28799241457E+04  0.15267007390E+04 0.  0.
        1    1    3    3  502    0 -0.40401274863E+03  0.29946094498E+03  0.13766758064E+03  0.52139766149E+03  0.50400001928E-02 0. -1.
       -1    1    3    3    0  502  0.40401274863E+03 -0.29946094498E+03  0.23042881803E+04  0.23585264842E+04  0.50400001928E-02 0.  1.
</event>
<event>
 5   0  0.4084462E-04  0.1486891E+04  0.7818609E-02  0.8893217E-01
        1   -1    0    0  501    0  0.00000000000E+00  0.00000000000E+00  0.11949347135E+04  0.11949347135E+04  0.50400001928E-02 0.  1.
       -1   -1    0    0    0  501  0.00000000000E+00  0.00000000000E+00 -0.46254516870E+03  0.46254516872E+03  0.50400001928E-02 0. -1.
    10030    2    1    2    0    0  0.00000000000E+00  0.00000000000E+00  0.73238954478E+03  0.16574798822E+04  0.14868910904E+04 0.  0.
        1    1    3    3  502    0  0.55113108670E+03  0.40586327924E+03  0.42653004425E+02  0.68577675301E+03  0.50400001928E-02 0. -1.
       -1    1    3    3    0  502 -0.55113108670E+03 -0.40586327924E+03  0.68973654036E+03  0.97170312920E+03  0.50400001928E-02 0.  1.
</event>
<event>
 5   0  0.4015204E-04  0.1503167E+04  0.7818609E-02  0.8882349E-01
        1   -1    0    0  501    0  0.00000000000E+00  0.00000000000E+00  0.75926038651E+03  0.75926038653E+03  0.50400001928E-02 0.  1.
       -1   -1    0    0    0  501  0.00000000000E+00  0.00000000000E+00 -0.74398452898E+03  0.74398452900E+03  0.50400001928E-02 0. -1.
    10030    2    1    2    0    0  0.00000000000E+00  0.00000000000E+00  0.15275857529E+02  0.15032449155E+04  0.15031672975E+04 0.  0.
        2    1    3    3  502    0  0.39587872403E+01 -0.16143251899E+03 -0.72643120681E+03  0.74416290449E+03  0.25500000920E-02 0. -1.
       -2    1    3    3    0  502 -0.39587872403E+01  0.16143251899E+03  0.74170706434E+03  0.75908201104E+03  0.25500000920E-02 0.  1.
</event>
<event>
 5   0  0.4084462E-04  0.1496831E+04  0.7818609E-02  0.8886563E-01
       -1   -1    0    0    0  501  0.00000000000E+00  0.00000000000E+00  0.58604738973E+03  0.58604738975E+03  0.50400001928E-02 0. -1.
        1   -1    0    0  501    0  0.00000000000E+00  0.00000000000E+00 -0.95576903865E+03  0.95576903867E+03  0.50400001928E-02 0.  1.
    10030    2    1    2    0    0  0.00000000000E+00  0.00000000000E+00 -0.36972164892E+03  0.15418164284E+04  0.14968312534E+04 0.  0.
        1    1    3    3  502    0 -0.24171970705E+03 -0.20262254382E+03  0.51424258858E+03  0.60326590487E+03  0.50400001928E-02 0. -1.
       -1    1    3    3    0  502  0.24171970705E+03  0.20262254382E+03 -0.88396423750E+03  0.93855052355E+03  0.50400001928E-02 0.  1.
</event>
<event>
 5   0  0.3907345E-04  0.1526622E+04  0.7818609E-02  0.8866940E-01
       -1   -1    0    0    0  501  0.00000000000E+00  0.00000000000E+00  0.51407510544E+03  0.51407510547E+03  0.50400001928E-02 0. -1.
        1   -1    0    0  501    0  0.00000000000E+00  0.00000000000E+00 -0.11333819288E+04  0.11333819288E+04  0.50400001928E-02 0.  1.
    10030    2    1    2    0    0  0.00000000000E+00  0.00000000000E+00 -0.61930682336E+03  0.16474570343E+04  0.15266216749E+04 0.  0.
        5    1    3    3  502    0 -0.89926783782E+02 -0.59548804550E+03  0.19643155258E+03  0.63348266244E+03  0.46999998093E+01 0. -1.
       -5    1    3    3    0  502  0.89926783782E+02  0.59548804550E+03 -0.81573837593E+03  0.10139743718E+04  0.46999998093E+01 0.  1.
</event>
<event>
 5   0  0.4015204E-04  0.1496730E+04  0.7818609E-02  0.8886630E-01
        1   -1    0    0  501    0  0.00000000000E+00  0.00000000000E+00  0.39904334542E+03  0.39904334545E+03  0.50400001928E-02 0. -1.
       -1   -1    0    0    0  501  0.00000000000E+00  0.00000000000E+00 -0.14034816197E+04  0.14034816197E+04  0.50400001928E-02 0.  1.
    10030    2    1    2    0    0  0.00000000000E+00  0.00000000000E+00 -0.10044382743E+04  0.18025249652E+04  0.14967297696E+04 0.  0.
        2    1    3    3  502    0  0.20522032938E+02  0.66414204622E+03 -0.91686565954E+03  0.11323199411E+04  0.25500000920E-02 0.  1.
       -2    1    3    3    0  502 -0.20522032938E+02 -0.66414204622E+03 -0.87572614728E+02  0.67020502404E+03  0.25500000920E-02 0. -1.
</event>
<event>
 5   0  0.7359897E-04  0.1506287E+04  0.7818609E-02  0.8880283E-01
       -2   -1    0    0    0  501  0.00000000000E+00  0.00000000000E+00  0.46376610160E+03  0.46376610161E+03  0.25500000920E-02 0.  1.
        2   -1    0    0  501    0  0.00000000000E+00  0.00000000000E+00 -0.12230848323E+04  0.12230848323E+04  0.25500000920E-02 0. -1.
    10030    2    1    2    0    0  0.00000000000E+00  0.00000000000E+00 -0.75931873069E+03  0.16868509339E+04  0.15062872032E+04 0.  0.
        1    1    3    3  502    0  0.44422801973E+03 -0.37559477963E+03  0.15602807205E+03  0.60229123461E+03  0.50400001928E-02 0.  1.
       -1    1    3    3    0  502 -0.44422801973E+03  0.37559477963E+03 -0.91534680275E+03  0.10845596993E+04  0.50400001928E-02 0. -1.
</event>
<event>
 5   0  0.7454828E-04  0.1479774E+04  0.7818609E-02  0.8898016E-01
        2   -1    0    0  501    0  0.00000000000E+00  0.00000000000E+00  0.90998216655E+03  0.90998216655E+03  0.25500000920E-02 0.  1.
       -2   -1    0    0    0  501  0.00000000000E+00  0.00000000000E+00 -0.60158604643E+03  0.60158604643E+03  0.25500000920E-02 0. -1.
    10030    2    1    2    0    0  0.00000000000E+00  0.00000000000E+00  0.30839612012E+03  0.15115682130E+04  0.14797737312E+04 0.  0.
        3    1    3    3  502    0 -0.40481365397E+03  0.34790938716E+03  0.67757139191E+03  0.86256480188E+03  0.10100000352E+00 0.  1.
       -3    1    3    3    0  502  0.40481365397E+03 -0.34790938716E+03 -0.36917527179E+03  0.64900341110E+03  0.10100000352E+00 0. -1.
</event>
<event>
 5   0  0.4084462E-04  0.1494060E+04  0.7818609E-02  0.8888412E-01
        1   -1    0    0  501    0  0.00000000000E+00  0.00000000000E+00  0.10990621059E+04  0.10990621059E+04  0.50400001928E-02 0.  1.
       -1   -1    0    0    0  501  0.00000000000E+00  0.00000000000E+00 -0.50775480502E+03  0.50775480504E+03  0.50400001928E-02 0. -1.
    10030    2    1    2    0    0  0.00000000000E+00  0.00000000000E+00  0.59130730092E+03  0.16068169110E+04  0.14940603272E+04 0.  0.
        1    1    3    3  502    0  0.45954615899E+03  0.25711555787E+03  0.86551366391E+03  0.10131164715E+04  0.50400001928E-02 0.  1.
       -1    1    3    3    0  502 -0.45954615899E+03 -0.25711555787E+03 -0.27420636299E+03  0.59370043951E+03  0.50400001928E-02 0. -1.
</event>
<event>
 5   0  0.4015204E-04  0.1420311E+04  0.7818609E-02  0.8939246E-01
        1   -1    0    0  501    0  0.00000000000E+00  0.00000000000E+00  0.57589868128E+03  0.57589868130E+03  0.50400001928E-02 0. -1.
       -1   -1    0    0    0  501  0.00000000000E+00  0.00000000000E+00 -0.87571155102E+03  0.87571155104E+03  0.50400001928E-02 0.  1.
    10030    2    1    2    0    0  0.00000000000E+00  0.00000000000E+00 -0.29981286974E+03  0.14516102323E+04  0.14203114130E+04 0.  0.
        2    1    3    3  502    0  0.16015663763E+03 -0.22851903265E+02  0.55681451429E+03  0.57984028956E+03  0.25500000920E-02 0. -1.
       -2    1    3    3    0  502 -0.16015663763E+03  0.22851903265E+02 -0.85662738403E+03  0.87176994279E+03  0.25500000920E-02 0.  1.
</event>
<event>
 5   0  0.2800375E-04  0.1473645E+04  0.7818609E-02  0.8902170E-01
       -3   -1    0    0    0  501  0.00000000000E+00  0.00000000000E+00  0.42179820720E+03  0.42179821929E+03  0.10100000352E+00 0. -1.
        3   -1    0    0  501    0  0.00000000000E+00  0.00000000000E+00 -0.12871260477E+04  0.12871260517E+04  0.10100000352E+00 0.  1.
    10030    2    1    2    0    0  0.00000000000E+00  0.00000000000E+00 -0.86532784051E+03  0.17089242710E+04  0.14736451039E+04 0.  0.
        5    1    3    3  502    0  0.20401254973E+03  0.17294555563E+03  0.36350194859E+03  0.45131700864E+03  0.46999998093E+01 0. -1.
       -5    1    3    3    0  502 -0.20401254973E+03 -0.17294555563E+03 -0.12288297891E+04  0.12576072623E+04  0.46999998093E+01 0.  1.
</event>
<event>
 5   0  0.4084462E-04  0.1498965E+04  0.7818609E-02  0.8885141E-01
       -1   -1    0    0    0  501  0.00000000000E+00  0.00000000000E+00  0.52720451526E+03  0.52720451528E+03  0.50400001928E-02 0. -1.
        1   -1    0    0  501    0  0.00000000000E+00  0.00000000000E+00 -0.10654770415E+04  0.10654770416E+04  0.50400001928E-02 0.  1.
    10030    2    1    2    0    0  0.00000000000E+00  0.00000000000E+00 -0.53827252628E+03  0.15926815568E+04  0.14989653862E+04 0.  0.
        1    1    3    3  502    0  0.51846026431E+03 -0.20036154486E+03 -0.80334061780E+03  0.97688379174E+03  0.50400001928E-02 0.  1.
       -1    1    3    3    0  502 -0.51846026431E+03  0.20036154486E+03  0.26506809152E+03  0.61579776509E+03  0.50400001928E-02 0. -1.
</event>
<event>
 5   0  0.4015204E-04  0.1514292E+04  0.7818609E-02  0.8875004E-01
       -1   -1    0    0    0  501  0.00000000000E+00  0.00000000000E+00  0.23818622853E+03  0.23818622858E+03  0.50400001928E-02 0.  1.
        1   -1    0    0  501    0  0.00000000000E+00  0.00000000000E+00 -0.24068149391E+04  0.24068149391E+04  0.50400001928E-02 0. -1.
    10030    2    1    2    0    0  0.00000000000E+00  0.00000000000E+00 -0.21686287106E+04  0.26450011677E+04  0.15142921425E+04 0.  0.
        2    1    3    3  502    0  0.35126780576E+03 -0.20113470244E+03 -0.22019593387E+04  0.22388544323E+04  0.25500000920E-02 0. -1.
       -2    1    3    3    0  502 -0.35126780576E+03  0.20113470244E+03  0.33330628101E+02  0.40614673538E+03  0.25500000920E-02 0.  1.
</event>
<event>
 5   0  0.4086710E-04  0.1515316E+04  0.7818609E-02  0.8874331E-01
        1   -1    0    0  501    0  0.00000000000E+00  0.00000000000E+00  0.14770694037E+04  0.14770694037E+04  0.50400001928E-02 0.  1.
       -1   -1    0    0    0  501  0.00000000000E+00  0.00000000000E+00 -0.38863841280E+03  0.38863841283E+03  0.50400001928E-02 0. -1.
    10030    2    1    2    0    0  0.00000000000E+00  0.00000000000E+00  0.10884309909E+04  0.18657078165E+04  0.15153163481E+04 0.  0.
        3    1    3    3  502    0  0.64773541727E+03  0.23409427084E+03  0.93295113397E+03  0.11596374981E+04  0.10100000352E+00 0.  1.
       -3    1    3    3    0  502 -0.64773541727E+03 -0.23409427084E+03  0.15547985689E+03  0.70607031840E+03  0.10100000352E+00 0. -1.
</event>
<event>
 5   0  0.7359897E-04  0.1515176E+04  0.7818609E-02  0.8874423E-01
        2   -1    0    0  501    0  0.00000000000E+00  0.00000000000E+00  0.15172277309E+04  0.15172277309E+04  0.25500000920E-02 0. -1.
       -2   -1    0    0    0  501  0.00000000000E+00  0.00000000000E+00 -0.37828191952E+03  0.37828191953E+03  0.25500000920E-02 0.  1.
    10030    2    1    2    0    0  0.00000000000E+00  0.00000000000E+00  0.11389458114E+04  0.18955096504E+04  0.15151763177E+04 0.  0.
        1    1    3    3  502    0 -0.10764951043E+03  0.21708211062E+03 -0.32849751530E+03  0.40819563622E+03  0.50400001928E-02 0.  1.
       -1    1    3    3    0  502  0.10764951043E+03 -0.21708211062E+03  0.14674433266E+04  0.14873140142E+04  0.50400001928E-02 0. -1.
</event>
<event>
 5   0  0.3907345E-04  0.1493620E+04  0.7818609E-02  0.8888707E-01
       -1   -1    0    0    0  501  0.00000000000E+00  0.00000000000E+00  0.90910184808E+03  0.90910184809E+03  0.50400001928E-02 0. -1.
        1   -1    0    0  501    0  0.00000000000E+00  0.00000000000E+00 -0.61349027094E+03  0.61349027096E+03  0.50400001928E-02 0.  1.
    10030    2    1    2    0    0  0.00000000000E+00  0.00000000000E+00  0.29561157714E+03  0.15225921191E+04  0.14936199505E+04 0.  0.
        5    1    3    3  502    0  0.31901092920E+03  0.49523914499E+03  0.61570055241E+03  0.85213792541E+03  0.46999998093E+01 0. -1.
       -5    1    3    3    0  502 -0.31901092920E+03 -0.49523914499E+03 -0.32008897527E+03  0.67045419364E+03  0.46999998093E+01 0.  1.
</event>
<event>
 5   0  0.7634227E-04  0.1475303E+04  0.7818609E-02  0.8901044E-01
       -2   -1    0    0    0  501  0.00000000000E+00  0.00000000000E+00  0.36849435567E+03  0.36849435568E+03  0.25500000920E-02 0.  1.
        2   -1    0    0  501    0  0.00000000000E+00  0.00000000000E+00 -0.14766292731E+04  0.14766292731E+04  0.25500000920E-02 0. -1.
    10030    2    1    2    0    0  0.00000000000E+00  0.00000000000E+00 -0.11081349174E+04  0.18451236288E+04  0.14753027521E+04 0.  0.
        2    1    3    3  502    0 -0.67347676838E+03  0.20019916969E+03 -0.27307206201E+03  0.75380303538E+03  0.25500000920E-02 0.  1.
       -2    1    3    3    0  502  0.67347676838E+03 -0.20019916969E+03 -0.83506285540E+03  0.10913205934E+04  0.25500000920E-02 0. -1.
</event>
<event>
 5   0  0.4015204E-04  0.1519161E+04  0.7818609E-02  0.8871810E-01
       -1   -1    0    0    0  501  0.00000000000E+00  0.00000000000E+00  0.82531395779E+03  0.82531395780E+03  0.50400001928E-02 0.  1.
        1   -1    0    0  501    0  0.00000000000E+00  0.00000000000E+00 -0.69908274366E+03  0.69908274367E+03  0.50400001928E-02 0. -1.
    10030    2    1    2    0    0  0.00000000000E+00  0.00000000000E+00  0.12623121413E+03  0.15243967015E+04  0.15191612765E+04 0.  0.
        2    1    3    3  502    0 -0.11882501782E+03  0.42952896268E+03 -0.55410436812E+03  0.71108801523E+03  0.25500000920E-02 0. -1.
       -2    1    3    3    0  502  0.11882501782E+03 -0.42952896268E+03  0.68033558225E+03  0.81330868624E+03  0.25500000920E-02 0.  1.
</event>
<event>
 5   0  0.7454828E-04  0.1561646E+04  0.7818609E-02  0.8844463E-01
       -2   -1    0    0    0  501  0.00000000000E+00  0.00000000000E+00  0.32191696613E+03  0.32191696614E+03  0.25500000920E-02 0. -1.
        2   -1    0    0  501    0  0.00000000000E+00  0.00000000000E+00 -0.18939198415E+04  0.18939198415E+04  0.25500000920E-02 0.  1.
    10030    2    1    2    0    0  0.00000000000E+00  0.00000000000E+00 -0.15720028753E+04  0.22158368076E+04  0.15616464766E+04 0.  0.
        3    1    3    3  502    0  0.13126357972E+03  0.45663079913E+03  0.93200189218E+02  0.48417775615E+03  0.10100000352E+00 0. -1.
       -3    1    3    3    0  502 -0.13126357972E+03 -0.45663079913E+03 -0.16652030645E+04  0.17316590514E+04  0.10100000352E+00 0.  1.
</event>
<event>
 5   0  0.4084462E-04  0.1501905E+04  0.7818609E-02  0.8883187E-01
        1   -1    0    0  501    0  0.00000000000E+00  0.00000000000E+00  0.11579082337E+04  0.11579082337E+04  0.50400001928E-02 0.  1.
       -1   -1    0    0    0  501  0.00000000000E+00  0.00000000000E+00 -0.48702467924E+03  0.48702467927E+03  0.50400001928E-02 0. -1.
    10030    2    1    2    0    0  0.00000000000E+00  0.00000000000E+00  0.67088355447E+03  0.16449329130E+04  0.15019053048E+04 0.  0.
        1    1    3    3  502    0  0.42830538027E+03  0.61628728990E+03  0.30700026258E+03  0.81086662510E+03  0.50400001928E-02 0. -1.
       -1    1    3    3    0  502 -0.42830538027E+03 -0.61628728990E+03  0.36388329189E+03  0.83406628789E+03  0.50400001928E-02 0.  1.
</event>
<event>
 5   0  0.7454828E-04  0.1490868E+04  0.7818609E-02  0.8890548E-01
       -2   -1    0    0    0  501  0.00000000000E+00  0.00000000000E+00  0.74172824358E+03  0.74172824359E+03  0.25500000920E-02 0. -1.
        2   -1    0    0  501    0  0.00000000000E+00  0.00000000000E+00 -0.74915824160E+03  0.74915824161E+03  0.25500000920E-02 0.  1.
    10030    2    1    2    0    0  0.00000000000E+00  0.00000000000E+00 -0.74299980208E+01  0.14908864852E+04  0.14908679710E+04 0.  0.
        3    1    3    3  502    0 -0.10270129851E+03 -0.64281331282E+03  0.35949097704E+03  0.74363316536E+03  0.10100000352E+00 0. -1.
       -3    1    3    3    0  502  0.10270129851E+03  0.64281331282E+03 -0.36692097506E+03  0.74725331983E+03  0.10100000352E+00 0.  1.
</event>
<event>
 5   0  0.4086710E-04  0.1541254E+04  0.7818609E-02  0.8857474E-01
        1   -1    0    0  501    0  0.00000000000E+00  0.00000000000E+00  0.84049288237E+03  0.84049288239E+03  0.50400001928E-02 0.  1.
       -1   -1    0    0    0  501  0.00000000000E+00  0.00000000000E+00 -0.70656881890E+03  0.70656881892E+03  0.50400001928E-02 0. -1.
    10030    2    1    2    0    0  0.00000000000E+00  0.00000000000E+00  0.13392406347E+03  0.15470617013E+04  0.15412541169E+04 0.  0.
        3    1    3    3  502    0 -0.39691095148E+03 -0.43924270166E+03  0.56217038435E+03  0.81639941549E+03  0.10100000352E+00 0.  1.
       -3    1    3    3    0  502  0.39691095148E+03  0.43924270166E+03 -0.42824632088E+03  0.73066228582E+03  0.10100000352E+00 0. -1.
</event>
<event>
 5   0  0.3907345E-04  0.1525818E+04  0.7818609E-02  0.8867464E-01
       -1   -1    0    0    0  501  0.00000000000E+00  0.00000000000E+00  0.12633139289E+04  0.12633139289E+04  0.50400001928E-02 0.  1.
        1   -1    0    0  501    0  0.00000000000E+00  0.00000000000E+00 -0.46071691377E+03  0.46071691380E+03  0.50400001928E-02 0. -1.
    10030    2    1    2    0    0  0.00000000000E+00  0.00000000000E+00  0.80259701513E+03  0.17240308427E+04  0.15258179373E+04 0.  0.
        5    1    3    3  502    0 -0.38104395336E+03  0.35250411393E+03  0.10329900983E+04  0.11560900821E+04  0.46999998093E+01 0.  1.
       -5    1    3    3    0  502  0.38104395336E+03 -0.35250411393E+03 -0.23039308322E+03  0.56794076057E+03  0.46999998093E+01 0. -1.
</event>
<event>
 5   0  0.4086710E-04  0.1504699E+04  0.7818609E-02  0.8881334E-01
       -1   -1    0    0    0  501  0.00000000000E+00  0.00000000000E+00  0.62219235585E+03  0.62219235588E+03  0.50400001928E-02 0. -1.
        1   -1    0    0  501    0  0.00000000000E+00  0.00000000000E+00 -0.90973491907E+03  0.90973491908E+03  0.50400001928E-02 0.  1.
    10030    2    1    2    0    0  0.00000000000E+00  0.00000000000E+00 -0.28754256322E+03  0.15319272750E+04  0.15046994551E+04 0.  0.
        3    1    3    3  502    0 -0.42325776385E+03 -0.48639382658E+03 -0.53847723149E+03  0.84004989627E+03  0.10100000352E+00 0.  1.
       -3    1    3    3    0  502  0.42325776385E+03  0.48639382658E+03  0.25093466828E+03  0.69187737869E+03  0.10100000352E+00 0. -1.
</event>
<event>
 5   0  0.7672251E-04  0.1506379E+04  0.7818609E-02  0.8880222E-01
       -2   -1    0    0    0  501  0.00000000000E+00  0.00000000000E+00  0.69089471425E+03  0.69089471425E+03  0.25500000920E-02 0.  1.
        2   -1    0    0  501    0  0.00000000000E+00  0.00000000000E+00 -0.82110117282E+03  0.82110117282E+03  0.25500000920E-02 0. -1.
    10030    2    1    2    0    0  0.00000000000E+00  0.00000000000E+00 -0.13020645857E+03  0.15119958871E+04  0.15063790495E+04 0.  0.
        5    1    3    3  502    0  0.40378159676E+03  0.53333698009E+03  0.28228618374E+03  0.72608228993E+03  0.46999998093E+01 0.  1.
       -5    1    3    3    0  502 -0.40378159676E+03 -0.53333698009E+03 -0.41249264231E+03  0.78591359714E+03  0.46999998093E+01 0. -1.
</event>
<event>
 5   0  0.7359897E-04  0.1488185E+04  0.7818609E-02  0.8892348E-01
        2   -1    0    0  501    0  0.00000000000E+00  0.00000000000E+00  0.68087624178E+03  0.68087624179E+03  0.25500000920E-02 0.  1.
       -2   -1    0    0    0  501  0.00000000000E+00  0.00000000000E+00 -0.81317825778E+03  0.81317825778E+03  0.25500000920E-02 0. -1.
    10030    2    1    2    0    0  0.00000000000E+00  0.00000000000E+00 -0.13230201600E+03  0.14940544996E+04  0.14881851445E+04 0.  0.
        1    1    3    3  502    0  0.62301336827E+03  0.39555892068E+03 -0.16171697839E+03  0.75548983970E+03  0.50400001928E-02 0. -1.
       -1    1    3    3    0  502 -0.62301336827E+03 -0.39555892068E+03  0.29414962392E+02  0.73856465987E+03  0.50400001928E-02 0.  1.
</event>
<event>
 5   0  0.7359897E-04  0.1505119E+04  0.7818609E-02  0.8881056E-01
       -2   -1    0    0    0  501  0.00000000000E+00  0.00000000000E+00  0.55675978667E+03  0.55675978667E+03  0.25500000920E-02 0. -1.
        2   -1    0    0  501    0  0.00000000000E+00  0.00000000000E+00 -0.10172177878E+04  0.10172177878E+04  0.25500000920E-02 0.  1.
    10030    2    1    2    0    0  0.00000000000E+00  0.00000000000E+00 -0.46045800113E+03  0.15739775745E+04  0.15051192093E+04 0.  0.
        1    1    3    3  502    0  0.35934619028E+03 -0.47027014074E+03  0.25586147086E+03  0.64478584199E+03  0.50400001928E-02 0. -1.
       -1    1    3    3    0  502 -0.35934619028E+03  0.47027014074E+03 -0.71631947198E+03  0.92919173248E+03  0.50400001928E-02 0.  1.
</event>
<event>
 5   0  0.4015204E-04  0.1507024E+04  0.7818609E-02  0.8879796E-01
        1   -1    0    0  501    0  0.00000000000E+00  0.00000000000E+00  0.51861060993E+03  0.51861060995E+03  0.50400001928E-02 0. -1.
       -1   -1    0    0    0  501  0.00000000000E+00  0.00000000000E+00 -0.10948103396E+04  0.10948103396E+04  0.50400001928E-02 0.  1.
    10030    2    1    2    0    0  0.00000000000E+00  0.00000000000E+00 -0.57619972969E+03  0.16134209496E+04  0.15070238990E+04 0.  0.
        2    1    3    3  502    0 -0.43985180428E+03  0.41223092768E+03 -0.77209704305E+03  0.97955999886E+03  0.25500000920E-02 0.  1.
       -2    1    3    3    0  502  0.43985180428E+03 -0.41223092768E+03  0.19589731336E+03  0.63386095073E+03  0.25500000920E-02 0. -1.
</event>
<event>
 5   0  0.2800375E-04  0.1383228E+04  0.7818609E-02  0.8966049E-01
        4   -1    0    0  501    0  0.00000000000E+00  0.00000000000E+00  0.10463274233E+04  0.10463281941E+04  0.12699999809E+01 0. -1.
       -4   -1    0    0    0  501  0.00000000000E+00  0.00000000000E+00 -0.45714959259E+03  0.45715135667E+03  0.12699999809E+01 0.  1.
    10030    2    1    2    0    0  0.00000000000E+00  0.00000000000E+00  0.58917783075E+03  0.15034795508E+04  0.13832281964E+04 0.  0.
        1    1    3    3  502    0  0.27478859900E+03  0.24267313336E+03  0.93202901000E+03  0.10015373679E+04  0.50400001928E-02 0. -1.
       -1    1    3    3    0  502 -0.27478859900E+03 -0.24267313336E+03 -0.34285117924E+03  0.50194218286E+03  0.50400001928E-02 0.  1.
</event>
<event>
 5   0  0.7634227E-04  0.1476448E+04  0.7818609E-02  0.8900268E-01
       -2   -1    0    0    0  501  0.00000000000E+00  0.00000000000E+00  0.50305190475E+03  0.50305190476E+03  0.25500000920E-02 0.  1.
        2   -1    0    0  501    0  0.00000000000E+00  0.00000000000E+00 -0.10833368879E+04  0.10833368879E+04  0.25500000920E-02 0. -1.
    10030    2    1    2    0    0  0.00000000000E+00  0.00000000000E+00 -0.58028498312E+03  0.15863887926E+04  0.14764480146E+04 0.  0.
        2    1    3    3  502    0  0.65163561298E+03 -0.26056336394E+03 -0.44063608787E+02  0.70318122868E+03  0.25500000920E-02 0.  1.
       -2    1    3    3    0  502 -0.65163561298E+03  0.26056336394E+03 -0.53622137433E+03  0.88320756396E+03  0.25500000920E-02 0. -1.
</event>
<event>
 5   0  0.3907345E-04  0.1518153E+04  0.7818609E-02  0.8872470E-01
       -1   -1    0    0    0  501  0.00000000000E+00  0.00000000000E+00  0.52618384177E+03  0.52618384179E+03  0.50400001928E-02 0. -1.
        1   -1    0    0  501    0  0.00000000000E+00  0.00000000000E+00 -0.10950491360E+04  0.10950491360E+04  0.50400001928E-02 0.  1.
    10030    2    1    2    0    0  0.00000000000E+00  0.00000000000E+00 -0.56886529422E+03  0.16212329778E+04  0.15181530375E+04 0.  0.
        5    1    3    3  502    0 -0.17231799246E+03  0.69844013445E+03 -0.54308227650E+03  0.90137259831E+03  0.46999998093E+01 0.  1.
       -5    1    3    3    0  502  0.17231799246E+03 -0.69844013445E+03 -0.25783017713E+02  0.71986037947E+03  0.46999998093E+01 0. -1.
</event>
<event>
 5   0  0.4058874E-04  0.1487911E+04  0.7818609E-02  0.8892532E-01
        1   -1    0    0  501    0  0.00000000000E+00  0.00000000000E+00  0.71249725173E+03  0.71249725175E+03  0.50400001928E-02 0.  1.
       -1   -1    0    0    0  501  0.00000000000E+00  0.00000000000E+00 -0.77680221524E+03  0.77680221525E+03  0.50400001928E-02 0. -1.
    10030    2    1    2    0    0  0.00000000000E+00  0.00000000000E+00 -0.64304963510E+02  0.14892994670E+04  0.14879105397E+04 0.  0.
        4    1    3    3  502    0  0.32006161219E+03  0.43949579264E+03  0.47613238112E+03  0.72270301272E+03  0.12699999809E+01 0.  1.
       -4    1    3    3    0  502 -0.32006161219E+03 -0.43949579264E+03 -0.54043734463E+03  0.76659645428E+03  0.12699999809E+01 0. -1.
</event>
<event>
 5   0  0.4086710E-04  0.1475582E+04  0.7818609E-02  0.8900855E-01
       -1   -1    0    0    0  501  0.00000000000E+00  0.00000000000E+00  0.43215078920E+03  0.43215078923E+03  0.50400001928E-02 0. -1.
        1   -1    0    0  501    0  0.00000000000E+00  0.00000000000E+00 -0.12595966237E+04  0.12595966237E+04  0.50400001928E-02 0.  1.
    10030    2    1    2    0    0  0.00000000000E+00  0.00000000000E+00 -0.82744583446E+03  0.16917474129E+04  0.14755821563E+04 0.  0.
        3    1    3    3  502    0 -0.12126188634E+03  0.54097586031E+03 -0.97183910420E+03  0.11188523500E+04  0.10100000352E+00 0.  1.
       -3    1    3    3    0  502  0.12126188634E+03 -0.54097586031E+03  0.14439326975E+03  0.57289506287E+03  0.10100000352E+00 0. -1.
</event>
<event>
 5   0  0.3907345E-04  0.1502366E+04  0.7818609E-02  0.8882881E-01
        1   -1    0    0  501    0  0.00000000000E+00  0.00000000000E+00  0.59793983766E+03  0.59793983768E+03  0.50400001928E-02 0. -1.
       -1   -1    0    0    0  501  0.00000000000E+00  0.00000000000E+00 -0.94369977485E+03  0.94369977487E+03  0.50400001928E-02 0.  1.
    10030    2    1    2    0    0  0.00000000000E+00  0.00000000000E+00 -0.34575993720E+03  0.15416396125E+04  0.15023657214E+04 0.  0.
        5    1    3    3  502    0 -0.44448569424E+03  0.12824935869E+03  0.43439996710E+03  0.63461866645E+03  0.46999998093E+01 0. -1.
       -5    1    3    3    0  502  0.44448569424E+03 -0.12824935869E+03 -0.78015990430E+03  0.90702094610E+03  0.46999998093E+01 0.  1.
</event>
<event>
 5   0  0.7634227E-04  0.1499265E+04  0.7818609E-02  0.8884942E-01
       -2   -1    0    0    0  501  0.00000000000E+00  0.00000000000E+00  0.77199514181E+03  0.77199514182E+03  0.25500000920E-02 0. -1.
        2   -1    0    0  501    0  0.00000000000E+00  0.00000000000E+00 -0.72791792376E+03  0.72791792376E+03  0.25500000920E-02 0.  1.
    10030    2    1    2    0    0  0.00000000000E+00  0.00000000000E+00  0.44077218055E+02  0.14999130656E+04  0.14992652878E+04 0.  0.
        2    1    3    3  502    0  0.32628715530E+03 -0.38858530385E+03  0.57408066104E+03  0.76617912493E+03  0.25500000920E-02 0. -1.
       -2    1    3    3    0  502 -0.32628715530E+03  0.38858530385E+03 -0.53000344299E+03  0.73373394066E+03  0.25500000920E-02 0.  1.
</event>
<event>
 5   0  0.7634227E-04  0.1490920E+04  0.7818609E-02  0.8890514E-01
       -2   -1    0    0    0  501  0.00000000000E+00  0.00000000000E+00  0.66324765062E+03  0.66324765063E+03  0.25500000920E-02 0.  1.
        2   -1    0    0  501    0  0.00000000000E+00  0.00000000000E+00 -0.83786289878E+03  0.83786289878E+03  0.25500000920E-02 0. -1.
    10030    2    1    2    0    0  0.00000000000E+00  0.00000000000E+00 -0.17461524816E+03  0.15011105494E+04  0.14909199833E+04 0.  0.
        2    1    3    3  502    0 -0.49161633602E+03 -0.40962007768E+03 -0.47232874527E+03  0.79534248818E+03  0.25500000920E-02 0.  1.
       -2    1    3    3    0  502  0.49161633602E+03  0.40962007768E+03  0.29771349711E+03  0.70576806123E+03  0.25500000920E-02 0. -1.
</event>
<event>
 5   0  0.4058874E-04  0.1485653E+04  0.7818609E-02  0.8894050E-01
        1   -1    0    0  501    0  0.00000000000E+00  0.00000000000E+00  0.17218453032E+04  0.17218453032E+04  0.50400001928E-02 0.  1.
       -1   -1    0    0    0  501  0.00000000000E+00  0.00000000000E+00 -0.32046488665E+03  0.32046488669E+03  0.50400001928E-02 0. -1.
    10030    2    1    2    0    0  0.00000000000E+00  0.00000000000E+00  0.14013804166E+04  0.20423101899E+04  0.14856526646E+04 0.  0.
        4    1    3    3  502    0  0.43218425402E+03 -0.59934669289E+03  0.80529002520E+03  0.10929287833E+04  0.12699999809E+01 0.  1.
       -4    1    3    3    0  502 -0.43218425402E+03  0.59934669289E+03  0.59609039135E+03  0.94938140664E+03  0.12699999809E+01 0. -1.
</event>
<event>
 5   0  0.4084462E-04  0.1499915E+04  0.7818609E-02  0.8884509E-01
       -1   -1    0    0    0  501  0.00000000000E+00  0.00000000000E+00  0.26377576270E+03  0.26377576275E+03  0.50400001928E-02 0. -1.
        1   -1    0    0  501    0  0.00000000000E+00  0.00000000000E+00 -0.21322521993E+04  0.21322521993E+04  0.50400001928E-02 0.  1.
    10030    2    1    2    0    0  0.00000000000E+00  0.00000000000E+00 -0.18684764366E+04  0.23960279620E+04  0.14999152645E+04 0.  0.
        1    1    3    3  502    0  0.50496576845E+03 -0.41179187328E+03 -0.15273895633E+04  0.16605667262E+04  0.50400001928E-02 0.  1.
       -1    1    3    3    0  502 -0.50496576845E+03  0.41179187328E+03 -0.34108687328E+03  0.73546123579E+03  0.50400001928E-02 0. -1.
</event>
<event>
 5   0  0.4084462E-04  0.1490086E+04  0.7818609E-02  0.8891072E-01
        1   -1    0    0  501    0  0.00000000000E+00  0.00000000000E+00  0.16105476902E+04  0.16105476902E+04  0.50400001928E-02 0. -1.
       -1   -1    0    0    0  501  0.00000000000E+00  0.00000000000E+00 -0.34465861504E+03  0.34465861508E+03  0.50400001928E-02 0.  1.
    10030    2    1    2    0    0  0.00000000000E+00  0.00000000000E+00  0.12658890752E+04  0.19552063053E+04  0.14900860867E+04 0.  0.
        1    1    3    3  502    0 -0.35754440012E+03 -0.59481210553E+03  0.27733267887E+03  0.74736393660E+03  0.50400001928E-02 0.  1.
       -1    1    3    3    0  502  0.35754440012E+03  0.59481210553E+03  0.98855639633E+03  0.12078423687E+04  0.50400001928E-02 0. -1.
</event>
<event>
 5   0  0.3907345E-04  0.1483986E+04  0.7818609E-02  0.8895172E-01
        1   -1    0    0  501    0  0.00000000000E+00  0.00000000000E+00  0.13828289920E+04  0.13828289920E+04  0.50400001928E-02 0. -1.
       -1   -1    0    0    0  501  0.00000000000E+00  0.00000000000E+00 -0.39813570851E+03  0.39813570854E+03  0.50400001928E-02 0.  1.
    10030    2    1    2    0    0  0.00000000000E+00  0.00000000000E+00  0.98469328353E+03  0.17809647006E+04  0.14839859845E+04 0.  0.
        5    1    3    3  502    0 -0.73885252152E+03 -0.89150482567E+01  0.41140300528E+03  0.84572870910E+03  0.46999998093E+01 0. -1.
       -5    1    3    3    0  502  0.73885252152E+03  0.89150482567E+01  0.57329027825E+03  0.93523599149E+03  0.46999998093E+01 0.  1.
</event>
<event>
 5   0  0.7359897E-04  0.1471208E+04  0.7818609E-02  0.8903828E-01
        2   -1    0    0  501    0  0.00000000000E+00  0.00000000000E+00  0.20196260074E+04  0.20196260074E+04  0.25500000920E-02 0.  1.
       -2   -1    0    0    0  501  0.00000000000E+00  0.00000000000E+00 -0.26792748373E+03  0.26792748374E+03  0.25500000920E-02 0. -1.
    10030    2    1    2    0    0  0.00000000000E+00  0.00000000000E+00  0.17516985237E+04  0.22875534912E+04  0.14712080944E+04 0.  0.
        1    1    3    3  502    0 -0.40857021993E+03  0.49292205266E+03  0.31262264776E+03  0.71248487319E+03  0.50400001928E-02 0. -1.
       -1    1    3    3    0  502  0.40857021993E+03 -0.49292205266E+03  0.14390758759E+04  0.15750686180E+04  0.50400001928E-02 0.  1.
</event>
<event>
 5   0  0.7454828E-04  0.1502749E+04  0.7818609E-02  0.8882627E-01
       -2   -1    0    0    0  501  0.00000000000E+00  0.00000000000E+00  0.90949367290E+03  0.90949367290E+03  0.25500000920E-02 0. -1.
        2   -1    0    0  501    0  0.00000000000E+00  0.00000000000E+00 -0.62074512914E+03  0.62074512915E+03  0.25500000920E-02 0.  1.
    10030    2    1    2    0    0  0.00000000000E+00  0.00000000000E+00  0.28874854376E+03  0.15302388021E+04  0.15027491706E+04 0.  0.
        3    1    3    3  502    0 -0.32344960042E+03  0.67358379594E+03  0.64006618276E+02  0.74995441964E+03  0.10100000352E+00 0.  1.
       -3    1    3    3    0  502  0.32344960042E+03 -0.67358379594E+03  0.22474192548E+03  0.78028438241E+03  0.10100000352E+00 0. -1.
</event>
<event>
 5   0  0.7359897E-04  0.1478751E+04  0.7818609E-02  0.8898708E-01
        2   -1    0    0  501    0  0.00000000000E+00  0.00000000000E+00  0.69753730457E+03  0.69753730458E+03  0.25500000920E-02 0. -1.
       -2   -1    0    0    0  501  0.00000000000E+00  0.00000000000E+00 -0.78372313036E+03  0.78372313036E+03  0.25500000920E-02 0.  1.
    10030    2    1    2    0    0  0.00000000000E+00  0.00000000000E+00 -0.86185825782E+02  0.14812604349E+04  0.14787509863E+04 0.  0.
        1    1    3    3  502    0 -0.21608957034E+03 -0.52054885436E+03  0.43626940385E+03  0.71273894586E+03  0.50400001928E-02 0. -1.
       -1    1    3    3    0  502  0.21608957034E+03  0.52054885436E+03 -0.52245522963E+03  0.76852148908E+03  0.50400001928E-02 0.  1.
</event>
<event>
 5   0  0.7454828E-04  0.1484873E+04  0.7818609E-02  0.8894575E-01
       -2   -1    0    0    0  501  0.00000000000E+00  0.00000000000E+00  0.44481036514E+03  0.44481036515E+03  0.25500000920E-02 0. -1.
        2   -1    0    0  501    0  0.00000000000E+00  0.00000000000E+00 -0.12392061904E+04  0.12392061904E+04  0.25500000920E-02 0.  1.
    10030    2    1    2    0    0  0.00000000000E+00  0.00000000000E+00 -0.79439582529E+03  0.16840165556E+04  0.14848727327E+04 0.  0.
        3    1    3    3  502    0 -0.32526759640E+03  0.71590708254E+02 -0.11497304926E+04  0.11969981013E+04  0.10100000352E+00 0.  1.
       -3    1    3    3    0  502  0.32526759640E+03 -0.71590708254E+02  0.35533466732E+03  0.48701845424E+03  0.10100000352E+00 0. -1.
</event>
<event>
 5   0  0.7672251E-04  0.1445708E+04  0.7818609E-02  0.8921382E-01
       -2   -1    0    0    0  501  0.00000000000E+00  0.00000000000E+00  0.88307674367E+03  0.88307674367E+03  0.25500000920E-02 0. -1.
        2   -1    0    0  501    0  0.00000000000E+00  0.00000000000E+00 -0.59170121591E+03  0.59170121591E+03  0.25500000920E-02 0.  1.
    10030    2    1    2    0    0  0.00000000000E+00  0.00000000000E+00  0.29137552776E+03  0.14747779596E+04  0.14457075541E+04 0.  0.
        5    1    3    3  502    0 -0.33301030398E+03 -0.16280263926E+03  0.77872621377E+03  0.86245995148E+03  0.46999998093E+01 0. -1.
       -5    1    3    3    0  502  0.33301030398E+03  0.16280263926E+03 -0.48735068601E+03  0.61231800811E+03  0.46999998093E+01 0.  1.
</event>
<event>
 5   0  0.2800375E-04  0.1458161E+04  0.7818609E-02  0.8912762E-01
       -4   -1    0    0    0  501  0.00000000000E+00  0.00000000000E+00  0.46291758972E+03  0.46291933182E+03  0.12699999809E+01 0. -1.
        4   -1    0    0  501    0  0.00000000000E+00  0.00000000000E+00 -0.11482749317E+04  0.11482756341E+04  0.12699999809E+01 0.  1.
    10030    2    1    2    0    0  0.00000000000E+00  0.00000000000E+00 -0.68535734202E+03  0.16111949659E+04  0.14581613531E+04 0.  0.
        1    1    3    3  502    0  0.18439608407E+03 -0.54718994442E+03  0.14916655743E+03  0.59638025871E+03  0.50400001928E-02 0. -1.
       -1    1    3    3    0  502 -0.18439608407E+03  0.54718994442E+03 -0.83452389946E+03  0.10148147072E+04  0.50400001928E-02 0.  1.
</event>
<event>
 5   0  0.4086710E-04  0.1497830E+04  0.7818609E-02  0.8885897E-01
        1   -1    0    0  501    0  0.00000000000E+00  0.00000000000E+00  0.12775213485E+04  0.12775213485E+04  0.50400001928E-02 0.  1.
       -1   -1    0    0    0  501  0.00000000000E+00  0.00000000000E+00 -0.43903265801E+03  0.43903265804E+03  0.50400001928E-02 0. -1.
    10030    2    1    2    0    0  0.00000000000E+00  0.00000000000E+00  0.83848869048E+03  0.17165540065E+04  0.14978298880E+04 0.  0.
        3    1    3    3  502    0  0.17725808284E+02  0.42784842425E+03 -0.28489140343E+03  0.51432635589E+03  0.10100000352E+00 0. -1.
       -3    1    3    3    0  502 -0.17725808284E+02 -0.42784842425E+03  0.11233800939E+04  0.12022276507E+04  0.10100000352E+00 0.  1.
</event>
<event>
 5   0  0.7359897E-04  0.1501872E+04  0.7818609E-02  0.8883209E-01
        2   -1    0    0  501    0  0.00000000000E+00  0.00000000000E+00  0.50548233924E+03  0.50548233924E+03  0.25500000920E-02 0.  1.
       -2   -1    0    0    0  501  0.00000000000E+00  0.00000000000E+00 -0.11155780837E+04  0.11155780837E+04  0.25500000920E-02 0. -1.
    10030    2    1    2    0    0  0.00000000000E+00  0.00000000000E+00 -0.61009574450E+03  0.16210604230E+04  0.15018721908E+04 0.  0.
        1    1    3    3  502    0  0.67157004455E+02  0.59258052142E+03  0.18750371934E+03  0.62515548658E+03  0.50400001928E-02 0.  1.
       -1    1    3    3    0  502 -0.67157004455E+02 -0.59258052142E+03 -0.79759946384E+03  0.99590493641E+03  0.50400001928E-02 0. -1.
</event>
<event>
 5   0  0.4086710E-04  0.1491455E+04  0.7818609E-02  0.8890155E-01
       -1   -1    0    0    0  501  0.00000000000E+00  0.00000000000E+00  0.42111141658E+03  0.42111141661E+03  0.50400001928E-02 0.  1.
        1   -1    0    0  501    0  0.00000000000E+00  0.00000000000E+00 -0.13205758664E+04  0.13205758664E+04  0.50400001928E-02 0. -1.
    10030    2    1    2    0    0  0.00000000000E+00  0.00000000000E+00 -0.89946444979E+03  0.17416872830E+04  0.14914550933E+04 0.  0.
        3    1    3    3  502    0  0.32384923152E+03 -0.47529270406E+03  0.10459685420E+03  0.58456992003E+03  0.10100000352E+00 0.  1.
       -3    1    3    3    0  502 -0.32384923152E+03  0.47529270406E+03 -0.10040613040E+04  0.11571173630E+04  0.10100000352E+00 0. -1.
</event>
<event>
 5   0  0.4015204E-04  0.1488385E+04  0.7818609E-02  0.8892214E-01
        1   -1    0    0  501    0  0.00000000000E+00  0.00000000000E+00  0.99296784700E+03  0.99296784701E+03  0.50400001928E-02 0. -1.
       -1   -1    0    0    0  501  0.00000000000E+00  0.00000000000E+00 -0.55774458642E+03  0.55774458644E+03  0.50400001928E-02 0.  1.
    10030    2    1    2    0    0  0.00000000000E+00  0.00000000000E+00  0.43522326058E+03  0.15507124335E+04  0.14883849518E+04 0.  0.
        2    1    3    3  502    0  0.17691871945E+01  0.17311360619E+03  0.97169590316E+03  0.98699765902E+03  0.25500000920E-02 0. -1.
       -2    1    3    3    0  502 -0.17691871945E+01 -0.17311360619E+03 -0.53647264258E+03  0.56371477443E+03  0.25500000920E-02 0.  1.
</event>
<event>
 5   0  0.4058874E-04  0.1467387E+04  0.7818609E-02  0.8906435E-01
        1   -1    0    0  501    0  0.00000000000E+00  0.00000000000E+00  0.10445061617E+04  0.10445061617E+04  0.50400001928E-02 0.  1.
       -1   -1    0    0    0  501  0.00000000000E+00  0.00000000000E+00 -0.51536894715E+03  0.51536894718E+03  0.50400001928E-02 0. -1.
    10030    2    1    2    0    0  0.00000000000E+00  0.00000000000E+00  0.52913721456E+03  0.15598751089E+04  0.14673868486E+04 0.  0.
        4    1    3    3  502    0 -0.37731624892E+02  0.19945596603E+02 -0.51404709501E+03  0.51581734280E+03  0.12699999809E+01 0. -1.
       -4    1    3    3    0  502  0.37731624892E+02 -0.19945596603E+02  0.10431843096E+04  0.10440577661E+04  0.12699999809E+01 0.  1.
</event>
<event>
 5   0  0.7547580E-04  0.1495389E+04  0.7818609E-02  0.8887525E-01
       -2   -1    0    0    0  501  0.00000000000E+00  0.00000000000E+00  0.39410842542E+03  0.39410842543E+03  0.25500000920E-02 0.  1.
        2   -1    0    0  501    0  0.00000000000E+00  0.00000000000E+00 -0.14185115864E+04  0.14185115864E+04  0.25500000920E-02 0. -1.
    10030    2    1    2    0    0  0.00000000000E+00  0.00000000000E+00 -0.10244031610E+04  0.18126200118E+04  0.14953894045E+04 0.  0.
        4    1    3    3  502    0 -0.67448776428E+02  0.55286854960E+03  0.92451501415E+02  0.56458999601E+03  0.12699999809E+01 0.  1.
       -4    1    3    3    0  502  0.67448776428E+02 -0.55286854960E+03 -0.11168546624E+04  0.12480300158E+04  0.12699999809E+01 0. -1.
</event>
<event>
 5   0  0.3907345E-04  0.1452918E+04  0.7818609E-02  0.8916380E-01
        1   -1    0    0  501    0  0.00000000000E+00  0.00000000000E+00  0.15382696684E+04  0.15382696684E+04  0.50400001928E-02 0. -1.
       -1   -1    0    0    0  501  0.00000000000E+00  0.00000000000E+00 -0.34307567092E+03  0.34307567096E+03  0.50400001928E-02 0.  1.
    10030    2    1    2    0    0  0.00000000000E+00  0.00000000000E+00  0.11951939975E+04  0.18813453394E+04  0.14529183027E+04 0.  0.
        5    1    3    3  502    0  0.76618814101E+02  0.69892721819E+03  0.83407049418E+03  0.10909011771E+04  0.46999998093E+01 0. -1.
       -5    1    3    3    0  502 -0.76618814101E+02 -0.69892721819E+03  0.36112350332E+03  0.79044416226E+03  0.46999998093E+01 0.  1.
</event>
<event>
 5   0  0.3907345E-04  0.1507725E+04  0.7818609E-02  0.8879332E-01
       -1   -1    0    0    0  501  0.00000000000E+00  0.00000000000E+00  0.26356647623E+03  0.26356647628E+03  0.50400001928E-02 0. -1.
        1   -1    0    0  501    0  0.00000000000E+00  0.00000000000E+00 -0.21562241393E+04  0.21562241393E+04  0.50400001928E-02 0.  1.
    10030    2    1    2    0    0  0.00000000000E+00  0.00000000000E+00 -0.18926576631E+04  0.24197906156E+04  0.15077246412E+04 0.  0.
        5    1    3    3  502    0  0.23727869173E+03 -0.26060210545E+03  0.12317486764E+03  0.37337484239E+03  0.46999998093E+01 0. -1.
       -5    1    3    3    0  502 -0.23727869173E+03  0.26060210545E+03 -0.20158325307E+04  0.20464157732E+04  0.46999998093E+01 0.  1.
</event>
<event>
 5   0  0.3907345E-04  0.1519859E+04  0.7818609E-02  0.8871353E-01
       -1   -1    0    0    0  501  0.00000000000E+00  0.00000000000E+00  0.49685388643E+03  0.49685388646E+03  0.50400001928E-02 0.  1.
        1   -1    0    0  501    0  0.00000000000E+00  0.00000000000E+00 -0.11622994930E+04  0.11622994930E+04  0.50400001928E-02 0. -1.
    10030    2    1    2    0    0  0.00000000000E+00  0.00000000000E+00 -0.66544560657E+03  0.16591533795E+04  0.15198592308E+04 0.  0.
        5    1    3    3  502    0  0.27651251274E+03  0.65068286982E+03 -0.28578309262E+02  0.70759181491E+03  0.46999998093E+01 0.  1.
       -5    1    3    3    0  502 -0.27651251274E+03 -0.65068286982E+03 -0.63686729731E+03  0.95156156456E+03  0.46999998093E+01 0. -1.
</event>
<event>
 5   0  0.7672251E-04  0.1522087E+04  0.7818609E-02  0.8869896E-01
        2   -1    0    0  501    0  0.00000000000E+00  0.00000000000E+00  0.38532349861E+03  0.38532349862E+03  0.25500000920E-02 0.  1.
       -2   -1    0    0    0  501  0.00000000000E+00  0.00000000000E+00 -0.15031202792E+04  0.15031202792E+04  0.25500000920E-02 0. -1.
    10030    2    1    2    0    0  0.00000000000E+00  0.00000000000E+00 -0.11177967806E+04  0.18884437779E+04  0.15220874677E+04 0.  0.
        5    1    3    3  502    0  0.74708523023E+02  0.61844253132E+02  0.37760682213E+03  0.38989110938E+03  0.46999998093E+01 0.  1.
       -5    1    3    3    0  502 -0.74708523023E+02 -0.61844253132E+02 -0.14954036028E+04  0.14985526685E+04  0.46999998093E+01 0. -1.
</event>
<event>
 5   0  0.7359897E-04  0.1520789E+04  0.7818609E-02  0.8870745E-01
        2   -1    0    0  501    0  0.00000000000E+00  0.00000000000E+00  0.11198267269E+04  0.11198267269E+04  0.25500000920E-02 0. -1.
       -2   -1    0    0    0  501  0.00000000000E+00  0.00000000000E+00 -0.51632993451E+03  0.51632993451E+03  0.25500000920E-02 0.  1.
    10030    2    1    2    0    0  0.00000000000E+00  0.00000000000E+00  0.60349679243E+03  0.16361566614E+04  0.15207893484E+04 0.  0.
        1    1    3    3  502    0  0.49500348203E+03 -0.12089298770E+03 -0.30547578446E+03  0.59410354032E+03  0.50400001928E-02 0.  1.
       -1    1    3    3    0  502 -0.49500348203E+03  0.12089298770E+03  0.90897257689E+03  0.10420531211E+04  0.50400001928E-02 0. -1.
</event>
<event>
 5   0  0.4015204E-04  0.1481544E+04  0.7818609E-02  0.8896820E-01
        1   -1    0    0  501    0  0.00000000000E+00  0.00000000000E+00  0.90160399579E+03  0.90160399580E+03  0.50400001928E-02 0.  1.
       -1   -1    0    0    0  501  0.00000000000E+00  0.00000000000E+00 -0.60862965997E+03  0.60862965999E+03  0.50400001928E-02 0. -1.
    10030    2    1    2    0    0  0.00000000000E+00  0.00000000000E+00  0.29297433583E+03  0.15102336558E+04  0.14815436995E+04 0.  0.
        2    1    3    3  502    0  0.97272006241E+02  0.21872985077E+02  0.89473341124E+03  0.90027115241E+03  0.25500000920E-02 0.  1.
       -2    1    3    3    0  502 -0.97272006241E+02 -0.21872985077E+02 -0.60175907541E+03  0.60996250338E+03  0.25500000920E-02 0. -1.
</event>
<event>
 5   0  0.2800375E-04  0.1504795E+04  0.7818609E-02  0.8881271E-01
       -4   -1    0    0    0  501  0.00000000000E+00  0.00000000000E+00  0.12470242284E+04  0.12470248751E+04  0.12699999809E+01 0. -1.
        4   -1    0    0  501    0  0.00000000000E+00  0.00000000000E+00 -0.45396059815E+03  0.45396237463E+03  0.12699999809E+01 0.  1.
    10030    2    1    2    0    0  0.00000000000E+00  0.00000000000E+00  0.79306363021E+03  0.17009872497E+04  0.15047949036E+04 0.  0.
        4    1    3    3  502    0  0.49694088809E+02 -0.16589072488E+03  0.12241902340E+04  0.12363788162E+04  0.12699999809E+01 0. -1.
       -4    1    3    3    0  502 -0.49694088809E+02  0.16589072488E+03 -0.43112660383E+03  0.46460843351E+03  0.12699999809E+01 0.  1.
</event>
<event>
 5   0  0.7359897E-04  0.1548745E+04  0.7818609E-02  0.8852670E-01
        2   -1    0    0  501    0  0.00000000000E+00  0.00000000000E+00  0.87068953225E+03  0.87068953226E+03  0.25500000920E-02 0.  1.
       -2   -1    0    0    0  501  0.00000000000E+00  0.00000000000E+00 -0.68870987477E+03  0.68870987478E+03  0.25500000920E-02 0. -1.
    10030    2    1    2    0    0  0.00000000000E+00  0.00000000000E+00  0.18197965748E+03  0.15593994070E+04  0.15487446255E+04 0.  0.
        1    1    3    3  502    0 -0.58570291850E+03  0.31686040912E+02 -0.41805784487E+03  0.72029457558E+03  0.50400001928E-02 0.  1.
       -1    1    3    3    0  502  0.58570291850E+03 -0.31686040912E+02  0.60003750235E+03  0.83910483146E+03  0.50400001928E-02 0. -1.
</event>
<event>
 5   0  0.2800375E-04  0.1500649E+04  0.7818609E-02  0.8884021E-01
       -3   -1    0    0    0  501  0.00000000000E+00  0.00000000000E+00  0.47378969026E+03  0.47378970102E+03  0.10100000352E+00 0. -1.
        3   -1    0    0  501    0  0.00000000000E+00  0.00000000000E+00 -0.11882630948E+04  0.11882630991E+04  0.10100000352E+00 0.  1.
    10030    2    1    2    0    0  0.00000000000E+00  0.00000000000E+00 -0.71447340452E+03  0.16620528001E+04  0.15006489478E+04 0.  0.
        3    1    3    3  502    0 -0.62472867590E+02  0.54948711469E+03  0.20440217619E+03  0.58959240856E+03  0.10100000352E+00 0. -1.
       -3    1    3    3    0  502  0.62472867590E+02 -0.54948711469E+03 -0.91887558070E+03  0.10724603915E+04  0.10100000352E+00 0.  1.
</event>
<event>
 5   0  0.7359897E-04  0.1496168E+04  0.7818609E-02  0.8887005E-01
       -2   -1    0    0    0  501  0.00000000000E+00  0.00000000000E+00  0.49394016671E+03  0.49394016672E+03  0.25500000920E-02 0.  1.
        2   -1    0    0  501    0  0.00000000000E+00  0.00000000000E+00 -0.11329909152E+04  0.11329909152E+04  0.25500000920E-02 0. -1.
    10030    2    1    2    0    0  0.00000000000E+00  0.00000000000E+00 -0.63905074845E+03  0.16269310819E+04  0.14961680675E+04 0.  0.
        1    1    3    3  502    0  0.43986854296E+03 -0.44573204239E+03  0.12546961758E+03  0.63867363627E+03  0.50400001928E-02 0. -1.
       -1    1    3    3    0  502 -0.43986854296E+03  0.44573204239E+03 -0.76452036604E+03  0.98825744562E+03  0.50400001928E-02 0.  1.
</event>
<event>
 5   0  0.7454828E-04  0.1475115E+04  0.7818609E-02  0.8901172E-01
        2   -1    0    0  501    0  0.00000000000E+00  0.00000000000E+00  0.84727381002E+03  0.84727381003E+03  0.25500000920E-02 0.  1.
       -2   -1    0    0    0  501  0.00000000000E+00  0.00000000000E+00 -0.64204841780E+03  0.64204841781E+03  0.25500000920E-02 0. -1.
    10030    2    1    2    0    0  0.00000000000E+00  0.00000000000E+00  0.20522539222E+03  0.14893222278E+04  0.14751146521E+04 0.  0.
        3    1    3    3  502    0  0.42960091199E+03 -0.17312634958E+03  0.68212809614E+03  0.82451708669E+03  0.10100000352E+00 0.  1.
       -3    1    3    3    0  502 -0.42960091199E+03  0.17312634958E+03 -0.47690270392E+03  0.66480514115E+03  0.10100000352E+00 0. -1.
</event>
<event>
 5   0  0.4058874E-04  0.1509461E+04  0.7818609E-02  0.8878186E-01
       -1   -1    0    0    0  501  0.00000000000E+00  0.00000000000E+00  0.13384828306E+04  0.13384828306E+04  0.50400001928E-02 0.  1.
        1   -1    0    0  501    0  0.00000000000E+00  0.00000000000E+00 -0.42557008315E+03  0.42557008318E+03  0.50400001928E-02 0. -1.
    10030    2    1    2    0    0  0.00000000000E+00  0.00000000000E+00  0.91291274747E+03  0.17640529138E+04  0.15094611615E+04 0.  0.
        4    1    3    3  502    0  0.35949823813E+03 -0.14568654894E+03  0.12130732034E+04  0.12735822562E+04  0.12699999809E+01 0.  1.
       -4    1    3    3    0  502 -0.35949823813E+03  0.14568654894E+03 -0.30016045589E+03  0.49047065758E+03  0.12699999809E+01 0. -1.
</event>
<event>
 5   0  0.4058874E-04  0.1510854E+04  0.7818609E-02  0.8877267E-01
       -1   -1    0    0    0  501  0.00000000000E+00  0.00000000000E+00  0.38368339022E+03  0.38368339025E+03  0.50400001928E-02 0. -1.
        1   -1    0    0  501    0  0.00000000000E+00  0.00000000000E+00 -0.14873467922E+04  0.14873467922E+04  0.50400001928E-02 0.  1.
    10030    2    1    2    0    0  0.00000000000E+00  0.00000000000E+00 -0.11036634020E+04  0.18710301825E+04  0.15108544069E+04 0.  0.
        4    1    3    3  502    0 -0.50007968170E+03 -0.21657585040E+03 -0.11996940938E+04  0.13176692752E+04  0.12699999809E+01 0.  1.
       -4    1    3    3    0  502  0.50007968170E+03  0.21657585040E+03  0.96030691867E+02  0.55336090728E+03  0.12699999809E+01 0. -1.
</event>
<event>
 5   0  0.4084462E-04  0.1311534E+04  0.7818609E-02  0.9020468E-01
        1   -1    0    0  501    0  0.00000000000E+00  0.00000000000E+00  0.60553728805E+03  0.60553728807E+03  0.50400001928E-02 0. -1.
       -1   -1    0    0    0  501  0.00000000000E+00  0.00000000000E+00 -0.71016323668E+03  0.71016323670E+03  0.50400001928E-02 0.  1.
    10030    2    1    2    0    0  0.00000000000E+00  0.00000000000E+00 -0.10462594864E+03  0.13157005248E+04  0.13115339423E+04 0.  0.
        1    1    3    3  502    0  0.16262360717E+03 -0.61332837736E+03  0.11377926294E+03  0.64464242553E+03  0.50400001928E-02 0.  1.
       -1    1    3    3    0  502 -0.16262360717E+03  0.61332837736E+03 -0.21840521158E+03  0.67105809924E+03  0.50400001928E-02 0. -1.
</event>
<event>
 5   0  0.7672251E-04  0.1405031E+04  0.7818609E-02  0.8950185E-01
       -2   -1    0    0    0  501  0.00000000000E+00  0.00000000000E+00  0.96990522395E+03  0.96990522396E+03  0.25500000920E-02 0.  1.
        2   -1    0    0  501    0  0.00000000000E+00  0.00000000000E+00 -0.50884146189E+03  0.50884146189E+03  0.25500000920E-02 0. -1.
    10030    2    1    2    0    0  0.00000000000E+00  0.00000000000E+00  0.46106376207E+03  0.14787466859E+04  0.14050309492E+04 0.  0.
        5    1    3    3  502    0 -0.20798647546E+03  0.12328933164E+03  0.92471830628E+03  0.95581623193E+03  0.46999998093E+01 0.  1.
       -5    1    3    3    0  502  0.20798647546E+03 -0.12328933164E+03 -0.46365454421E+03  0.52293045392E+03  0.46999998093E+01 0. -1.
</event>
<event>
 5   0  0.4084462E-04  0.1517147E+04  0.7818609E-02  0.8873130E-01
       -1   -1    0    0    0  501  0.00000000000E+00  0.00000000000E+00  0.50046441646E+03  0.50046441649E+03  0.50400001928E-02 0. -1.
        1   -1    0    0  501    0  0.00000000000E+00  0.00000000000E+00 -0.11497988329E+04  0.11497988330E+04  0.50400001928E-02 0.  1.
    10030    2    1    2    0    0  0.00000000000E+00  0.00000000000E+00 -0.64933441648E+03  0.16502632494E+04  0.15171465348E+04 0.  0.
        1    1    3    3  502    0  0.27020730914E+03 -0.70852018195E+03 -0.30236018297E+03  0.81635440736E+03  0.50400001928E-02 0.  1.
       -1    1    3    3    0  502 -0.27020730914E+03  0.70852018195E+03 -0.34697423352E+03  0.83390884208E+03  0.50400001928E-02 0. -1.
</event>
<event>
 5   0  0.2800375E-04  0.1537582E+04  0.7818609E-02  0.8859839E-01
        3   -1    0    0  501    0  0.00000000000E+00  0.00000000000E+00  0.67187571515E+03  0.67187572274E+03  0.10100000352E+00 0.  1.
       -3   -1    0    0    0  501  0.00000000000E+00  0.00000000000E+00 -0.87968630047E+03  0.87968630627E+03  0.10100000352E+00 0. -1.
    10030    2    1    2    0    0  0.00000000000E+00  0.00000000000E+00 -0.20781058532E+03  0.15515620290E+04  0.15375823524E+04 0.  0.
        5    1    3    3  502    0  0.66004835106E+03  0.38706791135E+03 -0.28849000264E+02  0.76572824719E+03  0.46999998093E+01 0. -1.
       -5    1    3    3    0  502 -0.66004835106E+03 -0.38706791135E+03 -0.17896158506E+03  0.78583378182E+03  0.46999998093E+01 0.  1.
</event>
<event>
 5   0  0.7672251E-04  0.1508745E+04  0.7818609E-02  0.8878658E-01
       -2   -1    0    0    0  501  0.00000000000E+00  0.00000000000E+00  0.35957872563E+03  0.35957872564E+03  0.25500000920E-02 0.  1.
        2   -1    0    0  501    0  0.00000000000E+00  0.00000000000E+00 -0.15826245063E+04  0.15826245063E+04  0.25500000920E-02 0. -1.
    10030    2    1    2    0    0  0.00000000000E+00  0.00000000000E+00 -0.12230457807E+04  0.19422032320E+04  0.15087453107E+04 0.  0.
        5    1    3    3  502    0  0.36701197749E+03  0.89864712549E+02  0.22895737243E+03  0.44183370919E+03  0.46999998093E+01 0.  1.
       -5    1    3    3    0  502 -0.36701197749E+03 -0.89864712549E+02 -0.14520031531E+04  0.15003695228E+04  0.46999998093E+01 0. -1.
</event>
<event>
 5   0  0.7359897E-04  0.1511929E+04  0.7818609E-02  0.8876559E-01
       -2   -1    0    0    0  501  0.00000000000E+00  0.00000000000E+00  0.47358608605E+03  0.47358608605E+03  0.25500000920E-02 0.  1.
        2   -1    0    0  501    0  0.00000000000E+00  0.00000000000E+00 -0.12067120025E+04  0.12067120025E+04  0.25500000920E-02 0. -1.
    10030    2    1    2    0    0  0.00000000000E+00  0.00000000000E+00 -0.73312591644E+03  0.16802980885E+04  0.15119285886E+04 0.  0.
        1    1    3    3  502    0 -0.11890965113E+03  0.67344333247E+03 -0.72464985379E+03  0.99638488437E+03  0.50400001928E-02 0. -1.
       -1    1    3    3    0  502  0.11890965113E+03 -0.67344333247E+03 -0.84760626572E+01  0.68391320417E+03  0.50400001928E-02 0.  1.
</event>
<event>
 5   0  0.7547580E-04  0.1505077E+04  0.7818609E-02  0.8881083E-01
        2   -1    0    0  501    0  0.00000000000E+00  0.00000000000E+00  0.19606443152E+04  0.19606443152E+04  0.25500000920E-02 0.  1.
       -2   -1    0    0    0  501  0.00000000000E+00  0.00000000000E+00 -0.28884105024E+03  0.28884105025E+03  0.25500000920E-02 0. -1.
    10030    2    1    2    0    0  0.00000000000E+00  0.00000000000E+00  0.16718032650E+04  0.22494853655E+04  0.15050774906E+04 0.  0.
        4    1    3    3  502    0  0.30573467885E+03 -0.70373896343E+02  0.18582400819E+04  0.18845381381E+04  0.12699999809E+01 0.  1.
       -4    1    3    3    0  502 -0.30573467885E+03  0.70373896343E+02 -0.18643681693E+03  0.36494722734E+03  0.12699999809E+01 0. -1.
</event>
<event>
 5   0  0.7672251E-04  0.1602888E+04  0.7818609E-02  0.8818776E-01
        2   -1    0    0  501    0  0.00000000000E+00  0.00000000000E+00  0.18462133378E+04  0.18462133378E+04  0.25500000920E-02 0. -1.
       -2   -1    0    0    0  501  0.00000000000E+00  0.00000000000E+00 -0.34790809817E+03  0.34790809818E+03  0.25500000920E-02 0.  1.
    10030    2    1    2    0    0  0.00000000000E+00  0.00000000000E+00  0.14983052396E+04  0.21941214360E+04  0.16028881074E+04 0.  0.
        5    1    3    3  502    0 -0.19389024762E+03 -0.13368443449E+03 -0.29945244666E+03  0.38099713116E+03  0.46999998093E+01 0.  1.
       -5    1    3    3    0  502  0.19389024762E+03  0.13368443449E+03  0.17977576863E+04  0.18131243048E+04  0.46999998093E+01 0. -1.
</event>
<event>
 5   0  0.4058874E-04  0.1501756E+04  0.7818609E-02  0.8883286E-01
       -1   -1    0    0    0  501  0.00000000000E+00  0.00000000000E+00  0.43341043917E+03  0.43341043920E+03  0.50400001928E-02 0. -1.
        1   -1    0    0  501    0  0.00000000000E+00  0.00000000000E+00 -0.13008867703E+04  0.13008867703E+04  0.50400001928E-02 0.  1.
    10030    2    1    2    0    0  0.00000000000E+00  0.00000000000E+00 -0.86747633110E+03  0.17342972095E+04  0.15017561805E+04 0.  0.
        4    1    3    3  502    0 -0.34198883094E+02 -0.61529204056E+03  0.61719644375E+02  0.61932607420E+03  0.12699999809E+01 0. -1.
       -4    1    3    3    0  502  0.34198883094E+02  0.61529204056E+03 -0.92919597547E+03  0.11149711353E+04  0.12699999809E+01 0.  1.
</event>
<event>
 5   0  0.7359897E-04  0.1498952E+04  0.7818609E-02  0.8885150E-01
       -2   -1    0    0    0  501  0.00000000000E+00  0.00000000000E+00  0.32552932920E+03  0.32552932921E+03  0.25500000920E-02 0. -1.
        2   -1    0    0  501    0  0.00000000000E+00  0.00000000000E+00 -0.17255409149E+04  0.17255409149E+04  0.25500000920E-02 0.  1.
    10030    2    1    2    0    0  0.00000000000E+00  0.00000000000E+00 -0.14000115857E+04  0.20510702441E+04  0.14989518692E+04 0.  0.
        1    1    3    3  502    0 -0.63630408216E+03  0.30942352965E+03 -0.36180694971E+03  0.79468866517E+03  0.50400001928E-02 0. -1.
       -1    1    3    3    0  502  0.63630408216E+03 -0.30942352965E+03 -0.10382046360E+04  0.12563815790E+04  0.50400001928E-02 0.  1.
</event>
<event>
 5   0  0.4058874E-04  0.1472131E+04  0.7818609E-02  0.8903200E-01
        1   -1    0    0  501    0  0.00000000000E+00  0.00000000000E+00  0.16459452382E+04  0.16459452382E+04  0.50400001928E-02 0. -1.
       -1   -1    0    0    0  501  0.00000000000E+00  0.00000000000E+00 -0.32916775066E+03  0.32916775070E+03  0.50400001928E-02 0.  1.
    10030    2    1    2    0    0  0.00000000000E+00  0.00000000000E+00  0.13167774875E+04  0.19751129889E+04  0.14721305537E+04 0.  0.
        4    1    3    3  502    0  0.25105354313E+03 -0.60574112780E+03  0.20970044049E+03  0.68842289551E+03  0.12699999809E+01 0.  1.
       -4    1    3    3    0  502 -0.25105354313E+03  0.60574112780E+03  0.11070770470E+04  0.12866900934E+04  0.12699999809E+01 0. -1.
</event>
<event>
 5   0  0.4015204E-04  0.1479981E+04  0.7818609E-02  0.8897875E-01
       -1   -1    0    0    0  501  0.00000000000E+00  0.00000000000E+00  0.90051712907E+03  0.90051712908E+03  0.50400001928E-02 0. -1.
        1   -1    0    0  501    0  0.00000000000E+00  0.00000000000E+00 -0.60807958249E+03  0.60807958251E+03  0.50400001928E-02 0.  1.
    10030    2    1    2    0    0  0.00000000000E+00  0.00000000000E+00  0.29243754658E+03  0.15085967116E+04  0.14799811889E+04 0.  0.
        2    1    3    3  502    0  0.46058924798E+03 -0.36194826274E+01  0.73658057782E+03  0.86873845525E+03  0.25500000920E-02 0. -1.
       -2    1    3    3    0  502 -0.46058924798E+03  0.36194826274E+01 -0.44414303124E+03  0.63985825635E+03  0.25500000920E-02 0.  1.
</event>
<event>
 5   0  0.4015204E-04  0.1508965E+04  0.7818609E-02  0.8878513E-01
        1   -1    0    0  501    0  0.00000000000E+00  0.00000000000E+00  0.17374325603E+04  0.17374325603E+04  0.50400001928E-02 0.  1.
       -1   -1    0    0    0  501  0.00000000000E+00  0.00000000000E+00 -0.32763494097E+03  0.32763494101E+03  0.50400001928E-02 0. -1.
    10030    2    1    2    0    0  0.00000000000E+00  0.00000000000E+00  0.14097976193E+04  0.20650675013E+04  0.15089646972E+04 0.  0.
        2    1    3    3  502    0  0.45844947925E+03 -0.44874652092E+01  0.15249314848E+04  0.15923605420E+04  0.25500000920E-02 0.  1.
       -2    1    3    3    0  502 -0.45844947925E+03  0.44874652092E+01 -0.11513386550E+03  0.47270695929E+03  0.25500000920E-02 0. -1.
</event>
<event>
 5   0  0.4084462E-04  0.1498226E+04  0.7818609E-02  0.8885633E-01
       -1   -1    0    0    0  501  0.00000000000E+00  0.00000000000E+00  0.97757416168E+03  0.97757416169E+03  0.50400001928E-02 0. -1.
        1   -1    0    0  501    0  0.00000000000E+00  0.00000000000E+00 -0.57404381629E+03  0.57404381631E+03  0.50400001928E-02 0.  1.
    10030    2    1    2    0    0  0.00000000000E+00  0.00000000000E+00  0.40353034539E+03  0.15516179780E+04  0.14982261545E+04 0.  0.
        1    1    3    3  502    0 -0.16064972027E+03  0.52783458631E+03  0.72653028545E+03  0.91228500964E+03  0.50400001928E-02 0. -1.
       -1    1    3    3    0  502  0.16064972027E+03 -0.52783458631E+03 -0.32299994006E+03  0.63933296836E+03  0.50400001928E-02 0.  1.
</event>
<event>
 5   0  0.4058874E-04  0.1500150E+04  0.7818609E-02  0.8884353E-01
       -1   -1    0    0    0  501  0.00000000000E+00  0.00000000000E+00  0.41391467658E+03  0.41391467661E+03  0.50400001928E-02 0. -1.
        1   -1    0    0  501    0  0.00000000000E+00  0.00000000000E+00 -0.13592482436E+04  0.13592482436E+04  0.50400001928E-02 0.  1.
    10030    2    1    2    0    0  0.00000000000E+00  0.00000000000E+00 -0.94533356703E+03  0.17731629202E+04  0.15001503887E+04 0.  0.
        4    1    3    3  502    0  0.23114594690E+03 -0.71302672612E+03 -0.50558522619E+03  0.90413140349E+03  0.12699999809E+01 0. -1.
       -4    1    3    3    0  502 -0.23114594690E+03  0.71302672612E+03 -0.43974834084E+03  0.86903151675E+03  0.12699999809E+01 0.  1.
</event>
<event>
 5   0  0.7547580E-04  0.1497307E+04  0.7818609E-02  0.8886246E-01
        2   -1    0    0  501    0  0.00000000000E+00  0.00000000000E+00  0.64542092859E+03  0.64542092860E+03  0.25500000920E-02 0.  1.
       -2   -1    0    0    0  501  0.00000000000E+00  0.00000000000E+00 -0.86839732638E+03  0.86839732638E+03  0.25500000920E-02 0. -1.
    10030    2    1    2    0    0  0.00000000000E+00  0.00000000000E+00 -0.22297639779E+03  0.15138182550E+04  0.14973066604E+04 0.  0.
        4    1    3    3  502    0  0.53430646506E+03 -0.36289324570E+03  0.27124319935E+03  0.70053507584E+03  0.12699999809E+01 0.  1.
       -4    1    3    3    0  502 -0.53430646506E+03  0.36289324570E+03 -0.49421959714E+03  0.81328317914E+03  0.12699999809E+01 0. -1.
</event>
<event>
 5   0  0.7547580E-04  0.1491601E+04  0.7818609E-02  0.8890057E-01
        2   -1    0    0  501    0  0.00000000000E+00  0.00000000000E+00  0.13863674612E+04  0.13863674612E+04  0.25500000920E-02 0. -1.
       -2   -1    0    0    0  501  0.00000000000E+00  0.00000000000E+00 -0.40120560353E+03  0.40120560354E+03  0.25500000920E-02 0.  1.
    10030    2    1    2    0    0  0.00000000000E+00  0.00000000000E+00  0.98516185769E+03  0.17875730648E+04  0.14916010110E+04 0.  0.
        4    1    3    3  502    0  0.38038483913E-01 -0.13882411061E+03 -0.38558360043E+03  0.40981515461E+03  0.12699999809E+01 0.  1.
       -4    1    3    3    0  502 -0.38038483913E-01  0.13882411061E+03  0.13707454581E+04  0.13777579101E+04  0.12699999809E+01 0. -1.
</event>
<event>
 5   0  0.3907345E-04  0.1505557E+04  0.7818609E-02  0.8880766E-01
       -1   -1    0    0    0  501  0.00000000000E+00  0.00000000000E+00  0.73156104794E+03  0.73156104796E+03  0.50400001928E-02 0.  1.
        1   -1    0    0  501    0  0.00000000000E+00  0.00000000000E+00 -0.77461120694E+03  0.77461120696E+03  0.50400001928E-02 0. -1.
    10030    2    1    2    0    0  0.00000000000E+00  0.00000000000E+00 -0.43050158997E+02  0.15061722549E+04  0.15055568888E+04 0.  0.
        5    1    3    3  502    0  0.49660007046E+03 -0.16227614056E+03 -0.56369503829E+03  0.76858269689E+03  0.46999998093E+01 0. -1.
       -5    1    3    3    0  502 -0.49660007046E+03  0.16227614056E+03  0.52064487929E+03  0.73758955802E+03  0.46999998093E+01 0.  1.
</event>
<event>
 5   0  0.7634227E-04  0.1500645E+04  0.7818609E-02  0.8884024E-01
       -2   -1    0    0    0  501  0.00000000000E+00  0.00000000000E+00  0.10038167759E+04  0.10038167759E+04  0.25500000920E-02 0. -1.
        2   -1    0    0  501    0  0.00000000000E+00  0.00000000000E+00 -0.56084350193E+03  0.56084350193E+03  0.25500000920E-02 0.  1.
    10030    2    1    2    0    0  0.00000000000E+00  0.00000000000E+00  0.44297327399E+03  0.15646602779E+04  0.15006453490E+04 0.  0.
        2    1    3    3  502    0  0.69071774201E+03  0.17969154976E+03 -0.19915354207E+02  0.71398646592E+03  0.25500000920E-02 0.  1.
       -2    1    3    3    0  502 -0.69071774201E+03 -0.17969154976E+03  0.46288862820E+03  0.85067381193E+03  0.25500000920E-02 0. -1.
</event>
<event>
 5   0  0.3907345E-04  0.1499072E+04  0.7818609E-02  0.8885070E-01
       -1   -1    0    0    0  501  0.00000000000E+00  0.00000000000E+00  0.48474196864E+03  0.48474196867E+03  0.50400001928E-02 0. -1.
        1   -1    0    0  501    0  0.00000000000E+00  0.00000000000E+00 -0.11589761301E+04  0.11589761301E+04  0.50400001928E-02 0.  1.
    10030    2    1    2    0    0  0.00000000000E+00  0.00000000000E+00 -0.67423416148E+03  0.16437180988E+04  0.14990722077E+04 0.  0.
        5    1    3    3  502    0 -0.47147121508E+03  0.14277835944E+03 -0.95652395667E+03  0.10759325891E+04  0.46999998093E+01 0.  1.
       -5    1    3    3    0  502  0.47147121508E+03 -0.14277835944E+03  0.28228979519E+03  0.56778550971E+03  0.46999998093E+01 0. -1.
</event>
<event>
 5   0  0.7359897E-04  0.1513120E+04  0.7818609E-02  0.8875775E-01
       -2   -1    0    0    0  501  0.00000000000E+00  0.00000000000E+00  0.56435967701E+03  0.56435967702E+03  0.25500000920E-02 0. -1.
        2   -1    0    0  501    0  0.00000000000E+00  0.00000000000E+00 -0.10142162031E+04  0.10142162031E+04  0.25500000920E-02 0.  1.
    10030    2    1    2    0    0  0.00000000000E+00  0.00000000000E+00 -0.44985652613E+03  0.15785758802E+04  0.15131195972E+04 0.  0.
        1    1    3    3  502    0 -0.62668751852E+03  0.26143158791E+03  0.12311870350E+03  0.69010284465E+03  0.50400001928E-02 0. -1.
       -1    1    3    3    0  502  0.62668751852E+03 -0.26143158791E+03 -0.57297522963E+03  0.88847303551E+03  0.50400001928E-02 0.  1.
</event>
<event>
 5   0  0.7547580E-04  0.1493943E+04  0.7818609E-02  0.8888491E-01
        2   -1    0    0  501    0  0.00000000000E+00  0.00000000000E+00  0.28522552178E+04  0.28522552178E+04  0.25500000920E-02 0. -1.
       -2   -1    0    0    0  501  0.00000000000E+00  0.00000000000E+00 -0.19562278000E+03  0.19562278001E+03  0.25500000920E-02 0.  1.
    10030    2    1    2    0    0  0.00000000000E+00  0.00000000000E+00  0.26566324378E+04  0.30478779978E+04  0.14939425625E+04 0.  0.
        4    1    3    3  502    0  0.26983780878E+03 -0.50212331521E+03  0.23131528764E+04  0.23823555799E+04  0.12699999809E+01 0. -1.
       -4    1    3    3    0  502 -0.26983780878E+03  0.50212331521E+03  0.34347956144E+03  0.66552241792E+03  0.12699999809E+01 0.  1.
</event>
<event>
 5   0  0.3907345E-04  0.1484850E+04  0.7818609E-02  0.8894590E-01
       -1   -1    0    0    0  501  0.00000000000E+00  0.00000000000E+00  0.59886297033E+03  0.59886297035E+03  0.50400001928E-02 0. -1.
        1   -1    0    0  501    0  0.00000000000E+00  0.00000000000E+00 -0.92040261295E+03  0.92040261296E+03  0.50400001928E-02 0.  1.
    10030    2    1    2    0    0  0.00000000000E+00  0.00000000000E+00 -0.32153964262E+03  0.15192655833E+04  0.14848502183E+04 0.  0.
        5    1    3    3  502    0 -0.36543231175E+03  0.26096581336E+03  0.44414283857E+03  0.63160817068E+03  0.46999998093E+01 0. -1.
       -5    1    3    3    0  502  0.36543231175E+03 -0.26096581336E+03 -0.76568248118E+03  0.88765741264E+03  0.46999998093E+01 0.  1.
</event>
<event>
 5   0  0.7547580E-04  0.1494849E+04  0.7818609E-02  0.8887886E-01
        2   -1    0    0  501    0  0.00000000000E+00  0.00000000000E+00  0.43695878114E+03  0.43695878115E+03  0.25500000920E-02 0.  1.
       -2   -1    0    0    0  501  0.00000000000E+00  0.00000000000E+00 -0.12784806979E+04  0.12784806979E+04  0.25500000920E-02 0. -1.
    10030    2    1    2    0    0  0.00000000000E+00  0.00000000000E+00 -0.84152191676E+03  0.17154394791E+04  0.14948489790E+04 0.  0.
        4    1    3    3  502    0 -0.33256009583E+03 -0.35959998859E+03 -0.10686369094E+04  0.11755402274E+04  0.12699999809E+01 0. -1.
       -4    1    3    3    0  502  0.33256009583E+03  0.35959998859E+03  0.22711499268E+03  0.53989925165E+03  0.12699999809E+01 0.  1.
</event>
<event>
 5   0  0.7672251E-04  0.1468106E+04  0.7818609E-02  0.8905944E-01
       -2   -1    0    0    0  501  0.00000000000E+00  0.00000000000E+00  0.53503595987E+03  0.53503595988E+03  0.25500000920E-02 0.  1.
        2   -1    0    0  501    0  0.00000000000E+00  0.00000000000E+00 -0.10070981288E+04  0.10070981288E+04  0.25500000920E-02 0. -1.
    10030    2    1    2    0    0  0.00000000000E+00  0.00000000000E+00 -0.47206216897E+03  0.15421340887E+04  0.14681058736E+04 0.  0.
        5    1    3    3  502    0 -0.34949054483E+03 -0.82215468980E+02 -0.90855584114E+03  0.97693338091E+03  0.46999998093E+01 0. -1.
       -5    1    3    3    0  502  0.34949054483E+03  0.82215468980E+02  0.43649367217E+03  0.56520070781E+03  0.46999998093E+01 0.  1.
</event>
<event>
 5   0  0.7359897E-04  0.1511187E+04  0.7818609E-02  0.8877047E-01
        2   -1    0    0  501    0  0.00000000000E+00  0.00000000000E+00  0.11473286765E+04  0.11473286765E+04  0.25500000920E-02 0.  1.
       -2   -1    0    0    0  501  0.00000000000E+00  0.00000000000E+00 -0.49760965591E+03  0.49760965592E+03  0.25500000920E-02 0. -1.
    10030    2    1    2    0    0  0.00000000000E+00  0.00000000000E+00  0.64971902061E+03  0.16449383324E+04  0.15111873847E+04 0.  0.
        1    1    3    3  502    0  0.38485708350E+03 -0.29974630781E+03 -0.30323743853E+03  0.57438294536E+03  0.50400001928E-02 0. -1.
       -1    1    3    3    0  502 -0.38485708350E+03  0.29974630781E+03  0.95295645914E+03  0.10705553871E+04  0.50400001928E-02 0.  1.
</event>
<event>
 5   0  0.4058874E-04  0.1480726E+04  0.7818609E-02  0.8897372E-01
       -1   -1    0    0    0  501  0.00000000000E+00  0.00000000000E+00  0.23331378357E+04  0.23331378357E+04  0.50400001928E-02 0. -1.
        1   -1    0    0  501    0  0.00000000000E+00  0.00000000000E+00 -0.23493557318E+03  0.23493557324E+03  0.50400001928E-02 0.  1.
    10030    2    1    2    0    0  0.00000000000E+00  0.00000000000E+00  0.20982022625E+04  0.25680734089E+04  0.14807255989E+04 0.  0.
        4    1    3    3  502    0  0.68208958072E+03  0.20039818576E+03  0.14076087974E+04  0.15769495136E+04  0.12699999809E+01 0. -1.
       -4    1    3    3    0  502 -0.68208958072E+03 -0.20039818576E+03  0.69059346513E+03  0.99112389537E+03  0.12699999809E+01 0.  1.
</event>
<event>
 5   0  0.7359897E-04  0.1513966E+04  0.7818609E-02  0.8875218E-01
        2   -1    0    0  501    0  0.00000000000E+00  0.00000000000E+00  0.56459839336E+03  0.56459839337E+03  0.25500000920E-02 0. -1.
       -2   -1    0    0    0  501  0.00000000000E+00  0.00000000000E+00 -0.10149221977E+04  0.10149221977E+04  0.25500000920E-02 0.  1.
    10030    2    1    2    0    0  0.00000000000E+00  0.00000000000E+00 -0.45032380431E+03  0.15795205910E+04  0.15139662377E+04 0.  0.
        1    1    3    3  502    0 -0.25237578520E+03 -0.10761865028E+03  0.51089928998E+03  0.57990809218E+03  0.50400001928E-02 0. -1.
       -1    1    3    3    0  502  0.25237578520E+03  0.10761865028E+03 -0.96122309429E+03  0.99961249886E+03  0.50400001928E-02 0.  1.
</event>
<event>
 5   0  0.4015204E-04  0.1503349E+04  0.7818609E-02  0.8882229E-01
       -1   -1    0    0    0  501  0.00000000000E+00  0.00000000000E+00  0.53481259120E+03  0.53481259122E+03  0.50400001928E-02 0.  1.
        1   -1    0    0  501    0  0.00000000000E+00  0.00000000000E+00 -0.10564720302E+04  0.10564720302E+04  0.50400001928E-02 0. -1.
    10030    2    1    2    0    0  0.00000000000E+00  0.00000000000E+00 -0.52165943898E+03  0.15912846214E+04  0.15033489868E+04 0.  0.
        2    1    3    3  502    0  0.74514108997E+03 -0.98072162939E+02 -0.27426678515E+03  0.80004728769E+03  0.25500000920E-02 0.  1.
       -2    1    3    3    0  502 -0.74514108997E+03  0.98072162939E+02 -0.24739265383E+03  0.79123733372E+03  0.25500000920E-02 0. -1.
</event>
<event>
 5   0  0.7454828E-04  0.1494967E+04  0.7818609E-02  0.8887807E-01
        2   -1    0    0  501    0  0.00000000000E+00  0.00000000000E+00  0.29795090844E+04  0.29795090844E+04  0.25500000920E-02 0.  1.
       -2   -1    0    0    0  501  0.00000000000E+00  0.00000000000E+00 -0.18752459232E+03  0.18752459234E+03  0.25500000920E-02 0. -1.
    10030    2    1    2    0    0  0.00000000000E+00  0.00000000000E+00  0.27919844921E+04  0.31670336767E+04  0.14949665232E+04 0.  0.
        3    1    3    3  502    0 -0.13427703856E+03 -0.57733047849E+01 -0.16171690430E+03  0.21027606014E+03  0.10100000352E+00 0. -1.
       -3    1    3    3    0  502  0.13427703856E+03  0.57733047849E+01  0.29537013964E+04  0.29567576166E+04  0.10100000352E+00 0.  1.
</event>
<event>
 5   0  0.4058874E-04  0.1496025E+04  0.7818609E-02  0.8887101E-01
        1   -1    0    0  501    0  0.00000000000E+00  0.00000000000E+00  0.14747836267E+04  0.14747836267E+04  0.50400001928E-02 0. -1.
       -1   -1    0    0    0  501  0.00000000000E+00  0.00000000000E+00 -0.37939291334E+03  0.37939291338E+03  0.50400001928E-02 0.  1.
    10030    2    1    2    0    0  0.00000000000E+00  0.00000000000E+00  0.10953907134E+04  0.18541765401E+04  0.14960246746E+04 0.  0.
        4    1    3    3  502    0 -0.50403789422E+02 -0.38226450700E+03 -0.24673560831E+03  0.45776278639E+03  0.12699999809E+01 0.  1.
       -4    1    3    3    0  502  0.50403789422E+02  0.38226450700E+03  0.13421263217E+04  0.13964137537E+04  0.12699999809E+01 0. -1.
</event>
<event>
 5   0  0.4058874E-04  0.1496689E+04  0.7818609E-02  0.8886658E-01
       -1   -1    0    0    0  501  0.00000000000E+00  0.00000000000E+00  0.60578655190E+03  0.60578655193E+03  0.50400001928E-02 0.  1.
        1   -1    0    0  501    0  0.00000000000E+00  0.00000000000E+00 -0.92445021214E+03  0.92445021215E+03  0.50400001928E-02 0. -1.
    10030    2    1    2    0    0  0.00000000000E+00  0.00000000000E+00 -0.31866366024E+03  0.15302367641E+04  0.14966890211E+04 0.  0.
        4    1    3    3  502    0  0.72907989779E+03  0.42284847504E+02 -0.32630935058E+03  0.79989056181E+03  0.12699999809E+01 0. -1.
       -4    1    3    3    0  502 -0.72907989779E+03 -0.42284847504E+02  0.76456903406E+01  0.73034620227E+03  0.12699999809E+01 0.  1.
</event>
<event>
 5   0  0.7359897E-04  0.1497034E+04  0.7818609E-02  0.8886428E-01
        2   -1    0    0  501    0  0.00000000000E+00  0.00000000000E+00  0.15454455289E+04  0.15454455289E+04  0.25500000920E-02 0. -1.
       -2   -1    0    0    0  501  0.00000000000E+00  0.00000000000E+00 -0.36253477932E+03  0.36253477933E+03  0.25500000920E-02 0.  1.
    10030    2    1    2    0    0  0.00000000000E+00  0.00000000000E+00  0.11829107496E+04  0.19079803083E+04  0.14970340728E+04 0.  0.
        1    1    3    3  502    0 -0.69558490614E+03  0.24509284535E+03  0.75451701582E+03  0.10550852059E+04  0.50400001928E-02 0. -1.
       -1    1    3    3    0  502  0.69558490614E+03 -0.24509284535E+03  0.42839373380E+03  0.85289510239E+03  0.50400001928E-02 0.  1.
</event>
<event>
 5   0  0.7547580E-04  0.1554576E+04  0.7818609E-02  0.8848950E-01
       -2   -1    0    0    0  501  0.00000000000E+00  0.00000000000E+00  0.28761727837E+03  0.28761727838E+03  0.25500000920E-02 0. -1.
        2   -1    0    0  501    0  0.00000000000E+00  0.00000000000E+00 -0.21006275190E+04  0.21006275190E+04  0.25500000920E-02 0.  1.
    10030    2    1    2    0    0  0.00000000000E+00  0.00000000000E+00 -0.18130102406E+04  0.23882447974E+04  0.15545761736E+04 0.  0.
        4    1    3    3  502    0  0.46834491822E+03  0.49710218619E+03 -0.14766189465E+04  0.16269181516E+04  0.12699999809E+01 0.  1.
       -4    1    3    3    0  502 -0.46834491822E+03 -0.49710218619E+03 -0.33639129419E+03  0.76132664583E+03  0.12699999809E+01 0. -1.
</event>
<event>
 5   0  0.3907345E-04  0.1502007E+04  0.7818609E-02  0.8883119E-01
       -1   -1    0    0    0  501  0.00000000000E+00  0.00000000000E+00  0.14829875804E+04  0.14829875804E+04  0.50400001928E-02 0. -1.
        1   -1    0    0  501    0  0.00000000000E+00  0.00000000000E+00 -0.38031767638E+03  0.38031767642E+03  0.50400001928E-02 0.  1.
    10030    2    1    2    0    0  0.00000000000E+00  0.00000000000E+00  0.11026699040E+04  0.18633052568E+04  0.15020071780E+04 0.  0.
        5    1    3    3  502    0  0.64835571311E+03  0.62017545017E+02  0.87542543958E+02  0.65718878080E+03  0.46999998093E+01 0.  1.
       -5    1    3    3    0  502 -0.64835571311E+03 -0.62017545017E+02  0.10151273601E+04  0.12061164760E+04  0.46999998093E+01 0. -1.
</event>
<event>
 5   0  0.7359897E-04  0.1479012E+04  0.7818609E-02  0.8898531E-01
       -2   -1    0    0    0  501  0.00000000000E+00  0.00000000000E+00  0.55490574703E+03  0.55490574704E+03  0.25500000920E-02 0.  1.
        2   -1    0    0  501    0  0.00000000000E+00  0.00000000000E+00 -0.98551771282E+03  0.98551771282E+03  0.25500000920E-02 0. -1.
    10030    2    1    2    0    0  0.00000000000E+00  0.00000000000E+00 -0.43061196579E+03  0.15404234599E+04  0.14790124308E+04 0.  0.
        1    1    3    3  502    0 -0.24342915773E+03  0.69313094008E+03 -0.12704547156E+03  0.74553927247E+03  0.50400001928E-02 0.  1.
       -1    1    3    3    0  502  0.24342915773E+03 -0.69313094008E+03 -0.30356649422E+03  0.79488418739E+03  0.50400001928E-02 0. -1.
</event>
<event>
 5   0  0.7454828E-04  0.1482556E+04  0.7818609E-02  0.8896137E-01
       -2   -1    0    0    0  501  0.00000000000E+00  0.00000000000E+00  0.51529733114E+03  0.51529733115E+03  0.25500000920E-02 0. -1.
        2   -1    0    0  501    0  0.00000000000E+00  0.00000000000E+00 -0.10663605732E+04  0.10663605732E+04  0.25500000920E-02 0.  1.
    10030    2    1    2    0    0  0.00000000000E+00  0.00000000000E+00 -0.55106324210E+03  0.15816579044E+04  0.14825555739E+04 0.  0.
        3    1    3    3  502    0 -0.10615817750E+03  0.55266022197E+03  0.23920327371E+03  0.61149087969E+03  0.10100000352E+00 0. -1.
       -3    1    3    3    0  502  0.10615817750E+03 -0.55266022197E+03 -0.79026651581E+03  0.97016702469E+03  0.10100000352E+00 0.  1.
</event>
<event>
 5   0  0.4084462E-04  0.1557357E+04  0.7818609E-02  0.8847182E-01
       -1   -1    0    0    0  501  0.00000000000E+00  0.00000000000E+00  0.92666310588E+03  0.92666310589E+03  0.50400001928E-02 0. -1.
        1   -1    0    0  501    0  0.00000000000E+00  0.00000000000E+00 -0.65432660652E+03  0.65432660654E+03  0.50400001928E-02 0.  1.
    10030    2    1    2    0    0  0.00000000000E+00  0.00000000000E+00  0.27233649936E+03  0.15809897124E+04  0.15573571530E+04 0.  0.
        1    1    3    3  502    0  0.43672579513E+03 -0.26872090879E+03  0.73106411962E+03  0.89296981695E+03  0.50400001928E-02 0. -1.
       -1    1    3    3    0  502 -0.43672579513E+03  0.26872090879E+03 -0.45872762027E+03  0.68801989548E+03  0.50400001928E-02 0.  1.
</event>
<event>
 5   0  0.4084462E-04  0.1474999E+04  0.7818609E-02  0.8901250E-01
        1   -1    0    0  501    0  0.00000000000E+00  0.00000000000E+00  0.82848790598E+03  0.82848790599E+03  0.50400001928E-02 0.  1.
       -1   -1    0    0    0  501  0.00000000000E+00  0.00000000000E+00 -0.65650415461E+03  0.65650415463E+03  0.50400001928E-02 0. -1.
    10030    2    1    2    0    0  0.00000000000E+00  0.00000000000E+00  0.17198375137E+03  0.14849920606E+04  0.14749993252E+04 0.  0.
        1    1    3    3  502    0  0.35825838523E+03 -0.99965676780E+02  0.72714500379E+03  0.81675091900E+03  0.50400001928E-02 0.  1.
       -1    1    3    3    0  502 -0.35825838523E+03  0.99965676780E+02 -0.55516125243E+03  0.66824114161E+03  0.50400001928E-02 0. -1.
</event>
<event>
 5   0  0.4086710E-04  0.1502091E+04  0.7818609E-02  0.8883064E-01
        1   -1    0    0  501    0  0.00000000000E+00  0.00000000000E+00  0.64135509640E+03  0.64135509642E+03  0.50400001928E-02 0. -1.
       -1   -1    0    0    0  501  0.00000000000E+00  0.00000000000E+00 -0.87949636228E+03  0.87949636229E+03  0.50400001928E-02 0.  1.
    10030    2    1    2    0    0  0.00000000000E+00  0.00000000000E+00 -0.23814126588E+03  0.15208514587E+04  0.15020911746E+04 0.  0.
        3    1    3    3  502    0  0.48524365880E+03  0.42712142085E+03 -0.50617455509E+03  0.82104007635E+03  0.10100000352E+00 0.  1.
       -3    1    3    3    0  502 -0.48524365880E+03 -0.42712142085E+03  0.26803328920E+03  0.69981138236E+03  0.10100000352E+00 0. -1.
</event>
<event>
 5   0  0.3907345E-04  0.1510877E+04  0.7818609E-02  0.8877252E-01
       -1   -1    0    0    0  501  0.00000000000E+00  0.00000000000E+00  0.68836829201E+03  0.68836829203E+03  0.50400001928E-02 0. -1.
        1   -1    0    0  501    0  0.00000000000E+00  0.00000000000E+00 -0.82904397485E+03  0.82904397486E+03  0.50400001928E-02 0.  1.
    10030    2    1    2    0    0  0.00000000000E+00  0.00000000000E+00 -0.14067568284E+03  0.15174122669E+04  0.15108773411E+04 0.  0.
        5    1    3    3  502    0 -0.35487123940E+03 -0.52593026582E+02 -0.73801842976E+03  0.82060521304E+03  0.46999998093E+01 0.  1.
       -5    1    3    3    0  502  0.35487123940E+03  0.52593026582E+02  0.59734274692E+03  0.69680705386E+03  0.46999998093E+01 0. -1.
</event>
<event>
 5   0  0.4086710E-04  0.1490685E+04  0.7818609E-02  0.8890671E-01
       -1   -1    0    0    0  501  0.00000000000E+00  0.00000000000E+00  0.33669393941E+03  0.33669393945E+03  0.50400001928E-02 0.  1.
        1   -1    0    0  501    0  0.00000000000E+00  0.00000000000E+00 -0.16499726472E+04  0.16499726473E+04  0.50400001928E-02 0. -1.
    10030    2    1    2    0    0  0.00000000000E+00  0.00000000000E+00 -0.13132787078E+04  0.19866665867E+04  0.14906854672E+04 0.  0.
        3    1    3    3  502    0  0.40770013712E+03 -0.15923880467E+03  0.14737801221E+03  0.46184054327E+03  0.10100000352E+00 0.  1.
       -3    1    3    3    0  502 -0.40770013712E+03  0.15923880467E+03 -0.14606567200E+04  0.15248260434E+04  0.10100000352E+00 0. -1.
</event>
<event>
 5   0  0.7547580E-04  0.1491314E+04  0.7818609E-02  0.8890250E-01
       -2   -1    0    0    0  501  0.00000000000E+00  0.00000000000E+00  0.90385229730E+03  0.90385229731E+03  0.25500000920E-02 0.  1.
        2   -1    0    0  501    0  0.00000000000E+00  0.00000000000E+00 -0.61514953140E+03  0.61514953141E+03  0.25500000920E-02 0. -1.
    10030    2    1    2    0    0  0.00000000000E+00  0.00000000000E+00  0.28870276590E+03  0.15190018287E+04  0.14913139403E+04 0.  0.
        4    1    3    3  502    0  0.68693241045E+03  0.29077395629E+02  0.43829387693E+03  0.81536787213E+03  0.12699999809E+01 0.  1.
       -4    1    3    3    0  502 -0.68693241045E+03 -0.29077395629E+02 -0.14959111103E+03  0.70363395658E+03  0.12699999809E+01 0. -1.
</event>
<event>
 5   0  0.7359897E-04  0.1529918E+04  0.7818609E-02  0.8864798E-01
        2   -1    0    0  501    0  0.00000000000E+00  0.00000000000E+00  0.77820826936E+03  0.77820826936E+03  0.25500000920E-02 0.  1.
       -2   -1    0    0    0  501  0.00000000000E+00  0.00000000000E+00 -0.75193558184E+03  0.75193558184E+03  0.25500000920E-02 0. -1.
    10030    2    1    2    0    0  0.00000000000E+00  0.00000000000E+00  0.26272687519E+02  0.15301438512E+04  0.15299182825E+04 0.  0.
        1    1    3    3  502    0 -0.20042260840E+03 -0.58153531983E+03 -0.44169431215E+03  0.75726244828E+03  0.50400001928E-02 0. -1.
       -1    1    3    3    0  502  0.20042260840E+03  0.58153531983E+03  0.46796699967E+03  0.77288140292E+03  0.50400001928E-02 0.  1.
</event>
<event>
 5   0  0.4015204E-04  0.1508108E+04  0.7818609E-02  0.8879079E-01
        1   -1    0    0  501    0  0.00000000000E+00  0.00000000000E+00  0.22612652620E+04  0.22612652620E+04  0.50400001928E-02 0. -1.
       -1   -1    0    0    0  501  0.00000000000E+00  0.00000000000E+00 -0.25145100668E+03  0.25145100673E+03  0.50400001928E-02 0.  1.
    10030    2    1    2    0    0  0.00000000000E+00  0.00000000000E+00  0.20098142553E+04  0.25127162688E+04  0.15081079889E+04 0.  0.
        2    1    3    3  502    0 -0.11561462155E+03  0.22130040394E+03 -0.18057893702E+03  0.30813854352E+03  0.25500000920E-02 0.  1.
       -2    1    3    3    0  502  0.11561462155E+03 -0.22130040394E+03  0.21903931924E+04  0.22045777253E+04  0.25500000920E-02 0. -1.
</event>
<event>
 5   0  0.7672251E-04  0.1492474E+04  0.7818609E-02  0.8889473E-01
        2   -1    0    0  501    0  0.00000000000E+00  0.00000000000E+00  0.15154394468E+04  0.15154394468E+04  0.25500000920E-02 0.  1.
       -2   -1    0    0    0  501  0.00000000000E+00  0.00000000000E+00 -0.36746414320E+03  0.36746414321E+03  0.25500000920E-02 0. -1.
    10030    2    1    2    0    0  0.00000000000E+00  0.00000000000E+00  0.11479753036E+04  0.18829035900E+04  0.14924739969E+04 0.  0.
        5    1    3    3  502    0  0.38961242711E+03 -0.98341780738E+02  0.13672702000E+04  0.14251030976E+04  0.46999998093E+01 0.  1.
       -5    1    3    3    0  502 -0.38961242711E+03  0.98341780738E+02 -0.21929489640E+03  0.45780049233E+03  0.46999998093E+01 0. -1.
</event>
<event>
 5   0  0.4015204E-04  0.1499436E+04  0.7818609E-02  0.8884828E-01
        1   -1    0    0  501    0  0.00000000000E+00  0.00000000000E+00  0.19105473474E+04  0.19105473474E+04  0.50400001928E-02 0.  1.
       -1   -1    0    0    0  501  0.00000000000E+00  0.00000000000E+00 -0.29419697838E+03  0.29419697842E+03  0.50400001928E-02 0. -1.
    10030    2    1    2    0    0  0.00000000000E+00  0.00000000000E+00  0.16163503690E+04  0.22047443258E+04  0.14994362363E+04 0.  0.
        2    1    3    3  502    0 -0.39687071053E+03 -0.12781919771E+03  0.17243461798E+04  0.17740388542E+04  0.25500000920E-02 0.  1.
       -2    1    3    3    0  502  0.39687071053E+03  0.12781919771E+03 -0.10799581079E+03  0.43070547168E+03  0.25500000920E-02 0. -1.
</event>
<event>
 5   0  0.7634227E-04  0.1493396E+04  0.7818609E-02  0.8888856E-01
       -2   -1    0    0    0  501  0.00000000000E+00  0.00000000000E+00  0.46390855546E+03  0.46390855547E+03  0.25500000920E-02 0. -1.
        2   -1    0    0  501    0  0.00000000000E+00  0.00000000000E+00 -0.12018704108E+04  0.12018704109E+04  0.25500000920E-02 0.  1.
    10030    2    1    2    0    0  0.00000000000E+00  0.00000000000E+00 -0.73796185539E+03  0.16657789663E+04  0.14933960843E+04 0.  0.
        2    1    3    3  502    0  0.24819369571E+03  0.55609240696E+03 -0.85096948431E+03  0.10464167138E+04  0.25500000920E-02 0.  1.
       -2    1    3    3    0  502 -0.24819369571E+03 -0.55609240696E+03  0.11300762892E+03  0.61936225253E+03  0.25500000920E-02 0. -1.
</event>
<event>
 5   0  0.7454828E-04  0.1493602E+04  0.7818609E-02  0.8888718E-01
       -2   -1    0    0    0  501  0.00000000000E+00  0.00000000000E+00  0.12436430445E+04  0.12436430445E+04  0.25500000920E-02 0. -1.
        2   -1    0    0  501    0  0.00000000000E+00  0.00000000000E+00 -0.44845020707E+03  0.44845020708E+03  0.25500000920E-02 0.  1.
    10030    2    1    2    0    0  0.00000000000E+00  0.00000000000E+00  0.79519283743E+03  0.16920932516E+04  0.14936023311E+04 0.  0.
        3    1    3    3  502    0  0.68343537476E+03  0.44695697460E+02  0.73486862388E+03  0.10045464257E+04  0.10100000352E+00 0. -1.
       -3    1    3    3    0  502 -0.68343537476E+03 -0.44695697460E+02  0.60324213554E+02  0.68754682588E+03  0.10100000352E+00 0.  1.
</event>
<event>
 5   0  0.2800375E-04  0.1489108E+04  0.7818609E-02  0.8891728E-01
       -3   -1    0    0    0  501  0.00000000000E+00  0.00000000000E+00  0.11486838044E+04  0.11486838088E+04  0.10100000352E+00 0. -1.
        3   -1    0    0  501    0  0.00000000000E+00  0.00000000000E+00 -0.48260537452E+03  0.48260538508E+03  0.10100000352E+00 0.  1.
    10030    2    1    2    0    0  0.00000000000E+00  0.00000000000E+00  0.66607842986E+03  0.16312891939E+04  0.14891084445E+04 0.  0.
        3    1    3    3  502    0 -0.66468048310E+03  0.38796130758E+02  0.69810829427E+03  0.96470746089E+03  0.10100000352E+00 0. -1.
       -3    1    3    3    0  502  0.66468048310E+03 -0.38796130758E+02 -0.32029864406E+02  0.66658173301E+03  0.10100000352E+00 0.  1.
</event>
<event>
 5   0  0.7359897E-04  0.1503204E+04  0.7818609E-02  0.8882325E-01
        2   -1    0    0  501    0  0.00000000000E+00  0.00000000000E+00  0.65715229209E+03  0.65715229210E+03  0.25500000920E-02 0.  1.
       -2   -1    0    0    0  501  0.00000000000E+00  0.00000000000E+00 -0.85962663411E+03  0.85962663412E+03  0.25500000920E-02 0. -1.
    10030    2    1    2    0    0  0.00000000000E+00  0.00000000000E+00 -0.20247434202E+03  0.15167789262E+04  0.15032040619E+04 0.  0.
        1    1    3    3  502    0 -0.44313694230E+03 -0.45896243745E+02 -0.71203733425E+03  0.83992498488E+03  0.50400001928E-02 0. -1.
       -1    1    3    3    0  502  0.44313694230E+03  0.45896243745E+02  0.50956299224E+03  0.67685394134E+03  0.50400001928E-02 0.  1.
</event>
<event>
 5   0  0.7547580E-04  0.1500112E+04  0.7818609E-02  0.8884379E-01
        2   -1    0    0  501    0  0.00000000000E+00  0.00000000000E+00  0.73205188992E+03  0.73205188992E+03  0.25500000920E-02 0. -1.
       -2   -1    0    0    0  501  0.00000000000E+00  0.00000000000E+00 -0.76850271299E+03  0.76850271300E+03  0.25500000920E-02 0.  1.
    10030    2    1    2    0    0  0.00000000000E+00  0.00000000000E+00 -0.36450823077E+02  0.15005546029E+04  0.15001118138E+04 0.  0.
        4    1    3    3  502    0  0.15832569598E+02  0.19139470697E+02 -0.76809010690E+03  0.76849269015E+03  0.12699999809E+01 0.  1.
       -4    1    3    3    0  502 -0.15832569598E+02 -0.19139470697E+02  0.73163928382E+03  0.73206191277E+03  0.12699999809E+01 0. -1.
</event>
<event>
 5   0  0.3907345E-04  0.1512950E+04  0.7818609E-02  0.8875887E-01
       -1   -1    0    0    0  501  0.00000000000E+00  0.00000000000E+00  0.41750588425E+03  0.41750588428E+03  0.50400001928E-02 0.  1.
        1   -1    0    0  501    0  0.00000000000E+00  0.00000000000E+00 -0.13706503185E+04  0.13706503185E+04  0.50400001928E-02 0. -1.
    10030    2    1    2    0    0  0.00000000000E+00  0.00000000000E+00 -0.95314443428E+03  0.17881562028E+04  0.15129501952E+04 0.  0.
        5    1    3    3  502    0 -0.39077374772E+03 -0.63082357134E+03 -0.30290934711E+03  0.80151023863E+03  0.46999998093E+01 0.  1.
       -5    1    3    3    0  502  0.39077374772E+03  0.63082357134E+03 -0.65023508717E+03  0.98664596419E+03  0.46999998093E+01 0. -1.
</event>
<event>
 5   0  0.4058874E-04  0.1509089E+04  0.7818609E-02  0.8878431E-01
        1   -1    0    0  501    0  0.00000000000E+00  0.00000000000E+00  0.16120229804E+04  0.16120229804E+04  0.50400001928E-02 0.  1.
       -1   -1    0    0    0  501  0.00000000000E+00  0.00000000000E+00 -0.35318199091E+03  0.35318199095E+03  0.50400001928E-02 0. -1.
    10030    2    1    2    0    0  0.00000000000E+00  0.00000000000E+00  0.12588409895E+04  0.19652049714E+04  0.15090891102E+04 0.  0.
        4    1    3    3  502    0 -0.50025992969E+03  0.12354685234E+03 -0.88366304551E+02  0.52281357926E+03  0.12699999809E+01 0. -1.
       -4    1    3    3    0  502  0.50025992969E+03 -0.12354685234E+03  0.13472072941E+04  0.14423913921E+04  0.12699999809E+01 0.  1.
</event>
<event>
 5   0  0.3907345E-04  0.1479985E+04  0.7818609E-02  0.8897873E-01
       -1   -1    0    0    0  501  0.00000000000E+00  0.00000000000E+00  0.10080920598E+04  0.10080920598E+04  0.50400001928E-02 0.  1.
        1   -1    0    0  501    0  0.00000000000E+00  0.00000000000E+00 -0.54319327613E+03  0.54319327615E+03  0.50400001928E-02 0. -1.
    10030    2    1    2    0    0  0.00000000000E+00  0.00000000000E+00  0.46489878370E+03  0.15512853360E+04  0.14799849035E+04 0.  0.
        5    1    3    3  502    0 -0.28098758973E+03 -0.62992848201E+03  0.51331926250E+03  0.85981548792E+03  0.46999998093E+01 0.  1.
       -5    1    3    3    0  502  0.28098758973E+03  0.62992848201E+03 -0.48420478798E+02  0.69146984807E+03  0.46999998093E+01 0. -1.
</event>
<event>
 5   0  0.7454828E-04  0.1489599E+04  0.7818609E-02  0.8891399E-01
       -2   -1    0    0    0  501  0.00000000000E+00  0.00000000000E+00  0.29928273551E+03  0.29928273552E+03  0.25500000920E-02 0.  1.
        2   -1    0    0  501    0  0.00000000000E+00  0.00000000000E+00 -0.18535202406E+04  0.18535202406E+04  0.25500000920E-02 0. -1.
    10030    2    1    2    0    0  0.00000000000E+00  0.00000000000E+00 -0.15542375051E+04  0.21528029762E+04  0.14895994199E+04 0.  0.
        3    1    3    3  502    0 -0.34685140480E+03 -0.63287691014E+03 -0.51107401850E+03  0.88432784813E+03  0.10100000352E+00 0.  1.
       -3    1    3    3    0  502  0.34685140480E+03  0.63287691014E+03 -0.10431634866E+04  0.12684751280E+04  0.10100000352E+00 0. -1.
</event>
<event>
 5   0  0.7634227E-04  0.1479412E+04  0.7818609E-02  0.8898260E-01
       -2   -1    0    0    0  501  0.00000000000E+00  0.00000000000E+00  0.39301052976E+03  0.39301052977E+03  0.25500000920E-02 0.  1.
        2   -1    0    0  501    0  0.00000000000E+00  0.00000000000E+00 -0.13922403854E+04  0.13922403854E+04  0.25500000920E-02 0. -1.
    10030    2    1    2    0    0  0.00000000000E+00  0.00000000000E+00 -0.99922985559E+03  0.17852509151E+04  0.14794122230E+04 0.  0.
        2    1    3    3  502    0  0.12734408060E+03  0.35292838972E+03  0.26966014164E+03  0.46205146372E+03  0.25500000920E-02 0.  1.
       -2    1    3    3    0  502 -0.12734408060E+03 -0.35292838972E+03 -0.12688899972E+04  0.13231994514E+04  0.25500000920E-02 0. -1.
</event>
<event>
 5   0  0.7672251E-04  0.1501778E+04  0.7818609E-02  0.8883272E-01
       -2   -1    0    0    0  501  0.00000000000E+00  0.00000000000E+00  0.68125322614E+03  0.68125322614E+03  0.25500000920E-02 0. -1.
        2   -1    0    0  501    0  0.00000000000E+00  0.00000000000E+00 -0.82764244436E+03  0.82764244437E+03  0.25500000920E-02 0.  1.
    10030    2    1    2    0    0  0.00000000000E+00  0.00000000000E+00 -0.14638921823E+03  0.15088956705E+04  0.15017777270E+04 0.  0.
        5    1    3    3  502    0 -0.51817540872E+03 -0.19660638845E+02 -0.61883366080E+03  0.80738434755E+03  0.46999998093E+01 0.  1.
       -5    1    3    3    0  502  0.51817540872E+03  0.19660638845E+02  0.47244444258E+03  0.70151132296E+03  0.46999998093E+01 0. -1.
</event>
<event>
 5   0  0.4058874E-04  0.1499684E+04  0.7818609E-02  0.8884663E-01
       -1   -1    0    0    0  501  0.00000000000E+00  0.00000000000E+00  0.55579002776E+03  0.55579002779E+03  0.50400001928E-02 0. -1.
        1   -1    0    0  501    0  0.00000000000E+00  0.00000000000E+00 -0.10116470679E+04  0.10116470679E+04  0.50400001928E-02 0.  1.
    10030    2    1    2    0    0  0.00000000000E+00  0.00000000000E+00 -0.45585704011E+03  0.15674370957E+04  0.14996844361E+04 0.  0.
        4    1    3    3  502    0 -0.20698265311E+03 -0.42633605894E+03 -0.83526368440E+03  0.96034956616E+03  0.12699999809E+01 0.  1.
       -4    1    3    3    0  502  0.20698265311E+03  0.42633605894E+03  0.37940664430E+03  0.60708752951E+03  0.12699999809E+01 0. -1.
</event>
<event>
 5   0  0.4084462E-04  0.1481822E+04  0.7818609E-02  0.8896632E-01
       -1   -1    0    0    0  501  0.00000000000E+00  0.00000000000E+00  0.39667409221E+03  0.39667409224E+03  0.50400001928E-02 0. -1.
        1   -1    0    0  501    0  0.00000000000E+00  0.00000000000E+00 -0.13838800551E+04  0.13838800551E+04  0.50400001928E-02 0.  1.
    10030    2    1    2    0    0  0.00000000000E+00  0.00000000000E+00 -0.98720596288E+03  0.17805541473E+04  0.14818223438E+04 0.  0.
        1    1    3    3  502    0 -0.28668280141E+03 -0.36403447232E+03  0.20108384366E+03  0.50511665769E+03  0.50400001928E-02 0. -1.
       -1    1    3    3    0  502  0.28668280141E+03  0.36403447232E+03 -0.11882898065E+04  0.12754374897E+04  0.50400001928E-02 0.  1.
</event>
<event>
 5   0  0.7634227E-04  0.1485683E+04  0.7818609E-02  0.8894030E-01
        2   -1    0    0  501    0  0.00000000000E+00  0.00000000000E+00  0.45492346076E+03  0.45492346077E+03  0.25500000920E-02 0.  1.
       -2   -1    0    0    0  501  0.00000000000E+00  0.00000000000E+00 -0.12129807559E+04  0.12129807559E+04  0.25500000920E-02 0. -1.
    10030    2    1    2    0    0  0.00000000000E+00  0.00000000000E+00 -0.75805729513E+03  0.16679042167E+04  0.14856828778E+04 0.  0.
        2    1    3    3  502    0 -0.27444037593E+03  0.24016460799E+03  0.34750721864E+03  0.50374380977E+03  0.25500000920E-02 0.  1.
       -2    1    3    3    0  502  0.27444037593E+03 -0.24016460799E+03 -0.11055645138E+04  0.11641604069E+04  0.25500000920E-02 0. -1.
</event>
<event>
 5   0  0.2800375E-04  0.1503014E+04  0.7818609E-02  0.8882451E-01
       -3   -1    0    0    0  501  0.00000000000E+00  0.00000000000E+00  0.33154652047E+03  0.33154653586E+03  0.10100000352E+00 0. -1.
        3   -1    0    0  501    0  0.00000000000E+00  0.00000000000E+00 -0.17034186706E+04  0.17034186736E+04  0.10100000352E+00 0.  1.
    10030    2    1    2    0    0  0.00000000000E+00  0.00000000000E+00 -0.13718721501E+04  0.20349652095E+04  0.15030137083E+04 0.  0.
        1    1    3    3  502    0  0.76992398762E+02  0.42340079855E+03  0.14820206028E+03  0.45514823561E+03  0.50400001928E-02 0. -1.
       -1    1    3    3    0  502 -0.76992398762E+02 -0.42340079855E+03 -0.15200742104E+04  0.15798169739E+04  0.50400001928E-02 0.  1.
</event>
<event>
 5   0  0.4058874E-04  0.1514808E+04  0.7818609E-02  0.8874665E-01
        1   -1    0    0  501    0  0.00000000000E+00  0.00000000000E+00  0.74755021517E+03  0.74755021518E+03  0.50400001928E-02 0. -1.
       -1   -1    0    0    0  501  0.00000000000E+00  0.00000000000E+00 -0.76738806923E+03  0.76738806924E+03  0.50400001928E-02 0.  1.
    10030    2    1    2    0    0  0.00000000000E+00  0.00000000000E+00 -0.19837854060E+02  0.15149382844E+04  0.15148083922E+04 0.  0.
        4    1    3    3  502    0  0.30864646966E+03 -0.54710720491E+03 -0.43312251608E+03  0.76301091981E+03  0.12699999809E+01 0.  1.
       -4    1    3    3    0  502 -0.30864646966E+03  0.54710720491E+03  0.41328466202E+03  0.75192736462E+03  0.12699999809E+01 0. -1.
</event>
<event>
 5   0  0.7547580E-04  0.1488931E+04  0.7818609E-02  0.8891847E-01
       -2   -1    0    0    0  501  0.00000000000E+00  0.00000000000E+00  0.98468928914E+03  0.98468928914E+03  0.25500000920E-02 0. -1.
        2   -1    0    0  501    0  0.00000000000E+00  0.00000000000E+00 -0.56284635551E+03  0.56284635552E+03  0.25500000920E-02 0.  1.
    10030    2    1    2    0    0  0.00000000000E+00  0.00000000000E+00  0.42184293363E+03  0.15475356447E+04  0.14889308617E+04 0.  0.
        4    1    3    3  502    0  0.21393944255E+03  0.22450186441E+03  0.91435880019E+03  0.96551789242E+03  0.12699999809E+01 0. -1.
       -4    1    3    3    0  502 -0.21393944255E+03 -0.22450186441E+03 -0.49251586656E+03  0.58201775224E+03  0.12699999809E+01 0.  1.
</event>
<event>
 5   0  0.3907345E-04  0.1503666E+04  0.7818609E-02  0.8882019E-01
        1   -1    0    0  501    0  0.00000000000E+00  0.00000000000E+00  0.49755683635E+03  0.49755683638E+03  0.50400001928E-02 0. -1.
       -1   -1    0    0    0  501  0.00000000000E+00  0.00000000000E+00 -0.11360562599E+04  0.11360562599E+04  0.50400001928E-02 0.  1.
    10030    2    1    2    0    0  0.00000000000E+00  0.00000000000E+00 -0.63849942358E+03  0.16336130963E+04  0.15036655993E+04 0.  0.
        5    1    3    3  502    0  0.36309984094E+03 -0.44508351131E+02  0.39432923758E+03  0.53790345362E+03  0.46999998093E+01 0. -1.
       -5    1    3    3    0  502 -0.36309984094E+03  0.44508351131E+02 -0.10328286612E+04  0.10957096427E+04  0.46999998093E+01 0.  1.
</event>
<event>
 5   0  0.7672251E-04  0.1453480E+04  0.7818609E-02  0.8915992E-01
       -2   -1    0    0    0  501  0.00000000000E+00  0.00000000000E+00  0.70335169115E+03  0.70335169116E+03  0.25500000920E-02 0. -1.
        2   -1    0    0  501    0  0.00000000000E+00  0.00000000000E+00 -0.75090567648E+03  0.75090567649E+03  0.25500000920E-02 0.  1.
    10030    2    1    2    0    0  0.00000000000E+00  0.00000000000E+00 -0.47553985330E+02  0.14542573676E+04  0.14534796558E+04 0.  0.
        5    1    3    3  502    0  0.14495204957E+03  0.47184526984E+03  0.50987471585E+03  0.70967835757E+03  0.46999998093E+01 0. -1.
       -5    1    3    3    0  502 -0.14495204957E+03 -0.47184526984E+03 -0.55742870118E+03  0.74457901007E+03  0.46999998093E+01 0.  1.
</event>
<event>
 5   0  0.7359897E-04  0.1543215E+04  0.7818609E-02  0.8856213E-01
        2   -1    0    0  501    0  0.00000000000E+00  0.00000000000E+00  0.13900116872E+04  0.13900116872E+04  0.25500000920E-02 0. -1.
       -2   -1    0    0    0  501  0.00000000000E+00  0.00000000000E+00 -0.42832617916E+03  0.42832617917E+03  0.25500000920E-02 0.  1.
    10030    2    1    2    0    0  0.00000000000E+00  0.00000000000E+00  0.96168550799E+03  0.18183378663E+04  0.15432153381E+04 0.  0.
        1    1    3    3  502    0 -0.36448613097E+03  0.48360312340E+03  0.10442722944E+04  0.12071564710E+04  0.50400001928E-02 0. -1.
       -1    1    3    3    0  502  0.36448613097E+03 -0.48360312340E+03 -0.82586786432E+02  0.61118139529E+03  0.50400001928E-02 0.  1.
</event>
<event>
 5   0  0.4086710E-04  0.1489257E+04  0.7818609E-02  0.8891628E-01
       -1   -1    0    0    0  501  0.00000000000E+00  0.00000000000E+00  0.57980831125E+03  0.57980831127E+03  0.50400001928E-02 0. -1.
        1   -1    0    0  501    0  0.00000000000E+00  0.00000000000E+00 -0.95630209880E+03  0.95630209881E+03  0.50400001928E-02 0.  1.
    10030    2    1    2    0    0  0.00000000000E+00  0.00000000000E+00 -0.37649378755E+03  0.15361104101E+04  0.14892574055E+04 0.  0.
        3    1    3    3  502    0 -0.13501713438E+03 -0.63124880654E+01 -0.94354265797E+03  0.95317481696E+03  0.10100000352E+00 0.  1.
       -3    1    3    3    0  502  0.13501713438E+03  0.63124880654E+01  0.56704887042E+03  0.58293559312E+03  0.10100000352E+00 0. -1.
</event>
<event>
 5   0  0.4058874E-04  0.1499364E+04  0.7818609E-02  0.8884876E-01
       -1   -1    0    0    0  501  0.00000000000E+00  0.00000000000E+00  0.10809136542E+04  0.10809136542E+04  0.50400001928E-02 0. -1.
        1   -1    0    0  501    0  0.00000000000E+00  0.00000000000E+00 -0.51995170561E+03  0.51995170564E+03  0.50400001928E-02 0.  1.
    10030    2    1    2    0    0  0.00000000000E+00  0.00000000000E+00  0.56096194854E+03  0.16008653598E+04  0.14993637292E+04 0.  0.
        4    1    3    3  502    0 -0.67867313458E+01  0.33630847059E+03 -0.43485322071E+03  0.54977121021E+03  0.12699999809E+01 0.  1.
       -4    1    3    3    0  502  0.67867313458E+01 -0.33630847059E+03  0.99581516925E+03  0.10510941496E+04  0.12699999809E+01 0. -1.
</event>
<event>
 5   0  0.4058874E-04  0.1499401E+04  0.7818609E-02  0.8884851E-01
       -1   -1    0    0    0  501  0.00000000000E+00  0.00000000000E+00  0.89718557150E+03  0.89718557152E+03  0.50400001928E-02 0. -1.
        1   -1    0    0  501    0  0.00000000000E+00  0.00000000000E+00 -0.62646009215E+03  0.62646009217E+03  0.50400001928E-02 0.  1.
    10030    2    1    2    0    0  0.00000000000E+00  0.00000000000E+00  0.27072547935E+03  0.15236456637E+04  0.14994011549E+04 0.  0.
        4    1    3    3  502    0  0.68842279255E+03 -0.13054304322E+03  0.40628563002E+03  0.80996114320E+03  0.12699999809E+01 0.  1.
       -4    1    3    3    0  502 -0.68842279255E+03  0.13054304322E+03 -0.13556015067E+03  0.71368452049E+03  0.12699999809E+01 0. -1.
</event>
<event>
 5   0  0.4058874E-04  0.1501056E+04  0.7818609E-02  0.8883751E-01
        1   -1    0    0  501    0  0.00000000000E+00  0.00000000000E+00  0.13956258713E+04  0.13956258714E+04  0.50400001928E-02 0. -1.
       -1   -1    0    0    0  501  0.00000000000E+00  0.00000000000E+00 -0.40361279044E+03  0.40361279047E+03  0.50400001928E-02 0.  1.
    10030    2    1    2    0    0  0.00000000000E+00  0.00000000000E+00  0.99201308091E+03  0.17992386618E+04  0.15010562313E+04 0.  0.
        4    1    3    3  502    0  0.28396109840E+03  0.35015985985E+03 -0.22322745881E+03  0.50306852826E+03  0.12699999809E+01 0.  1.
       -4    1    3    3    0  502 -0.28396109840E+03 -0.35015985985E+03  0.12152405397E+04  0.12961701336E+04  0.12699999809E+01 0. -1.
</event>
<event>
 5   0  0.4086710E-04  0.1539874E+04  0.7818609E-02  0.8858362E-01
        1   -1    0    0  501    0  0.00000000000E+00  0.00000000000E+00  0.74444402494E+03  0.74444402496E+03  0.50400001928E-02 0. -1.
       -1   -1    0    0    0  501  0.00000000000E+00  0.00000000000E+00 -0.79630251886E+03  0.79630251888E+03  0.50400001928E-02 0.  1.
    10030    2    1    2    0    0  0.00000000000E+00  0.00000000000E+00 -0.51858493923E+02  0.15407465438E+04  0.15398735691E+04 0.  0.
        3    1    3    3  502    0  0.17326302188E+03  0.46635723300E+03  0.56202067640E+03  0.75058403556E+03  0.10100000352E+00 0. -1.
       -3    1    3    3    0  502 -0.17326302188E+03 -0.46635723300E+03 -0.61387917033E+03  0.79016250828E+03  0.10100000352E+00 0.  1.
</event>
<event>
 5   0  0.7672251E-04  0.1518042E+04  0.7818609E-02  0.8872543E-01
        2   -1    0    0  501    0  0.00000000000E+00  0.00000000000E+00  0.17854205384E+04  0.17854205384E+04  0.25500000920E-02 0.  1.
       -2   -1    0    0    0  501  0.00000000000E+00  0.00000000000E+00 -0.32267631923E+03  0.32267631924E+03  0.25500000920E-02 0. -1.
    10030    2    1    2    0    0  0.00000000000E+00  0.00000000000E+00  0.14627442192E+04  0.21080968577E+04  0.15180420648E+04 0.  0.
        5    1    3    3  502    0  0.43087161483E+03  0.57518767531E+03  0.39234960575E+03  0.81881103646E+03  0.46999998093E+01 0. -1.
       -5    1    3    3    0  502 -0.43087161483E+03 -0.57518767531E+03  0.10703946134E+04  0.12892858212E+04  0.46999998093E+01 0.  1.
</event>
<event>
 5   0  0.7634227E-04  0.1512876E+04  0.7818609E-02  0.8875935E-01
       -2   -1    0    0    0  501  0.00000000000E+00  0.00000000000E+00  0.20029024892E+03  0.20029024893E+03  0.25500000920E-02 0.  1.
        2   -1    0    0  501    0  0.00000000000E+00  0.00000000000E+00 -0.28568479089E+04  0.28568479089E+04  0.25500000920E-02 0. -1.
    10030    2    1    2    0    0  0.00000000000E+00  0.00000000000E+00 -0.26565576600E+04  0.30571381578E+04  0.15128764375E+04 0.  0.
        2    1    3    3  502    0 -0.43231136038E+03  0.33958013250E+03 -0.23782714597E+04  0.24409799087E+04  0.25500000920E-02 0. -1.
       -2    1    3    3    0  502  0.43231136038E+03 -0.33958013250E+03 -0.27828620030E+03  0.61615824914E+03  0.25500000920E-02 0.  1.
</event>
<event>
 5   0  0.4015204E-04  0.1373914E+04  0.7818609E-02  0.8972920E-01
       -1   -1    0    0    0  501  0.00000000000E+00  0.00000000000E+00  0.11529604178E+04  0.11529604178E+04  0.50400001928E-02 0. -1.
        1   -1    0    0  501    0  0.00000000000E+00  0.00000000000E+00 -0.40930276698E+03  0.40930276701E+03  0.50400001928E-02 0.  1.
    10030    2    1    2    0    0  0.00000000000E+00  0.00000000000E+00  0.74365765080E+03  0.15622631848E+04  0.13739139554E+04 0.  0.
        2    1    3    3  502    0  0.55376018446E+03  0.34799629708E+01 -0.90405326716E+02  0.56110210759E+03  0.25500000920E-02 0.  1.
       -2    1    3    3    0  502 -0.55376018446E+03 -0.34799629708E+01  0.83406297752E+03  0.10011610772E+04  0.25500000920E-02 0. -1.
</event>
<event>
 5   0  0.4084462E-04  0.1527395E+04  0.7818609E-02  0.8866437E-01
       -1   -1    0    0    0  501  0.00000000000E+00  0.00000000000E+00  0.13568019286E+04  0.13568019286E+04  0.50400001928E-02 0. -1.
        1   -1    0    0  501    0  0.00000000000E+00  0.00000000000E+00 -0.42985938498E+03  0.42985938501E+03  0.50400001928E-02 0.  1.
    10030    2    1    2    0    0  0.00000000000E+00  0.00000000000E+00  0.92694254360E+03  0.17866613136E+04  0.15273952240E+04 0.  0.
        1    1    3    3  502    0  0.24867385568E+03 -0.27238650967E+03  0.12457151301E+04  0.12991686890E+04  0.50400001928E-02 0. -1.
       -1    1    3    3    0  502 -0.24867385568E+03  0.27238650967E+03 -0.31877258646E+03  0.48749262461E+03  0.50400001928E-02 0.  1.
</event>
<event>
 5   0  0.4086710E-04  0.1503424E+04  0.7818609E-02  0.8882180E-01
       -1   -1    0    0    0  501  0.00000000000E+00  0.00000000000E+00  0.51263219518E+03  0.51263219520E+03  0.50400001928E-02 0. -1.
        1   -1    0    0  501    0  0.00000000000E+00  0.00000000000E+00 -0.11022924082E+04  0.11022924082E+04  0.50400001928E-02 0.  1.
    10030    2    1    2    0    0  0.00000000000E+00  0.00000000000E+00 -0.58966021301E+03  0.16149246034E+04  0.15034235291E+04 0.  0.
        3    1    3    3  502    0 -0.26144380969E+03 -0.25561126400E+03  0.41067669456E+03  0.54985938345E+03  0.10100000352E+00 0. -1.
       -3    1    3    3    0  502  0.26144380969E+03  0.25561126400E+03 -0.10003369076E+04  0.10650652200E+04  0.10100000352E+00 0.  1.
</event>
<event>
 5   0  0.4084462E-04  0.1494713E+04  0.7818609E-02  0.8887976E-01
       -1   -1    0    0    0  501  0.00000000000E+00  0.00000000000E+00  0.14126947449E+04  0.14126947450E+04  0.50400001928E-02 0.  1.
        1   -1    0    0  501    0  0.00000000000E+00  0.00000000000E+00 -0.39537325843E+03  0.39537325846E+03  0.50400001928E-02 0. -1.
    10030    2    1    2    0    0  0.00000000000E+00  0.00000000000E+00  0.10173214865E+04  0.18080680034E+04  0.14947129818E+04 0.  0.
        1    1    3    3  502    0 -0.37036372241E+03 -0.30180374865E+03  0.12038493591E+04  0.12951864997E+04  0.50400001928E-02 0.  1.
       -1    1    3    3    0  502  0.37036372241E+03  0.30180374865E+03 -0.18652787258E+03  0.51288150372E+03  0.50400001928E-02 0. -1.
</event>
<event>
 5   0  0.4058874E-04  0.1562649E+04  0.7818609E-02  0.8843829E-01
        1   -1    0    0  501    0  0.00000000000E+00  0.00000000000E+00  0.23827935124E+04  0.23827935124E+04  0.50400001928E-02 0.  1.
       -1   -1    0    0    0  501  0.00000000000E+00  0.00000000000E+00 -0.25619830845E+03  0.25619830850E+03  0.50400001928E-02 0. -1.
    10030    2    1    2    0    0  0.00000000000E+00  0.00000000000E+00  0.21265952039E+04  0.26389918209E+04  0.15626486071E+04 0.  0.
        4    1    3    3  502    0 -0.56805348999E+03 -0.40484083742E+03  0.46888720263E+03  0.84049847878E+03  0.12699999809E+01 0. -1.
       -4    1    3    3    0  502  0.56805348999E+03  0.40484083742E+03  0.16577080013E+04  0.17984933421E+04  0.12699999809E+01 0.  1.
</event>
<event>
 5   0  0.4058874E-04  0.1486329E+04  0.7818609E-02  0.8893595E-01
       -1   -1    0    0    0  501  0.00000000000E+00  0.00000000000E+00  0.34374825217E+03  0.34374825220E+03  0.50400001928E-02 0.  1.
        1   -1    0    0  501    0  0.00000000000E+00  0.00000000000E+00 -0.16066806058E+04  0.16066806058E+04  0.50400001928E-02 0. -1.
    10030    2    1    2    0    0  0.00000000000E+00  0.00000000000E+00 -0.12629323536E+04  0.19504288580E+04  0.14863292369E+04 0.  0.
        4    1    3    3  502    0 -0.67647247375E+03 -0.30329675352E+03 -0.69950213571E+03  0.10192687473E+04  0.12699999809E+01 0. -1.
       -4    1    3    3    0  502  0.67647247375E+03  0.30329675352E+03 -0.56343021794E+03  0.93116011073E+03  0.12699999809E+01 0.  1.
</event>
<event>
 5   0  0.4086710E-04  0.1605414E+04  0.7818609E-02  0.8817229E-01
       -1   -1    0    0    0  501  0.00000000000E+00  0.00000000000E+00  0.25964466072E+03  0.25964466077E+03  0.50400001928E-02 0. -1.
        1   -1    0    0  501    0  0.00000000000E+00  0.00000000000E+00 -0.24816157316E+04  0.24816157316E+04  0.50400001928E-02 0.  1.
    10030    2    1    2    0    0  0.00000000000E+00  0.00000000000E+00 -0.22219710708E+04  0.27412603923E+04  0.16054136847E+04 0.  0.
        3    1    3    3  502    0 -0.16123650356E+03  0.77414071596E+03 -0.13466417917E+04  0.15616450248E+04  0.10100000352E+00 0.  1.
       -3    1    3    3    0  502  0.16123650356E+03 -0.77414071596E+03 -0.87532927916E+03  0.11796153675E+04  0.10100000352E+00 0. -1.
</event>
<event>
 5   0  0.7634227E-04  0.1209870E+04  0.7818609E-02  0.9104261E-01
        2   -1    0    0  501    0  0.00000000000E+00  0.00000000000E+00  0.51636376283E+03  0.51636376283E+03  0.25500000920E-02 0. -1.
       -2   -1    0    0    0  501  0.00000000000E+00  0.00000000000E+00 -0.70869931372E+03  0.70869931372E+03  0.25500000920E-02 0.  1.
    10030    2    1    2    0    0  0.00000000000E+00  0.00000000000E+00 -0.19233555089E+03  0.12250630766E+04  0.12098704796E+04 0.  0.
        2    1    3    3  502    0 -0.58836549745E+03  0.14052346780E+03 -0.10131498810E+03  0.61333965339E+03  0.25500000920E-02 0. -1.
       -2    1    3    3    0  502  0.58836549745E+03 -0.14052346780E+03 -0.91020562791E+02  0.61172342317E+03  0.25500000920E-02 0.  1.
</event>
<event>
 5   0  0.3907345E-04  0.1536015E+04  0.7818609E-02  0.8860851E-01
        1   -1    0    0  501    0  0.00000000000E+00  0.00000000000E+00  0.11218919927E+04  0.11218919927E+04  0.50400001928E-02 0. -1.
       -1   -1    0    0    0  501  0.00000000000E+00  0.00000000000E+00 -0.52575050282E+03  0.52575050285E+03  0.50400001928E-02 0.  1.
    10030    2    1    2    0    0  0.00000000000E+00  0.00000000000E+00  0.59614148983E+03  0.16476424955E+04  0.15360146865E+04 0.  0.
        5    1    3    3  502    0 -0.45174454229E+03 -0.60551487518E+03  0.44628534385E+03  0.87744748771E+03  0.46999998093E+01 0. -1.
       -5    1    3    3    0  502  0.45174454229E+03  0.60551487518E+03  0.14985614598E+03  0.77019500780E+03  0.46999998093E+01 0.  1.
</event>
<event>
 5   0  0.7359897E-04  0.1421379E+04  0.7818609E-02  0.8938487E-01
       -2   -1    0    0    0  501  0.00000000000E+00  0.00000000000E+00  0.87295159604E+03  0.87295159604E+03  0.25500000920E-02 0. -1.
        2   -1    0    0  501    0  0.00000000000E+00  0.00000000000E+00 -0.57858843642E+03  0.57858843642E+03  0.25500000920E-02 0.  1.
    10030    2    1    2    0    0  0.00000000000E+00  0.00000000000E+00  0.29436315962E+03  0.14515400325E+04  0.14213791880E+04 0.  0.
        1    1    3    3  502    0 -0.63907618656E+03  0.28900597959E+03  0.26422985694E+03  0.74950666828E+03  0.50400001928E-02 0. -1.
       -1    1    3    3    0  502  0.63907618656E+03 -0.28900597959E+03  0.30133302677E+02  0.70203336418E+03  0.50400001928E-02 0.  1.
</event>
<event>
 5   0  0.4086710E-04  0.1544525E+04  0.7818609E-02  0.8855372E-01
        1   -1    0    0  501    0  0.00000000000E+00  0.00000000000E+00  0.82881123165E+03  0.82881123167E+03  0.50400001928E-02 0. -1.
       -1   -1    0    0    0  501  0.00000000000E+00  0.00000000000E+00 -0.71957227308E+03  0.71957227309E+03  0.50400001928E-02 0.  1.
    10030    2    1    2    0    0  0.00000000000E+00  0.00000000000E+00  0.10923895858E+03  0.15483835048E+04  0.15445252759E+04 0.  0.
        3    1    3    3  502    0  0.55731968182E+03  0.64606273385E+02 -0.47737587582E+03  0.73665930749E+03  0.10100000352E+00 0.  1.
       -3    1    3    3    0  502 -0.55731968182E+03 -0.64606273385E+02  0.58661483439E+03  0.81172419727E+03  0.10100000352E+00 0. -1.
</event>
<event>
 5   0  0.7359897E-04  0.1522787E+04  0.7818609E-02  0.8869440E-01
        2   -1    0    0  501    0  0.00000000000E+00  0.00000000000E+00  0.91936566264E+03  0.91936566264E+03  0.25500000920E-02 0.  1.
       -2   -1    0    0    0  501  0.00000000000E+00  0.00000000000E+00 -0.63056515589E+03  0.63056515589E+03  0.25500000920E-02 0. -1.
    10030    2    1    2    0    0  0.00000000000E+00  0.00000000000E+00  0.28880050675E+03  0.15499308185E+04  0.15227868562E+04 0.  0.
        1    1    3    3  502    0  0.10672907420E+02 -0.75589195896E+03  0.52044813839E+02  0.75775670716E+03  0.50400001928E-02 0.  1.
       -1    1    3    3    0  502 -0.10672907420E+02  0.75589195896E+03  0.23675569291E+03  0.79217411137E+03  0.50400001928E-02 0. -1.
</event>
<event>
 5   0  0.4084462E-04  0.1479245E+04  0.7818609E-02  0.8898373E-01
        1   -1    0    0  501    0  0.00000000000E+00  0.00000000000E+00  0.84033250437E+03  0.84033250439E+03  0.50400001928E-02 0.  1.
       -1   -1    0    0    0  501  0.00000000000E+00  0.00000000000E+00 -0.65098217160E+03  0.65098217161E+03  0.50400001928E-02 0. -1.
    10030    2    1    2    0    0  0.00000000000E+00  0.00000000000E+00  0.18935033278E+03  0.14913146760E+04  0.14792450488E+04 0.  0.
        1    1    3    3  502    0  0.21965196994E+03 -0.14393701202E+03 -0.60239729117E+03  0.65715093226E+03  0.50400001928E-02 0. -1.
       -1    1    3    3    0  502 -0.21965196994E+03  0.14393701202E+03  0.79174762395E+03  0.83416374375E+03  0.50400001928E-02 0.  1.
</event>
<event>
 5   0  0.7672251E-04  0.1512440E+04  0.7818609E-02  0.8876222E-01
       -2   -1    0    0    0  501  0.00000000000E+00  0.00000000000E+00  0.53181020070E+03  0.53181020071E+03  0.25500000920E-02 0. -1.
        2   -1    0    0  501    0  0.00000000000E+00  0.00000000000E+00 -0.10753250066E+04  0.10753250066E+04  0.25500000920E-02 0.  1.
    10030    2    1    2    0    0  0.00000000000E+00  0.00000000000E+00 -0.54351480591E+03  0.16071352073E+04  0.15124401576E+04 0.  0.
        5    1    3    3  502    0  0.21885043692E+03  0.23782438753E+03 -0.99822170551E+03  0.10492495491E+04  0.46999998093E+01 0.  1.
       -5    1    3    3    0  502 -0.21885043692E+03 -0.23782438753E+03  0.45470689960E+03  0.55788565817E+03  0.46999998093E+01 0. -1.
</event>
<event>
 5   0  0.4015204E-04  0.1507555E+04  0.7818609E-02  0.8879444E-01
       -1   -1    0    0    0  501  0.00000000000E+00  0.00000000000E+00  0.12073193203E+04  0.12073193203E+04  0.50400001928E-02 0. -1.
        1   -1    0    0  501    0  0.00000000000E+00  0.00000000000E+00 -0.47061324118E+03  0.47061324120E+03  0.50400001928E-02 0.  1.
    10030    2    1    2    0    0  0.00000000000E+00  0.00000000000E+00  0.73670607914E+03  0.16779325615E+04  0.15075549191E+04 0.  0.
        2    1    3    3  502    0 -0.12591845459E+03  0.71604229499E+02  0.11916822908E+04  0.12004537913E+04  0.25500000920E-02 0. -1.
       -2    1    3    3    0  502  0.12591845459E+03 -0.71604229499E+02 -0.45497621162E+03  0.47747877025E+03  0.25500000920E-02 0.  1.
</event>
<event>
 5   0  0.7454828E-04  0.1514187E+04  0.7818609E-02  0.8875073E-01
       -2   -1    0    0    0  501  0.00000000000E+00  0.00000000000E+00  0.33293437491E+03  0.33293437492E+03  0.25500000920E-02 0.  1.
        2   -1    0    0  501    0  0.00000000000E+00  0.00000000000E+00 -0.17216320657E+04  0.17216320657E+04  0.25500000920E-02 0. -1.
    10030    2    1    2    0    0  0.00000000000E+00  0.00000000000E+00 -0.13886976908E+04  0.20545664406E+04  0.15141869048E+04 0.  0.
        3    1    3    3  502    0  0.49510857019E+03  0.34067370946E+03 -0.13191013893E+04  0.14495584010E+04  0.10100000352E+00 0. -1.
       -3    1    3    3    0  502 -0.49510857019E+03 -0.34067370946E+03 -0.69596301506E+02  0.60500803959E+03  0.10100000352E+00 0.  1.
</event>
<event>
 5   0  0.7634227E-04  0.1503991E+04  0.7818609E-02  0.8881803E-01
        2   -1    0    0  501    0  0.00000000000E+00  0.00000000000E+00  0.17358516372E+04  0.17358516372E+04  0.25500000920E-02 0. -1.
       -2   -1    0    0    0  501  0.00000000000E+00  0.00000000000E+00 -0.32577523455E+03  0.32577523456E+03  0.25500000920E-02 0.  1.
    10030    2    1    2    0    0  0.00000000000E+00  0.00000000000E+00  0.14100764027E+04  0.20616268718E+04  0.15039913222E+04 0.  0.
        2    1    3    3  502    0  0.20984618501E+03  0.15121138745E+03 -0.26288219173E+03  0.36879174583E+03  0.25500000920E-02 0.  1.
       -2    1    3    3    0  502 -0.20984618501E+03 -0.15121138745E+03  0.16729585944E+04  0.16928351260E+04  0.25500000920E-02 0. -1.
</event>
<event>
 5   0  0.4015204E-04  0.1495861E+04  0.7818609E-02  0.8887210E-01
        1   -1    0    0  501    0  0.00000000000E+00  0.00000000000E+00  0.67918761798E+03  0.67918761800E+03  0.50400001928E-02 0. -1.
       -1   -1    0    0    0  501  0.00000000000E+00  0.00000000000E+00 -0.82363153514E+03  0.82363153515E+03  0.50400001928E-02 0.  1.
    10030    2    1    2    0    0  0.00000000000E+00  0.00000000000E+00 -0.14444391716E+03  0.15028191532E+04  0.14958614113E+04 0.  0.
        2    1    3    3  502    0 -0.35880899703E+03  0.50803280115E+03 -0.48955648676E+03  0.79152181090E+03  0.25500000920E-02 0.  1.
       -2    1    3    3    0  502  0.35880899703E+03 -0.50803280115E+03  0.34511256960E+03  0.71129734226E+03  0.25500000920E-02 0. -1.
</event>
<event>
 5   0  0.7672251E-04  0.1497290E+04  0.7818609E-02  0.8886257E-01
        2   -1    0    0  501    0  0.00000000000E+00  0.00000000000E+00  0.10091471512E+04  0.10091471512E+04  0.25500000920E-02 0. -1.
       -2   -1    0    0    0  501  0.00000000000E+00  0.00000000000E+00 -0.55538894083E+03  0.55538894084E+03  0.25500000920E-02 0.  1.
    10030    2    1    2    0    0  0.00000000000E+00  0.00000000000E+00  0.45375821032E+03  0.15645360920E+04  0.14972897748E+04 0.  0.
        5    1    3    3  502    0  0.39181318240E+03  0.63769059730E+03  0.24437037218E+03  0.78734099130E+03  0.46999998093E+01 0. -1.
       -5    1    3    3    0  502 -0.39181318240E+03 -0.63769059730E+03  0.20938783815E+03  0.77719510069E+03  0.46999998093E+01 0.  1.
</event>
<event>
 5   0  0.7672251E-04  0.1476534E+04  0.7818609E-02  0.8900209E-01
        2   -1    0    0  501    0  0.00000000000E+00  0.00000000000E+00  0.12473644232E+04  0.12473644232E+04  0.25500000920E-02 0. -1.
       -2   -1    0    0    0  501  0.00000000000E+00  0.00000000000E+00 -0.43695198333E+03  0.43695198334E+03  0.25500000920E-02 0.  1.
    10030    2    1    2    0    0  0.00000000000E+00  0.00000000000E+00  0.81041243990E+03  0.16843164066E+04  0.14765342647E+04 0.  0.
        5    1    3    3  502    0 -0.68882014896E+02  0.62896172400E+03 -0.28686564423E+02  0.63338976247E+03  0.46999998093E+01 0.  1.
       -5    1    3    3    0  502  0.68882014896E+02 -0.62896172400E+03  0.83909900432E+03  0.10509266441E+04  0.46999998093E+01 0. -1.
</event>
<event>
 5   0  0.7454828E-04  0.1514067E+04  0.7818609E-02  0.8875152E-01
       -2   -1    0    0    0  501  0.00000000000E+00  0.00000000000E+00  0.34717117365E+03  0.34717117366E+03  0.25500000920E-02 0. -1.
        2   -1    0    0  501    0  0.00000000000E+00  0.00000000000E+00 -0.16507689208E+04  0.16507689208E+04  0.25500000920E-02 0.  1.
    10030    2    1    2    0    0  0.00000000000E+00  0.00000000000E+00 -0.13035977472E+04  0.19979400945E+04  0.15140665556E+04 0.  0.
        3    1    3    3  502    0 -0.82528641387E+02  0.66948889244E+03 -0.11052315679E+04  0.12948216798E+04  0.10100000352E+00 0.  1.
       -3    1    3    3    0  502  0.82528641387E+02 -0.66948889244E+03 -0.19836617933E+03  0.70311841467E+03  0.10100000352E+00 0. -1.
</event>
<event>
 5   0  0.7359897E-04  0.1606059E+04  0.7818609E-02  0.8816835E-01
       -2   -1    0    0    0  501  0.00000000000E+00  0.00000000000E+00  0.62080176678E+03  0.62080176679E+03  0.25500000920E-02 0. -1.
        2   -1    0    0  501    0  0.00000000000E+00  0.00000000000E+00 -0.10387471031E+04  0.10387471031E+04  0.25500000920E-02 0.  1.
    10030    2    1    2    0    0  0.00000000000E+00  0.00000000000E+00 -0.41794533627E+03  0.16595488698E+04  0.16060585753E+04 0.  0.
        1    1    3    3  502    0 -0.61277231522E+03 -0.20478720319E+03  0.28380491648E+03  0.70567197729E+03  0.50400001928E-02 0. -1.
       -1    1    3    3    0  502  0.61277231522E+03  0.20478720319E+03 -0.70175025275E+03  0.95387689256E+03  0.50400001928E-02 0.  1.
</event>
<event>
 5   0  0.3907345E-04  0.1499953E+04  0.7818609E-02  0.8884484E-01
       -1   -1    0    0    0  501  0.00000000000E+00  0.00000000000E+00  0.14712039698E+04  0.14712039698E+04  0.50400001928E-02 0.  1.
        1   -1    0    0  501    0  0.00000000000E+00  0.00000000000E+00 -0.38231608900E+03  0.38231608904E+03  0.50400001928E-02 0. -1.
    10030    2    1    2    0    0  0.00000000000E+00  0.00000000000E+00  0.10888878808E+04  0.18535200588E+04  0.14999532631E+04 0.  0.
        5    1    3    3  502    0 -0.61306589523E+03 -0.22990334858E+03  0.99634794508E+03  0.11922401852E+04  0.46999998093E+01 0.  1.
       -5    1    3    3    0  502  0.61306589523E+03  0.22990334858E+03  0.92539935727E+02  0.66127987364E+03  0.46999998093E+01 0. -1.
</event>
<event>
 5   0  0.4084462E-04  0.1534063E+04  0.7818609E-02  0.8862112E-01
        1   -1    0    0  501    0  0.00000000000E+00  0.00000000000E+00  0.18780963114E+04  0.18780963114E+04  0.50400001928E-02 0. -1.
       -1   -1    0    0    0  501  0.00000000000E+00  0.00000000000E+00 -0.31326254909E+03  0.31326254913E+03  0.50400001928E-02 0.  1.
    10030    2    1    2    0    0  0.00000000000E+00  0.00000000000E+00  0.15648337623E+04  0.21913588605E+04  0.15340628905E+04 0.  0.
        1    1    3    3  502    0  0.47390639729E+03  0.54805041765E+03  0.42276434404E+03  0.83885411383E+03  0.50400001928E-02 0. -1.
       -1    1    3    3    0  502 -0.47390639729E+03 -0.54805041765E+03  0.11420694183E+04  0.13525047467E+04  0.50400001928E-02 0.  1.
</event>
<event>
 5   0  0.7634227E-04  0.1511602E+04  0.7818609E-02  0.8876774E-01
       -2   -1    0    0    0  501  0.00000000000E+00  0.00000000000E+00  0.35040806553E+03  0.35040806553E+03  0.25500000920E-02 0.  1.
        2   -1    0    0  501    0  0.00000000000E+00  0.00000000000E+00 -0.16301988665E+04  0.16301988665E+04  0.25500000920E-02 0. -1.
    10030    2    1    2    0    0  0.00000000000E+00  0.00000000000E+00 -0.12797908010E+04  0.19806069321E+04  0.15116015762E+04 0.  0.
        2    1    3    3  502    0 -0.38819480585E+03 -0.43781708888E+03 -0.12667140941E+04  0.13953292109E+04  0.25500000920E-02 0. -1.
       -2    1    3    3    0  502  0.38819480585E+03  0.43781708888E+03 -0.13076706898E+02  0.58527772116E+03  0.25500000920E-02 0.  1.
</event>
<event>
 5   0  0.4015204E-04  0.1495406E+04  0.7818609E-02  0.8887513E-01
        1   -1    0    0  501    0  0.00000000000E+00  0.00000000000E+00  0.10093241853E+04  0.10093241853E+04  0.50400001928E-02 0.  1.
       -1   -1    0    0    0  501  0.00000000000E+00  0.00000000000E+00 -0.55389540551E+03  0.55389540553E+03  0.50400001928E-02 0. -1.
    10030    2    1    2    0    0  0.00000000000E+00  0.00000000000E+00  0.45542877977E+03  0.15632195908E+04  0.14954063380E+04 0.  0.
        2    1    3    3  502    0  0.14608786683E+03 -0.42553272730E+03  0.85198940997E+03  0.96348623318E+03  0.25500000920E-02 0.  1.
       -2    1    3    3    0  502 -0.14608786683E+03  0.42553272730E+03 -0.39656063020E+03  0.59973335764E+03  0.25500000920E-02 0. -1.
</event>
<event>
 5   0  0.7359897E-04  0.1480043E+04  0.7818609E-02  0.8897833E-01
       -2   -1    0    0    0  501  0.00000000000E+00  0.00000000000E+00  0.42527284512E+03  0.42527284513E+03  0.25500000920E-02 0.  1.
        2   -1    0    0  501    0  0.00000000000E+00  0.00000000000E+00 -0.12877195920E+04  0.12877195920E+04  0.25500000920E-02 0. -1.
    10030    2    1    2    0    0  0.00000000000E+00  0.00000000000E+00 -0.86244674691E+03  0.17129924372E+04  0.14800434786E+04 0.  0.
        1    1    3    3  502    0  0.44121759806E+03 -0.86835577564E+02  0.24900375783E+03  0.51401970566E+03  0.50400001928E-02 0.  1.
       -1    1    3    3    0  502 -0.44121759806E+03  0.86835577564E+02 -0.11114505047E+04  0.11989727315E+04  0.50400001928E-02 0. -1.
</event>
<event>
 5   0  0.7672251E-04  0.1481360E+04  0.7818609E-02  0.8896944E-01
        2   -1    0    0  501    0  0.00000000000E+00  0.00000000000E+00  0.75144672685E+03  0.75144672686E+03  0.25500000920E-02 0. -1.
       -2   -1    0    0    0  501  0.00000000000E+00  0.00000000000E+00 -0.73006775526E+03  0.73006775526E+03  0.25500000920E-02 0.  1.
    10030    2    1    2    0    0  0.00000000000E+00  0.00000000000E+00  0.21378971594E+02  0.14815144821E+04  0.14813602196E+04 0.  0.
        5    1    3    3  502    0  0.56917496818E+03  0.46221208595E+03 -0.94129721442E+02  0.73924464913E+03  0.46999998093E+01 0.  1.
       -5    1    3    3    0  502 -0.56917496818E+03 -0.46221208595E+03  0.11550869304E+03  0.74226983299E+03  0.46999998093E+01 0. -1.
</event>
<event>
 5   0  0.4086710E-04  0.1487981E+04  0.7818609E-02  0.8892485E-01
        1   -1    0    0  501    0  0.00000000000E+00  0.00000000000E+00  0.58056302065E+03  0.58056302067E+03  0.50400001928E-02 0. -1.
       -1   -1    0    0    0  501  0.00000000000E+00  0.00000000000E+00 -0.95342219336E+03  0.95342219337E+03  0.50400001928E-02 0.  1.
    10030    2    1    2    0    0  0.00000000000E+00  0.00000000000E+00 -0.37285917271E+03  0.15339852140E+04  0.14879807372E+04 0.  0.
        3    1    3    3  502    0  0.67953126555E+03 -0.23618603081E+02  0.12490247914E+03  0.69131846407E+03  0.10100000352E+00 0. -1.
       -3    1    3    3    0  502 -0.67953126555E+03  0.23618603081E+02 -0.49776165184E+03  0.84266674998E+03  0.10100000352E+00 0.  1.
</event>
<event>
 5   0  0.3907345E-04  0.1493877E+04  0.7818609E-02  0.8888535E-01
        1   -1    0    0  501    0  0.00000000000E+00  0.00000000000E+00  0.40623645445E+03  0.40623645448E+03  0.50400001928E-02 0. -1.
       -1   -1    0    0    0  501  0.00000000000E+00  0.00000000000E+00 -0.13733805754E+04  0.13733805754E+04  0.50400001928E-02 0.  1.
    10030    2    1    2    0    0  0.00000000000E+00  0.00000000000E+00 -0.96714412093E+03  0.17796170299E+04  0.14938771778E+04 0.  0.
        5    1    3    3  502    0  0.50208918829E+03  0.71006572501E+02  0.16974119059E+03  0.53476130013E+03  0.46999998093E+01 0. -1.
       -5    1    3    3    0  502 -0.50208918829E+03 -0.71006572501E+02 -0.11368853115E+04  0.12448557297E+04  0.46999998093E+01 0.  1.
</event>
<event>
 5   0  0.7359897E-04  0.1493237E+04  0.7818609E-02  0.8888962E-01
       -2   -1    0    0    0  501  0.00000000000E+00  0.00000000000E+00  0.29430229710E+03  0.29430229711E+03  0.25500000920E-02 0.  1.
        2   -1    0    0  501    0  0.00000000000E+00  0.00000000000E+00 -0.18941052323E+04  0.18941052323E+04  0.25500000920E-02 0. -1.
    10030    2    1    2    0    0  0.00000000000E+00  0.00000000000E+00 -0.15998029352E+04  0.21884075294E+04  0.14932374504E+04 0.  0.
        1    1    3    3  502    0  0.55541007666E+03  0.47295835540E+03 -0.56693244343E+03  0.92389520760E+03  0.50400001928E-02 0.  1.
       -1    1    3    3    0  502 -0.55541007666E+03 -0.47295835540E+03 -0.10328704917E+04  0.12645123218E+04  0.50400001928E-02 0. -1.
</event>
<event>
 5   0  0.7547580E-04  0.1556956E+04  0.7818609E-02  0.8847437E-01
        2   -1    0    0  501    0  0.00000000000E+00  0.00000000000E+00  0.77139726026E+03  0.77139726027E+03  0.25500000920E-02 0. -1.
       -2   -1    0    0    0  501  0.00000000000E+00  0.00000000000E+00 -0.78562374726E+03  0.78562374726E+03  0.25500000920E-02 0.  1.
    10030    2    1    2    0    0  0.00000000000E+00  0.00000000000E+00 -0.14226486996E+02  0.15570210075E+04  0.15569560125E+04 0.  0.
        4    1    3    3  502    0 -0.66383359758E+03 -0.21155681194E+03 -0.35439573954E+03  0.78168362082E+03  0.12699999809E+01 0.  1.
       -4    1    3    3    0  502  0.66383359758E+03  0.21155681194E+03  0.34016925254E+03  0.77533738671E+03  0.12699999809E+01 0. -1.
</event>
<event>
 5   0  0.2800375E-04  0.1512336E+04  0.7818609E-02  0.8876291E-01
       -4   -1    0    0    0  501  0.00000000000E+00  0.00000000000E+00  0.11190847983E+04  0.11190855190E+04  0.12699999809E+01 0. -1.
        4   -1    0    0  501    0  0.00000000000E+00  0.00000000000E+00 -0.51094291724E+03  0.51094449560E+03  0.12699999809E+01 0.  1.
    10030    2    1    2    0    0  0.00000000000E+00  0.00000000000E+00  0.60814188108E+03  0.16300300145E+04  0.15123363716E+04 0.  0.
        5    1    3    3  502    0  0.85572723057E+02  0.75119546256E+03  0.29082988924E+03  0.81007495232E+03  0.46999998093E+01 0.  1.
       -5    1    3    3    0  502 -0.85572723057E+02 -0.75119546256E+03  0.31731199183E+03  0.81995506222E+03  0.46999998093E+01 0. -1.
</event>
<event>
 5   0  0.4058874E-04  0.1487909E+04  0.7818609E-02  0.8892533E-01
       -1   -1    0    0    0  501  0.00000000000E+00  0.00000000000E+00  0.93091919039E+03  0.93091919040E+03  0.50400001928E-02 0.  1.
        1   -1    0    0  501    0  0.00000000000E+00  0.00000000000E+00 -0.59453938854E+03  0.59453938857E+03  0.50400001928E-02 0. -1.
    10030    2    1    2    0    0  0.00000000000E+00  0.00000000000E+00  0.33637980184E+03  0.15254585790E+04  0.14879087691E+04 0.  0.
        4    1    3    3  502    0  0.41491913924E+03  0.54686763700E+03  0.46221019528E+03  0.82756388396E+03  0.12699999809E+01 0. -1.
       -4    1    3    3    0  502 -0.41491913924E+03 -0.54686763700E+03 -0.12583039344E+03  0.69789469501E+03  0.12699999809E+01 0.  1.
</event>
<event>
 5   0  0.7454828E-04  0.1512596E+04  0.7818609E-02  0.8876120E-01
        2   -1    0    0  501    0  0.00000000000E+00  0.00000000000E+00  0.86110833440E+03  0.86110833440E+03  0.25500000920E-02 0. -1.
       -2   -1    0    0    0  501  0.00000000000E+00  0.00000000000E+00 -0.66424456484E+03  0.66424456485E+03  0.25500000920E-02 0.  1.
    10030    2    1    2    0    0  0.00000000000E+00  0.00000000000E+00  0.19686376956E+03  0.15253528993E+04  0.15125958229E+04 0.  0.
        3    1    3    3  502    0 -0.22344935999E+03 -0.28895386352E+03  0.76625772034E+03  0.84886680693E+03  0.10100000352E+00 0. -1.
       -3    1    3    3    0  502  0.22344935999E+03  0.28895386352E+03 -0.56939395078E+03  0.67648609233E+03  0.10100000352E+00 0.  1.
</event>
<event>
 5   0  0.4084462E-04  0.1486440E+04  0.7818609E-02  0.8893521E-01
       -1   -1    0    0    0  501  0.00000000000E+00  0.00000000000E+00  0.23176797207E+03  0.23176797213E+03  0.50400001928E-02 0.  1.
        1   -1    0    0  501    0  0.00000000000E+00  0.00000000000E+00 -0.23833144482E+04  0.23833144482E+04  0.50400001928E-02 0. -1.
    10030    2    1    2    0    0  0.00000000000E+00  0.00000000000E+00 -0.21515464761E+04  0.26150824203E+04  0.14864399840E+04 0.  0.
        1    1    3    3  502    0 -0.27258778694E+03  0.12634903796E+03  0.12016744633E+03  0.32358676760E+03  0.50400001928E-02 0.  1.
       -1    1    3    3    0  502  0.27258778694E+03 -0.12634903796E+03 -0.22717139224E+04  0.22914956527E+04  0.50400001928E-02 0. -1.
</event>
<event>
 5   0  0.7672251E-04  0.1500905E+04  0.7818609E-02  0.8883851E-01
       -2   -1    0    0    0  501  0.00000000000E+00  0.00000000000E+00  0.13716152426E+04  0.13716152426E+04  0.25500000920E-02 0.  1.
        2   -1    0    0  501    0  0.00000000000E+00  0.00000000000E+00 -0.41059532682E+03  0.41059532683E+03  0.25500000920E-02 0. -1.
    10030    2    1    2    0    0  0.00000000000E+00  0.00000000000E+00  0.96101991577E+03  0.17822105694E+04  0.15009048055E+04 0.  0.
        5    1    3    3  502    0 -0.16132861383E+03  0.30511166452E+03  0.12717628037E+04  0.13177718954E+04  0.46999998093E+01 0.  1.
       -5    1    3    3    0  502  0.16132861383E+03 -0.30511166452E+03 -0.31074288796E+03  0.46443867398E+03  0.46999998093E+01 0. -1.
</event>
<event>
 5   0  0.4015204E-04  0.1501189E+04  0.7818609E-02  0.8883663E-01
        1   -1    0    0  501    0  0.00000000000E+00  0.00000000000E+00  0.11203624355E+04  0.11203624355E+04  0.50400001928E-02 0.  1.
       -1   -1    0    0    0  501  0.00000000000E+00  0.00000000000E+00 -0.50286567345E+03  0.50286567347E+03  0.50400001928E-02 0. -1.
    10030    2    1    2    0    0  0.00000000000E+00  0.00000000000E+00  0.61749676201E+03  0.16232281089E+04  0.15011886099E+04 0.  0.
        2    1    3    3  502    0 -0.48594151664E+03  0.28091372345E+03  0.84759820921E+03  0.10165994304E+04  0.25500000920E-02 0.  1.
       -2    1    3    3    0  502  0.48594151664E+03 -0.28091372345E+03 -0.23010144720E+03  0.60662867854E+03  0.25500000920E-02 0. -1.
</event>
<event>
 5   0  0.7359897E-04  0.1496550E+04  0.7818609E-02  0.8886751E-01
       -2   -1    0    0    0  501  0.00000000000E+00  0.00000000000E+00  0.71597294686E+03  0.71597294687E+03  0.25500000920E-02 0. -1.
        2   -1    0    0  501    0  0.00000000000E+00  0.00000000000E+00 -0.78203404326E+03  0.78203404327E+03  0.25500000920E-02 0.  1.
    10030    2    1    2    0    0  0.00000000000E+00  0.00000000000E+00 -0.66061096398E+02  0.14980069901E+04  0.14965496564E+04 0.  0.
        1    1    3    3  502    0  0.72088882845E+03 -0.17881807935E+03 -0.12399593846E+03  0.75301500733E+03  0.50400001928E-02 0.  1.
       -1    1    3    3    0  502 -0.72088882845E+03  0.17881807935E+03  0.57934842065E+02  0.74499198280E+03  0.50400001928E-02 0. -1.
</event>
<event>
 5   0  0.7634227E-04  0.1502943E+04  0.7818609E-02  0.8882498E-01
        2   -1    0    0  501    0  0.00000000000E+00  0.00000000000E+00  0.16094781524E+04  0.16094781524E+04  0.25500000920E-02 0. -1.
       -2   -1    0    0    0  501  0.00000000000E+00  0.00000000000E+00 -0.35086474228E+03  0.35086474229E+03  0.25500000920E-02 0.  1.
    10030    2    1    2    0    0  0.00000000000E+00  0.00000000000E+00  0.12586134101E+04  0.19603428947E+04  0.15029426298E+04 0.  0.
        2    1    3    3  502    0 -0.70440916650E+03 -0.26110468009E+03  0.60521319428E+03  0.96470251288E+03  0.25500000920E-02 0.  1.
       -2    1    3    3    0  502  0.70440916650E+03  0.26110468009E+03  0.65340021582E+03  0.99564038179E+03  0.25500000920E-02 0. -1.
</event>
<event>
 5   0  0.2800375E-04  0.1515960E+04  0.7818609E-02  0.8873909E-01
        3   -1    0    0  501    0  0.00000000000E+00  0.00000000000E+00  0.81500378328E+03  0.81500378954E+03  0.10100000352E+00 0. -1.
       -3   -1    0    0    0  501  0.00000000000E+00  0.00000000000E+00 -0.70494567526E+03  0.70494568250E+03  0.10100000352E+00 0.  1.
    10030    2    1    2    0    0  0.00000000000E+00  0.00000000000E+00  0.11005810802E+03  0.15199494720E+04  0.15159596335E+04 0.  0.
        4    1    3    3  502    0  0.51976909870E+03  0.75888541490E+02 -0.49286391307E+03  0.72030232291E+03  0.12699999809E+01 0.  1.
       -4    1    3    3    0  502 -0.51976909870E+03 -0.75888541490E+02  0.60292202109E+03  0.79964714912E+03  0.12699999809E+01 0. -1.
</event>
<event>
 5   0  0.4058874E-04  0.1488709E+04  0.7818609E-02  0.8891996E-01
       -1   -1    0    0    0  501  0.00000000000E+00  0.00000000000E+00  0.48271715899E+03  0.48271715902E+03  0.50400001928E-02 0. -1.
        1   -1    0    0  501    0  0.00000000000E+00  0.00000000000E+00 -0.11478020264E+04  0.11478020264E+04  0.50400001928E-02 0.  1.
    10030    2    1    2    0    0  0.00000000000E+00  0.00000000000E+00 -0.66508486738E+03  0.16305191854E+04  0.14887091499E+04 0.  0.
        4    1    3    3  502    0 -0.14685729552E+03 -0.93606336065E+02  0.46008844557E+03  0.49194735698E+03  0.12699999809E+01 0. -1.
       -4    1    3    3    0  502  0.14685729552E+03  0.93606336065E+02 -0.11251733129E+04  0.11385718284E+04  0.12699999809E+01 0.  1.
</event>
<event>
 5   0  0.2800375E-04  0.1500108E+04  0.7818609E-02  0.8884381E-01
        3   -1    0    0  501    0  0.00000000000E+00  0.00000000000E+00  0.24413641520E+04  0.24413641541E+04  0.10100000352E+00 0.  1.
       -3   -1    0    0    0  501  0.00000000000E+00  0.00000000000E+00 -0.23043701569E+03  0.23043703782E+03  0.10100000352E+00 0. -1.
    10030    2    1    2    0    0  0.00000000000E+00  0.00000000000E+00  0.22109271363E+04  0.26718011919E+04  0.15001075985E+04 0.  0.
        5    1    3    3  502    0 -0.17849180934E+03 -0.60265069779E+03  0.18344239765E+04  0.19391185124E+04  0.46999998093E+01 0.  1.
       -5    1    3    3    0  502  0.17849180934E+03  0.60265069779E+03  0.37650315987E+03  0.73268267957E+03  0.46999998093E+01 0. -1.
</event>
<event>
 5   0  0.7547580E-04  0.1476809E+04  0.7818609E-02  0.8900023E-01
        2   -1    0    0  501    0  0.00000000000E+00  0.00000000000E+00  0.91437867640E+03  0.91437867640E+03  0.25500000920E-02 0. -1.
       -2   -1    0    0    0  501  0.00000000000E+00  0.00000000000E+00 -0.59629686922E+03  0.59629686923E+03  0.25500000920E-02 0.  1.
    10030    2    1    2    0    0  0.00000000000E+00  0.00000000000E+00  0.31808180718E+03  0.15106755456E+04  0.14768089139E+04 0.  0.
        4    1    3    3  502    0  0.37165851678E+03  0.27436055024E+03  0.74830297722E+03  0.87941044072E+03  0.12699999809E+01 0. -1.
       -4    1    3    3    0  502 -0.37165851678E+03 -0.27436055024E+03 -0.43022117004E+03  0.63126510491E+03  0.12699999809E+01 0.  1.
</event>
<event>
 5   0  0.7672251E-04  0.1476690E+04  0.7818609E-02  0.8900104E-01
       -2   -1    0    0    0  501  0.00000000000E+00  0.00000000000E+00  0.43779707208E+03  0.43779707209E+03  0.25500000920E-02 0. -1.
        2   -1    0    0  501    0  0.00000000000E+00  0.00000000000E+00 -0.12452186652E+04  0.12452186652E+04  0.25500000920E-02 0.  1.
    10030    2    1    2    0    0  0.00000000000E+00  0.00000000000E+00 -0.80742159315E+03  0.16830157373E+04  0.14766896570E+04 0.  0.
        5    1    3    3  502    0 -0.20568554482E+03  0.19631232060E+03  0.37287904094E+03  0.46894129669E+03  0.46999998093E+01 0. -1.
       -5    1    3    3    0  502  0.20568554482E+03 -0.19631232060E+03 -0.11803006341E+04  0.12140744406E+04  0.46999998093E+01 0.  1.
</event>
<event>
 5   0  0.4084462E-04  0.1498454E+04  0.7818609E-02  0.8885482E-01
       -1   -1    0    0    0  501  0.00000000000E+00  0.00000000000E+00  0.35193399873E+03  0.35193399877E+03  0.50400001928E-02 0.  1.
        1   -1    0    0  501    0  0.00000000000E+00  0.00000000000E+00 -0.15950170859E+04  0.15950170859E+04  0.50400001928E-02 0. -1.
    10030    2    1    2    0    0  0.00000000000E+00  0.00000000000E+00 -0.12430830872E+04  0.19469510847E+04  0.14984535243E+04 0.  0.
        1    1    3    3  502    0  0.11361354752E+03 -0.30636803746E+03 -0.14975590450E+04  0.15327923884E+04  0.50400001928E-02 0. -1.
       -1    1    3    3    0  502 -0.11361354752E+03  0.30636803746E+03  0.25447595785E+03  0.41415869628E+03  0.50400001928E-02 0.  1.
</event>
<event>
 5   0  0.7547580E-04  0.1526320E+04  0.7818609E-02  0.8867137E-01
        2   -1    0    0  501    0  0.00000000000E+00  0.00000000000E+00  0.16099233851E+04  0.16099233851E+04  0.25500000920E-02 0.  1.
       -2   -1    0    0    0  501  0.00000000000E+00  0.00000000000E+00 -0.36176439191E+03  0.36176439192E+03  0.25500000920E-02 0. -1.
    10030    2    1    2    0    0  0.00000000000E+00  0.00000000000E+00  0.12481589932E+04  0.19716877771E+04  0.15263196971E+04 0.  0.
        4    1    3    3  502    0 -0.39900120852E+03  0.50347445144E+03  0.91894289811E+02  0.64894888940E+03  0.12699999809E+01 0. -1.
       -4    1    3    3    0  502  0.39900120852E+03 -0.50347445144E+03  0.11562647034E+04  0.13227388877E+04  0.12699999809E+01 0.  1.
</event>
<event>
 5   0  0.2800375E-04  0.1478682E+04  0.7818609E-02  0.8898754E-01
       -3   -1    0    0    0  501  0.00000000000E+00  0.00000000000E+00  0.28161936916E+03  0.28161938727E+03  0.10100000352E+00 0.  1.
        3   -1    0    0  501    0  0.00000000000E+00  0.00000000000E+00 -0.19410069713E+04  0.19410069739E+04  0.10100000352E+00 0. -1.
    10030    2    1    2    0    0  0.00000000000E+00  0.00000000000E+00 -0.16593876021E+04  0.22226263612E+04  0.14786820914E+04 0.  0.
        3    1    3    3  502    0  0.34386665564E+03  0.78587025388E+02 -0.18063761088E+04  0.18404931008E+04  0.10100000352E+00 0. -1.
       -3    1    3    3    0  502 -0.34386665564E+03 -0.78587025388E+02  0.14698850666E+03  0.38213326041E+03  0.10100000352E+00 0.  1.
</event>
<event>
 5   0  0.4086710E-04  0.1505791E+04  0.7818609E-02  0.8880611E-01
       -1   -1    0    0    0  501  0.00000000000E+00  0.00000000000E+00  0.99294929958E+03  0.99294929960E+03  0.50400001928E-02 0. -1.
        1   -1    0    0  501    0  0.00000000000E+00  0.00000000000E+00 -0.57087696387E+03  0.57087696389E+03  0.50400001928E-02 0.  1.
    10030    2    1    2    0    0  0.00000000000E+00  0.00000000000E+00  0.42207233572E+03  0.15638262635E+04  0.15057913288E+04 0.  0.
        3    1    3    3  502    0  0.55415640243E+03 -0.42244899888E+03  0.50715591567E+03  0.86183502366E+03  0.10100000352E+00 0. -1.
       -3    1    3    3    0  502 -0.55415640243E+03  0.42244899888E+03 -0.85083579955E+02  0.70199123982E+03  0.10100000352E+00 0.  1.
</event>
<event>
 5   0  0.4015204E-04  0.1579476E+04  0.7818609E-02  0.8833257E-01
       -1   -1    0    0    0  501  0.00000000000E+00  0.00000000000E+00  0.74448067848E+03  0.74448067850E+03  0.50400001928E-02 0. -1.
        1   -1    0    0  501    0  0.00000000000E+00  0.00000000000E+00 -0.83774684257E+03  0.83774684258E+03  0.50400001928E-02 0.  1.
    10030    2    1    2    0    0  0.00000000000E+00  0.00000000000E+00 -0.93266164082E+02  0.15822275211E+04  0.15794762901E+04 0.  0.
        2    1    3    3  502    0 -0.49496819560E+03 -0.61345466255E+03 -0.95361415547E+02  0.79398610645E+03  0.25500000920E-02 0.  1.
       -2    1    3    3    0  502  0.49496819560E+03  0.61345466255E+03  0.20952514641E+01  0.78824141463E+03  0.25500000920E-02 0. -1.
</event>
<event>
 5   0  0.4015204E-04  0.1500441E+04  0.7818609E-02  0.8884160E-01
       -1   -1    0    0    0  501  0.00000000000E+00  0.00000000000E+00  0.74676801252E+03  0.74676801254E+03  0.50400001928E-02 0. -1.
        1   -1    0    0  501    0  0.00000000000E+00  0.00000000000E+00 -0.75368904605E+03  0.75368904606E+03  0.50400001928E-02 0.  1.
    10030    2    1    2    0    0  0.00000000000E+00  0.00000000000E+00 -0.69210335215E+01  0.15004570586E+04  0.15004410965E+04 0.  0.
        2    1    3    3  502    0 -0.68115398264E+03  0.32377712026E+02 -0.31621263553E+03  0.75167113500E+03  0.25500000920E-02 0.  1.
       -2    1    3    3    0  502  0.68115398264E+03 -0.32377712026E+02  0.30929160201E+03  0.74878592361E+03  0.25500000920E-02 0. -1.
</event>
<event>
 5   0  0.4084462E-04  0.1493456E+04  0.7818609E-02  0.8888816E-01
        1   -1    0    0  501    0  0.00000000000E+00  0.00000000000E+00  0.13962798312E+04  0.13962798312E+04  0.50400001928E-02 0.  1.
       -1   -1    0    0    0  501  0.00000000000E+00  0.00000000000E+00 -0.39934883069E+03  0.39934883072E+03  0.50400001928E-02 0. -1.
    10030    2    1    2    0    0  0.00000000000E+00  0.00000000000E+00  0.99693100050E+03  0.17956286619E+04  0.14934560160E+04 0.  0.
        1    1    3    3  502    0  0.37326693464E+03  0.63804820835E+02 -0.27533846816E+03  0.46819924362E+03  0.50400001928E-02 0. -1.
       -1    1    3    3    0  502 -0.37326693464E+03 -0.63804820835E+02  0.12722694687E+04  0.13274294183E+04  0.50400001928E-02 0.  1.
</event>
<event>
 5   0  0.3907345E-04  0.1487549E+04  0.7818609E-02  0.8892775E-01
        1   -1    0    0  501    0  0.00000000000E+00  0.00000000000E+00  0.10426526070E+04  0.10426526070E+04  0.50400001928E-02 0.  1.
       -1   -1    0    0    0  501  0.00000000000E+00  0.00000000000E+00 -0.53057014057E+03  0.53057014059E+03  0.50400001928E-02 0. -1.
    10030    2    1    2    0    0  0.00000000000E+00  0.00000000000E+00  0.51208246647E+03  0.15732227476E+04  0.14875487761E+04 0.  0.
        5    1    3    3  502    0  0.60100918717E+03 -0.28321560227E+03  0.60959277561E+03  0.90169205525E+03  0.46999998093E+01 0.  1.
       -5    1    3    3    0  502 -0.60100918717E+03  0.28321560227E+03 -0.97510309138E+02  0.67153069239E+03  0.46999998093E+01 0. -1.
</event>
<event>
 5   0  0.4015204E-04  0.1503315E+04  0.7818609E-02  0.8882251E-01
       -1   -1    0    0    0  501  0.00000000000E+00  0.00000000000E+00  0.36628183015E+03  0.36628183019E+03  0.50400001928E-02 0. -1.
        1   -1    0    0  501    0  0.00000000000E+00  0.00000000000E+00 -0.15424984408E+04  0.15424984408E+04  0.50400001928E-02 0.  1.
    10030    2    1    2    0    0  0.00000000000E+00  0.00000000000E+00 -0.11762166106E+04  0.19087802710E+04  0.15033152057E+04 0.  0.
        2    1    3    3  502    0 -0.46593440009E+03  0.44559624897E+03 -0.10787804961E+04  0.12567490764E+04  0.25500000920E-02 0.  1.
       -2    1    3    3    0  502  0.46593440009E+03 -0.44559624897E+03 -0.97436114543E+02  0.65203119458E+03  0.25500000920E-02 0. -1.
</event>
<event>
 5   0  0.7547580E-04  0.1513595E+04  0.7818609E-02  0.8875463E-01
       -2   -1    0    0    0  501  0.00000000000E+00  0.00000000000E+00  0.21485887607E+03  0.21485887609E+03  0.25500000920E-02 0. -1.
        2   -1    0    0  501    0  0.00000000000E+00  0.00000000000E+00 -0.26656668297E+04  0.26656668297E+04  0.25500000920E-02 0.  1.
    10030    2    1    2    0    0  0.00000000000E+00  0.00000000000E+00 -0.24508079536E+04  0.28805257058E+04  0.15135946340E+04 0.  0.
        4    1    3    3  502    0 -0.57419960497E+03  0.33554429148E+03 -0.19127518195E+04  0.20250719232E+04  0.12699999809E+01 0. -1.
       -4    1    3    3    0  502  0.57419960497E+03 -0.33554429148E+03 -0.53805613409E+03  0.85545378264E+03  0.12699999809E+01 0.  1.
</event>
<event>
 5   0  0.7547580E-04  0.1499363E+04  0.7818609E-02  0.8884877E-01
       -2   -1    0    0    0  501  0.00000000000E+00  0.00000000000E+00  0.76257457882E+03  0.76257457883E+03  0.25500000920E-02 0.  1.
        2   -1    0    0  501    0  0.00000000000E+00  0.00000000000E+00 -0.73700629385E+03  0.73700629386E+03  0.25500000920E-02 0. -1.
    10030    2    1    2    0    0  0.00000000000E+00  0.00000000000E+00  0.25568284971E+02  0.14995808727E+04  0.14993628835E+04 0.  0.
        4    1    3    3  502    0  0.33267742536E+03  0.26225886737E+03  0.63139380742E+03  0.76033790896E+03  0.12699999809E+01 0.  1.
       -4    1    3    3    0  502 -0.33267742536E+03 -0.26225886737E+03 -0.60582552245E+03  0.73924296372E+03  0.12699999809E+01 0. -1.
</event>
<event>
 5   0  0.7359897E-04  0.1490828E+04  0.7818609E-02  0.8890575E-01
        2   -1    0    0  501    0  0.00000000000E+00  0.00000000000E+00  0.87595912547E+03  0.87595912547E+03  0.25500000920E-02 0. -1.
       -2   -1    0    0    0  501  0.00000000000E+00  0.00000000000E+00 -0.63432410098E+03  0.63432410099E+03  0.25500000920E-02 0.  1.
    10030    2    1    2    0    0  0.00000000000E+00  0.00000000000E+00  0.24163502449E+03  0.15102832265E+04  0.14908279374E+04 0.  0.
        1    1    3    3  502    0  0.36328751060E+03 -0.35981943778E+03 -0.42865742299E+03  0.66722936796E+03  0.50400001928E-02 0.  1.
       -1    1    3    3    0  502 -0.36328751060E+03  0.35981943778E+03  0.67029244748E+03  0.84305385850E+03  0.50400001928E-02 0. -1.
</event>
<event>
 5   0  0.4058874E-04  0.1507112E+04  0.7818609E-02  0.8879737E-01
        1   -1    0    0  501    0  0.00000000000E+00  0.00000000000E+00  0.94164150787E+03  0.94164150788E+03  0.50400001928E-02 0. -1.
       -1   -1    0    0    0  501  0.00000000000E+00  0.00000000000E+00 -0.60303902720E+03  0.60303902722E+03  0.50400001928E-02 0.  1.
    10030    2    1    2    0    0  0.00000000000E+00  0.00000000000E+00  0.33860248067E+03  0.15446805351E+04  0.15071119121E+04 0.  0.
        4    1    3    3  502    0 -0.58235717962E+03 -0.32971145049E+02  0.65828727798E+03  0.87952870011E+03  0.12699999809E+01 0. -1.
       -4    1    3    3    0  502  0.58235717962E+03  0.32971145049E+02 -0.31968479731E+03  0.66515183499E+03  0.12699999809E+01 0.  1.
</event>
<event>
 5   0  0.4058874E-04  0.1474441E+04  0.7818609E-02  0.8901629E-01
       -1   -1    0    0    0  501  0.00000000000E+00  0.00000000000E+00  0.33059726951E+03  0.33059726955E+03  0.50400001928E-02 0. -1.
        1   -1    0    0  501    0  0.00000000000E+00  0.00000000000E+00 -0.16439768179E+04  0.16439768179E+04  0.50400001928E-02 0.  1.
    10030    2    1    2    0    0  0.00000000000E+00  0.00000000000E+00 -0.13133795484E+04  0.19745740875E+04  0.14744412463E+04 0.  0.
        4    1    3    3  502    0  0.64676650976E+03 -0.23238234983E+03 -0.29938596753E+03  0.74962793779E+03  0.12699999809E+01 0. -1.
       -4    1    3    3    0  502 -0.64676650976E+03  0.23238234983E+03 -0.10139935809E+04  0.12249461497E+04  0.12699999809E+01 0.  1.
</event>
<event>
 5   0  0.7672251E-04  0.1505041E+04  0.7818609E-02  0.8881108E-01
        2   -1    0    0  501    0  0.00000000000E+00  0.00000000000E+00  0.14921619474E+04  0.14921619474E+04  0.25500000920E-02 0. -1.
       -2   -1    0    0    0  501  0.00000000000E+00  0.00000000000E+00 -0.37950773357E+03  0.37950773358E+03  0.25500000920E-02 0.  1.
    10030    2    1    2    0    0  0.00000000000E+00  0.00000000000E+00  0.11126542139E+04  0.18716696810E+04  0.15050408616E+04 0.  0.
        5    1    3    3  502    0  0.11811572361E+03 -0.61866560267E+03  0.10684225212E+04  0.12402609507E+04  0.46999998093E+01 0. -1.
       -5    1    3    3    0  502 -0.11811572361E+03  0.61866560267E+03  0.44231692701E+02  0.63140873032E+03  0.46999998093E+01 0.  1.
</event>
<event>
 5   0  0.3907345E-04  0.1541917E+04  0.7818609E-02  0.8857047E-01
       -1   -1    0    0    0  501  0.00000000000E+00  0.00000000000E+00  0.49077114956E+03  0.49077114958E+03  0.50400001928E-02 0. -1.
        1   -1    0    0  501    0  0.00000000000E+00  0.00000000000E+00 -0.12111080156E+04  0.12111080156E+04  0.50400001928E-02 0.  1.
    10030    2    1    2    0    0  0.00000000000E+00  0.00000000000E+00 -0.72033686602E+03  0.17018791652E+04  0.15419168241E+04 0.  0.
        5    1    3    3  502    0  0.59902415062E+02 -0.14796284063E+03  0.47231503757E+03  0.49858287802E+03  0.46999998093E+01 0. -1.
       -5    1    3    3    0  502 -0.59902415062E+02  0.14796284063E+03 -0.11926519036E+04  0.12032962872E+04  0.46999998093E+01 0.  1.
</event>
<event>
 5   0  0.3907345E-04  0.1499824E+04  0.7818609E-02  0.8884570E-01
       -1   -1    0    0    0  501  0.00000000000E+00  0.00000000000E+00  0.72772742548E+03  0.72772742550E+03  0.50400001928E-02 0. -1.
        1   -1    0    0  501    0  0.00000000000E+00  0.00000000000E+00 -0.77277333065E+03  0.77277333067E+03  0.50400001928E-02 0.  1.
    10030    2    1    2    0    0  0.00000000000E+00  0.00000000000E+00 -0.45045905177E+02  0.15005007562E+04  0.14998244516E+04 0.  0.
        5    1    3    3  502    0  0.38019898611E+03 -0.35202140429E+03  0.51982472978E+03  0.73396878531E+03  0.46999998093E+01 0. -1.
       -5    1    3    3    0  502 -0.38019898611E+03  0.35202140429E+03 -0.56487063496E+03  0.76653197086E+03  0.46999998093E+01 0.  1.
</event>
<event>
 5   0  0.7634227E-04  0.1469130E+04  0.7818609E-02  0.8905245E-01
        2   -1    0    0  501    0  0.00000000000E+00  0.00000000000E+00  0.48736751826E+03  0.48736751827E+03  0.25500000920E-02 0.  1.
       -2   -1    0    0    0  501  0.00000000000E+00  0.00000000000E+00 -0.11071430654E+04  0.11071430654E+04  0.25500000920E-02 0. -1.
    10030    2    1    2    0    0  0.00000000000E+00  0.00000000000E+00 -0.61977554710E+03  0.15945105836E+04  0.14691297671E+04 0.  0.
        2    1    3    3  502    0  0.54614452554E+03  0.45643151334E+03 -0.50699644687E+03  0.87387010837E+03  0.25500000920E-02 0. -1.
       -2    1    3    3    0  502 -0.54614452554E+03 -0.45643151334E+03 -0.11277910023E+03  0.72064047527E+03  0.25500000920E-02 0.  1.
</event>
<event>
 5   0  0.4086710E-04  0.1298433E+04  0.7818609E-02  0.9030809E-01
       -1   -1    0    0    0  501  0.00000000000E+00  0.00000000000E+00  0.59733881462E+03  0.59733881464E+03  0.50400001928E-02 0.  1.
        1   -1    0    0  501    0  0.00000000000E+00  0.00000000000E+00 -0.70559914883E+03  0.70559914885E+03  0.50400001928E-02 0. -1.
    10030    2    1    2    0    0  0.00000000000E+00  0.00000000000E+00 -0.10826033421E+03  0.13029379635E+04  0.12984325307E+04 0.  0.
        3    1    3    3  502    0  0.62946507042E+03 -0.11788046939E+03  0.52821409221E+02  0.64258243939E+03  0.10100000352E+00 0. -1.
       -3    1    3    3    0  502 -0.62946507042E+03  0.11788046939E+03 -0.16108174343E+03  0.66035552410E+03  0.10100000352E+00 0.  1.
</event>
<event>
 5   0  0.7454828E-04  0.1338704E+04  0.7818609E-02  0.8999423E-01
       -2   -1    0    0    0  501  0.00000000000E+00  0.00000000000E+00  0.37035995383E+03  0.37035995383E+03  0.25500000920E-02 0.  1.
        2   -1    0    0  501    0  0.00000000000E+00  0.00000000000E+00 -0.12097210654E+04  0.12097210654E+04  0.25500000920E-02 0. -1.
    10030    2    1    2    0    0  0.00000000000E+00  0.00000000000E+00 -0.83936111154E+03  0.15800810192E+04  0.13387042062E+04 0.  0.
        3    1    3    3  502    0  0.26201907354E+02  0.14011030692E+03 -0.11915997891E+04  0.12000947902E+04  0.10100000352E+00 0. -1.
       -3    1    3    3    0  502 -0.26201907354E+02 -0.14011030692E+03  0.35223867753E+03  0.37998622896E+03  0.10100000352E+00 0.  1.
</event>
<event>
 5   0  0.2800375E-04  0.1492679E+04  0.7818609E-02  0.8889336E-01
        3   -1    0    0  501    0  0.00000000000E+00  0.00000000000E+00  0.53026202012E+03  0.53026202974E+03  0.10100000352E+00 0. -1.
       -3   -1    0    0    0  501  0.00000000000E+00  0.00000000000E+00 -0.10504669335E+04  0.10504669383E+04  0.10100000352E+00 0.  1.
    10030    2    1    2    0    0  0.00000000000E+00  0.00000000000E+00 -0.52020491336E+03  0.15807289681E+04  0.14926791077E+04 0.  0.
        5    1    3    3  502    0 -0.40369739203E+03  0.61943420950E+03 -0.15246888568E+03  0.75494316033E+03  0.46999998093E+01 0. -1.
       -5    1    3    3    0  502  0.40369739203E+03 -0.61943420950E+03 -0.36773602769E+03  0.82578580775E+03  0.46999998093E+01 0.  1.
</event>
<event>
 5   0  0.7547580E-04  0.1513723E+04  0.7818609E-02  0.8875378E-01
        2   -1    0    0  501    0  0.00000000000E+00  0.00000000000E+00  0.53080646356E+03  0.53080646356E+03  0.25500000920E-02 0.  1.
       -2   -1    0    0    0  501  0.00000000000E+00  0.00000000000E+00 -0.10791866983E+04  0.10791866983E+04  0.25500000920E-02 0. -1.
    10030    2    1    2    0    0  0.00000000000E+00  0.00000000000E+00 -0.54838023472E+03  0.16099931618E+04  0.15137229269E+04 0.  0.
        4    1    3    3  502    0 -0.35450892933E+03 -0.58668105767E+03  0.67101360553E+02  0.68874919230E+03  0.12699999809E+01 0.  1.
       -4    1    3    3    0  502  0.35450892933E+03  0.58668105767E+03 -0.61548159527E+03  0.92124396954E+03  0.12699999809E+01 0. -1.
</event>
<event>
 5   0  0.7547580E-04  0.1506588E+04  0.7818609E-02  0.8880084E-01
        2   -1    0    0  501    0  0.00000000000E+00  0.00000000000E+00  0.25583900002E+04  0.25583900002E+04  0.25500000920E-02 0. -1.
       -2   -1    0    0    0  501  0.00000000000E+00  0.00000000000E+00 -0.22180031963E+03  0.22180031964E+03  0.25500000920E-02 0.  1.
    10030    2    1    2    0    0  0.00000000000E+00  0.00000000000E+00  0.23365896805E+04  0.27801903198E+04  0.15065878266E+04 0.  0.
        4    1    3    3  502    0 -0.22706962839E+03 -0.52092193117E+03  0.20808224174E+04  0.21570219796E+04  0.12699999809E+01 0. -1.
       -4    1    3    3    0  502  0.22706962839E+03  0.52092193117E+03  0.25576726309E+03  0.62316834024E+03  0.12699999809E+01 0.  1.
</event>
<event>
 5   0  0.4015204E-04  0.1493913E+04  0.7818609E-02  0.8888511E-01
       -1   -1    0    0    0  501  0.00000000000E+00  0.00000000000E+00  0.13278533089E+04  0.13278533090E+04  0.50400001928E-02 0.  1.
        1   -1    0    0  501    0  0.00000000000E+00  0.00000000000E+00 -0.42018469836E+03  0.42018469839E+03  0.50400001928E-02 0. -1.
    10030    2    1    2    0    0  0.00000000000E+00  0.00000000000E+00  0.90766861059E+03  0.17480380073E+04  0.14939125036E+04 0.  0.
        2    1    3    3  502    0 -0.26173584618E+03 -0.14416253243E+03  0.12548709931E+04  0.12899572466E+04  0.25500000920E-02 0.  1.
       -2    1    3    3    0  502  0.26173584618E+03  0.14416253243E+03 -0.34720238246E+03  0.45808076070E+03  0.25500000920E-02 0. -1.
</event>
<event>
 5   0  0.7359897E-04  0.1518687E+04  0.7818609E-02  0.8872120E-01
        2   -1    0    0  501    0  0.00000000000E+00  0.00000000000E+00  0.61097747882E+03  0.61097747883E+03  0.25500000920E-02 0. -1.
       -2   -1    0    0    0  501  0.00000000000E+00  0.00000000000E+00 -0.94373813232E+03  0.94373813232E+03  0.25500000920E-02 0.  1.
    10030    2    1    2    0    0  0.00000000000E+00  0.00000000000E+00 -0.33276065349E+03  0.15547156111E+04  0.15186872552E+04 0.  0.
        1    1    3    3  502    0 -0.42511157505E+03 -0.48941458237E+03 -0.57118008825E+03  0.86399836685E+03  0.50400001928E-02 0. -1.
       -1    1    3    3    0  502  0.42511157505E+03  0.48941458237E+03  0.23841943476E+03  0.69071724430E+03  0.50400001928E-02 0.  1.
</event>
<event>
 5   0  0.4084462E-04  0.1510720E+04  0.7818609E-02  0.8877356E-01
        1   -1    0    0  501    0  0.00000000000E+00  0.00000000000E+00  0.99268745445E+03  0.99268745446E+03  0.50400001928E-02 0. -1.
       -1   -1    0    0    0  501  0.00000000000E+00  0.00000000000E+00 -0.57477148004E+03  0.57477148006E+03  0.50400001928E-02 0.  1.
    10030    2    1    2    0    0  0.00000000000E+00  0.00000000000E+00  0.41791597441E+03  0.15674589345E+04  0.15107196132E+04 0.  0.
        1    1    3    3  502    0  0.74681343662E+03  0.73561145823E+02  0.29837407959E+03  0.80756958999E+03  0.50400001928E-02 0. -1.
       -1    1    3    3    0  502 -0.74681343662E+03 -0.73561145823E+02  0.11954189482E+03  0.75988934453E+03  0.50400001928E-02 0.  1.
</event>
<event>
 5   0  0.3907345E-04  0.1497741E+04  0.7818609E-02  0.8885957E-01
       -1   -1    0    0    0  501  0.00000000000E+00  0.00000000000E+00  0.35585498801E+03  0.35585498804E+03  0.50400001928E-02 0. -1.
        1   -1    0    0  501    0  0.00000000000E+00  0.00000000000E+00 -0.15759425430E+04  0.15759425430E+04  0.50400001928E-02 0.  1.
    10030    2    1    2    0    0  0.00000000000E+00  0.00000000000E+00 -0.12200875550E+04  0.19317975310E+04  0.14977409853E+04 0.  0.
        5    1    3    3  502    0 -0.49127526094E+03  0.35499251517E+03 -0.11772861765E+04  0.13241585627E+04  0.46999998093E+01 0. -1.
       -5    1    3    3    0  502  0.49127526094E+03 -0.35499251517E+03 -0.42801378490E+02  0.60763896833E+03  0.46999998093E+01 0.  1.
</event>
<event>
 5   0  0.7359897E-04  0.1476865E+04  0.7818609E-02  0.8899985E-01
        2   -1    0    0  501    0  0.00000000000E+00  0.00000000000E+00  0.57768030972E+03  0.57768030972E+03  0.25500000920E-02 0. -1.
       -2   -1    0    0    0  501  0.00000000000E+00  0.00000000000E+00 -0.94391738917E+03  0.94391738918E+03  0.25500000920E-02 0.  1.
    10030    2    1    2    0    0  0.00000000000E+00  0.00000000000E+00 -0.36623707946E+03  0.15215976989E+04  0.14768649088E+04 0.  0.
        1    1    3    3  502    0 -0.21757271419E+03 -0.28779899948E+03 -0.84692883753E+03  0.92057297697E+03  0.50400001928E-02 0.  1.
       -1    1    3    3    0  502  0.21757271419E+03  0.28779899948E+03  0.48069175808E+03  0.60102472193E+03  0.50400001928E-02 0. -1.
</event>
<event>
 5   0  0.3907345E-04  0.1509303E+04  0.7818609E-02  0.8878290E-01
        1   -1    0    0  501    0  0.00000000000E+00  0.00000000000E+00  0.16374027333E+04  0.16374027333E+04  0.50400001928E-02 0. -1.
       -1   -1    0    0    0  501  0.00000000000E+00  0.00000000000E+00 -0.34780646765E+03  0.34780646769E+03  0.50400001928E-02 0.  1.
    10030    2    1    2    0    0  0.00000000000E+00  0.00000000000E+00  0.12895962657E+04  0.19852092010E+04  0.15093034961E+04 0.  0.
        5    1    3    3  502    0  0.45135905280E+03 -0.35969454544E+02  0.14388587709E+04  0.15084281384E+04  0.46999998093E+01 0. -1.
       -5    1    3    3    0  502 -0.45135905280E+03  0.35969454544E+02 -0.14926250521E+03  0.47678106261E+03  0.46999998093E+01 0.  1.
</event>
<event>
 5   0  0.4086710E-04  0.1500325E+04  0.7818609E-02  0.8884237E-01
       -1   -1    0    0    0  501  0.00000000000E+00  0.00000000000E+00  0.68705968330E+03  0.68705968331E+03  0.50400001928E-02 0. -1.
        1   -1    0    0  501    0  0.00000000000E+00  0.00000000000E+00 -0.81906085644E+03  0.81906085645E+03  0.50400001928E-02 0.  1.
    10030    2    1    2    0    0  0.00000000000E+00  0.00000000000E+00 -0.13200117314E+03  0.15061205398E+04  0.15003248883E+04 0.  0.
        3    1    3    3  502    0  0.58276723194E+03  0.68506820537E+02 -0.53517400110E+03  0.79418011354E+03  0.10100000352E+00 0.  1.
       -3    1    3    3    0  502 -0.58276723194E+03 -0.68506820537E+02  0.40317282796E+03  0.71194042623E+03  0.10100000352E+00 0. -1.
</event>
<event>
 5   0  0.4058874E-04  0.1259181E+04  0.7818609E-02  0.9062576E-01
        1   -1    0    0  501    0  0.00000000000E+00  0.00000000000E+00  0.11325902203E+04  0.11325902203E+04  0.50400001928E-02 0. -1.
       -1   -1    0    0    0  501  0.00000000000E+00  0.00000000000E+00 -0.34998041348E+03  0.34998041351E+03  0.50400001928E-02 0.  1.
    10030    2    1    2    0    0  0.00000000000E+00  0.00000000000E+00  0.78260980686E+03  0.14825706339E+04  0.12591813112E+04 0.  0.
        4    1    3    3  502    0  0.15475129279E+03  0.41119386655E+03 -0.13964547526E+03  0.46101066166E+03  0.12699999809E+01 0.  1.
       -4    1    3    3    0  502 -0.15475129279E+03 -0.41119386655E+03  0.92225528212E+03  0.10215599722E+04  0.12699999809E+01 0. -1.
</event>
<event>
 5   0  0.7672251E-04  0.1509226E+04  0.7818609E-02  0.8878341E-01
       -2   -1    0    0    0  501  0.00000000000E+00  0.00000000000E+00  0.34650953210E+03  0.34650953211E+03  0.25500000920E-02 0. -1.
        2   -1    0    0  501    0  0.00000000000E+00  0.00000000000E+00 -0.16433634079E+04  0.16433634079E+04  0.25500000920E-02 0.  1.
    10030    2    1    2    0    0  0.00000000000E+00  0.00000000000E+00 -0.12968538758E+04  0.19898729400E+04  0.15092264052E+04 0.  0.
        5    1    3    3  502    0  0.57379032401E+03 -0.42853863643E+03 -0.33492349722E+03  0.79061782033E+03  0.46999998093E+01 0. -1.
       -5    1    3    3    0  502 -0.57379032401E+03  0.42853863643E+03 -0.96193037856E+03  0.11992551197E+04  0.46999998093E+01 0.  1.
</event>
<event>
 5   0  0.7359897E-04  0.1501289E+04  0.7818609E-02  0.8883596E-01
        2   -1    0    0  501    0  0.00000000000E+00  0.00000000000E+00  0.11522460553E+04  0.11522460553E+04  0.25500000920E-02 0. -1.
       -2   -1    0    0    0  501  0.00000000000E+00  0.00000000000E+00 -0.48901652512E+03  0.48901652512E+03  0.25500000920E-02 0.  1.
    10030    2    1    2    0    0  0.00000000000E+00  0.00000000000E+00  0.66322953020E+03  0.16412625804E+04  0.15012892620E+04 0.  0.
        1    1    3    3  502    0  0.74968415895E+03  0.17091143551E+02  0.29455881500E+03  0.80565708642E+03  0.50400001928E-02 0. -1.
       -1    1    3    3    0  502 -0.74968415895E+03 -0.17091143551E+02  0.36867071520E+03  0.83560549403E+03  0.50400001928E-02 0.  1.
</event>
<event>
 5   0  0.4015204E-04  0.1503794E+04  0.7818609E-02  0.8881934E-01
       -1   -1    0    0    0  501  0.00000000000E+00  0.00000000000E+00  0.51902974064E+03  0.51902974066E+03  0.50400001928E-02 0.  1.
        1   -1    0    0  501    0  0.00000000000E+00  0.00000000000E+00 -0.10892421511E+04  0.10892421511E+04  0.50400001928E-02 0. -1.
    10030    2    1    2    0    0  0.00000000000E+00  0.00000000000E+00 -0.57021241049E+03  0.16082718918E+04  0.15037939636E+04 0.  0.
        2    1    3    3  502    0 -0.52748868434E+02 -0.92855812032E+00 -0.10872602629E+04  0.10885394731E+04  0.25500000920E-02 0. -1.
       -2    1    3    3    0  502  0.52748868434E+02  0.92855812032E+00  0.51704785239E+03  0.51973241866E+03  0.25500000920E-02 0.  1.
</event>
<event>
 5   0  0.3907345E-04  0.1508687E+04  0.7818609E-02  0.8878697E-01
       -1   -1    0    0    0  501  0.00000000000E+00  0.00000000000E+00  0.12145738183E+04  0.12145738183E+04  0.50400001928E-02 0.  1.
        1   -1    0    0  501    0  0.00000000000E+00  0.00000000000E+00 -0.46850525376E+03  0.46850525379E+03  0.50400001928E-02 0. -1.
    10030    2    1    2    0    0  0.00000000000E+00  0.00000000000E+00  0.74606856456E+03  0.16830790721E+04  0.15086871312E+04 0.  0.
        5    1    3    3  502    0 -0.35803258024E+03  0.65369837505E+03  0.24339871223E+03  0.78407519867E+03  0.46999998093E+01 0.  1.
       -5    1    3    3    0  502  0.35803258024E+03 -0.65369837505E+03  0.50266985233E+03  0.89900387346E+03  0.46999998093E+01 0. -1.
</event>
<event>
 5   0  0.7454828E-04  0.1491328E+04  0.7818609E-02  0.8890241E-01
       -2   -1    0    0    0  501  0.00000000000E+00  0.00000000000E+00  0.30997916034E+03  0.30997916035E+03  0.25500000920E-02 0.  1.
        2   -1    0    0  501    0  0.00000000000E+00  0.00000000000E+00 -0.17937156992E+04  0.17937156992E+04  0.25500000920E-02 0. -1.
    10030    2    1    2    0    0  0.00000000000E+00  0.00000000000E+00 -0.14837365388E+04  0.21036948595E+04  0.14913275781E+04 0.  0.
        3    1    3    3  502    0 -0.22735770534E+03 -0.31271224094E+03  0.15754260795E+03  0.41749270093E+03  0.10100000352E+00 0.  1.
       -3    1    3    3    0  502  0.22735770534E+03  0.31271224094E+03 -0.16412791468E+04  0.16862021586E+04  0.10100000352E+00 0. -1.
</event>
<event>
 5   0  0.7359897E-04  0.1493984E+04  0.7818609E-02  0.8888463E-01
       -2   -1    0    0    0  501  0.00000000000E+00  0.00000000000E+00  0.13222628859E+04  0.13222628859E+04  0.25500000920E-02 0. -1.
        2   -1    0    0  501    0  0.00000000000E+00  0.00000000000E+00 -0.42200170223E+03  0.42200170224E+03  0.25500000920E-02 0.  1.
    10030    2    1    2    0    0  0.00000000000E+00  0.00000000000E+00  0.90026118364E+03  0.17442645881E+04  0.14939841882E+04 0.  0.
        1    1    3    3  502    0 -0.72742614258E+03 -0.12988744647E+03  0.32235375966E+03  0.80618328441E+03  0.50400001928E-02 0.  1.
       -1    1    3    3    0  502  0.72742614258E+03  0.12988744647E+03  0.57790742397E+03  0.93808130371E+03  0.50400001928E-02 0. -1.
</event>
<event>
 5   0  0.2800375E-04  0.1501046E+04  0.7818609E-02  0.8883757E-01
       -3   -1    0    0    0  501  0.00000000000E+00  0.00000000000E+00  0.47662807997E+03  0.47662809067E+03  0.10100000352E+00 0. -1.
        3   -1    0    0  501    0  0.00000000000E+00  0.00000000000E+00 -0.11818126688E+04  0.11818126731E+04  0.10100000352E+00 0.  1.
    10030    2    1    2    0    0  0.00000000000E+00  0.00000000000E+00 -0.70518458879E+03  0.16584407637E+04  0.15010464558E+04 0.  0.
        2    1    3    3  502    0 -0.38455988996E+03  0.42430442958E+03 -0.88860657851E+03  0.10571386897E+04  0.25500000920E-02 0.  1.
       -2    1    3    3    0  502  0.38455988996E+03 -0.42430442958E+03  0.18342198971E+03  0.60130207403E+03  0.25500000920E-02 0. -1.
</event>
<event>
 5   0  0.4015204E-04  0.1503130E+04  0.7818609E-02  0.8882374E-01
        1   -1    0    0  501    0  0.00000000000E+00  0.00000000000E+00  0.33555156656E+03  0.33555156659E+03  0.50400001928E-02 0. -1.
       -1   -1    0    0    0  501  0.00000000000E+00  0.00000000000E+00 -0.16833480034E+04  0.16833480034E+04  0.50400001928E-02 0.  1.
    10030    2    1    2    0    0  0.00000000000E+00  0.00000000000E+00 -0.13477964368E+04  0.20188995700E+04  0.15031301469E+04 0.  0.
        2    1    3    3  502    0 -0.21619109196E+03 -0.68077946562E+03 -0.98788860741E+03  0.12190665157E+04  0.25500000920E-02 0.  1.
       -2    1    3    3    0  502  0.21619109196E+03  0.68077946562E+03 -0.35990782944E+03  0.79983305430E+03  0.25500000920E-02 0. -1.
</event>
<event>
 5   0  0.3907345E-04  0.1517109E+04  0.7818609E-02  0.8873155E-01
       -1   -1    0    0    0  501  0.00000000000E+00  0.00000000000E+00  0.27286118701E+03  0.27286118706E+03  0.50400001928E-02 0.  1.
        1   -1    0    0  501    0  0.00000000000E+00  0.00000000000E+00 -0.21087830182E+04  0.21087830182E+04  0.50400001928E-02 0. -1.
    10030    2    1    2    0    0  0.00000000000E+00  0.00000000000E+00 -0.18359218312E+04  0.23816442053E+04  0.15171091425E+04 0.  0.
        5    1    3    3  502    0 -0.22608859248E+03  0.41628664222E+03  0.12068093008E+02  0.47389698143E+03  0.46999998093E+01 0.  1.
       -5    1    3    3    0  502  0.22608859248E+03 -0.41628664222E+03 -0.18479899242E+04  0.19077472239E+04  0.46999998093E+01 0. -1.
</event>
<event>
 5   0  0.4015204E-04  0.1572596E+04  0.7818609E-02  0.8837563E-01
        1   -1    0    0  501    0  0.00000000000E+00  0.00000000000E+00  0.79716261608E+03  0.79716261609E+03  0.50400001928E-02 0.  1.
       -1   -1    0    0    0  501  0.00000000000E+00  0.00000000000E+00 -0.77558127745E+03  0.77558127747E+03  0.50400001928E-02 0. -1.
    10030    2    1    2    0    0  0.00000000000E+00  0.00000000000E+00  0.21581338623E+02  0.15727438936E+04  0.15725958160E+04 0.  0.
        2    1    3    3  502    0 -0.58426524761E+03 -0.52108950494E+03 -0.62457256704E+02  0.78536683190E+03  0.25500000920E-02 0. -1.
       -2    1    3    3    0  502  0.58426524761E+03  0.52108950494E+03  0.84038595326E+02  0.78737706166E+03  0.25500000920E-02 0.  1.
</event>
<event>
 5   0  0.3907345E-04  0.1509380E+04  0.7818609E-02  0.8878239E-01
        1   -1    0    0  501    0  0.00000000000E+00  0.00000000000E+00  0.94561076221E+03  0.94561076222E+03  0.50400001928E-02 0.  1.
       -1   -1    0    0    0  501  0.00000000000E+00  0.00000000000E+00 -0.60231634266E+03  0.60231634268E+03  0.50400001928E-02 0. -1.
    10030    2    1    2    0    0  0.00000000000E+00  0.00000000000E+00  0.34329441955E+03  0.15479271049E+04  0.15093797612E+04 0.  0.
        5    1    3    3  502    0 -0.43744796971E+02 -0.70582725876E+03  0.44187028734E+03  0.83389277926E+03  0.46999998093E+01 0. -1.
       -5    1    3    3    0  502  0.43744796971E+02  0.70582725876E+03 -0.98575867789E+02  0.71403432564E+03  0.46999998093E+01 0.  1.
</event>
<event>
 5   0  0.4015204E-04  0.1518110E+04  0.7818609E-02  0.8872498E-01
        1   -1    0    0  501    0  0.00000000000E+00  0.00000000000E+00  0.10551873689E+04  0.10551873689E+04  0.50400001928E-02 0. -1.
       -1   -1    0    0    0  501  0.00000000000E+00  0.00000000000E+00 -0.54603073039E+03  0.54603073042E+03  0.50400001928E-02 0.  1.
    10030    2    1    2    0    0  0.00000000000E+00  0.00000000000E+00  0.50915663847E+03  0.16012180993E+04  0.15181103119E+04 0.  0.
        2    1    3    3  502    0 -0.70551074662E+03 -0.13079908739E+03 -0.65873326761E+01  0.71756338243E+03  0.25500000920E-02 0.  1.
       -2    1    3    3    0  502  0.70551074662E+03  0.13079908739E+03  0.51574397115E+03  0.88365471686E+03  0.25500000920E-02 0. -1.
</event>
<event>
 5   0  0.7454828E-04  0.1608901E+04  0.7818609E-02  0.8815099E-01
        2   -1    0    0  501    0  0.00000000000E+00  0.00000000000E+00  0.14083608687E+04  0.14083608687E+04  0.25500000920E-02 0.  1.
       -2   -1    0    0    0  501  0.00000000000E+00  0.00000000000E+00 -0.45949901152E+03  0.45949901153E+03  0.25500000920E-02 0. -1.
    10030    2    1    2    0    0  0.00000000000E+00  0.00000000000E+00  0.94886185715E+03  0.18678598802E+04  0.16089007763E+04 0.  0.
        3    1    3    3  502    0 -0.51115452930E+03 -0.12518607531E+03  0.11807929191E+04  0.12927576858E+04  0.10100000352E+00 0.  1.
       -3    1    3    3    0  502  0.51115452930E+03  0.12518607531E+03 -0.23193106195E+03  0.57510219437E+03  0.10100000352E+00 0. -1.
</event>
<event>
 5   0  0.7634227E-04  0.1495386E+04  0.7818609E-02  0.8887527E-01
        2   -1    0    0  501    0  0.00000000000E+00  0.00000000000E+00  0.13483069644E+04  0.13483069644E+04  0.25500000920E-02 0.  1.
       -2   -1    0    0    0  501  0.00000000000E+00  0.00000000000E+00 -0.41462737636E+03  0.41462737637E+03  0.25500000920E-02 0. -1.
    10030    2    1    2    0    0  0.00000000000E+00  0.00000000000E+00  0.93367958804E+03  0.17629343408E+04  0.14953862099E+04 0.  0.
        2    1    3    3  502    0 -0.67567411919E+03 -0.27819611723E+03  0.65367612279E+03  0.98041882300E+03  0.25500000920E-02 0. -1.
       -2    1    3    3    0  502  0.67567411919E+03  0.27819611723E+03  0.28000346524E+03  0.78251551776E+03  0.25500000920E-02 0.  1.
</event>
<event>
 5   0  0.7359897E-04  0.1493686E+04  0.7818609E-02  0.8888662E-01
       -2   -1    0    0    0  501  0.00000000000E+00  0.00000000000E+00  0.51368324960E+03  0.51368324961E+03  0.25500000920E-02 0.  1.
        2   -1    0    0  501    0  0.00000000000E+00  0.00000000000E+00 -0.10858341765E+04  0.10858341765E+04  0.25500000920E-02 0. -1.
    10030    2    1    2    0    0  0.00000000000E+00  0.00000000000E+00 -0.57215092692E+03  0.15995174261E+04  0.14936864843E+04 0.  0.
        1    1    3    3  502    0 -0.65520416835E+03  0.32845561507E+03 -0.43976881132E+03  0.85473516409E+03  0.50400001928E-02 0. -1.
       -1    1    3    3    0  502  0.65520416835E+03 -0.32845561507E+03 -0.13238211560E+03  0.74478226204E+03  0.50400001928E-02 0.  1.
</event>
<event>
 5   0  0.4015204E-04  0.1500847E+04  0.7818609E-02  0.8883890E-01
        1   -1    0    0  501    0  0.00000000000E+00  0.00000000000E+00  0.74314195103E+03  0.74314195105E+03  0.50400001928E-02 0. -1.
       -1   -1    0    0    0  501  0.00000000000E+00  0.00000000000E+00 -0.75777625450E+03  0.75777625452E+03  0.50400001928E-02 0.  1.
    10030    2    1    2    0    0  0.00000000000E+00  0.00000000000E+00 -0.14634303465E+02  0.15009182056E+04  0.15008468599E+04 0.  0.
        2    1    3    3  502    0  0.40087815643E+03  0.26649108966E+02  0.62652829242E+03  0.74427896149E+03  0.25500000920E-02 0. -1.
       -2    1    3    3    0  502 -0.40087815643E+03 -0.26649108966E+02 -0.64116259588E+03  0.75663924408E+03  0.25500000920E-02 0.  1.
</event>
<event>
 5   0  0.7547580E-04  0.1490642E+04  0.7818609E-02  0.8890700E-01
       -2   -1    0    0    0  501  0.00000000000E+00  0.00000000000E+00  0.22643441030E+03  0.22643441031E+03  0.25500000920E-02 0.  1.
        2   -1    0    0  501    0  0.00000000000E+00  0.00000000000E+00 -0.24532641151E+04  0.24532641151E+04  0.25500000920E-02 0. -1.
    10030    2    1    2    0    0  0.00000000000E+00  0.00000000000E+00 -0.22268297048E+04  0.26796985254E+04  0.14906420271E+04 0.  0.
        4    1    3    3  502    0  0.13270799298E+03 -0.44382459311E+03 -0.63793825742E+02  0.46761409939E+03  0.12699999809E+01 0.  1.
       -4    1    3    3    0  502 -0.13270799298E+03  0.44382459311E+03 -0.21630358790E+04  0.22120844260E+04  0.12699999809E+01 0. -1.
</event>
<event>
 5   0  0.4084462E-04  0.1518247E+04  0.7818609E-02  0.8872409E-01
       -1   -1    0    0    0  501  0.00000000000E+00  0.00000000000E+00  0.61504472018E+03  0.61504472020E+03  0.50400001928E-02 0.  1.
        1   -1    0    0  501    0  0.00000000000E+00  0.00000000000E+00 -0.93695413773E+03  0.93695413774E+03  0.50400001928E-02 0. -1.
    10030    2    1    2    0    0  0.00000000000E+00  0.00000000000E+00 -0.32190941755E+03  0.15519988579E+04  0.15182472730E+04 0.  0.
        1    1    3    3  502    0 -0.13626460409E+03 -0.25579146279E+03 -0.87817271044E+03  0.92476192837E+03  0.50400001928E-02 0. -1.
       -1    1    3    3    0  502  0.13626460409E+03  0.25579146279E+03  0.55626329289E+03  0.62723692957E+03  0.50400001928E-02 0.  1.
</event>
<event>
 5   0  0.4058874E-04  0.1498159E+04  0.7818609E-02  0.8885678E-01
        1   -1    0    0  501    0  0.00000000000E+00  0.00000000000E+00  0.48844782503E+03  0.48844782505E+03  0.50400001928E-02 0. -1.
       -1   -1    0    0    0  501  0.00000000000E+00  0.00000000000E+00 -0.11487817839E+04  0.11487817839E+04  0.50400001928E-02 0.  1.
    10030    2    1    2    0    0  0.00000000000E+00  0.00000000000E+00 -0.66033395887E+03  0.16372296090E+04  0.14981588218E+04 0.  0.
        4    1    3    3  502    0 -0.44283685893E+02  0.52550406795E+03 -0.91152957426E+03  0.10530922789E+04  0.12699999809E+01 0.  1.
       -4    1    3    3    0  502  0.44283685893E+02 -0.52550406795E+03  0.25119561538E+03  0.58413733005E+03  0.12699999809E+01 0. -1.
</event>
<event>
 5   0  0.7454828E-04  0.1496205E+04  0.7818609E-02  0.8886981E-01
       -2   -1    0    0    0  501  0.00000000000E+00  0.00000000000E+00  0.54078672561E+03  0.54078672562E+03  0.25500000920E-02 0. -1.
        2   -1    0    0  501    0  0.00000000000E+00  0.00000000000E+00 -0.10348941422E+04  0.10348941422E+04  0.25500000920E-02 0.  1.
    10030    2    1    2    0    0  0.00000000000E+00  0.00000000000E+00 -0.49410741654E+03  0.15756808678E+04  0.14962045509E+04 0.  0.
        3    1    3    3  502    0  0.23517546813E+02  0.33196169189E+03 -0.95264739778E+03  0.10091029257E+04  0.10100000352E+00 0.  1.
       -3    1    3    3    0  502 -0.23517546813E+02 -0.33196169189E+03  0.45853998124E+03  0.56657794211E+03  0.10100000352E+00 0. -1.
</event>
<event>
 5   0  0.3907345E-04  0.1481425E+04  0.7818609E-02  0.8896900E-01
        1   -1    0    0  501    0  0.00000000000E+00  0.00000000000E+00  0.23587063388E+03  0.23587063393E+03  0.50400001928E-02 0.  1.
       -1   -1    0    0    0  501  0.00000000000E+00  0.00000000000E+00 -0.23260845909E+04  0.23260845909E+04  0.50400001928E-02 0. -1.
    10030    2    1    2    0    0  0.00000000000E+00  0.00000000000E+00 -0.20902139570E+04  0.25619552248E+04  0.14814250531E+04 0.  0.
        5    1    3    3  502    0 -0.43651865818E+03  0.32313289047E+02 -0.20784641341E+04  0.21240593058E+04  0.46999998093E+01 0. -1.
       -5    1    3    3    0  502  0.43651865818E+03 -0.32313289047E+02 -0.11749822884E+02  0.43789591905E+03  0.46999998093E+01 0.  1.
</event>
<event>
 5   0  0.7454828E-04  0.1498577E+04  0.7818609E-02  0.8885400E-01
       -2   -1    0    0    0  501  0.00000000000E+00  0.00000000000E+00  0.54490756012E+03  0.54490756012E+03  0.25500000920E-02 0.  1.
        2   -1    0    0  501    0  0.00000000000E+00  0.00000000000E+00 -0.10303269149E+04  0.10303269149E+04  0.25500000920E-02 0. -1.
    10030    2    1    2    0    0  0.00000000000E+00  0.00000000000E+00 -0.48541935481E+03  0.15752344751E+04  0.14985765584E+04 0.  0.
        3    1    3    3  502    0 -0.53730328397E+02 -0.56457004190E+03 -0.75746028808E+03  0.94624118417E+03  0.10100000352E+00 0. -1.
       -3    1    3    3    0  502  0.53730328397E+02  0.56457004190E+03  0.27204093327E+03  0.62899329089E+03  0.10100000352E+00 0.  1.
</event>
<event>
 5   0  0.4058874E-04  0.1513640E+04  0.7818609E-02  0.8875433E-01
        1   -1    0    0  501    0  0.00000000000E+00  0.00000000000E+00  0.82880985592E+03  0.82880985594E+03  0.50400001928E-02 0.  1.
       -1   -1    0    0    0  501  0.00000000000E+00  0.00000000000E+00 -0.69108339548E+03  0.69108339550E+03  0.50400001928E-02 0. -1.
    10030    2    1    2    0    0  0.00000000000E+00  0.00000000000E+00  0.13772646044E+03  0.15198932514E+04  0.15136402868E+04 0.  0.
        4    1    3    3  502    0 -0.96458889111E+02 -0.43610487116E+02  0.82133799876E+03  0.82813278704E+03  0.12699999809E+01 0.  1.
       -4    1    3    3    0  502  0.96458889111E+02  0.43610487116E+02 -0.68361153832E+03  0.69176046439E+03  0.12699999809E+01 0. -1.
</event>
<event>
 5   0  0.3907345E-04  0.1517158E+04  0.7818609E-02  0.8873123E-01
        1   -1    0    0  501    0  0.00000000000E+00  0.00000000000E+00  0.13287976171E+04  0.13287976172E+04  0.50400001928E-02 0. -1.
       -1   -1    0    0    0  501  0.00000000000E+00  0.00000000000E+00 -0.43305473184E+03  0.43305473187E+03  0.50400001928E-02 0.  1.
    10030    2    1    2    0    0  0.00000000000E+00  0.00000000000E+00  0.89574288531E+03  0.17618523490E+04  0.15171579955E+04 0.  0.
        5    1    3    3  502    0  0.34978594318E+03 -0.39447249891E+02  0.12281940200E+04  0.12776497690E+04  0.46999998093E+01 0. -1.
       -5    1    3    3    0  502 -0.34978594318E+03  0.39447249891E+02 -0.33245113465E+03  0.48420258002E+03  0.46999998093E+01 0.  1.
</event>
<event>
 5   0  0.7672251E-04  0.1498192E+04  0.7818609E-02  0.8885656E-01
       -2   -1    0    0    0  501  0.00000000000E+00  0.00000000000E+00  0.32321049190E+03  0.32321049191E+03  0.25500000920E-02 0.  1.
        2   -1    0    0  501    0  0.00000000000E+00  0.00000000000E+00 -0.17361595907E+04  0.17361595907E+04  0.25500000920E-02 0. -1.
    10030    2    1    2    0    0  0.00000000000E+00  0.00000000000E+00 -0.14129490988E+04  0.20593700826E+04  0.14981922378E+04 0.  0.
        5    1    3    3  502    0  0.11013188146E+03 -0.60776977616E+03 -0.12392638403E+03  0.62999442123E+03  0.46999998093E+01 0.  1.
       -5    1    3    3    0  502 -0.11013188146E+03  0.60776977616E+03 -0.12890227147E+04  0.14293756613E+04  0.46999998093E+01 0. -1.
</event>
<event>
 5   0  0.4084462E-04  0.1478724E+04  0.7818609E-02  0.8898726E-01
       -1   -1    0    0    0  501  0.00000000000E+00  0.00000000000E+00  0.82871176642E+03  0.82871176644E+03  0.50400001928E-02 0.  1.
        1   -1    0    0  501    0  0.00000000000E+00  0.00000000000E+00 -0.65964604467E+03  0.65964604469E+03  0.50400001928E-02 0. -1.
    10030    2    1    2    0    0  0.00000000000E+00  0.00000000000E+00  0.16906572175E+03  0.14883578111E+04  0.14787243677E+04 0.  0.
        1    1    3    3  502    0  0.72317416909E+02 -0.35865386388E+03  0.73120898763E+03  0.81763621892E+03  0.50400001928E-02 0.  1.
       -1    1    3    3    0  502 -0.72317416909E+02  0.35865386388E+03 -0.56214326588E+03  0.67072159221E+03  0.50400001928E-02 0. -1.
</event>
<event>
 5   0  0.7672251E-04  0.1487609E+04  0.7818609E-02  0.8892735E-01
        2   -1    0    0  501    0  0.00000000000E+00  0.00000000000E+00  0.13837090158E+04  0.13837090158E+04  0.25500000920E-02 0.  1.
       -2   -1    0    0    0  501  0.00000000000E+00  0.00000000000E+00 -0.39982759363E+03  0.39982759364E+03  0.25500000920E-02 0. -1.
    10030    2    1    2    0    0  0.00000000000E+00  0.00000000000E+00  0.98388142220E+03  0.17835366095E+04  0.14876088815E+04 0.  0.
        5    1    3    3  502    0  0.55445743453E+03  0.22435337637E+03 -0.38123267286E+02  0.59936045724E+03  0.46999998093E+01 0. -1.
       -5    1    3    3    0  502 -0.55445743453E+03 -0.22435337637E+03  0.10220046895E+04  0.11841761522E+04  0.46999998093E+01 0.  1.
</event>
<event>
 5   0  0.4015204E-04  0.1492178E+04  0.7818609E-02  0.8889671E-01
       -1   -1    0    0    0  501  0.00000000000E+00  0.00000000000E+00  0.58840649522E+03  0.58840649524E+03  0.50400001928E-02 0. -1.
        1   -1    0    0  501    0  0.00000000000E+00  0.00000000000E+00 -0.94602717043E+03  0.94602717044E+03  0.50400001928E-02 0.  1.
    10030    2    1    2    0    0  0.00000000000E+00  0.00000000000E+00 -0.35762067521E+03  0.15344336657E+04  0.14921776459E+04 0.  0.
        2    1    3    3  502    0 -0.58774199429E+02  0.68070440672E+03 -0.48702401838E+03  0.83905023111E+03  0.25500000920E-02 0.  1.
       -2    1    3    3    0  502  0.58774199429E+02 -0.68070440672E+03  0.12940334317E+03  0.69538343457E+03  0.25500000920E-02 0. -1.
</event>
<event>
 5   0  0.4086710E-04  0.1451463E+04  0.7818609E-02  0.8917387E-01
        1   -1    0    0  501    0  0.00000000000E+00  0.00000000000E+00  0.97801845333E+03  0.97801845334E+03  0.50400001928E-02 0.  1.
       -1   -1    0    0    0  501  0.00000000000E+00  0.00000000000E+00 -0.53852401410E+03  0.53852401413E+03  0.50400001928E-02 0. -1.
    10030    2    1    2    0    0  0.00000000000E+00  0.00000000000E+00  0.43949443922E+03  0.15165424675E+04  0.14514632939E+04 0.  0.
        3    1    3    3  502    0  0.34857987733E+03  0.39382553767E+03 -0.30275475596E+03  0.60685001232E+03  0.10100000352E+00 0. -1.
       -3    1    3    3    0  502 -0.34857987733E+03 -0.39382553767E+03  0.74224919518E+03  0.90969245515E+03  0.10100000352E+00 0.  1.
</event>
<event>
 5   0  0.3907345E-04  0.1495985E+04  0.7818609E-02  0.8887127E-01
        1   -1    0    0  501    0  0.00000000000E+00  0.00000000000E+00  0.20035770127E+04  0.20035770128E+04  0.50400001928E-02 0.  1.
       -1   -1    0    0    0  501  0.00000000000E+00  0.00000000000E+00 -0.27924686658E+03  0.27924686663E+03  0.50400001928E-02 0. -1.
    10030    2    1    2    0    0  0.00000000000E+00  0.00000000000E+00  0.17243301462E+04  0.22828238794E+04  0.14959847631E+04 0.  0.
        5    1    3    3  502    0 -0.54359950768E+03  0.21465551826E+03  0.14985846706E+03  0.60337141664E+03  0.46999998093E+01 0. -1.
       -5    1    3    3    0  502  0.54359950768E+03 -0.21465551826E+03  0.15744716791E+04  0.16794524627E+04  0.46999998093E+01 0.  1.
</event>
<event>
 5   0  0.7634227E-04  0.1443619E+04  0.7818609E-02  0.8922836E-01
       -2   -1    0    0    0  501  0.00000000000E+00  0.00000000000E+00  0.80934779662E+03  0.80934779662E+03  0.25500000920E-02 0.  1.
        2   -1    0    0  501    0  0.00000000000E+00  0.00000000000E+00 -0.64373959074E+03  0.64373959075E+03  0.25500000920E-02 0. -1.
    10030    2    1    2    0    0  0.00000000000E+00  0.00000000000E+00  0.16560820588E+03  0.14530873874E+04  0.14436193672E+04 0.  0.
        2    1    3    3  502    0  0.34625297766E+03  0.12485437893E+03 -0.54217835685E+03  0.65531451313E+03  0.25500000920E-02 0. -1.
       -2    1    3    3    0  502 -0.34625297766E+03 -0.12485437893E+03  0.70778656273E+03  0.79777287423E+03  0.25500000920E-02 0.  1.
</event>
<event>
 5   0  0.7359897E-04  0.1447165E+04  0.7818609E-02  0.8920369E-01
        2   -1    0    0  501    0  0.00000000000E+00  0.00000000000E+00  0.10192369240E+04  0.10192369240E+04  0.25500000920E-02 0.  1.
       -2   -1    0    0    0  501  0.00000000000E+00  0.00000000000E+00 -0.51368949753E+03  0.51368949754E+03  0.25500000920E-02 0. -1.
    10030    2    1    2    0    0  0.00000000000E+00  0.00000000000E+00  0.50554742647E+03  0.15329264216E+04  0.14471645426E+04 0.  0.
        1    1    3    3  502    0 -0.43265792312E+03  0.43706671632E+03 -0.15106929982E+03  0.63327886932E+03  0.50400001928E-02 0. -1.
       -1    1    3    3    0  502  0.43265792312E+03 -0.43706671632E+03  0.65661672629E+03  0.89964755223E+03  0.50400001928E-02 0.  1.
</event>
<event>
 5   0  0.4084462E-04  0.1503194E+04  0.7818609E-02  0.8882332E-01
       -1   -1    0    0    0  501  0.00000000000E+00  0.00000000000E+00  0.23621168966E+03  0.23621168972E+03  0.50400001928E-02 0. -1.
        1   -1    0    0  501    0  0.00000000000E+00  0.00000000000E+00 -0.23914908540E+04  0.23914908540E+04  0.50400001928E-02 0.  1.
    10030    2    1    2    0    0  0.00000000000E+00  0.00000000000E+00 -0.21552791643E+04  0.26277025437E+04  0.15031940600E+04 0.  0.
        1    1    3    3  502    0  0.65774731219E+03  0.34881158827E+03 -0.89768888515E+03  0.11662531395E+04  0.50400001928E-02 0. -1.
       -1    1    3    3    0  502 -0.65774731219E+03 -0.34881158827E+03 -0.12575902791E+04  0.14614494042E+04  0.50400001928E-02 0.  1.
</event>
<event>
 5   0  0.4086710E-04  0.1468343E+04  0.7818609E-02  0.8905782E-01
        1   -1    0    0  501    0  0.00000000000E+00  0.00000000000E+00  0.11747811320E+04  0.11747811320E+04  0.50400001928E-02 0. -1.
       -1   -1    0    0    0  501  0.00000000000E+00  0.00000000000E+00 -0.45881520910E+03  0.45881520913E+03  0.50400001928E-02 0.  1.
    10030    2    1    2    0    0  0.00000000000E+00  0.00000000000E+00  0.71596592290E+03  0.16335963411E+04  0.14683425360E+04 0.  0.
        3    1    3    3  502    0 -0.70416938600E+03  0.10579834933E+03  0.55687537320E+03  0.90396792331E+03  0.10100000352E+00 0. -1.
       -3    1    3    3    0  502  0.70416938600E+03 -0.10579834933E+03  0.15909054970E+03  0.72962841783E+03  0.10100000352E+00 0.  1.
</event>
<event>
 5   0  0.4086710E-04  0.1506344E+04  0.7818609E-02  0.8880245E-01
        1   -1    0    0  501    0  0.00000000000E+00  0.00000000000E+00  0.10863949725E+04  0.10863949725E+04  0.50400001928E-02 0.  1.
       -1   -1    0    0    0  501  0.00000000000E+00  0.00000000000E+00 -0.52215633763E+03  0.52215633765E+03  0.50400001928E-02 0. -1.
    10030    2    1    2    0    0  0.00000000000E+00  0.00000000000E+00  0.56423863484E+03  0.16085513101E+04  0.15063439449E+04 0.  0.
        3    1    3    3  502    0  0.38186719818E+03  0.13885015130E+03 -0.39507529790E+03  0.56673311424E+03  0.10100000352E+00 0.  1.
       -3    1    3    3    0  502 -0.38186719818E+03 -0.13885015130E+03  0.95931393274E+03  0.10418181959E+04  0.10100000352E+00 0. -1.
</event>
<event>
 5   0  0.4015204E-04  0.1505458E+04  0.7818609E-02  0.8880831E-01
       -1   -1    0    0    0  501  0.00000000000E+00  0.00000000000E+00  0.72320082577E+03  0.72320082579E+03  0.50400001928E-02 0.  1.
        1   -1    0    0  501    0  0.00000000000E+00  0.00000000000E+00 -0.78346307135E+03  0.78346307136E+03  0.50400001928E-02 0. -1.
    10030    2    1    2    0    0  0.00000000000E+00  0.00000000000E+00 -0.60262245580E+02  0.15066638971E+04  0.15054582561E+04 0.  0.
        2    1    3    3  502    0  0.34379696201E+03  0.13474047819E+03  0.62632846981E+03  0.72707544289E+03  0.25500000920E-02 0.  1.
       -2    1    3    3    0  502 -0.34379696201E+03 -0.13474047819E+03 -0.68659071539E+03  0.77958845426E+03  0.25500000920E-02 0. -1.
</event>
<event>
 5   0  0.7359897E-04  0.1522100E+04  0.7818609E-02  0.8869888E-01
       -2   -1    0    0    0  501  0.00000000000E+00  0.00000000000E+00  0.37361057798E+03  0.37361057799E+03  0.25500000920E-02 0. -1.
        2   -1    0    0  501    0  0.00000000000E+00  0.00000000000E+00 -0.15502691951E+04  0.15502691951E+04  0.25500000920E-02 0.  1.
    10030    2    1    2    0    0  0.00000000000E+00  0.00000000000E+00 -0.11766586171E+04  0.19238797731E+04  0.15220998259E+04 0.  0.
        1    1    3    3  502    0 -0.70773660648E+03 -0.24673800742E+03 -0.75518322599E+03  0.10639889348E+04  0.50400001928E-02 0.  1.
       -1    1    3    3    0  502  0.70773660648E+03  0.24673800742E+03 -0.42147539109E+03  0.85989083829E+03  0.50400001928E-02 0. -1.
</event>
<event>
 5   0  0.7454828E-04  0.1393878E+04  0.7818609E-02  0.8958262E-01
        2   -1    0    0  501    0  0.00000000000E+00  0.00000000000E+00  0.21013977470E+04  0.21013977470E+04  0.25500000920E-02 0. -1.
       -2   -1    0    0    0  501  0.00000000000E+00  0.00000000000E+00 -0.23114320594E+03  0.23114320595E+03  0.25500000920E-02 0.  1.
    10030    2    1    2    0    0  0.00000000000E+00  0.00000000000E+00  0.18702545411E+04  0.23325409530E+04  0.13938777740E+04 0.  0.
        3    1    3    3  502    0 -0.16553682583E+03  0.66929879262E+03  0.76479588466E+03  0.10296970768E+04  0.10100000352E+00 0.  1.
       -3    1    3    3    0  502  0.16553682583E+03 -0.66929879262E+03  0.11054586564E+04  0.13028438762E+04  0.10100000352E+00 0. -1.
</event>
<event>
 5   0  0.4086710E-04  0.1514988E+04  0.7818609E-02  0.8874547E-01
        1   -1    0    0  501    0  0.00000000000E+00  0.00000000000E+00  0.94767648055E+03  0.94767648056E+03  0.50400001928E-02 0.  1.
       -1   -1    0    0    0  501  0.00000000000E+00  0.00000000000E+00 -0.60547808009E+03  0.60547808011E+03  0.50400001928E-02 0. -1.
    10030    2    1    2    0    0  0.00000000000E+00  0.00000000000E+00  0.34219840045E+03  0.15531545607E+04  0.15149882323E+04 0.  0.
        3    1    3    3  502    0 -0.12988527101E+03 -0.44685124013E+03  0.78386174495E+03  0.91158403882E+03  0.10100000352E+00 0.  1.
       -3    1    3    3    0  502  0.12988527101E+03  0.44685124013E+03 -0.44166334450E+03  0.64157052185E+03  0.10100000352E+00 0. -1.
</event>
<event>
 5   0  0.7547580E-04  0.1492134E+04  0.7818609E-02  0.8889701E-01
       -2   -1    0    0    0  501  0.00000000000E+00  0.00000000000E+00  0.16471990028E+04  0.16471990028E+04  0.25500000920E-02 0. -1.
        2   -1    0    0  501    0  0.00000000000E+00  0.00000000000E+00 -0.33791655628E+03  0.33791655629E+03  0.25500000920E-02 0.  1.
    10030    2    1    2    0    0  0.00000000000E+00  0.00000000000E+00  0.13092824465E+04  0.19851155591E+04  0.14921337937E+04 0.  0.
        4    1    3    3  502    0 -0.18736112039E+03 -0.15669897546E+02 -0.30588027030E+03  0.35904608030E+03  0.12699999809E+01 0.  1.
       -4    1    3    3    0  502  0.18736112039E+03  0.15669897546E+02  0.16151627168E+04  0.16260694788E+04  0.12699999809E+01 0. -1.
</event>
<event>
 5   0  0.4086710E-04  0.1490738E+04  0.7818609E-02  0.8890636E-01
        1   -1    0    0  501    0  0.00000000000E+00  0.00000000000E+00  0.21654670019E+04  0.21654670019E+04  0.50400001928E-02 0.  1.
       -1   -1    0    0    0  501  0.00000000000E+00  0.00000000000E+00 -0.25656119869E+03  0.25656119874E+03  0.50400001928E-02 0. -1.
    10030    2    1    2    0    0  0.00000000000E+00  0.00000000000E+00  0.19089058032E+04  0.24220282006E+04  0.14907378171E+04 0.  0.
        3    1    3    3  502    0 -0.44306107405E+03  0.59933293936E+03  0.96821149419E+03  0.12218578458E+04  0.10100000352E+00 0. -1.
       -3    1    3    3    0  502  0.44306107405E+03 -0.59933293936E+03  0.94069430898E+03  0.12001703549E+04  0.10100000352E+00 0.  1.
</event>
<event>
 5   0  0.4086710E-04  0.1472096E+04  0.7818609E-02  0.8903224E-01
        1   -1    0    0  501    0  0.00000000000E+00  0.00000000000E+00  0.10371281031E+04  0.10371281032E+04  0.50400001928E-02 0.  1.
       -1   -1    0    0    0  501  0.00000000000E+00  0.00000000000E+00 -0.52237172140E+03  0.52237172143E+03  0.50400001928E-02 0. -1.
    10030    2    1    2    0    0  0.00000000000E+00  0.00000000000E+00  0.51475638174E+03  0.15594998246E+04  0.14720956390E+04 0.  0.
        3    1    3    3  502    0 -0.51985632030E+03  0.33001893045E+03  0.68456120327E+03  0.92075357150E+03  0.10100000352E+00 0.  1.
       -3    1    3    3    0  502  0.51985632030E+03 -0.33001893045E+03 -0.16980482153E+03  0.63874625308E+03  0.10100000352E+00 0. -1.
</event>
<event>
 5   0  0.7672251E-04  0.1496658E+04  0.7818609E-02  0.8886679E-01
        2   -1    0    0  501    0  0.00000000000E+00  0.00000000000E+00  0.10504053483E+04  0.10504053483E+04  0.25500000920E-02 0.  1.
       -2   -1    0    0    0  501  0.00000000000E+00  0.00000000000E+00 -0.53312369726E+03  0.53312369727E+03  0.25500000920E-02 0. -1.
    10030    2    1    2    0    0  0.00000000000E+00  0.00000000000E+00  0.51728165108E+03  0.15835290456E+04  0.14966575867E+04 0.  0.
        5    1    3    3  502    0 -0.70380603584E+03 -0.12902901272E+03  0.26877408266E+02  0.71605579900E+03  0.46999998093E+01 0. -1.
       -5    1    3    3    0  502  0.70380603584E+03  0.12902901272E+03  0.49040424281E+03  0.86747324661E+03  0.46999998093E+01 0.  1.
</event>
<event>
 5   0  0.4058874E-04  0.1503758E+04  0.7818609E-02  0.8881958E-01
        1   -1    0    0  501    0  0.00000000000E+00  0.00000000000E+00  0.73938613299E+03  0.73938613301E+03  0.50400001928E-02 0. -1.
       -1   -1    0    0    0  501  0.00000000000E+00  0.00000000000E+00 -0.76458283786E+03  0.76458283788E+03  0.50400001928E-02 0.  1.
    10030    2    1    2    0    0  0.00000000000E+00  0.00000000000E+00 -0.25196704866E+02  0.15039689709E+04  0.15037578899E+04 0.  0.
        4    1    3    3  502    0  0.31946416388E+03 -0.42306616987E+03 -0.54585046176E+03  0.76091831073E+03  0.12699999809E+01 0.  1.
       -4    1    3    3    0  502 -0.31946416388E+03  0.42306616987E+03  0.52065375690E+03  0.74305066016E+03  0.12699999809E+01 0. -1.
</event>
<event>
 5   0  0.4086710E-04  0.1492025E+04  0.7818609E-02  0.8889774E-01
       -1   -1    0    0    0  501  0.00000000000E+00  0.00000000000E+00  0.15277621522E+04  0.15277621522E+04  0.50400001928E-02 0.  1.
        1   -1    0    0  501    0  0.00000000000E+00  0.00000000000E+00 -0.36428083667E+03  0.36428083671E+03  0.50400001928E-02 0. -1.
    10030    2    1    2    0    0  0.00000000000E+00  0.00000000000E+00  0.11634813155E+04  0.18920429889E+04  0.14920247653E+04 0.  0.
        3    1    3    3  502    0  0.43179209094E+03 -0.47048083582E+03  0.92676652286E+02  0.64527947337E+03  0.10100000352E+00 0. -1.
       -3    1    3    3    0  502 -0.43179209094E+03  0.47048083582E+03  0.10708046633E+04  0.12467635156E+04  0.10100000352E+00 0.  1.
</event>
<event>
 5   0  0.7634227E-04  0.1498896E+04  0.7818609E-02  0.8885188E-01
       -2   -1    0    0    0  501  0.00000000000E+00  0.00000000000E+00  0.44363735875E+03  0.44363735875E+03  0.25500000920E-02 0.  1.
        2   -1    0    0  501    0  0.00000000000E+00  0.00000000000E+00 -0.12660609980E+04  0.12660609980E+04  0.25500000920E-02 0. -1.
    10030    2    1    2    0    0  0.00000000000E+00  0.00000000000E+00 -0.82242363928E+03  0.17096983568E+04  0.14988955363E+04 0.  0.
        2    1    3    3  502    0 -0.38184917588E+03  0.42710658508E+03 -0.96232230750E+03  0.11199522542E+04  0.25500000920E-02 0. -1.
       -2    1    3    3    0  502  0.38184917588E+03 -0.42710658508E+03  0.13989866822E+03  0.58974610259E+03  0.25500000920E-02 0.  1.
</event>
<event>
 5   0  0.4058874E-04  0.1504872E+04  0.7818609E-02  0.8881220E-01
       -1   -1    0    0    0  501  0.00000000000E+00  0.00000000000E+00  0.46483364241E+03  0.46483364244E+03  0.50400001928E-02 0.  1.
        1   -1    0    0  501    0  0.00000000000E+00  0.00000000000E+00 -0.12179832492E+04  0.12179832492E+04  0.50400001928E-02 0. -1.
    10030    2    1    2    0    0  0.00000000000E+00  0.00000000000E+00 -0.75314960679E+03  0.16828168916E+04  0.15048715429E+04 0.  0.
        4    1    3    3  502    0 -0.38879582822E+03 -0.40597131534E+03  0.18275298151E+03  0.59107966474E+03  0.12699999809E+01 0.  1.
       -4    1    3    3    0  502  0.38879582822E+03  0.40597131534E+03 -0.93590258830E+03  0.10917372269E+04  0.12699999809E+01 0. -1.
</event>
<event>
 5   0  0.7359897E-04  0.1493418E+04  0.7818609E-02  0.8888842E-01
       -2   -1    0    0    0  501  0.00000000000E+00  0.00000000000E+00  0.61518341102E+03  0.61518341102E+03  0.25500000920E-02 0.  1.
        2   -1    0    0  501    0  0.00000000000E+00  0.00000000000E+00 -0.90635416375E+03  0.90635416375E+03  0.25500000920E-02 0. -1.
    10030    2    1    2    0    0  0.00000000000E+00  0.00000000000E+00 -0.29117075274E+03  0.15215375748E+04  0.14934176188E+04 0.  0.
        1    1    3    3  502    0  0.46439495887E+03 -0.19697976855E+03 -0.70650648831E+03  0.86811008812E+03  0.50400001928E-02 0. -1.
       -1    1    3    3    0  502 -0.46439495887E+03  0.19697976855E+03  0.41533573557E+03  0.65342748666E+03  0.50400001928E-02 0.  1.
</event>
<event>
 5   0  0.4015204E-04  0.1487376E+04  0.7818609E-02  0.8892891E-01
       -1   -1    0    0    0  501  0.00000000000E+00  0.00000000000E+00  0.69726121236E+03  0.69726121237E+03  0.50400001928E-02 0. -1.
        1   -1    0    0  501    0  0.00000000000E+00  0.00000000000E+00 -0.79320620325E+03  0.79320620327E+03  0.50400001928E-02 0.  1.
    10030    2    1    2    0    0  0.00000000000E+00  0.00000000000E+00 -0.95944990895E+02  0.14904674156E+04  0.14873761044E+04 0.  0.
        2    1    3    3  502    0  0.65990388054E+03  0.17091248549E+03  0.24994610994E+03  0.72605596694E+03  0.25500000920E-02 0. -1.
       -2    1    3    3    0  502 -0.65990388054E+03 -0.17091248549E+03 -0.34589110084E+03  0.76441144870E+03  0.25500000920E-02 0.  1.
</event>
<event>
 5   0  0.4058874E-04  0.1405853E+04  0.7818609E-02  0.8949593E-01
        1   -1    0    0  501    0  0.00000000000E+00  0.00000000000E+00  0.81760370605E+03  0.81760370606E+03  0.50400001928E-02 0. -1.
       -1   -1    0    0    0  501  0.00000000000E+00  0.00000000000E+00 -0.60433413934E+03  0.60433413936E+03  0.50400001928E-02 0.  1.
    10030    2    1    2    0    0  0.00000000000E+00  0.00000000000E+00  0.21326956671E+03  0.14219378454E+04  0.14058532385E+04 0.  0.
        4    1    3    3  502    0 -0.27300064303E+03  0.58077836133E+03 -0.18347673630E+03  0.66745650177E+03  0.12699999809E+01 0.  1.
       -4    1    3    3    0  502  0.27300064303E+03 -0.58077836133E+03  0.39674630300E+03  0.75448134366E+03  0.12699999809E+01 0. -1.
</event>
<event>
 5   0  0.7454828E-04  0.1494415E+04  0.7818609E-02  0.8888176E-01
       -2   -1    0    0    0  501  0.00000000000E+00  0.00000000000E+00  0.36835559559E+03  0.36835559560E+03  0.25500000920E-02 0.  1.
        2   -1    0    0  501    0  0.00000000000E+00  0.00000000000E+00 -0.15157063257E+04  0.15157063257E+04  0.25500000920E-02 0. -1.
    10030    2    1    2    0    0  0.00000000000E+00  0.00000000000E+00 -0.11473507302E+04  0.18840619213E+04  0.14944148104E+04 0.  0.
        3    1    3    3  502    0 -0.66855419135E+03  0.30890675653E+03 -0.41454873248E+03  0.84512647148E+03  0.10100000352E+00 0. -1.
       -3    1    3    3    0  502  0.66855419135E+03 -0.30890675653E+03 -0.73280199767E+03  0.10389354499E+04  0.10100000352E+00 0.  1.
</event>
<event>
 5   0  0.4086710E-04  0.1493412E+04  0.7818609E-02  0.8888846E-01
        1   -1    0    0  501    0  0.00000000000E+00  0.00000000000E+00  0.63385428890E+03  0.63385428892E+03  0.50400001928E-02 0. -1.
       -1   -1    0    0    0  501  0.00000000000E+00  0.00000000000E+00 -0.87964940723E+03  0.87964940725E+03  0.50400001928E-02 0.  1.
    10030    2    1    2    0    0  0.00000000000E+00  0.00000000000E+00 -0.24579511833E+03  0.15135036962E+04  0.14934115970E+04 0.  0.
        3    1    3    3  502    0 -0.67257868412E+03  0.29882920003E+03  0.49285093045E+01  0.73599271568E+03  0.10100000352E+00 0. -1.
       -3    1    3    3    0  502  0.67257868412E+03 -0.29882920003E+03 -0.25072362763E+03  0.77751098049E+03  0.10100000352E+00 0.  1.
</event>
<event>
 5   0  0.7634227E-04  0.1535531E+04  0.7818609E-02  0.8861163E-01
        2   -1    0    0  501    0  0.00000000000E+00  0.00000000000E+00  0.83096892787E+03  0.83096892788E+03  0.25500000920E-02 0.  1.
       -2   -1    0    0    0  501  0.00000000000E+00  0.00000000000E+00 -0.70936913826E+03  0.70936913827E+03  0.25500000920E-02 0. -1.
    10030    2    1    2    0    0  0.00000000000E+00  0.00000000000E+00  0.12159978961E+03  0.15403380661E+04  0.15355308037E+04 0.  0.
        2    1    3    3  502    0  0.21679469964E+03  0.73520080918E+03  0.10502351916E+03  0.77366020396E+03  0.25500000920E-02 0. -1.
       -2    1    3    3    0  502 -0.21679469964E+03 -0.73520080918E+03  0.16576270455E+02  0.76667786218E+03  0.25500000920E-02 0.  1.
</event>
<event>
 5   0  0.7454828E-04  0.1501291E+04  0.7818609E-02  0.8883595E-01
        2   -1    0    0  501    0  0.00000000000E+00  0.00000000000E+00  0.61206105511E+03  0.61206105512E+03  0.25500000920E-02 0. -1.
       -2   -1    0    0    0  501  0.00000000000E+00  0.00000000000E+00 -0.92060887881E+03  0.92060887882E+03  0.25500000920E-02 0.  1.
    10030    2    1    2    0    0  0.00000000000E+00  0.00000000000E+00 -0.30854782370E+03  0.15326699339E+04  0.15012912332E+04 0.  0.
        3    1    3    3  502    0  0.31879291212E+03 -0.65476307330E+03 -0.34008136527E+03  0.80374059757E+03  0.10100000352E+00 0.  1.
       -3    1    3    3    0  502 -0.31879291212E+03  0.65476307330E+03  0.31533541566E+02  0.72892933637E+03  0.10100000352E+00 0. -1.
</event>
<event>
 5   0  0.7634227E-04  0.1522965E+04  0.7818609E-02  0.8869323E-01
        2   -1    0    0  501    0  0.00000000000E+00  0.00000000000E+00  0.91881729308E+03  0.91881729309E+03  0.25500000920E-02 0.  1.
       -2   -1    0    0    0  501  0.00000000000E+00  0.00000000000E+00 -0.63108936206E+03  0.63108936207E+03  0.25500000920E-02 0. -1.
    10030    2    1    2    0    0  0.00000000000E+00  0.00000000000E+00  0.28772793102E+03  0.15499066552E+04  0.15229652909E+04 0.  0.
        2    1    3    3  502    0  0.44889178876E+03  0.17580097078E+03  0.74373680048E+03  0.88631498223E+03  0.25500000920E-02 0.  1.
       -2    1    3    3    0  502 -0.44889178876E+03 -0.17580097078E+03 -0.45600886945E+03  0.66359167292E+03  0.25500000920E-02 0. -1.
</event>
<event>
 5   0  0.7634227E-04  0.1505201E+04  0.7818609E-02  0.8881002E-01
        2   -1    0    0  501    0  0.00000000000E+00  0.00000000000E+00  0.17145726998E+04  0.17145726998E+04  0.25500000920E-02 0. -1.
       -2   -1    0    0    0  501  0.00000000000E+00  0.00000000000E+00 -0.33034889308E+03  0.33034889309E+03  0.25500000920E-02 0.  1.
    10030    2    1    2    0    0  0.00000000000E+00  0.00000000000E+00  0.13842238068E+04  0.20449215929E+04  0.15052005760E+04 0.  0.
        2    1    3    3  502    0 -0.12579747467E+03 -0.34753670361E+02 -0.31485798197E+03  0.34083481491E+03  0.25500000920E-02 0.  1.
       -2    1    3    3    0  502  0.12579747467E+03  0.34753670361E+02  0.16990817887E+04  0.17040867780E+04  0.25500000920E-02 0. -1.
</event>
<event>
 5   0  0.3907345E-04  0.1500137E+04  0.7818609E-02  0.8884362E-01
       -1   -1    0    0    0  501  0.00000000000E+00  0.00000000000E+00  0.71539190425E+03  0.71539190427E+03  0.50400001928E-02 0. -1.
        1   -1    0    0  501    0  0.00000000000E+00  0.00000000000E+00 -0.78642562396E+03  0.78642562397E+03  0.50400001928E-02 0.  1.
    10030    2    1    2    0    0  0.00000000000E+00  0.00000000000E+00 -0.71033719702E+02  0.15018175282E+04  0.15001366934E+04 0.  0.
        5    1    3    3  502    0 -0.56169390434E+03 -0.99575217161E+02  0.45202486344E+03  0.72784877084E+03  0.46999998093E+01 0. -1.
       -5    1    3    3    0  502  0.56169390434E+03  0.99575217161E+02 -0.52305858314E+03  0.77396875741E+03  0.46999998093E+01 0.  1.
</event>
<event>
 5   0  0.4058874E-04  0.1563144E+04  0.7818609E-02  0.8843515E-01
       -1   -1    0    0    0  501  0.00000000000E+00  0.00000000000E+00  0.14321988405E+04  0.14321988405E+04  0.50400001928E-02 0.  1.
        1   -1    0    0  501    0  0.00000000000E+00  0.00000000000E+00 -0.42651549323E+03  0.42651549326E+03  0.50400001928E-02 0. -1.
    10030    2    1    2    0    0  0.00000000000E+00  0.00000000000E+00  0.10056833473E+04  0.18587143338E+04  0.15631442607E+04 0.  0.
        4    1    3    3  502    0  0.27018510962E+03 -0.55286362519E+03 -0.70139307826E+02  0.61933780518E+03  0.12699999809E+01 0. -1.
       -4    1    3    3    0  502 -0.27018510962E+03  0.55286362519E+03  0.10758226551E+04  0.12393765286E+04  0.12699999809E+01 0.  1.
</event>
<event>
 5   0  0.7634227E-04  0.1505817E+04  0.7818609E-02  0.8880594E-01
       -2   -1    0    0    0  501  0.00000000000E+00  0.00000000000E+00  0.39683710456E+03  0.39683710457E+03  0.25500000920E-02 0.  1.
        2   -1    0    0  501    0  0.00000000000E+00  0.00000000000E+00 -0.14284725972E+04  0.14284725972E+04  0.25500000920E-02 0. -1.
    10030    2    1    2    0    0  0.00000000000E+00  0.00000000000E+00 -0.10316354926E+04  0.18253097017E+04  0.15058166282E+04 0.  0.
        2    1    3    3  502    0  0.47300889055E+03  0.16967257204E+03 -0.11954399677E+04  0.12967663277E+04  0.25500000920E-02 0. -1.
       -2    1    3    3    0  502 -0.47300889055E+03 -0.16967257204E+03  0.16380447505E+03  0.52854337409E+03  0.25500000920E-02 0.  1.
</event>
<event>
 5   0  0.7634227E-04  0.1497145E+04  0.7818609E-02  0.8886354E-01
       -2   -1    0    0    0  501  0.00000000000E+00  0.00000000000E+00  0.63894943735E+03  0.63894943736E+03  0.25500000920E-02 0.  1.
        2   -1    0    0  501    0  0.00000000000E+00  0.00000000000E+00 -0.87700276584E+03  0.87700276584E+03  0.25500000920E-02 0. -1.
    10030    2    1    2    0    0  0.00000000000E+00  0.00000000000E+00 -0.23805332849E+03  0.15159522032E+04  0.14971445138E+04 0.  0.
        2    1    3    3  502    0  0.75055975978E+02  0.69376689401E+03 -0.39338159526E+03  0.80105866342E+03  0.25500000920E-02 0. -1.
       -2    1    3    3    0  502 -0.75055975978E+02 -0.69376689401E+03  0.15532826677E+03  0.71489353978E+03  0.25500000920E-02 0.  1.
</event>
<event>
 5   0  0.2800375E-04  0.1511054E+04  0.7818609E-02  0.8877135E-01
        3   -1    0    0  501    0  0.00000000000E+00  0.00000000000E+00  0.11940682311E+04  0.11940682354E+04  0.10100000352E+00 0. -1.
       -3   -1    0    0    0  501  0.00000000000E+00  0.00000000000E+00 -0.47804727532E+03  0.47804728599E+03  0.10100000352E+00 0.  1.
    10030    2    1    2    0    0  0.00000000000E+00  0.00000000000E+00  0.71602095577E+03  0.16721155214E+04  0.15110540386E+04 0.  0.
        1    1    3    3  502    0  0.69046518777E+03 -0.30494181824E+03  0.39453442847E+03  0.85169777697E+03  0.50400001928E-02 0. -1.
       -1    1    3    3    0  502 -0.69046518777E+03  0.30494181824E+03  0.32148652730E+03  0.82041774438E+03  0.50400001928E-02 0.  1.
</event>
<event>
 5   0  0.7454828E-04  0.1499568E+04  0.7818609E-02  0.8884740E-01
        2   -1    0    0  501    0  0.00000000000E+00  0.00000000000E+00  0.15343245223E+04  0.15343245223E+04  0.25500000920E-02 0. -1.
       -2   -1    0    0    0  501  0.00000000000E+00  0.00000000000E+00 -0.36639993080E+03  0.36639993081E+03  0.25500000920E-02 0.  1.
    10030    2    1    2    0    0  0.00000000000E+00  0.00000000000E+00  0.11679245915E+04  0.19007244531E+04  0.14995684697E+04 0.  0.
        3    1    3    3  502    0  0.26692531782E+03 -0.39916433321E+03  0.13138514543E+04  0.13988520094E+04  0.10100000352E+00 0. -1.
       -3    1    3    3    0  502 -0.26692531782E+03  0.39916433321E+03 -0.14592686281E+03  0.50187244365E+03  0.10100000352E+00 0.  1.
</event>
<event>
 5   0  0.2800375E-04  0.1511825E+04  0.7818609E-02  0.8876627E-01
       -4   -1    0    0    0  501  0.00000000000E+00  0.00000000000E+00  0.54207486206E+03  0.54207634977E+03  0.12699999809E+01 0.  1.
        4   -1    0    0  501    0  0.00000000000E+00  0.00000000000E+00 -0.10541017600E+04  0.10541025250E+04  0.12699999809E+01 0. -1.
    10030    2    1    2    0    0  0.00000000000E+00  0.00000000000E+00 -0.51202689791E+03  0.15961788748E+04  0.15118252069E+04 0.  0.
        5    1    3    3  502    0  0.58319430936E+02  0.33007647075E+02  0.53891822369E+03  0.54308894540E+03  0.46999998093E+01 0.  1.
       -5    1    3    3    0  502 -0.58319430936E+02 -0.33007647075E+02 -0.10509451216E+04  0.10530899294E+04  0.46999998093E+01 0. -1.
</event>
<event>
 5   0  0.4084462E-04  0.1508734E+04  0.7818609E-02  0.8878665E-01
       -1   -1    0    0    0  501  0.00000000000E+00  0.00000000000E+00  0.34012792385E+03  0.34012792389E+03  0.50400001928E-02 0.  1.
        1   -1    0    0  501    0  0.00000000000E+00  0.00000000000E+00 -0.16731049316E+04  0.16731049316E+04  0.50400001928E-02 0. -1.
    10030    2    1    2    0    0  0.00000000000E+00  0.00000000000E+00 -0.13329770078E+04  0.20132328555E+04  0.15087341805E+04 0.  0.
        1    1    3    3  502    0 -0.40936418216E+03 -0.45027662144E+03 -0.12613634955E+04  0.14004877498E+04  0.50400001928E-02 0. -1.
       -1    1    3    3    0  502  0.40936418216E+03  0.45027662144E+03 -0.71613512273E+02  0.61274510575E+03  0.50400001928E-02 0.  1.
</event>
<event>
 5   0  0.7634227E-04  0.1494232E+04  0.7818609E-02  0.8888298E-01
       -2   -1    0    0    0  501  0.00000000000E+00  0.00000000000E+00  0.40221545572E+03  0.40221545573E+03  0.25500000920E-02 0. -1.
        2   -1    0    0  501    0  0.00000000000E+00  0.00000000000E+00 -0.13877695348E+04  0.13877695348E+04  0.25500000920E-02 0.  1.
    10030    2    1    2    0    0  0.00000000000E+00  0.00000000000E+00 -0.98555407912E+03  0.17899849906E+04  0.14942320515E+04 0.  0.
        2    1    3    3  502    0 -0.37059758313E+03 -0.33434719332E+03  0.17318111192E+03  0.52832027391E+03  0.25500000920E-02 0. -1.
       -2    1    3    3    0  502  0.37059758313E+03  0.33434719332E+03 -0.11587351910E+04  0.12616647167E+04  0.25500000920E-02 0.  1.
</event>
<event>
 5   0  0.7672251E-04  0.1503510E+04  0.7818609E-02  0.8882122E-01
       -2   -1    0    0    0  501  0.00000000000E+00  0.00000000000E+00  0.57683549165E+03  0.57683549165E+03  0.25500000920E-02 0.  1.
        2   -1    0    0  501    0  0.00000000000E+00  0.00000000000E+00 -0.97971736749E+03  0.97971736749E+03  0.25500000920E-02 0. -1.
    10030    2    1    2    0    0  0.00000000000E+00  0.00000000000E+00 -0.40288187585E+03  0.15565528591E+04  0.15035102252E+04 0.  0.
        5    1    3    3  502    0  0.55404558942E+03 -0.22496765077E+03  0.27019288338E+03  0.65620365991E+03  0.46999998093E+01 0.  1.
       -5    1    3    3    0  502 -0.55404558942E+03  0.22496765077E+03 -0.67307475923E+03  0.90034919923E+03  0.46999998093E+01 0. -1.
</event>
<event>
 5   0  0.2800375E-04  0.1499311E+04  0.7818609E-02  0.8884911E-01
       -4   -1    0    0    0  501  0.00000000000E+00  0.00000000000E+00  0.52176389339E+03  0.52176543901E+03  0.12699999809E+01 0.  1.
        4   -1    0    0  501    0  0.00000000000E+00  0.00000000000E+00 -0.10770798823E+04  0.10770806310E+04  0.12699999809E+01 0. -1.
    10030    2    1    2    0    0  0.00000000000E+00  0.00000000000E+00 -0.55531598889E+03  0.15988460700E+04  0.14993108111E+04 0.  0.
        5    1    3    3  502    0 -0.64823761957E+02 -0.74573321099E+03 -0.23445950068E+03  0.78441920523E+03  0.46999998093E+01 0. -1.
       -5    1    3    3    0  502  0.64823761957E+02  0.74573321099E+03 -0.32085648821E+03  0.81442686480E+03  0.46999998093E+01 0.  1.
</event>
<event>
 5   0  0.3907345E-04  0.1513783E+04  0.7818609E-02  0.8875339E-01
       -1   -1    0    0    0  501  0.00000000000E+00  0.00000000000E+00  0.30643369393E+03  0.30643369398E+03  0.50400001928E-02 0.  1.
        1   -1    0    0  501    0  0.00000000000E+00  0.00000000000E+00 -0.18695229149E+04  0.18695229149E+04  0.50400001928E-02 0. -1.
    10030    2    1    2    0    0  0.00000000000E+00  0.00000000000E+00 -0.15630892210E+04  0.21759566089E+04  0.15137830925E+04 0.  0.
        5    1    3    3  502    0  0.58250532942E+03  0.17379787122E+03 -0.14297354123E+04  0.15536034237E+04  0.46999998093E+01 0. -1.
       -5    1    3    3    0  502 -0.58250532942E+03 -0.17379787122E+03 -0.13335380864E+03  0.62235318520E+03  0.46999998093E+01 0.  1.
</event>
<event>
 5   0  0.7547580E-04  0.1477724E+04  0.7818609E-02  0.8899403E-01
       -2   -1    0    0    0  501  0.00000000000E+00  0.00000000000E+00  0.15285652363E+04  0.15285652363E+04  0.25500000920E-02 0. -1.
        2   -1    0    0  501    0  0.00000000000E+00  0.00000000000E+00 -0.35714354740E+03  0.35714354741E+03  0.25500000920E-02 0.  1.
    10030    2    1    2    0    0  0.00000000000E+00  0.00000000000E+00  0.11714216889E+04  0.18857087837E+04  0.14777242110E+04 0.  0.
        4    1    3    3  502    0  0.43793965098E+03 -0.54333777327E+03  0.89543159776E+03  0.11352561090E+04  0.12699999809E+01 0. -1.
       -4    1    3    3    0  502 -0.43793965098E+03  0.54333777327E+03  0.27599009117E+03  0.75045267478E+03  0.12699999809E+01 0.  1.
</event>
<event>
 5   0  0.4086710E-04  0.1499288E+04  0.7818609E-02  0.8884927E-01
        1   -1    0    0  501    0  0.00000000000E+00  0.00000000000E+00  0.14511698856E+04  0.14511698856E+04  0.50400001928E-02 0. -1.
       -1   -1    0    0    0  501  0.00000000000E+00  0.00000000000E+00 -0.38725025676E+03  0.38725025679E+03  0.50400001928E-02 0.  1.
    10030    2    1    2    0    0  0.00000000000E+00  0.00000000000E+00  0.10639196289E+04  0.18384201424E+04  0.14992877120E+04 0.  0.
        3    1    3    3  502    0  0.19100205236E+03  0.10011870070E+03  0.14123139839E+04  0.14286834281E+04  0.10100000352E+00 0. -1.
       -3    1    3    3    0  502 -0.19100205236E+03 -0.10011870070E+03 -0.34839435508E+03  0.40973671435E+03  0.10100000352E+00 0.  1.
</event>
<event>
 5   0  0.4015204E-04  0.1441404E+04  0.7818609E-02  0.8924382E-01
        1   -1    0    0  501    0  0.00000000000E+00  0.00000000000E+00  0.63054171865E+03  0.63054171867E+03  0.50400001928E-02 0.  1.
       -1   -1    0    0    0  501  0.00000000000E+00  0.00000000000E+00 -0.82375447369E+03  0.82375447370E+03  0.50400001928E-02 0. -1.
    10030    2    1    2    0    0  0.00000000000E+00  0.00000000000E+00 -0.19321275503E+03  0.14542961924E+04  0.14414042620E+04 0.  0.
        2    1    3    3  502    0 -0.27699084214E+03 -0.14749628926E+03 -0.75120228238E+03  0.81411544086E+03  0.25500000920E-02 0. -1.
       -2    1    3    3    0  502  0.27699084214E+03  0.14749628926E+03  0.55798952735E+03  0.64018075152E+03  0.25500000920E-02 0.  1.
</event>
<event>
 5   0  0.7634227E-04  0.1509933E+04  0.7818609E-02  0.8877874E-01
        2   -1    0    0  501    0  0.00000000000E+00  0.00000000000E+00  0.99434382573E+03  0.99434382573E+03  0.25500000920E-02 0. -1.
       -2   -1    0    0    0  501  0.00000000000E+00  0.00000000000E+00 -0.57321687071E+03  0.57321687072E+03  0.25500000920E-02 0.  1.
    10030    2    1    2    0    0  0.00000000000E+00  0.00000000000E+00  0.42112695501E+03  0.15675606964E+04  0.15099333180E+04 0.  0.
        2    1    3    3  502    0  0.10929752961E+03 -0.34039091328E+03  0.90089493681E+03  0.96923867597E+03  0.25500000920E-02 0. -1.
       -2    1    3    3    0  502 -0.10929752961E+03  0.34039091328E+03 -0.47976798180E+03  0.59832202048E+03  0.25500000920E-02 0.  1.
</event>
<event>
 5   0  0.7672251E-04  0.1530013E+04  0.7818609E-02  0.8864736E-01
       -2   -1    0    0    0  501  0.00000000000E+00  0.00000000000E+00  0.37711218910E+03  0.37711218911E+03  0.25500000920E-02 0.  1.
        2   -1    0    0  501    0  0.00000000000E+00  0.00000000000E+00 -0.15518860607E+04  0.15518860607E+04  0.25500000920E-02 0. -1.
    10030    2    1    2    0    0  0.00000000000E+00  0.00000000000E+00 -0.11747738716E+04  0.19289982498E+04  0.15300132674E+04 0.  0.
        5    1    3    3  502    0  0.65024531884E+03  0.32140666410E+03 -0.89386570710E+03  0.11511469110E+04  0.46999998093E+01 0. -1.
       -5    1    3    3    0  502 -0.65024531884E+03 -0.32140666410E+03 -0.28090816450E+03  0.77785133880E+03  0.46999998093E+01 0.  1.
</event>
<event>
 5   0  0.4058874E-04  0.1433825E+04  0.7818609E-02  0.8929692E-01
        1   -1    0    0  501    0  0.00000000000E+00  0.00000000000E+00  0.12700151707E+04  0.12700151707E+04  0.50400001928E-02 0.  1.
       -1   -1    0    0    0  501  0.00000000000E+00  0.00000000000E+00 -0.40469080097E+03  0.40469080100E+03  0.50400001928E-02 0. -1.
    10030    2    1    2    0    0  0.00000000000E+00  0.00000000000E+00  0.86532436976E+03  0.16747059717E+04  0.14338248941E+04 0.  0.
        4    1    3    3  502    0  0.27953079293E+03 -0.12775169165E+03 -0.32384045198E+03  0.44646635949E+03  0.12699999809E+01 0. -1.
       -4    1    3    3    0  502 -0.27953079293E+03  0.12775169165E+03  0.11891648217E+04  0.12282396122E+04  0.12699999809E+01 0.  1.
</event>
<event>
 5   0  0.7672251E-04  0.1527669E+04  0.7818609E-02  0.8866259E-01
        2   -1    0    0  501    0  0.00000000000E+00  0.00000000000E+00  0.16079034294E+04  0.16079034294E+04  0.25500000920E-02 0. -1.
       -2   -1    0    0    0  501  0.00000000000E+00  0.00000000000E+00 -0.36285942711E+03  0.36285942712E+03  0.25500000920E-02 0.  1.
    10030    2    1    2    0    0  0.00000000000E+00  0.00000000000E+00  0.12450440023E+04  0.19707628565E+04  0.15276687039E+04 0.  0.
        5    1    3    3  502    0  0.20024653977E+03  0.63729468143E+03  0.14472122646E+03  0.68352725699E+03  0.46999998093E+01 0.  1.
       -5    1    3    3    0  502 -0.20024653977E+03 -0.63729468143E+03  0.11003227758E+04  0.12872355995E+04  0.46999998093E+01 0. -1.
</event>
<event>
 5   0  0.4086710E-04  0.1516602E+04  0.7818609E-02  0.8873487E-01
        1   -1    0    0  501    0  0.00000000000E+00  0.00000000000E+00  0.71770348847E+03  0.71770348849E+03  0.50400001928E-02 0.  1.
       -1   -1    0    0    0  501  0.00000000000E+00  0.00000000000E+00 -0.80119520544E+03  0.80119520545E+03  0.50400001928E-02 0. -1.
    10030    2    1    2    0    0  0.00000000000E+00  0.00000000000E+00 -0.83491716962E+02  0.15188986939E+04  0.15166022470E+04 0.  0.
        3    1    3    3  502    0  0.47189151681E+03  0.58594217146E+03  0.53322857122E+02  0.75422355388E+03  0.10100000352E+00 0. -1.
       -3    1    3    3    0  502 -0.47189151681E+03 -0.58594217146E+03 -0.13681457408E+03  0.76467514006E+03  0.10100000352E+00 0.  1.
</event>
<event>
 5   0  0.7634227E-04  0.1503826E+04  0.7818609E-02  0.8881913E-01
       -2   -1    0    0    0  501  0.00000000000E+00  0.00000000000E+00  0.96712774151E+03  0.96712774151E+03  0.25500000920E-02 0.  1.
        2   -1    0    0  501    0  0.00000000000E+00  0.00000000000E+00 -0.58458976912E+03  0.58458976913E+03  0.25500000920E-02 0. -1.
    10030    2    1    2    0    0  0.00000000000E+00  0.00000000000E+00  0.38253797239E+03  0.15517175106E+04  0.15038257653E+04 0.  0.
        2    1    3    3  502    0  0.57468424676E+03 -0.37872814640E+03  0.50369194835E+03  0.85287898977E+03  0.25500000920E-02 0.  1.
       -2    1    3    3    0  502 -0.57468424676E+03  0.37872814640E+03 -0.12115397596E+03  0.69883852087E+03  0.25500000920E-02 0. -1.
</event>
<event>
 5   0  0.7454828E-04  0.1487663E+04  0.7818609E-02  0.8892698E-01
        2   -1    0    0  501    0  0.00000000000E+00  0.00000000000E+00  0.42144627105E+03  0.42144627105E+03  0.25500000920E-02 0. -1.
       -2   -1    0    0    0  501  0.00000000000E+00  0.00000000000E+00 -0.13128260667E+04  0.13128260667E+04  0.25500000920E-02 0.  1.
    10030    2    1    2    0    0  0.00000000000E+00  0.00000000000E+00 -0.89137979561E+03  0.17342723377E+04  0.14876634705E+04 0.  0.
        3    1    3    3  502    0 -0.22167773074E+03  0.10370667473E+03  0.37316616925E+03  0.44626123600E+03  0.10100000352E+00 0. -1.
       -3    1    3    3    0  502  0.22167773074E+03 -0.10370667473E+03 -0.12645459649E+04  0.12880111017E+04  0.10100000352E+00 0.  1.
</event>
<event>
 5   0  0.7359897E-04  0.1512425E+04  0.7818609E-02  0.8876232E-01
        2   -1    0    0  501    0  0.00000000000E+00  0.00000000000E+00  0.18493090916E+04  0.18493090916E+04  0.25500000920E-02 0. -1.
       -2   -1    0    0    0  501  0.00000000000E+00  0.00000000000E+00 -0.30922768204E+03  0.30922768206E+03  0.25500000920E-02 0.  1.
    10030    2    1    2    0    0  0.00000000000E+00  0.00000000000E+00  0.15400814096E+04  0.21585367737E+04  0.15124252891E+04 0.  0.
        1    1    3    3  502    0 -0.74671177588E+03 -0.72504323913E+02  0.90560396358E+03  0.11759906003E+04  0.50400001928E-02 0.  1.
       -1    1    3    3    0  502  0.74671177588E+03  0.72504323913E+02  0.63447744598E+03  0.98254617332E+03  0.50400001928E-02 0. -1.
</event>
<event>
 5   0  0.4084462E-04  0.1306372E+04  0.7818609E-02  0.9024528E-01
        1   -1    0    0  501    0  0.00000000000E+00  0.00000000000E+00  0.12198525833E+04  0.12198525833E+04  0.50400001928E-02 0. -1.
       -1   -1    0    0    0  501  0.00000000000E+00  0.00000000000E+00 -0.34975674565E+03  0.34975674569E+03  0.50400001928E-02 0.  1.
    10030    2    1    2    0    0  0.00000000000E+00  0.00000000000E+00  0.87009583761E+03  0.15696093290E+04  0.13063715700E+04 0.  0.
        1    1    3    3  502    0  0.30224756461E+03 -0.22323029704E+03  0.10769995170E+04  0.11406635417E+04  0.50400001928E-02 0. -1.
       -1    1    3    3    0  502 -0.30224756461E+03  0.22323029704E+03 -0.20690367936E+03  0.42894578724E+03  0.50400001928E-02 0.  1.
</event>
<event>
 5   0  0.7454828E-04  0.1203417E+04  0.7818609E-02  0.9109871E-01
        2   -1    0    0  501    0  0.00000000000E+00  0.00000000000E+00  0.11984808526E+04  0.11984808526E+04  0.25500000920E-02 0.  1.
       -2   -1    0    0    0  501  0.00000000000E+00  0.00000000000E+00 -0.30209318793E+03  0.30209318794E+03  0.25500000920E-02 0. -1.
    10030    2    1    2    0    0  0.00000000000E+00  0.00000000000E+00  0.89638766463E+03  0.15005740405E+04  0.12034166385E+04 0.  0.
        3    1    3    3  502    0 -0.15024059340E+03 -0.53415779725E+03  0.15801540682E+03  0.57694511633E+03  0.10100000352E+00 0. -1.
       -3    1    3    3    0  502  0.15024059340E+03  0.53415779725E+03  0.73837225780E+03  0.92362892417E+03  0.10100000352E+00 0.  1.
</event>
<event>
 5   0  0.4058874E-04  0.1485592E+04  0.7818609E-02  0.8894091E-01
       -1   -1    0    0    0  501  0.00000000000E+00  0.00000000000E+00  0.97972922591E+03  0.97972922592E+03  0.50400001928E-02 0.  1.
        1   -1    0    0  501    0  0.00000000000E+00  0.00000000000E+00 -0.56316165019E+03  0.56316165022E+03  0.50400001928E-02 0. -1.
    10030    2    1    2    0    0  0.00000000000E+00  0.00000000000E+00  0.41656757571E+03  0.15428908761E+04  0.14855920404E+04 0.  0.
        4    1    3    3  502    0 -0.53752414985E+03  0.18168543583E+02  0.74037417891E+03  0.91510537390E+03  0.12699999809E+01 0.  1.
       -4    1    3    3    0  502  0.53752414985E+03 -0.18168543583E+02 -0.32380660320E+03  0.62778550224E+03  0.12699999809E+01 0. -1.
</event>
<event>
 5   0  0.7672251E-04  0.1501674E+04  0.7818609E-02  0.8883340E-01
       -2   -1    0    0    0  501  0.00000000000E+00  0.00000000000E+00  0.84122274055E+03  0.84122274055E+03  0.25500000920E-02 0. -1.
        2   -1    0    0  501    0  0.00000000000E+00  0.00000000000E+00 -0.67016325960E+03  0.67016325961E+03  0.25500000920E-02 0.  1.
    10030    2    1    2    0    0  0.00000000000E+00  0.00000000000E+00  0.17105948095E+03  0.15113860002E+04  0.15016744972E+04 0.  0.
        5    1    3    3  502    0 -0.37966310226E+03  0.18698504400E+03 -0.53866409744E+03  0.68504640556E+03  0.46999998093E+01 0.  1.
       -5    1    3    3    0  502  0.37966310226E+03 -0.18698504400E+03  0.70972357839E+03  0.82633959461E+03  0.46999998093E+01 0. -1.
</event>
<event>
 5   0  0.4058874E-04  0.1493540E+04  0.7818609E-02  0.8888760E-01
        1   -1    0    0  501    0  0.00000000000E+00  0.00000000000E+00  0.21617860135E+04  0.21617860136E+04  0.50400001928E-02 0.  1.
       -1   -1    0    0    0  501  0.00000000000E+00  0.00000000000E+00 -0.25796528091E+03  0.25796528096E+03  0.50400001928E-02 0. -1.
    10030    2    1    2    0    0  0.00000000000E+00  0.00000000000E+00  0.19038207326E+04  0.24197512945E+04  0.14935404063E+04 0.  0.
        4    1    3    3  502    0  0.27629280366E+03 -0.26331604815E+03  0.19918249173E+04  0.20280634035E+04  0.12699999809E+01 0.  1.
       -4    1    3    3    0  502 -0.27629280366E+03  0.26331604815E+03 -0.88004184632E+02  0.39168789103E+03  0.12699999809E+01 0. -1.
</event>
<event>
 5   0  0.4086710E-04  0.1514871E+04  0.7818609E-02  0.8874624E-01
       -1   -1    0    0    0  501  0.00000000000E+00  0.00000000000E+00  0.21517516355E+03  0.21517516361E+03  0.50400001928E-02 0.  1.
        1   -1    0    0  501    0  0.00000000000E+00  0.00000000000E+00 -0.26662404661E+04  0.26662404661E+04  0.50400001928E-02 0. -1.
    10030    2    1    2    0    0  0.00000000000E+00  0.00000000000E+00 -0.24510653026E+04  0.28814156297E+04  0.15148712532E+04 0.  0.
        3    1    3    3  502    0 -0.11999203783E+03  0.12218979504E+03  0.17786704053E+03  0.24691117728E+03  0.10100000352E+00 0.  1.
       -3    1    3    3    0  502  0.11999203783E+03 -0.12218979504E+03 -0.26289323431E+04  0.26345044524E+04  0.10100000352E+00 0. -1.
</event>
<event>
 5   0  0.7359897E-04  0.1495919E+04  0.7818609E-02  0.8887171E-01
        2   -1    0    0  501    0  0.00000000000E+00  0.00000000000E+00  0.19913819619E+04  0.19913819619E+04  0.25500000920E-02 0. -1.
       -2   -1    0    0    0  501  0.00000000000E+00  0.00000000000E+00 -0.28093225549E+03  0.28093225550E+03  0.25500000920E-02 0.  1.
    10030    2    1    2    0    0  0.00000000000E+00  0.00000000000E+00  0.17104497064E+04  0.22723142174E+04  0.14959190167E+04 0.  0.
        1    1    3    3  502    0 -0.61299880418E+03  0.42286795150E+03  0.74934451298E+03  0.10564573051E+04  0.50400001928E-02 0.  1.
       -1    1    3    3    0  502  0.61299880418E+03 -0.42286795150E+03  0.96110519343E+03  0.12158569123E+04  0.50400001928E-02 0. -1.
</event>
<event>
 5   0  0.7547580E-04  0.1595358E+04  0.7818609E-02  0.8823405E-01
        2   -1    0    0  501    0  0.00000000000E+00  0.00000000000E+00  0.15206828834E+04  0.15206828834E+04  0.25500000920E-02 0.  1.
       -2   -1    0    0    0  501  0.00000000000E+00  0.00000000000E+00 -0.41842506885E+03  0.41842506886E+03  0.25500000920E-02 0. -1.
    10030    2    1    2    0    0  0.00000000000E+00  0.00000000000E+00  0.11022578145E+04  0.19391079522E+04  0.15953580666E+04 0.  0.
        4    1    3    3  502    0  0.79601751156E+03 -0.23033784330E+02  0.60703774200E+03  0.10013345430E+04  0.12699999809E+01 0.  1.
       -4    1    3    3    0  502 -0.79601751156E+03  0.23033784330E+02  0.49522007253E+03  0.93777340923E+03  0.12699999809E+01 0. -1.
</event>
<event>
 5   0  0.7454828E-04  0.1547317E+04  0.7818609E-02  0.8853584E-01
       -2   -1    0    0    0  501  0.00000000000E+00  0.00000000000E+00  0.41883046048E+03  0.41883046049E+03  0.25500000920E-02 0. -1.
        2   -1    0    0  501    0  0.00000000000E+00  0.00000000000E+00 -0.14290916123E+04  0.14290916123E+04  0.25500000920E-02 0.  1.
    10030    2    1    2    0    0  0.00000000000E+00  0.00000000000E+00 -0.10102611518E+04  0.18479220728E+04  0.15473165133E+04 0.  0.
        3    1    3    3  502    0 -0.15648384662E+03 -0.54616490541E+03  0.12202185782E+03  0.58109606964E+03  0.10100000352E+00 0. -1.
       -3    1    3    3    0  502  0.15648384662E+03  0.54616490541E+03 -0.11322830096E+04  0.12668260032E+04  0.10100000352E+00 0.  1.
</event>
<event>
 5   0  0.4015204E-04  0.1477551E+04  0.7818609E-02  0.8899520E-01
       -1   -1    0    0    0  501  0.00000000000E+00  0.00000000000E+00  0.66467134489E+03  0.66467134491E+03  0.50400001928E-02 0. -1.
        1   -1    0    0  501    0  0.00000000000E+00  0.00000000000E+00 -0.82114187112E+03  0.82114187114E+03  0.50400001928E-02 0.  1.
    10030    2    1    2    0    0  0.00000000000E+00  0.00000000000E+00 -0.15647052623E+03  0.14858132160E+04  0.14775513146E+04 0.  0.
        2    1    3    3  502    0  0.45935702929E+03 -0.12015379836E+03 -0.64738915300E+03  0.80284402660E+03  0.25500000920E-02 0.  1.
       -2    1    3    3    0  502 -0.45935702929E+03  0.12015379836E+03  0.49091862677E+03  0.68296918945E+03  0.25500000920E-02 0. -1.
</event>
<event>
 5   0  0.4015204E-04  0.1508180E+04  0.7818609E-02  0.8879032E-01
       -1   -1    0    0    0  501  0.00000000000E+00  0.00000000000E+00  0.64382823917E+03  0.64382823919E+03  0.50400001928E-02 0. -1.
        1   -1    0    0  501    0  0.00000000000E+00  0.00000000000E+00 -0.88323480387E+03  0.88323480388E+03  0.50400001928E-02 0.  1.
    10030    2    1    2    0    0  0.00000000000E+00  0.00000000000E+00 -0.23940656470E+03  0.15270630431E+04  0.15081797089E+04 0.  0.
        2    1    3    3  502    0 -0.74954145853E+03 -0.75880773677E+02 -0.15299687382E+03  0.76875115172E+03  0.25500000920E-02 0. -1.
       -2    1    3    3    0  502  0.74954145853E+03  0.75880773677E+02 -0.86409690880E+02  0.75831189134E+03  0.25500000920E-02 0.  1.
</event>
<event>
 5   0  0.7672251E-04  0.1511011E+04  0.7818609E-02  0.8877164E-01
       -2   -1    0    0    0  501  0.00000000000E+00  0.00000000000E+00  0.58692890589E+03  0.58692890590E+03  0.25500000920E-02 0.  1.
        2   -1    0    0  501    0  0.00000000000E+00  0.00000000000E+00 -0.97250001093E+03  0.97250001093E+03  0.25500000920E-02 0. -1.
    10030    2    1    2    0    0  0.00000000000E+00  0.00000000000E+00 -0.38557110504E+03  0.15594289168E+04  0.15110107444E+04 0.  0.
        5    1    3    3  502    0 -0.41725822082E+03 -0.12207234685E+03  0.44488058300E+03  0.62205056373E+03  0.46999998093E+01 0.  1.
       -5    1    3    3    0  502  0.41725822082E+03  0.12207234685E+03 -0.83045168804E+03  0.93737835310E+03  0.46999998093E+01 0. -1.
</event>
<event>
 5   0  0.4084462E-04  0.1500286E+04  0.7818609E-02  0.8884262E-01
       -1   -1    0    0    0  501  0.00000000000E+00  0.00000000000E+00  0.34246767692E+03  0.34246767696E+03  0.50400001928E-02 0. -1.
        1   -1    0    0  501    0  0.00000000000E+00  0.00000000000E+00 -0.16431182098E+04  0.16431182098E+04  0.50400001928E-02 0.  1.
    10030    2    1    2    0    0  0.00000000000E+00  0.00000000000E+00 -0.13006505329E+04  0.19855858868E+04  0.15002864743E+04 0.  0.
        1    1    3    3  502    0  0.43822067009E+03  0.13730104686E+03 -0.14353410948E+04  0.15070145957E+04  0.50400001928E-02 0.  1.
       -1    1    3    3    0  502 -0.43822067009E+03 -0.13730104686E+03  0.13469056191E+03  0.47857129109E+03  0.50400001928E-02 0. -1.
</event>
<event>
 5   0  0.7454828E-04  0.1495124E+04  0.7818609E-02  0.8887702E-01
        2   -1    0    0  501    0  0.00000000000E+00  0.00000000000E+00  0.11449079230E+04  0.11449079230E+04  0.25500000920E-02 0.  1.
       -2   -1    0    0    0  501  0.00000000000E+00  0.00000000000E+00 -0.48811693549E+03  0.48811693550E+03  0.25500000920E-02 0. -1.
    10030    2    1    2    0    0  0.00000000000E+00  0.00000000000E+00  0.65679098751E+03  0.16330248585E+04  0.14951240040E+04 0.  0.
        3    1    3    3  502    0  0.51103923663E+03  0.16013185726E+03 -0.24129169564E+03  0.58738829208E+03  0.10100000352E+00 0. -1.
       -3    1    3    3    0  502 -0.51103923663E+03 -0.16013185726E+03  0.89808268315E+03  0.10456365664E+04  0.10100000352E+00 0.  1.
</event>
<event>
 5   0  0.4015204E-04  0.1499358E+04  0.7818609E-02  0.8884880E-01
       -1   -1    0    0    0  501  0.00000000000E+00  0.00000000000E+00  0.19804058345E+04  0.19804058345E+04  0.50400001928E-02 0. -1.
        1   -1    0    0  501    0  0.00000000000E+00  0.00000000000E+00 -0.28378969268E+03  0.28378969272E+03  0.50400001928E-02 0.  1.
    10030    2    1    2    0    0  0.00000000000E+00  0.00000000000E+00  0.16966161418E+04  0.22641955272E+04  0.14993582136E+04 0.  0.
        2    1    3    3  502    0  0.12135068762E+03 -0.48058008767E+03  0.16976499285E+04  0.17685300364E+04  0.25500000920E-02 0. -1.
       -2    1    3    3    0  502 -0.12135068762E+03  0.48058008767E+03 -0.10337866645E+01  0.49566549080E+03  0.25500000920E-02 0.  1.
</event>
<event>
 5   0  0.4058874E-04  0.1514948E+04  0.7818609E-02  0.8874573E-01
       -1   -1    0    0    0  501  0.00000000000E+00  0.00000000000E+00  0.41560391673E+03  0.41560391676E+03  0.50400001928E-02 0.  1.
        1   -1    0    0  501    0  0.00000000000E+00  0.00000000000E+00 -0.13805608845E+04  0.13805608845E+04  0.50400001928E-02 0. -1.
    10030    2    1    2    0    0  0.00000000000E+00  0.00000000000E+00 -0.96495696780E+03  0.17961648013E+04  0.15149475383E+04 0.  0.
        4    1    3    3  502    0 -0.56491680524E+03  0.48472057306E+03 -0.64880430263E+03  0.98743793061E+03  0.12699999809E+01 0. -1.
       -4    1    3    3    0  502  0.56491680524E+03 -0.48472057306E+03 -0.31615266517E+03  0.80872687069E+03  0.12699999809E+01 0.  1.
</event>
<event>
 5   0  0.2800375E-04  0.1494061E+04  0.7818609E-02  0.8888412E-01
        3   -1    0    0  501    0  0.00000000000E+00  0.00000000000E+00  0.52872075921E+03  0.52872076886E+03  0.10100000352E+00 0.  1.
       -3   -1    0    0    0  501  0.00000000000E+00  0.00000000000E+00 -0.10554805894E+04  0.10554805943E+04  0.10100000352E+00 0. -1.
    10030    2    1    2    0    0  0.00000000000E+00  0.00000000000E+00 -0.52675983023E+03  0.15842013631E+04  0.14940609225E+04 0.  0.
        2    1    3    3  502    0 -0.13619091915E+03 -0.51754791455E+03  0.28926666877E+03  0.60834120030E+03  0.25500000920E-02 0.  1.
       -2    1    3    3    0  502  0.13619091915E+03  0.51754791455E+03 -0.81602649900E+03  0.97586016283E+03  0.25500000920E-02 0. -1.
</event>
<event>
 5   0  0.7547580E-04  0.1517838E+04  0.7818609E-02  0.8872677E-01
       -2   -1    0    0    0  501  0.00000000000E+00  0.00000000000E+00  0.14267493814E+04  0.14267493814E+04  0.25500000920E-02 0. -1.
        2   -1    0    0  501    0  0.00000000000E+00  0.00000000000E+00 -0.40368562378E+03  0.40368562379E+03  0.25500000920E-02 0.  1.
    10030    2    1    2    0    0  0.00000000000E+00  0.00000000000E+00  0.10230637576E+04  0.18304350052E+04  0.15178382180E+04 0.  0.
        4    1    3    3  502    0  0.65670305393E+03 -0.37709229269E+03  0.45124526452E+03  0.88152220613E+03  0.12699999809E+01 0.  1.
       -4    1    3    3    0  502 -0.65670305393E+03  0.37709229269E+03  0.57181849309E+03  0.94891279904E+03  0.12699999809E+01 0. -1.
</event>
<event>
 5   0  0.3907345E-04  0.1511606E+04  0.7818609E-02  0.8876771E-01
        1   -1    0    0  501    0  0.00000000000E+00  0.00000000000E+00  0.88893058326E+03  0.88893058328E+03  0.50400001928E-02 0. -1.
       -1   -1    0    0    0  501  0.00000000000E+00  0.00000000000E+00 -0.64261319999E+03  0.64261320001E+03  0.50400001928E-02 0.  1.
    10030    2    1    2    0    0  0.00000000000E+00  0.00000000000E+00  0.24631738327E+03  0.15315437833E+04  0.15116064656E+04 0.  0.
        5    1    3    3  502    0 -0.36068745299E+03 -0.52544914746E+03 -0.28843099378E+03  0.69957613845E+03  0.46999998093E+01 0.  1.
       -5    1    3    3    0  502  0.36068745299E+03  0.52544914746E+03  0.53474837705E+03  0.83196764484E+03  0.46999998093E+01 0. -1.
</event>
<event>
 5   0  0.7634227E-04  0.1455395E+04  0.7818609E-02  0.8914669E-01
       -2   -1    0    0    0  501  0.00000000000E+00  0.00000000000E+00  0.77186554239E+03  0.77186554239E+03  0.25500000920E-02 0.  1.
        2   -1    0    0  501    0  0.00000000000E+00  0.00000000000E+00 -0.68605649967E+03  0.68605649968E+03  0.25500000920E-02 0. -1.
    10030    2    1    2    0    0  0.00000000000E+00  0.00000000000E+00  0.85809042714E+02  0.14579220421E+04  0.14553946162E+04 0.  0.
        2    1    3    3  502    0 -0.37284422143E+03  0.59492247133E+03  0.23454228680E+03  0.74024026144E+03  0.25500000920E-02 0.  1.
       -2    1    3    3    0  502  0.37284422143E+03 -0.59492247133E+03 -0.14873324409E+03  0.71768178063E+03  0.25500000920E-02 0. -1.
</event>
<event>
 5   0  0.4015204E-04  0.1495069E+04  0.7818609E-02  0.8887738E-01
       -1   -1    0    0    0  501  0.00000000000E+00  0.00000000000E+00  0.88473891217E+03  0.88473891219E+03  0.50400001928E-02 0. -1.
        1   -1    0    0  501    0  0.00000000000E+00  0.00000000000E+00 -0.63160787551E+03  0.63160787553E+03  0.50400001928E-02 0.  1.
    10030    2    1    2    0    0  0.00000000000E+00  0.00000000000E+00  0.25313103667E+03  0.15163467877E+04  0.14950693157E+04 0.  0.
        2    1    3    3  502    0 -0.33188171133E+03  0.36313162303E+03  0.69742397063E+03  0.85346953125E+03  0.25500000920E-02 0. -1.
       -2    1    3    3    0  502  0.33188171133E+03 -0.36313162303E+03 -0.44429293396E+03  0.66287725646E+03  0.25500000920E-02 0.  1.
</event>
<event>
 5   0  0.4084462E-04  0.1490309E+04  0.7818609E-02  0.8890923E-01
       -1   -1    0    0    0  501  0.00000000000E+00  0.00000000000E+00  0.92329254870E+03  0.92329254871E+03  0.50400001928E-02 0.  1.
        1   -1    0    0  501    0  0.00000000000E+00  0.00000000000E+00 -0.60138632442E+03  0.60138632444E+03  0.50400001928E-02 0. -1.
    10030    2    1    2    0    0  0.00000000000E+00  0.00000000000E+00  0.32190622428E+03  0.15246788732E+04  0.14903093803E+04 0.  0.
        1    1    3    3  502    0  0.45930074005E+03  0.12875415689E+03  0.74662434222E+03  0.88599250062E+03  0.50400001928E-02 0.  1.
       -1    1    3    3    0  502 -0.45930074005E+03 -0.12875415689E+03 -0.42471811794E+03  0.63868637253E+03  0.50400001928E-02 0. -1.
</event>
<event>
 5   0  0.7634227E-04  0.1484264E+04  0.7818609E-02  0.8894985E-01
        2   -1    0    0  501    0  0.00000000000E+00  0.00000000000E+00  0.12951563000E+04  0.12951563000E+04  0.25500000920E-02 0.  1.
       -2   -1    0    0    0  501  0.00000000000E+00  0.00000000000E+00 -0.42524562308E+03  0.42524562309E+03  0.25500000920E-02 0. -1.
    10030    2    1    2    0    0  0.00000000000E+00  0.00000000000E+00  0.86991067688E+03  0.17204019230E+04  0.14842635181E+04 0.  0.
        2    1    3    3  502    0 -0.25041326050E+03  0.33832087875E+01  0.12446983234E+04  0.12696425337E+04  0.25500000920E-02 0.  1.
       -2    1    3    3    0  502  0.25041326050E+03 -0.33832087875E+01 -0.37478764649E+03  0.45075938937E+03  0.25500000920E-02 0. -1.
</event>
<event>
 5   0  0.7359897E-04  0.1490042E+04  0.7818609E-02  0.8891102E-01
        2   -1    0    0  501    0  0.00000000000E+00  0.00000000000E+00  0.14056418022E+04  0.14056418022E+04  0.25500000920E-02 0.  1.
       -2   -1    0    0    0  501  0.00000000000E+00  0.00000000000E+00 -0.39487767119E+03  0.39487767119E+03  0.25500000920E-02 0. -1.
    10030    2    1    2    0    0  0.00000000000E+00  0.00000000000E+00  0.10107641310E+04  0.18005194734E+04  0.14900423637E+04 0.  0.
        1    1    3    3  502    0  0.52151333570E+03  0.44990112255E+03  0.16217709293E+03  0.70759351953E+03  0.50400001928E-02 0. -1.
       -1    1    3    3    0  502 -0.52151333570E+03 -0.44990112255E+03  0.84858703807E+03  0.10929259538E+04  0.50400001928E-02 0.  1.
</event>
<event>
 5   0  0.4015204E-04  0.1488941E+04  0.7818609E-02  0.8891841E-01
       -1   -1    0    0    0  501  0.00000000000E+00  0.00000000000E+00  0.29854929410E+03  0.29854929414E+03  0.50400001928E-02 0. -1.
        1   -1    0    0  501    0  0.00000000000E+00  0.00000000000E+00 -0.18564310324E+04  0.18564310324E+04  0.50400001928E-02 0.  1.
    10030    2    1    2    0    0  0.00000000000E+00  0.00000000000E+00 -0.15578817383E+04  0.21549803266E+04  0.14889407971E+04 0.  0.
        2    1    3    3  502    0 -0.25177968873E+02  0.59138471852E+02  0.29452596458E+03  0.30145784579E+03  0.25500000920E-02 0. -1.
       -2    1    3    3    0  502  0.25177968873E+02 -0.59138471852E+02 -0.18524077029E+04  0.18535224808E+04  0.25500000920E-02 0.  1.
</event>
<event>
 5   0  0.4084462E-04  0.1504773E+04  0.7818609E-02  0.8881285E-01
        1   -1    0    0  501    0  0.00000000000E+00  0.00000000000E+00  0.15407214220E+04  0.15407214220E+04  0.50400001928E-02 0.  1.
       -1   -1    0    0    0  501  0.00000000000E+00  0.00000000000E+00 -0.36741580238E+03  0.36741580242E+03  0.50400001928E-02 0. -1.
    10030    2    1    2    0    0  0.00000000000E+00  0.00000000000E+00  0.11733056196E+04  0.19081372244E+04  0.15047729364E+04 0.  0.
        1    1    3    3  502    0 -0.44533420632E+02 -0.31275490324E+03 -0.27924187324E+03  0.42163358364E+03  0.50400001928E-02 0. -1.
       -1    1    3    3    0  502  0.44533420632E+02  0.31275490324E+03  0.14525474928E+04  0.14865036408E+04  0.50400001928E-02 0.  1.
</event>
<event>
 5   0  0.4058874E-04  0.1510856E+04  0.7818609E-02  0.8877266E-01
        1   -1    0    0  501    0  0.00000000000E+00  0.00000000000E+00  0.50158145874E+03  0.50158145876E+03  0.50400001928E-02 0.  1.
       -1   -1    0    0    0  501  0.00000000000E+00  0.00000000000E+00 -0.11377435897E+04  0.11377435897E+04  0.50400001928E-02 0. -1.
    10030    2    1    2    0    0  0.00000000000E+00  0.00000000000E+00 -0.63616213099E+03  0.16393250485E+04  0.15108555052E+04 0.  0.
        4    1    3    3  502    0  0.40455848917E+03  0.89039903476E+02 -0.10035199723E+04  0.10856563099E+04  0.12699999809E+01 0. -1.
       -4    1    3    3    0  502 -0.40455848917E+03 -0.89039903476E+02  0.36735784133E+03  0.55366873856E+03  0.12699999809E+01 0.  1.
</event>
<event>
 5   0  0.7547580E-04  0.1521987E+04  0.7818609E-02  0.8869962E-01
       -2   -1    0    0    0  501  0.00000000000E+00  0.00000000000E+00  0.11185251967E+04  0.11185251967E+04  0.25500000920E-02 0.  1.
        2   -1    0    0  501    0  0.00000000000E+00  0.00000000000E+00 -0.51774511089E+03  0.51774511089E+03  0.25500000920E-02 0. -1.
    10030    2    1    2    0    0  0.00000000000E+00  0.00000000000E+00  0.60078008583E+03  0.16362703076E+04  0.15219867963E+04 0.  0.
        4    1    3    3  502    0  0.36929081910E+03  0.37342749061E+03 -0.29167581336E+03  0.60074969231E+03  0.12699999809E+01 0. -1.
       -4    1    3    3    0  502 -0.36929081910E+03 -0.37342749061E+03  0.89245589919E+03  0.10355206153E+04  0.12699999809E+01 0.  1.
</event>
<event>
 5   0  0.4086710E-04  0.1516157E+04  0.7818609E-02  0.8873779E-01
        1   -1    0    0  501    0  0.00000000000E+00  0.00000000000E+00  0.91188612534E+03  0.91188612536E+03  0.50400001928E-02 0. -1.
       -1   -1    0    0    0  501  0.00000000000E+00  0.00000000000E+00 -0.63021355641E+03  0.63021355643E+03  0.50400001928E-02 0.  1.
    10030    2    1    2    0    0  0.00000000000E+00  0.00000000000E+00  0.28167256893E+03  0.15420996818E+04  0.15161569815E+04 0.  0.
        3    1    3    3  502    0 -0.38242269239E+03  0.65368730064E+03  0.10666400585E+03  0.76480809555E+03  0.10100000352E+00 0. -1.
       -3    1    3    3    0  502  0.38242269239E+03 -0.65368730064E+03  0.17500856308E+03  0.77729158623E+03  0.10100000352E+00 0.  1.
</event>
<event>
 5   0  0.4084462E-04  0.1498714E+04  0.7818609E-02  0.8885309E-01
        1   -1    0    0  501    0  0.00000000000E+00  0.00000000000E+00  0.50154327972E+03  0.50154327974E+03  0.50400001928E-02 0.  1.
       -1   -1    0    0    0  501  0.00000000000E+00  0.00000000000E+00 -0.11196159028E+04  0.11196159029E+04  0.50400001928E-02 0. -1.
    10030    2    1    2    0    0  0.00000000000E+00  0.00000000000E+00 -0.61807262312E+03  0.16211591826E+04  0.14987138913E+04 0.  0.
        1    1    3    3  502    0  0.55386562359E+03  0.23744565687E+03 -0.79083422555E+03  0.99426673548E+03  0.50400001928E-02 0. -1.
       -1    1    3    3    0  502 -0.55386562359E+03 -0.23744565687E+03  0.17276160242E+03  0.62689244712E+03  0.50400001928E-02 0.  1.
</event>
<event>
 5   0  0.4084462E-04  0.1446172E+04  0.7818609E-02  0.8921059E-01
       -1   -1    0    0    0  501  0.00000000000E+00  0.00000000000E+00  0.51109562097E+03  0.51109562100E+03  0.50400001928E-02 0.  1.
        1   -1    0    0  501    0  0.00000000000E+00  0.00000000000E+00 -0.10230048188E+04  0.10230048189E+04  0.50400001928E-02 0. -1.
    10030    2    1    2    0    0  0.00000000000E+00  0.00000000000E+00 -0.51190919787E+03  0.15341004399E+04  0.14461718891E+04 0.  0.
        1    1    3    3  502    0  0.57495945796E+03 -0.22071941938E+03 -0.65788174641E+03  0.90116803798E+03  0.50400001928E-02 0. -1.
       -1    1    3    3    0  502 -0.57495945796E+03  0.22071941938E+03  0.14597254855E+03  0.63293240187E+03  0.50400001928E-02 0.  1.
</event>
<event>
 5   0  0.7547580E-04  0.1492082E+04  0.7818609E-02  0.8889736E-01
        2   -1    0    0  501    0  0.00000000000E+00  0.00000000000E+00  0.14098177815E+04  0.14098177816E+04  0.25500000920E-02 0.  1.
       -2   -1    0    0    0  501  0.00000000000E+00  0.00000000000E+00 -0.39478647836E+03  0.39478647837E+03  0.25500000920E-02 0. -1.
    10030    2    1    2    0    0  0.00000000000E+00  0.00000000000E+00  0.10150313032E+04  0.18046042599E+04  0.14920817633E+04 0.  0.
        4    1    3    3  502    0  0.31183696469E+02 -0.41026265982E+03 -0.24515694110E+03  0.47894823482E+03  0.12699999809E+01 0. -1.
       -4    1    3    3    0  502 -0.31183696469E+02  0.41026265982E+03  0.12601882443E+04  0.13256560251E+04  0.12699999809E+01 0.  1.
</event>
<event>
 5   0  0.7454828E-04  0.1515729E+04  0.7818609E-02  0.8874060E-01
       -2   -1    0    0    0  501  0.00000000000E+00  0.00000000000E+00  0.60956505793E+03  0.60956505794E+03  0.25500000920E-02 0.  1.
        2   -1    0    0  501    0  0.00000000000E+00  0.00000000000E+00 -0.94224343702E+03  0.94224343703E+03  0.25500000920E-02 0. -1.
    10030    2    1    2    0    0  0.00000000000E+00  0.00000000000E+00 -0.33267837909E+03  0.15518084950E+04  0.15157290989E+04 0.  0.
        3    1    3    3  502    0 -0.35997983158E+03  0.63930253978E+03 -0.36076871035E+03  0.81758625788E+03  0.10100000352E+00 0. -1.
       -3    1    3    3    0  502  0.35997983158E+03 -0.63930253978E+03  0.28090331258E+02  0.73422223708E+03  0.10100000352E+00 0.  1.
</event>
<event>
 5   0  0.7672251E-04  0.1623744E+04  0.7818609E-02  0.8806092E-01
        2   -1    0    0  501    0  0.00000000000E+00  0.00000000000E+00  0.67996639367E+03  0.67996639368E+03  0.25500000920E-02 0. -1.
       -2   -1    0    0    0  501  0.00000000000E+00  0.00000000000E+00 -0.96936603181E+03  0.96936603182E+03  0.25500000920E-02 0.  1.
    10030    2    1    2    0    0  0.00000000000E+00  0.00000000000E+00 -0.28939963814E+03  0.16493324255E+04  0.16237442222E+04 0.  0.
        5    1    3    3  502    0  0.11301943874E+03 -0.80338428612E+03 -0.11398205670E+03  0.81927632943E+03  0.46999998093E+01 0.  1.
       -5    1    3    3    0  502 -0.11301943874E+03  0.80338428612E+03 -0.17541758145E+03  0.83005609606E+03  0.46999998093E+01 0. -1.
</event>
<event>
 5   0  0.7454828E-04  0.1499989E+04  0.7818609E-02  0.8884460E-01
       -2   -1    0    0    0  501  0.00000000000E+00  0.00000000000E+00  0.10485741009E+04  0.10485741009E+04  0.25500000920E-02 0. -1.
        2   -1    0    0  501    0  0.00000000000E+00  0.00000000000E+00 -0.53643491071E+03  0.53643491071E+03  0.25500000920E-02 0.  1.
    10030    2    1    2    0    0  0.00000000000E+00  0.00000000000E+00  0.51213919021E+03  0.15850090116E+04  0.14999890056E+04 0.  0.
        3    1    3    3  502    0  0.34603443601E+03 -0.19250791396E+03  0.92911166509E+03  0.10099740711E+04  0.10100000352E+00 0. -1.
       -3    1    3    3    0  502 -0.34603443601E+03  0.19250791396E+03 -0.41697247488E+03  0.57503494055E+03  0.10100000352E+00 0.  1.
</event>
<event>
 5   0  0.3907345E-04  0.1511988E+04  0.7818609E-02  0.8876520E-01
       -1   -1    0    0    0  501  0.00000000000E+00  0.00000000000E+00  0.41953662681E+03  0.41953662685E+03  0.50400001928E-02 0. -1.
        1   -1    0    0  501    0  0.00000000000E+00  0.00000000000E+00 -0.13622821783E+04  0.13622821783E+04  0.50400001928E-02 0.  1.
    10030    2    1    2    0    0  0.00000000000E+00  0.00000000000E+00 -0.94274555150E+03  0.17818188052E+04  0.15119884522E+04 0.  0.
        5    1    3    3  502    0  0.60742185465E+03  0.10839467949E+03 -0.98612466392E+03  0.11632603573E+04  0.46999998093E+01 0.  1.
       -5    1    3    3    0  502 -0.60742185465E+03 -0.10839467949E+03  0.43379112420E+02  0.61855844788E+03  0.46999998093E+01 0. -1.
</event>
<event>
 5   0  0.7672251E-04  0.1490245E+04  0.7818609E-02  0.8890966E-01
        2   -1    0    0  501    0  0.00000000000E+00  0.00000000000E+00  0.64514377020E+03  0.64514377021E+03  0.25500000920E-02 0. -1.
       -2   -1    0    0    0  501  0.00000000000E+00  0.00000000000E+00 -0.86059483780E+03  0.86059483780E+03  0.25500000920E-02 0.  1.
    10030    2    1    2    0    0  0.00000000000E+00  0.00000000000E+00 -0.21545106760E+03  0.15057386080E+04  0.14902448098E+04 0.  0.
        5    1    3    3  502    0 -0.71418248899E+02  0.28426165396E+03  0.58443688592E+03  0.65383011388E+03  0.46999998093E+01 0. -1.
       -5    1    3    3    0  502  0.71418248899E+02 -0.28426165396E+03 -0.79988795352E+03  0.85190849413E+03  0.46999998093E+01 0.  1.
</event>
<event>
 5   0  0.7634227E-04  0.1517321E+04  0.7818609E-02  0.8873016E-01
       -2   -1    0    0    0  501  0.00000000000E+00  0.00000000000E+00  0.58907455934E+03  0.58907455934E+03  0.25500000920E-02 0. -1.
        2   -1    0    0  501    0  0.00000000000E+00  0.00000000000E+00 -0.97706774726E+03  0.97706774726E+03  0.25500000920E-02 0.  1.
    10030    2    1    2    0    0  0.00000000000E+00  0.00000000000E+00 -0.38799318792E+03  0.15661423066E+04  0.15173209979E+04 0.  0.
        2    1    3    3  502    0 -0.56036281716E+03 -0.44414488541E+03 -0.45571903211E+03  0.84790978431E+03  0.25500000920E-02 0.  1.
       -2    1    3    3    0  502  0.56036281716E+03  0.44414488541E+03  0.67725844193E+02  0.71823252229E+03  0.25500000920E-02 0. -1.
</event>
<event>
 5   0  0.7672251E-04  0.1495216E+04  0.7818609E-02  0.8887640E-01
        2   -1    0    0  501    0  0.00000000000E+00  0.00000000000E+00  0.57258970183E+03  0.57258970184E+03  0.25500000920E-02 0.  1.
       -2   -1    0    0    0  501  0.00000000000E+00  0.00000000000E+00 -0.97612262453E+03  0.97612262454E+03  0.25500000920E-02 0. -1.
    10030    2    1    2    0    0  0.00000000000E+00  0.00000000000E+00 -0.40353292270E+03  0.15487123264E+04  0.14952160547E+04 0.  0.
        5    1    3    3  502    0 -0.73338894802E+03 -0.10336203681E+03 -0.96378309365E+02  0.74689619644E+03  0.46999998093E+01 0. -1.
       -5    1    3    3    0  502  0.73338894802E+03  0.10336203681E+03 -0.30715461334E+03  0.80181612994E+03  0.46999998093E+01 0.  1.
</event>
<event>
 5   0  0.4084462E-04  0.1559430E+04  0.7818609E-02  0.8845867E-01
       -1   -1    0    0    0  501  0.00000000000E+00  0.00000000000E+00  0.19488817106E+04  0.19488817106E+04  0.50400001928E-02 0. -1.
        1   -1    0    0  501    0  0.00000000000E+00  0.00000000000E+00 -0.31195101278E+03  0.31195101282E+03  0.50400001928E-02 0.  1.
    10030    2    1    2    0    0  0.00000000000E+00  0.00000000000E+00  0.16369306978E+04  0.22608327235E+04  0.15594301824E+04 0.  0.
        1    1    3    3  502    0 -0.27391296678E+03 -0.55031480052E+03  0.12305234526E+03  0.62691033867E+03  0.50400001928E-02 0.  1.
       -1    1    3    3    0  502  0.27391296678E+03  0.55031480052E+03  0.15138783526E+04  0.16339223848E+04  0.50400001928E-02 0. -1.
</event>
<event>
 5   0  0.7634227E-04  0.1499208E+04  0.7818609E-02  0.8884980E-01
        2   -1    0    0  501    0  0.00000000000E+00  0.00000000000E+00  0.31461045637E+03  0.31461045638E+03  0.25500000920E-02 0. -1.
       -2   -1    0    0    0  501  0.00000000000E+00  0.00000000000E+00 -0.17860378477E+04  0.17860378477E+04  0.25500000920E-02 0.  1.
    10030    2    1    2    0    0  0.00000000000E+00  0.00000000000E+00 -0.14714273914E+04  0.21006483041E+04  0.14992080341E+04 0.  0.
        2    1    3    3  502    0  0.63533856291E+03 -0.39780785670E+03 -0.73577623260E+03  0.10503679569E+04  0.25500000920E-02 0.  1.
       -2    1    3    3    0  502 -0.63533856291E+03  0.39780785670E+03 -0.73565115877E+03  0.10502803472E+04  0.25500000920E-02 0. -1.
</event>
<event>
 5   0  0.3907345E-04  0.1502248E+04  0.7818609E-02  0.8882959E-01
        1   -1    0    0  501    0  0.00000000000E+00  0.00000000000E+00  0.51184108570E+03  0.51184108573E+03  0.50400001928E-02 0.  1.
       -1   -1    0    0    0  501  0.00000000000E+00  0.00000000000E+00 -0.11022706734E+04  0.11022706735E+04  0.50400001928E-02 0. -1.
    10030    2    1    2    0    0  0.00000000000E+00  0.00000000000E+00 -0.59042958775E+03  0.16141117592E+04  0.15022482062E+04 0.  0.
        5    1    3    3  502    0  0.48037070875E+02 -0.47666615449E+02 -0.10989725863E+04  0.11010642587E+04  0.46999998093E+01 0. -1.
       -5    1    3    3    0  502 -0.48037070875E+02  0.47666615449E+02  0.50854299853E+03  0.51304750049E+03  0.46999998093E+01 0.  1.
</event>
<event>
 5   0  0.4086710E-04  0.1531662E+04  0.7818609E-02  0.8863667E-01
       -1   -1    0    0    0  501  0.00000000000E+00  0.00000000000E+00  0.11644876962E+04  0.11644876962E+04  0.50400001928E-02 0.  1.
        1   -1    0    0  501    0  0.00000000000E+00  0.00000000000E+00 -0.50365241129E+03  0.50365241131E+03  0.50400001928E-02 0. -1.
    10030    2    1    2    0    0  0.00000000000E+00  0.00000000000E+00  0.66083528490E+03  0.16681401075E+04  0.15316618898E+04 0.  0.
        3    1    3    3  502    0  0.35588872762E+03  0.67367182774E+03  0.24601021825E+03  0.80063197265E+03  0.10100000352E+00 0.  1.
       -3    1    3    3    0  502 -0.35588872762E+03 -0.67367182774E+03  0.41482506665E+03  0.86750813487E+03  0.10100000352E+00 0. -1.
</event>
<event>
 5   0  0.7547580E-04  0.1477237E+04  0.7818609E-02  0.8899733E-01
        2   -1    0    0  501    0  0.00000000000E+00  0.00000000000E+00  0.10266542975E+04  0.10266542975E+04  0.25500000920E-02 0.  1.
       -2   -1    0    0    0  501  0.00000000000E+00  0.00000000000E+00 -0.53139330630E+03  0.53139330631E+03  0.25500000920E-02 0. -1.
    10030    2    1    2    0    0  0.00000000000E+00  0.00000000000E+00  0.49526099119E+03  0.15580476038E+04  0.14772369093E+04 0.  0.
        4    1    3    3  502    0 -0.50942431821E+03  0.39239279678E+02 -0.31493592820E+03  0.60019922428E+03  0.12699999809E+01 0. -1.
       -4    1    3    3    0  502  0.50942431821E+03 -0.39239279678E+02  0.81019691939E+03  0.95784837952E+03  0.12699999809E+01 0.  1.
</event>
<event>
 5   0  0.3907345E-04  0.1477703E+04  0.7818609E-02  0.8899417E-01
        1   -1    0    0  501    0  0.00000000000E+00  0.00000000000E+00  0.99592076564E+03  0.99592076565E+03  0.50400001928E-02 0. -1.
       -1   -1    0    0    0  501  0.00000000000E+00  0.00000000000E+00 -0.54813728656E+03  0.54813728658E+03  0.50400001928E-02 0.  1.
    10030    2    1    2    0    0  0.00000000000E+00  0.00000000000E+00  0.44778347908E+03  0.15440580522E+04  0.14777026847E+04 0.  0.
        5    1    3    3  502    0  0.33819027063E+03  0.65399995630E+03  0.28822437621E+03  0.79068576757E+03  0.46999998093E+01 0.  1.
       -5    1    3    3    0  502 -0.33819027063E+03 -0.65399995630E+03  0.15955910287E+03  0.75337228466E+03  0.46999998093E+01 0. -1.
</event>
<event>
 5   0  0.4058874E-04  0.1519963E+04  0.7818609E-02  0.8871286E-01
       -1   -1    0    0    0  501  0.00000000000E+00  0.00000000000E+00  0.51814122484E+03  0.51814122487E+03  0.50400001928E-02 0. -1.
        1   -1    0    0  501    0  0.00000000000E+00  0.00000000000E+00 -0.11146990492E+04  0.11146990493E+04  0.50400001928E-02 0.  1.
    10030    2    1    2    0    0  0.00000000000E+00  0.00000000000E+00 -0.59655782440E+03  0.16328402741E+04  0.15199625400E+04 0.  0.
        4    1    3    3  502    0  0.76302740956E+02 -0.30635031638E+03  0.44436068923E+03  0.54509692685E+03  0.12699999809E+01 0. -1.
       -4    1    3    3    0  502 -0.76302740956E+02  0.30635031638E+03 -0.10409185136E+04  0.10877433473E+04  0.12699999809E+01 0.  1.
</event>
<event>
 5   0  0.4086710E-04  0.1489865E+04  0.7818609E-02  0.8891221E-01
       -1   -1    0    0    0  501  0.00000000000E+00  0.00000000000E+00  0.65222649045E+03  0.65222649046E+03  0.50400001928E-02 0. -1.
        1   -1    0    0  501    0  0.00000000000E+00  0.00000000000E+00 -0.85081515354E+03  0.85081515355E+03  0.50400001928E-02 0.  1.
    10030    2    1    2    0    0  0.00000000000E+00  0.00000000000E+00 -0.19858866309E+03  0.15030416440E+04  0.14898646672E+04 0.  0.
        3    1    3    3  502    0  0.48380793272E+03 -0.71826870058E+02  0.46754243834E+03  0.67662778310E+03  0.10100000352E+00 0. -1.
       -3    1    3    3    0  502 -0.48380793272E+03  0.71826870058E+02 -0.66613110143E+03  0.82641386092E+03  0.10100000352E+00 0.  1.
</event>
<event>
 5   0  0.7672251E-04  0.1644240E+04  0.7818609E-02  0.8793821E-01
       -2   -1    0    0    0  501  0.00000000000E+00  0.00000000000E+00  0.65200547692E+03  0.65200547693E+03  0.25500000920E-02 0. -1.
        2   -1    0    0  501    0  0.00000000000E+00  0.00000000000E+00 -0.10366187979E+04  0.10366187979E+04  0.25500000920E-02 0.  1.
    10030    2    1    2    0    0  0.00000000000E+00  0.00000000000E+00 -0.38461332094E+03  0.16886242748E+04  0.16442398045E+04 0.  0.
        5    1    3    3  502    0  0.58635801656E+03 -0.57288209759E+03 -0.12858814424E+03  0.82979914567E+03  0.46999998093E+01 0.  1.
       -5    1    3    3    0  502 -0.58635801656E+03  0.57288209759E+03 -0.25602517670E+03  0.85882512913E+03  0.46999998093E+01 0. -1.
</event>
<event>
 5   0  0.4058874E-04  0.1533193E+04  0.7818609E-02  0.8862675E-01
        1   -1    0    0  501    0  0.00000000000E+00  0.00000000000E+00  0.92334462852E+03  0.92334462853E+03  0.50400001928E-02 0.  1.
       -1   -1    0    0    0  501  0.00000000000E+00  0.00000000000E+00 -0.63645803699E+03  0.63645803701E+03  0.50400001928E-02 0. -1.
    10030    2    1    2    0    0  0.00000000000E+00  0.00000000000E+00  0.28688659153E+03  0.15598026655E+04  0.15331928904E+04 0.  0.
        4    1    3    3  502    0 -0.27652013074E+02 -0.58802745504E+03 -0.35612664726E+03  0.68801796742E+03  0.12699999809E+01 0. -1.
       -4    1    3    3    0  502  0.27652013074E+02  0.58802745504E+03  0.64301323879E+03  0.87178469812E+03  0.12699999809E+01 0.  1.
</event>
<event>
 5   0  0.3907345E-04  0.1405831E+04  0.7818609E-02  0.8949608E-01
        1   -1    0    0  501    0  0.00000000000E+00  0.00000000000E+00  0.93103799447E+03  0.93103799448E+03  0.50400001928E-02 0. -1.
       -1   -1    0    0    0  501  0.00000000000E+00  0.00000000000E+00 -0.53068754049E+03  0.53068754051E+03  0.50400001928E-02 0.  1.
    10030    2    1    2    0    0  0.00000000000E+00  0.00000000000E+00  0.40035045398E+03  0.14617255350E+04  0.14058310900E+04 0.  0.
        5    1    3    3  502    0  0.51609230132E+03 -0.41919574419E+03 -0.36907697377E+02  0.66592837720E+03  0.46999998093E+01 0.  1.
       -5    1    3    3    0  502 -0.51609230132E+03  0.41919574419E+03  0.43725815135E+03  0.79579715780E+03  0.46999998093E+01 0. -1.
</event>
<event>
 5   0  0.7672251E-04  0.1478205E+04  0.7818609E-02  0.8899077E-01
        2   -1    0    0  501    0  0.00000000000E+00  0.00000000000E+00  0.23443976697E+03  0.23443976698E+03  0.25500000920E-02 0.  1.
       -2   -1    0    0    0  501  0.00000000000E+00  0.00000000000E+00 -0.23301188719E+04  0.23301188719E+04  0.25500000920E-02 0. -1.
    10030    2    1    2    0    0  0.00000000000E+00  0.00000000000E+00 -0.20956791049E+04  0.25645586388E+04  0.14782050268E+04 0.  0.
        5    1    3    3  502    0 -0.26897334382E+03 -0.30538338857E+03 -0.21182193106E+04  0.21569610130E+04  0.46999998093E+01 0. -1.
       -5    1    3    3    0  502  0.26897334382E+03  0.30538338857E+03  0.22540205758E+02  0.40759762582E+03  0.46999998093E+01 0.  1.
</event>
<event>
 5   0  0.3907345E-04  0.1499433E+04  0.7818609E-02  0.8884830E-01
       -1   -1    0    0    0  501  0.00000000000E+00  0.00000000000E+00  0.38165893506E+03  0.38165893510E+03  0.50400001928E-02 0. -1.
        1   -1    0    0  501    0  0.00000000000E+00  0.00000000000E+00 -0.14727159157E+04  0.14727159157E+04  0.50400001928E-02 0.  1.
    10030    2    1    2    0    0  0.00000000000E+00  0.00000000000E+00 -0.10910569807E+04  0.18543748508E+04  0.14994334771E+04 0.  0.
        5    1    3    3  502    0 -0.11026251215E+03  0.73636008266E+03 -0.43722494531E+03  0.86346495917E+03  0.46999998093E+01 0. -1.
       -5    1    3    3    0  502  0.11026251215E+03 -0.73636008266E+03 -0.65383203535E+03  0.99090989165E+03  0.46999998093E+01 0.  1.
</event>
<event>
 5   0  0.7547580E-04  0.1573184E+04  0.7818609E-02  0.8837193E-01
       -2   -1    0    0    0  501  0.00000000000E+00  0.00000000000E+00  0.60579643164E+03  0.60579643164E+03  0.25500000920E-02 0. -1.
        2   -1    0    0  501    0  0.00000000000E+00  0.00000000000E+00 -0.10213450224E+04  0.10213450224E+04  0.25500000920E-02 0.  1.
    10030    2    1    2    0    0  0.00000000000E+00  0.00000000000E+00 -0.41554859075E+03  0.16271414540E+04  0.15731842486E+04 0.  0.
        4    1    3    3  502    0 -0.17442581135E+03 -0.70430418170E+03 -0.52192999570E+03  0.89380158723E+03  0.12699999809E+01 0.  1.
       -4    1    3    3    0  502  0.17442581135E+03  0.70430418170E+03  0.10638140495E+03  0.73333986681E+03  0.12699999809E+01 0. -1.
</event>
<event>
 5   0  0.4058874E-04  0.1504524E+04  0.7818609E-02  0.8881450E-01
        1   -1    0    0  501    0  0.00000000000E+00  0.00000000000E+00  0.19054056640E+04  0.19054056640E+04  0.50400001928E-02 0.  1.
       -1   -1    0    0    0  501  0.00000000000E+00  0.00000000000E+00 -0.29699629813E+03  0.29699629817E+03  0.50400001928E-02 0. -1.
    10030    2    1    2    0    0  0.00000000000E+00  0.00000000000E+00  0.16084093659E+04  0.22024019622E+04  0.15045244148E+04 0.  0.
        4    1    3    3  502    0 -0.45089815597E+03  0.31111941781E+03  0.15588947011E+04  0.16523494610E+04  0.12699999809E+01 0.  1.
       -4    1    3    3    0  502  0.45089815597E+03 -0.31111941781E+03  0.49514664822E+02  0.55005250124E+03  0.12699999809E+01 0. -1.
</event>
<event>
 5   0  0.4015204E-04  0.1506523E+04  0.7818609E-02  0.8880127E-01
       -1   -1    0    0    0  501  0.00000000000E+00  0.00000000000E+00  0.63171609362E+03  0.63171609364E+03  0.50400001928E-02 0.  1.
        1   -1    0    0  501    0  0.00000000000E+00  0.00000000000E+00 -0.89819257036E+03  0.89819257037E+03  0.50400001928E-02 0. -1.
    10030    2    1    2    0    0  0.00000000000E+00  0.00000000000E+00 -0.26647647674E+03  0.15299086640E+04  0.15065227537E+04 0.  0.
        2    1    3    3  502    0 -0.37991616864E+03 -0.97285213889E+02 -0.78634039899E+03  0.87871037954E+03  0.25500000920E-02 0. -1.
       -2    1    3    3    0  502  0.37991616864E+03  0.97285213889E+02  0.51986392225E+03  0.65119828447E+03  0.25500000920E-02 0.  1.
</event>
<event>
 5   0  0.4086710E-04  0.1487169E+04  0.7818609E-02  0.8893030E-01
        1   -1    0    0  501    0  0.00000000000E+00  0.00000000000E+00  0.67258766287E+03  0.67258766289E+03  0.50400001928E-02 0.  1.
       -1   -1    0    0    0  501  0.00000000000E+00  0.00000000000E+00 -0.82207614769E+03  0.82207614771E+03  0.50400001928E-02 0. -1.
    10030    2    1    2    0    0  0.00000000000E+00  0.00000000000E+00 -0.14948848482E+03  0.14946638106E+04  0.14871694926E+04 0.  0.
        3    1    3    3  502    0 -0.15432103216E+03  0.29698744594E+03  0.59260620844E+03  0.68058699113E+03  0.10100000352E+00 0.  1.
       -3    1    3    3    0  502  0.15432103216E+03 -0.29698744594E+03 -0.74209469327E+03  0.81407681946E+03  0.10100000352E+00 0. -1.
</event>
<event>
 5   0  0.7454828E-04  0.1504673E+04  0.7818609E-02  0.8881351E-01
        2   -1    0    0  501    0  0.00000000000E+00  0.00000000000E+00  0.66508259643E+03  0.66508259643E+03  0.25500000920E-02 0.  1.
       -2   -1    0    0    0  501  0.00000000000E+00  0.00000000000E+00 -0.85103740266E+03  0.85103740266E+03  0.25500000920E-02 0. -1.
    10030    2    1    2    0    0  0.00000000000E+00  0.00000000000E+00 -0.18595480623E+03  0.15161199991E+04  0.15046729418E+04 0.  0.
        3    1    3    3  502    0  0.71988037824E+03  0.21817900098E+03 -0.10650788110E+03  0.75971953666E+03  0.10100000352E+00 0. -1.
       -3    1    3    3    0  502 -0.71988037824E+03 -0.21817900098E+03 -0.79446925129E+02  0.75640046243E+03  0.10100000352E+00 0.  1.
</event>
<event>
 5   0  0.4015204E-04  0.1501093E+04  0.7818609E-02  0.8883726E-01
        1   -1    0    0  501    0  0.00000000000E+00  0.00000000000E+00  0.25415869793E+04  0.25415869793E+04  0.50400001928E-02 0.  1.
       -1   -1    0    0    0  501  0.00000000000E+00  0.00000000000E+00 -0.22164120308E+03  0.22164120314E+03  0.50400001928E-02 0. -1.
    10030    2    1    2    0    0  0.00000000000E+00  0.00000000000E+00  0.23199457762E+04  0.27632281824E+04  0.15010934627E+04 0.  0.
        2    1    3    3  502    0  0.41313996395E+03  0.51180289355E+03  0.49449118846E+03  0.82289025218E+03  0.25500000920E-02 0. -1.
       -2    1    3    3    0  502 -0.41313996395E+03 -0.51180289355E+03  0.18254545877E+04  0.19403379302E+04  0.25500000920E-02 0.  1.
</event>
<event>
 5   0  0.4015204E-04  0.1765010E+04  0.7818609E-02  0.8725131E-01
        1   -1    0    0  501    0  0.00000000000E+00  0.00000000000E+00  0.63311594377E+03  0.63311594379E+03  0.50400001928E-02 0.  1.
       -1   -1    0    0    0  501  0.00000000000E+00  0.00000000000E+00 -0.12301297603E+04  0.12301297604E+04  0.50400001928E-02 0. -1.
    10030    2    1    2    0    0  0.00000000000E+00  0.00000000000E+00 -0.59701381658E+03  0.18632457041E+04  0.17650096478E+04 0.  0.
        2    1    3    3  502    0  0.85815869790E+03 -0.19958265931E+03 -0.35176454774E+03  0.94868745419E+03  0.25500000920E-02 0. -1.
       -2    1    3    3    0  502 -0.85815869790E+03  0.19958265931E+03 -0.24524926883E+03  0.91455824995E+03  0.25500000920E-02 0.  1.
</event>
<event>
 5   0  0.7672251E-04  0.1512569E+04  0.7818609E-02  0.8876138E-01
       -2   -1    0    0    0  501  0.00000000000E+00  0.00000000000E+00  0.28256530863E+03  0.28256530864E+03  0.25500000920E-02 0. -1.
        2   -1    0    0  501    0  0.00000000000E+00  0.00000000000E+00 -0.20241900609E+04  0.20241900609E+04  0.25500000920E-02 0.  1.
    10030    2    1    2    0    0  0.00000000000E+00  0.00000000000E+00 -0.17416247523E+04  0.23067553695E+04  0.15125685297E+04 0.  0.
        5    1    3    3  502    0  0.69549275536E+03  0.27363933454E+03 -0.69456984525E+03  0.10203127060E+04  0.46999998093E+01 0.  1.
       -5    1    3    3    0  502 -0.69549275536E+03 -0.27363933454E+03 -0.10470549070E+04  0.12864426635E+04  0.46999998093E+01 0. -1.
</event>
<event>
 5   0  0.7547580E-04  0.1496636E+04  0.7818609E-02  0.8886693E-01
       -2   -1    0    0    0  501  0.00000000000E+00  0.00000000000E+00  0.10408944529E+04  0.10408944529E+04  0.25500000920E-02 0.  1.
        2   -1    0    0  501    0  0.00000000000E+00  0.00000000000E+00 -0.53797975618E+03  0.53797975619E+03  0.25500000920E-02 0. -1.
    10030    2    1    2    0    0  0.00000000000E+00  0.00000000000E+00  0.50291469674E+03  0.15788742091E+04  0.14966364208E+04 0.  0.
        4    1    3    3  502    0  0.61702732156E+02 -0.21896841798E+03  0.10035283856E+04  0.10289923367E+04  0.12699999809E+01 0.  1.
       -4    1    3    3    0  502 -0.61702732156E+02  0.21896841798E+03 -0.50061368890E+03  0.54988187244E+03  0.12699999809E+01 0. -1.
</event>
<event>
 5   0  0.4015204E-04  0.1523060E+04  0.7818609E-02  0.8869262E-01
       -1   -1    0    0    0  501  0.00000000000E+00  0.00000000000E+00  0.79923656809E+03  0.79923656811E+03  0.50400001928E-02 0.  1.
        1   -1    0    0  501    0  0.00000000000E+00  0.00000000000E+00 -0.72560221007E+03  0.72560221009E+03  0.50400001928E-02 0. -1.
    10030    2    1    2    0    0  0.00000000000E+00  0.00000000000E+00  0.73634358023E+02  0.15248387782E+04  0.15230598415E+04 0.  0.
        2    1    3    3  502    0  0.43059976525E+03  0.45765941692E+03 -0.39387072731E+03  0.74162150020E+03  0.25500000920E-02 0.  1.
       -2    1    3    3    0  502 -0.43059976525E+03 -0.45765941692E+03  0.46750508533E+03  0.78321727799E+03  0.25500000920E-02 0. -1.
</event>
<event>
 5   0  0.4086710E-04  0.1463727E+04  0.7818609E-02  0.8908939E-01
        1   -1    0    0  501    0  0.00000000000E+00  0.00000000000E+00  0.71399640775E+03  0.71399640777E+03  0.50400001928E-02 0.  1.
       -1   -1    0    0    0  501  0.00000000000E+00  0.00000000000E+00 -0.75017760312E+03  0.75017760314E+03  0.50400001928E-02 0. -1.
    10030    2    1    2    0    0  0.00000000000E+00  0.00000000000E+00 -0.36181195368E+02  0.14641740109E+04  0.14637269060E+04 0.  0.
        3    1    3    3  502    0  0.11046066665E+03  0.53534315600E+03 -0.50489133192E+03  0.74411633553E+03  0.10100000352E+00 0. -1.
       -3    1    3    3    0  502 -0.11046066665E+03 -0.53534315600E+03  0.46871013656E+03  0.72005767537E+03  0.10100000352E+00 0.  1.
</event>
<event>
 5   0  0.4086710E-04  0.1460516E+04  0.7818609E-02  0.8911142E-01
       -1   -1    0    0    0  501  0.00000000000E+00  0.00000000000E+00  0.59090464859E+03  0.59090464861E+03  0.50400001928E-02 0. -1.
        1   -1    0    0  501    0  0.00000000000E+00  0.00000000000E+00 -0.90247499216E+03  0.90247499217E+03  0.50400001928E-02 0.  1.
    10030    2    1    2    0    0  0.00000000000E+00  0.00000000000E+00 -0.31157034357E+03  0.14933796408E+04  0.14605158926E+04 0.  0.
        3    1    3    3  502    0 -0.54069518137E+03 -0.34052705362E+03 -0.51724588220E+03  0.82210295357E+03  0.10100000352E+00 0.  1.
       -3    1    3    3    0  502  0.54069518137E+03  0.34052705362E+03  0.20567553864E+03  0.67127668722E+03  0.10100000352E+00 0. -1.
</event>
<event>
 5   0  0.7634227E-04  0.1501377E+04  0.7818609E-02  0.8883538E-01
       -2   -1    0    0    0  501  0.00000000000E+00  0.00000000000E+00  0.53146200235E+03  0.53146200235E+03  0.25500000920E-02 0. -1.
        2   -1    0    0  501    0  0.00000000000E+00  0.00000000000E+00 -0.10603457148E+04  0.10603457148E+04  0.25500000920E-02 0.  1.
    10030    2    1    2    0    0  0.00000000000E+00  0.00000000000E+00 -0.52888371247E+03  0.15918077172E+04  0.15013773101E+04 0.  0.
        2    1    3    3  502    0  0.25915390944E+03 -0.13916000904E+03  0.46781462579E+03  0.55260906707E+03  0.25500000920E-02 0. -1.
       -2    1    3    3    0  502 -0.25915390944E+03  0.13916000904E+03 -0.99669833826E+03  0.10391986501E+04  0.25500000920E-02 0.  1.
</event>
<event>
 5   0  0.4084462E-04  0.1501230E+04  0.7818609E-02  0.8883635E-01
        1   -1    0    0  501    0  0.00000000000E+00  0.00000000000E+00  0.10163756308E+04  0.10163756308E+04  0.50400001928E-02 0. -1.
       -1   -1    0    0    0  501  0.00000000000E+00  0.00000000000E+00 -0.55434549590E+03  0.55434549592E+03  0.50400001928E-02 0.  1.
    10030    2    1    2    0    0  0.00000000000E+00  0.00000000000E+00  0.46203013489E+03  0.15707211267E+04  0.15012304994E+04 0.  0.
        1    1    3    3  502    0  0.72944179815E+03  0.16000721707E+03  0.15177562944E+03  0.76205215577E+03  0.50400001928E-02 0.  1.
       -1    1    3    3    0  502 -0.72944179815E+03 -0.16000721707E+03  0.31025450545E+03  0.80866897095E+03  0.50400001928E-02 0. -1.
</event>
<event>
 5   0  0.7672251E-04  0.1511868E+04  0.7818609E-02  0.8876599E-01
        2   -1    0    0  501    0  0.00000000000E+00  0.00000000000E+00  0.57791109786E+03  0.57791109787E+03  0.25500000920E-02 0.  1.
       -2   -1    0    0    0  501  0.00000000000E+00  0.00000000000E+00 -0.98879600743E+03  0.98879600743E+03  0.25500000920E-02 0. -1.
    10030    2    1    2    0    0  0.00000000000E+00  0.00000000000E+00 -0.41088490957E+03  0.15667071053E+04  0.15118679654E+04 0.  0.
        5    1    3    3  502    0  0.64780215154E+01  0.74950968683E+03 -0.10386998826E+03  0.75671513786E+03  0.46999998093E+01 0.  1.
       -5    1    3    3    0  502 -0.64780215154E+01 -0.74950968683E+03 -0.30701492131E+03  0.80999196744E+03  0.46999998093E+01 0. -1.
</event>
<event>
 5   0  0.4086710E-04  0.1499729E+04  0.7818609E-02  0.8884633E-01
       -1   -1    0    0    0  501  0.00000000000E+00  0.00000000000E+00  0.88132143730E+03  0.88132143732E+03  0.50400001928E-02 0.  1.
        1   -1    0    0  501    0  0.00000000000E+00  0.00000000000E+00 -0.63801537461E+03  0.63801537463E+03  0.50400001928E-02 0. -1.
    10030    2    1    2    0    0  0.00000000000E+00  0.00000000000E+00  0.24330606269E+03  0.15193368120E+04  0.14997288115E+04 0.  0.
        3    1    3    3  502    0 -0.29125481882E+03  0.28786227030E+03 -0.51473393324E+03  0.65775762130E+03  0.10100000352E+00 0. -1.
       -3    1    3    3    0  502  0.29125481882E+03 -0.28786227030E+03  0.75803999593E+03  0.86157919066E+03  0.10100000352E+00 0.  1.
</event>
<event>
 5   0  0.7634227E-04  0.1484826E+04  0.7818609E-02  0.8894607E-01
       -2   -1    0    0    0  501  0.00000000000E+00  0.00000000000E+00  0.33169258133E+03  0.33169258134E+03  0.25500000920E-02 0. -1.
        2   -1    0    0  501    0  0.00000000000E+00  0.00000000000E+00 -0.16617105431E+04  0.16617105431E+04  0.25500000920E-02 0.  1.
    10030    2    1    2    0    0  0.00000000000E+00  0.00000000000E+00 -0.13300179618E+04  0.19934031244E+04  0.14848259958E+04 0.  0.
        2    1    3    3  502    0  0.70370733489E+03 -0.10521582831E+03 -0.38052639761E+03  0.80689201445E+03  0.25500000920E-02 0.  1.
       -2    1    3    3    0  502 -0.70370733489E+03  0.10521582831E+03 -0.94949156417E+03  0.11865111100E+04  0.25500000920E-02 0. -1.
</event>
<event>
 5   0  0.2800375E-04  0.1473729E+04  0.7818609E-02  0.8902113E-01
       -3   -1    0    0    0  501  0.00000000000E+00  0.00000000000E+00  0.10914843054E+04  0.10914843100E+04  0.10100000352E+00 0.  1.
        3   -1    0    0  501    0  0.00000000000E+00  0.00000000000E+00 -0.49745982096E+03  0.49745983122E+03  0.10100000352E+00 0. -1.
    10030    2    1    2    0    0  0.00000000000E+00  0.00000000000E+00  0.59402448439E+03  0.15889441412E+04  0.14737294175E+04 0.  0.
        1    1    3    3  502    0 -0.43411105406E+02 -0.10180022757E+03  0.10824727178E+04  0.10881153410E+04  0.50400001928E-02 0.  1.
       -1    1    3    3    0  502  0.43411105406E+02  0.10180022757E+03 -0.48844823343E+03  0.50082880027E+03  0.50400001928E-02 0. -1.
</event>
<event>
 5   0  0.7672251E-04  0.1467111E+04  0.7818609E-02  0.8906623E-01
       -2   -1    0    0    0  501  0.00000000000E+00  0.00000000000E+00  0.10361324994E+04  0.10361324994E+04  0.25500000920E-02 0.  1.
        2   -1    0    0  501    0  0.00000000000E+00  0.00000000000E+00 -0.51933890220E+03  0.51933890220E+03  0.25500000920E-02 0. -1.
    10030    2    1    2    0    0  0.00000000000E+00  0.00000000000E+00  0.51679359717E+03  0.15554714016E+04  0.14671113315E+04 0.  0.
        5    1    3    3  502    0  0.55046010027E+03  0.47041886513E+03  0.13393138497E+03  0.73638300940E+03  0.46999998093E+01 0.  1.
       -5    1    3    3    0  502 -0.55046010027E+03 -0.47041886513E+03  0.38286221221E+03  0.81908839217E+03  0.46999998093E+01 0. -1.
</event>
<event>
 5   0  0.4084462E-04  0.1495703E+04  0.7818609E-02  0.8887315E-01
        1   -1    0    0  501    0  0.00000000000E+00  0.00000000000E+00  0.62086482239E+03  0.62086482241E+03  0.50400001928E-02 0. -1.
       -1   -1    0    0    0  501  0.00000000000E+00  0.00000000000E+00 -0.90081108775E+03  0.90081108776E+03  0.50400001928E-02 0.  1.
    10030    2    1    2    0    0  0.00000000000E+00  0.00000000000E+00 -0.27994626536E+03  0.15216759102E+04  0.14957030668E+04 0.  0.
        1    1    3    3  502    0 -0.50103231259E+03  0.40623049298E+03 -0.52499614574E+03  0.83167153658E+03  0.50400001928E-02 0. -1.
       -1    1    3    3    0  502  0.50103231259E+03 -0.40623049298E+03  0.24504988037E+03  0.69000437360E+03  0.50400001928E-02 0.  1.
</event>
<event>
 5   0  0.4058874E-04  0.1495300E+04  0.7818609E-02  0.8887585E-01
       -1   -1    0    0    0  501  0.00000000000E+00  0.00000000000E+00  0.11415243825E+04  0.11415243825E+04  0.50400001928E-02 0. -1.
        1   -1    0    0  501    0  0.00000000000E+00  0.00000000000E+00 -0.48967870644E+03  0.48967870647E+03  0.50400001928E-02 0.  1.
    10030    2    1    2    0    0  0.00000000000E+00  0.00000000000E+00  0.65184567608E+03  0.16312030890E+04  0.14952995460E+04 0.  0.
        4    1    3    3  502    0  0.34309266578E+02 -0.53204905835E+03 -0.24585736894E+03  0.58711224228E+03  0.12699999809E+01 0.  1.
       -4    1    3    3    0  502 -0.34309266578E+02  0.53204905835E+03  0.89770304502E+03  0.10440908467E+04  0.12699999809E+01 0. -1.
</event>
<event>
 5   0  0.7454828E-04  0.1497724E+04  0.7818609E-02  0.8885968E-01
        2   -1    0    0  501    0  0.00000000000E+00  0.00000000000E+00  0.12088828719E+04  0.12088828719E+04  0.25500000920E-02 0.  1.
       -2   -1    0    0    0  501  0.00000000000E+00  0.00000000000E+00 -0.46389495571E+03  0.46389495571E+03  0.25500000920E-02 0. -1.
    10030    2    1    2    0    0  0.00000000000E+00  0.00000000000E+00  0.74498791620E+03  0.16727778276E+04  0.14977244958E+04 0.  0.
        3    1    3    3  502    0  0.62848395889E+03  0.38372175546E+03  0.52465289608E+03  0.90415438049E+03  0.10100000352E+00 0.  1.
       -3    1    3    3    0  502 -0.62848395889E+03 -0.38372175546E+03  0.22033502012E+03  0.76862344714E+03  0.10100000352E+00 0. -1.
</event>
<event>
 5   0  0.3907345E-04  0.1430305E+04  0.7818609E-02  0.8932170E-01
        1   -1    0    0  501    0  0.00000000000E+00  0.00000000000E+00  0.46188160722E+03  0.46188160725E+03  0.50400001928E-02 0.  1.
       -1   -1    0    0    0  501  0.00000000000E+00  0.00000000000E+00 -0.11073035716E+04  0.11073035716E+04  0.50400001928E-02 0. -1.
    10030    2    1    2    0    0  0.00000000000E+00  0.00000000000E+00 -0.64542196440E+03  0.15691851789E+04  0.14303050771E+04 0.  0.
        5    1    3    3  502    0  0.42633376090E+03  0.23728710905E+02 -0.95208358338E+03  0.10434599979E+04  0.46999998093E+01 0. -1.
       -5    1    3    3    0  502 -0.42633376090E+03 -0.23728710905E+02  0.30666161897E+03  0.52572518102E+03  0.46999998093E+01 0.  1.
</event>
<event>
 5   0  0.7359897E-04  0.1493262E+04  0.7818609E-02  0.8888946E-01
        2   -1    0    0  501    0  0.00000000000E+00  0.00000000000E+00  0.14576686708E+04  0.14576686708E+04  0.25500000920E-02 0. -1.
       -2   -1    0    0    0  501  0.00000000000E+00  0.00000000000E+00 -0.38243136427E+03  0.38243136428E+03  0.25500000920E-02 0.  1.
    10030    2    1    2    0    0  0.00000000000E+00  0.00000000000E+00  0.10752373066E+04  0.18401000351E+04  0.14932624933E+04 0.  0.
        1    1    3    3  502    0 -0.45749391708E+03  0.58999320454E+03  0.54759567920E+03  0.92587995630E+03  0.50400001928E-02 0.  1.
       -1    1    3    3    0  502  0.45749391708E+03 -0.58999320454E+03  0.52764162738E+03  0.91422007883E+03  0.50400001928E-02 0. -1.
</event>
<event>
 5   0  0.4084462E-04  0.1497386E+04  0.7818609E-02  0.8886193E-01
        1   -1    0    0  501    0  0.00000000000E+00  0.00000000000E+00  0.70735014351E+03  0.70735014353E+03  0.50400001928E-02 0.  1.
       -1   -1    0    0    0  501  0.00000000000E+00  0.00000000000E+00 -0.79245257041E+03  0.79245257043E+03  0.50400001928E-02 0. -1.
    10030    2    1    2    0    0  0.00000000000E+00  0.00000000000E+00 -0.85102426903E+02  0.14998027140E+04  0.14973863088E+04 0.  0.
        1    1    3    3  502    0  0.82364798600E+02 -0.14931764974E+03 -0.77274186948E+03  0.79133413767E+03  0.50400001928E-02 0. -1.
       -1    1    3    3    0  502 -0.82364798600E+02  0.14931764974E+03  0.68763944258E+03  0.70846857629E+03  0.50400001928E-02 0.  1.
</event>
<event>
 5   0  0.7634227E-04  0.1511278E+04  0.7818609E-02  0.8876987E-01
       -2   -1    0    0    0  501  0.00000000000E+00  0.00000000000E+00  0.45335476908E+03  0.45335476909E+03  0.25500000920E-02 0.  1.
        2   -1    0    0  501    0  0.00000000000E+00  0.00000000000E+00 -0.12594784702E+04  0.12594784702E+04  0.25500000920E-02 0. -1.
    10030    2    1    2    0    0  0.00000000000E+00  0.00000000000E+00 -0.80612370113E+03  0.17128332393E+04  0.15112783609E+04 0.  0.
        2    1    3    3  502    0  0.26383198244E+03 -0.32917500037E+03  0.30746722280E+03  0.52201493171E+03  0.25500000920E-02 0.  1.
       -2    1    3    3    0  502 -0.26383198244E+03  0.32917500037E+03 -0.11135909239E+04  0.11908183076E+04  0.25500000920E-02 0. -1.
</event>
<event>
 5   0  0.4086710E-04  0.1497088E+04  0.7818609E-02  0.8886392E-01
        1   -1    0    0  501    0  0.00000000000E+00  0.00000000000E+00  0.51621006384E+03  0.51621006386E+03  0.50400001928E-02 0. -1.
       -1   -1    0    0    0  501  0.00000000000E+00  0.00000000000E+00 -0.10854463001E+04  0.10854463001E+04  0.50400001928E-02 0.  1.
    10030    2    1    2    0    0  0.00000000000E+00  0.00000000000E+00 -0.56923623628E+03  0.16016563640E+04  0.14970882458E+04 0.  0.
        3    1    3    3  502    0 -0.48375036026E+03 -0.14491920700E+03 -0.87575354232E+03  0.10109205036E+04  0.10100000352E+00 0.  1.
       -3    1    3    3    0  502  0.48375036026E+03  0.14491920700E+03  0.30651730603E+03  0.59073586035E+03  0.10100000352E+00 0. -1.
</event>
<event>
 5   0  0.7547580E-04  0.1466992E+04  0.7818609E-02  0.8906704E-01
        2   -1    0    0  501    0  0.00000000000E+00  0.00000000000E+00  0.17636618978E+04  0.17636618978E+04  0.25500000920E-02 0. -1.
       -2   -1    0    0    0  501  0.00000000000E+00  0.00000000000E+00 -0.30505641859E+03  0.30505641860E+03  0.25500000920E-02 0.  1.
    10030    2    1    2    0    0  0.00000000000E+00  0.00000000000E+00  0.14586054792E+04  0.20687183164E+04  0.14669920002E+04 0.  0.
        4    1    3    3  502    0 -0.15629524965E+03 -0.37959048693E+03 -0.12789188827E+03  0.42997103486E+03  0.12699999809E+01 0.  1.
       -4    1    3    3    0  502  0.15629524965E+03  0.37959048693E+03  0.15864973675E+04  0.16387472815E+04  0.12699999809E+01 0. -1.
</event>
<event>
 5   0  0.7359897E-04  0.1499774E+04  0.7818609E-02  0.8884603E-01
       -2   -1    0    0    0  501  0.00000000000E+00  0.00000000000E+00  0.40600603833E+03  0.40600603834E+03  0.25500000920E-02 0.  1.
        2   -1    0    0  501    0  0.00000000000E+00  0.00000000000E+00 -0.13850305888E+04  0.13850305888E+04  0.25500000920E-02 0. -1.
    10030    2    1    2    0    0  0.00000000000E+00  0.00000000000E+00 -0.97902455045E+03  0.17910366271E+04  0.14997743595E+04 0.  0.
        1    1    3    3  502    0  0.17764065631E+03 -0.42961596361E+03  0.21314739038E+03  0.51142730569E+03  0.50400001928E-02 0.  1.
       -1    1    3    3    0  502 -0.17764065631E+03  0.42961596361E+03 -0.11921719408E+04  0.12796093214E+04  0.50400001928E-02 0. -1.
</event>
<event>
 5   0  0.4086710E-04  0.1517673E+04  0.7818609E-02  0.8872785E-01
        1   -1    0    0  501    0  0.00000000000E+00  0.00000000000E+00  0.87689404185E+03  0.87689404186E+03  0.50400001928E-02 0. -1.
       -1   -1    0    0    0  501  0.00000000000E+00  0.00000000000E+00 -0.65667318773E+03  0.65667318775E+03  0.50400001928E-02 0.  1.
    10030    2    1    2    0    0  0.00000000000E+00  0.00000000000E+00  0.22022085411E+03  0.15335672296E+04  0.15176729632E+04 0.  0.
        3    1    3    3  502    0  0.14553904098E+03 -0.71838726478E+03  0.30856203700E+03  0.79528134363E+03  0.10100000352E+00 0.  1.
       -3    1    3    3    0  502 -0.14553904098E+03  0.71838726478E+03 -0.88341182887E+02  0.73828588598E+03  0.10100000352E+00 0. -1.
</event>
<event>
 5   0  0.3907345E-04  0.1497550E+04  0.7818609E-02  0.8886084E-01
        1   -1    0    0  501    0  0.00000000000E+00  0.00000000000E+00  0.95080580086E+03  0.95080580087E+03  0.50400001928E-02 0.  1.
       -1   -1    0    0    0  501  0.00000000000E+00  0.00000000000E+00 -0.58967225526E+03  0.58967225528E+03  0.50400001928E-02 0. -1.
    10030    2    1    2    0    0  0.00000000000E+00  0.00000000000E+00  0.36113354560E+03  0.15404780562E+04  0.14975497333E+04 0.  0.
        5    1    3    3  502    0 -0.36103394600E+03 -0.12727193170E+03  0.84251779638E+03  0.92541989495E+03  0.46999998093E+01 0.  1.
       -5    1    3    3    0  502  0.36103394600E+03  0.12727193170E+03 -0.48138425077E+03  0.61505816120E+03  0.46999998093E+01 0. -1.
</event>
<event>
 5   0  0.4086710E-04  0.1503273E+04  0.7818609E-02  0.8882279E-01
        1   -1    0    0  501    0  0.00000000000E+00  0.00000000000E+00  0.75793270406E+03  0.75793270408E+03  0.50400001928E-02 0. -1.
       -1   -1    0    0    0  501  0.00000000000E+00  0.00000000000E+00 -0.74539308740E+03  0.74539308742E+03  0.50400001928E-02 0.  1.
    10030    2    1    2    0    0  0.00000000000E+00  0.00000000000E+00  0.12539616661E+02  0.15033257915E+04  0.15032734925E+04 0.  0.
        3    1    3    3  502    0 -0.61618517787E+03 -0.16973479932E+03 -0.38929889565E+03  0.74836335819E+03  0.10100000352E+00 0.  1.
       -3    1    3    3    0  502  0.61618517787E+03  0.16973479932E+03  0.40183851231E+03  0.75496243331E+03  0.10100000352E+00 0. -1.
</event>
<event>
 5   0  0.3907345E-04  0.1494435E+04  0.7818609E-02  0.8888162E-01
       -1   -1    0    0    0  501  0.00000000000E+00  0.00000000000E+00  0.12672617705E+04  0.12672617705E+04  0.50400001928E-02 0. -1.
        1   -1    0    0  501    0  0.00000000000E+00  0.00000000000E+00 -0.44058272862E+03  0.44058272865E+03  0.50400001928E-02 0.  1.
    10030    2    1    2    0    0  0.00000000000E+00  0.00000000000E+00  0.82667904190E+03  0.17078444992E+04  0.14944345402E+04 0.  0.
        5    1    3    3  502    0  0.62223865971E+03 -0.81707705833E+02  0.87678031170E+03  0.10782499264E+04  0.46999998093E+01 0.  1.
       -5    1    3    3    0  502 -0.62223865971E+03  0.81707705833E+02 -0.50101269800E+02  0.62959457277E+03  0.46999998093E+01 0. -1.
</event>
<event>
 5   0  0.7634227E-04  0.1504298E+04  0.7818609E-02  0.8881600E-01
       -2   -1    0    0    0  501  0.00000000000E+00  0.00000000000E+00  0.46982449380E+03  0.46982449380E+03  0.25500000920E-02 0. -1.
        2   -1    0    0  501    0  0.00000000000E+00  0.00000000000E+00 -0.12041271322E+04  0.12041271322E+04  0.25500000920E-02 0.  1.
    10030    2    1    2    0    0  0.00000000000E+00  0.00000000000E+00 -0.73430263841E+03  0.16739516260E+04  0.15042984017E+04 0.  0.
        2    1    3    3  502    0  0.18833372135E+02 -0.46807895906E+03  0.28766574440E+03  0.54973101453E+03  0.25500000920E-02 0. -1.
       -2    1    3    3    0  502 -0.18833372135E+02  0.46807895906E+03 -0.10219683828E+04  0.11242206115E+04  0.25500000920E-02 0.  1.
</event>
<event>
 5   0  0.4086710E-04  0.1499503E+04  0.7818609E-02  0.8884783E-01
       -1   -1    0    0    0  501  0.00000000000E+00  0.00000000000E+00  0.44093950692E+03  0.44093950695E+03  0.50400001928E-02 0.  1.
        1   -1    0    0  501    0  0.00000000000E+00  0.00000000000E+00 -0.12748407435E+04  0.12748407435E+04  0.50400001928E-02 0. -1.
    10030    2    1    2    0    0  0.00000000000E+00  0.00000000000E+00 -0.83390123654E+03  0.17157802504E+04  0.14995034496E+04 0.  0.
        3    1    3    3  502    0  0.59578741302E+03  0.38775826680E+03 -0.14422813237E+03  0.72534190514E+03  0.10100000352E+00 0.  1.
       -3    1    3    3    0  502 -0.59578741302E+03 -0.38775826680E+03 -0.68967310417E+03  0.99043834528E+03  0.10100000352E+00 0. -1.
</event>
<event>
 5   0  0.7359897E-04  0.1512667E+04  0.7818609E-02  0.8876073E-01
        2   -1    0    0  501    0  0.00000000000E+00  0.00000000000E+00  0.14765991854E+04  0.14765991854E+04  0.25500000920E-02 0.  1.
       -2   -1    0    0    0  501  0.00000000000E+00  0.00000000000E+00 -0.38740400120E+03  0.38740400120E+03  0.25500000920E-02 0. -1.
    10030    2    1    2    0    0  0.00000000000E+00  0.00000000000E+00  0.10891951842E+04  0.18640031866E+04  0.15126670917E+04 0.  0.
        1    1    3    3  502    0 -0.10977946342E+03 -0.74617810236E+03  0.61438263576E+03  0.97277917031E+03  0.50400001928E-02 0.  1.
       -1    1    3    3    0  502  0.10977946342E+03  0.74617810236E+03  0.47481254842E+03  0.89122401628E+03  0.50400001928E-02 0. -1.
</event>
<event>
 5   0  0.7547580E-04  0.1503625E+04  0.7818609E-02  0.8882046E-01
        2   -1    0    0  501    0  0.00000000000E+00  0.00000000000E+00  0.14416614834E+04  0.14416614834E+04  0.25500000920E-02 0.  1.
       -2   -1    0    0    0  501  0.00000000000E+00  0.00000000000E+00 -0.39206308152E+03  0.39206308153E+03  0.25500000920E-02 0. -1.
    10030    2    1    2    0    0  0.00000000000E+00  0.00000000000E+00  0.10495984019E+04  0.18337245650E+04  0.15036252774E+04 0.  0.
        4    1    3    3  502    0  0.22275896944E+03  0.41703254923E+03  0.12376622818E+04  0.13248951816E+04  0.12699999809E+01 0.  1.
       -4    1    3    3    0  502 -0.22275896944E+03 -0.41703254923E+03 -0.18806387986E+03  0.50882938338E+03  0.12699999809E+01 0. -1.
</event>
<event>
 5   0  0.4086710E-04  0.1493916E+04  0.7818609E-02  0.8888509E-01
        1   -1    0    0  501    0  0.00000000000E+00  0.00000000000E+00  0.11926171919E+04  0.11926171919E+04  0.50400001928E-02 0. -1.
       -1   -1    0    0    0  501  0.00000000000E+00  0.00000000000E+00 -0.46783318398E+03  0.46783318401E+03  0.50400001928E-02 0.  1.
    10030    2    1    2    0    0  0.00000000000E+00  0.00000000000E+00  0.72478400787E+03  0.16604503759E+04  0.14939155239E+04 0.  0.
        3    1    3    3  502    0 -0.35559443059E+03 -0.50360762287E+03  0.83116306976E+03  0.10348430295E+04  0.10100000352E+00 0. -1.
       -3    1    3    3    0  502  0.35559443059E+03  0.50360762287E+03 -0.10637906189E+03  0.62560734642E+03  0.10100000352E+00 0.  1.
</event>
<event>
 5   0  0.7454828E-04  0.1457334E+04  0.7818609E-02  0.8913332E-01
       -2   -1    0    0    0  501  0.00000000000E+00  0.00000000000E+00  0.59893223020E+03  0.59893223020E+03  0.25500000920E-02 0. -1.
        2   -1    0    0  501    0  0.00000000000E+00  0.00000000000E+00 -0.88650353865E+03  0.88650353865E+03  0.25500000920E-02 0.  1.
    10030    2    1    2    0    0  0.00000000000E+00  0.00000000000E+00 -0.28757130845E+03  0.14854357689E+04  0.14573339240E+04 0.  0.
        3    1    3    3  502    0  0.20580699050E+03 -0.25091230242E+03  0.52120731848E+03  0.61397929924E+03  0.10100000352E+00 0. -1.
       -3    1    3    3    0  502 -0.20580699050E+03  0.25091230242E+03 -0.80877862693E+03  0.87145646962E+03  0.10100000352E+00 0.  1.
</event>
<event>
 5   0  0.7454828E-04  0.1480498E+04  0.7818609E-02  0.8897526E-01
       -2   -1    0    0    0  501  0.00000000000E+00  0.00000000000E+00  0.97775755354E+03  0.97775755354E+03  0.25500000920E-02 0. -1.
        2   -1    0    0  501    0  0.00000000000E+00  0.00000000000E+00 -0.56043383233E+03  0.56043383233E+03  0.25500000920E-02 0.  1.
    10030    2    1    2    0    0  0.00000000000E+00  0.00000000000E+00  0.41732372121E+03  0.15381913859E+04  0.14804977715E+04 0.  0.
        3    1    3    3  502    0 -0.14034075319E+03 -0.71767074908E+03  0.89195906403E+02  0.73668361663E+03  0.10100000352E+00 0.  1.
       -3    1    3    3    0  502  0.14034075319E+03  0.71767074908E+03  0.32812781481E+03  0.80150776924E+03  0.10100000352E+00 0. -1.
</event>
<event>
 5   0  0.4015204E-04  0.1493889E+04  0.7818609E-02  0.8888527E-01
        1   -1    0    0  501    0  0.00000000000E+00  0.00000000000E+00  0.44302090594E+03  0.44302090597E+03  0.50400001928E-02 0.  1.
       -1   -1    0    0    0  501  0.00000000000E+00  0.00000000000E+00 -0.12593667050E+04  0.12593667050E+04  0.50400001928E-02 0. -1.
    10030    2    1    2    0    0  0.00000000000E+00  0.00000000000E+00 -0.81634579903E+03  0.17023876109E+04  0.14938885883E+04 0.  0.
        2    1    3    3  502    0 -0.24688007978E+03  0.64135475661E+03 -0.74165979661E+03  0.10111107514E+04  0.25500000920E-02 0. -1.
       -2    1    3    3    0  502  0.24688007978E+03 -0.64135475661E+03 -0.74686002422E+02  0.69127685958E+03  0.25500000920E-02 0.  1.
</event>
<event>
 5   0  0.3907345E-04  0.1619600E+04  0.7818609E-02  0.8808597E-01
       -1   -1    0    0    0  501  0.00000000000E+00  0.00000000000E+00  0.47184525431E+03  0.47184525434E+03  0.50400001928E-02 0.  1.
        1   -1    0    0  501    0  0.00000000000E+00  0.00000000000E+00 -0.13898117995E+04  0.13898117995E+04  0.50400001928E-02 0. -1.
    10030    2    1    2    0    0  0.00000000000E+00  0.00000000000E+00 -0.91796654515E+03  0.18616570538E+04  0.16196000766E+04 0.  0.
        5    1    3    3  502    0 -0.19297600136E+03  0.78419465667E+03 -0.52749902532E+03  0.96461303555E+03  0.46999998093E+01 0. -1.
       -5    1    3    3    0  502  0.19297600136E+03 -0.78419465667E+03 -0.39046751983E+03  0.89704401826E+03  0.46999998093E+01 0.  1.
</event>
<event>
 5   0  0.4084462E-04  0.1496779E+04  0.7818609E-02  0.8886598E-01
        1   -1    0    0  501    0  0.00000000000E+00  0.00000000000E+00  0.72832924809E+03  0.72832924811E+03  0.50400001928E-02 0.  1.
       -1   -1    0    0    0  501  0.00000000000E+00  0.00000000000E+00 -0.76900251079E+03  0.76900251080E+03  0.50400001928E-02 0. -1.
    10030    2    1    2    0    0  0.00000000000E+00  0.00000000000E+00 -0.40673262692E+02  0.14973317589E+04  0.14967792362E+04 0.  0.
        1    1    3    3  502    0  0.96029866208E+02 -0.73257839703E+03  0.98846667456E+02  0.74542840480E+03  0.50400001928E-02 0.  1.
       -1    1    3    3    0  502 -0.96029866208E+02  0.73257839703E+03 -0.13951993015E+03  0.75190335411E+03  0.50400001928E-02 0. -1.
</event>
<event>
 5   0  0.7672251E-04  0.1538004E+04  0.7818609E-02  0.8859567E-01
       -2   -1    0    0    0  501  0.00000000000E+00  0.00000000000E+00  0.46871657842E+03  0.46871657843E+03  0.25500000920E-02 0.  1.
        2   -1    0    0  501    0  0.00000000000E+00  0.00000000000E+00 -0.12616664772E+04  0.12616664772E+04  0.25500000920E-02 0. -1.
    10030    2    1    2    0    0  0.00000000000E+00  0.00000000000E+00 -0.79294989881E+03  0.17303830557E+04  0.15380038938E+04 0.  0.
        5    1    3    3  502    0  0.14467745022E+03  0.75487251044E+03 -0.42351988044E+03  0.87758489661E+03  0.46999998093E+01 0.  1.
       -5    1    3    3    0  502 -0.14467745022E+03 -0.75487251044E+03 -0.36943001837E+03  0.85279815906E+03  0.46999998093E+01 0. -1.
</event>
<event>
 5   0  0.7454828E-04  0.1478189E+04  0.7818609E-02  0.8899088E-01
        2   -1    0    0  501    0  0.00000000000E+00  0.00000000000E+00  0.12259873968E+04  0.12259873968E+04  0.25500000920E-02 0.  1.
       -2   -1    0    0    0  501  0.00000000000E+00  0.00000000000E+00 -0.44556769457E+03  0.44556769458E+03  0.25500000920E-02 0. -1.
    10030    2    1    2    0    0  0.00000000000E+00  0.00000000000E+00  0.78041970222E+03  0.16715550914E+04  0.14781885914E+04 0.  0.
        3    1    3    3  502    0 -0.40864338227E+03 -0.21199500891E+03 -0.26363983381E+03  0.53050661622E+03  0.10100000352E+00 0. -1.
       -3    1    3    3    0  502  0.40864338227E+03  0.21199500891E+03  0.10440595360E+04  0.11410484752E+04  0.10100000352E+00 0.  1.
</event>
<event>
 5   0  0.7547580E-04  0.1475105E+04  0.7818609E-02  0.8901179E-01
        2   -1    0    0  501    0  0.00000000000E+00  0.00000000000E+00  0.83602797725E+03  0.83602797725E+03  0.25500000920E-02 0. -1.
       -2   -1    0    0    0  501  0.00000000000E+00  0.00000000000E+00 -0.65067641744E+03  0.65067641744E+03  0.25500000920E-02 0.  1.
    10030    2    1    2    0    0  0.00000000000E+00  0.00000000000E+00  0.18535155981E+03  0.14867043947E+04  0.14751049985E+04 0.  0.
        4    1    3    3  502    0  0.67932776278E+03  0.25494490112E+03 -0.40648075366E+02  0.72673034258E+03  0.12699999809E+01 0.  1.
       -4    1    3    3    0  502 -0.67932776278E+03 -0.25494490112E+03  0.22599963517E+03  0.75997405212E+03  0.12699999809E+01 0. -1.
</event>
<event>
 5   0  0.7454828E-04  0.1549156E+04  0.7818609E-02  0.8852407E-01
       -2   -1    0    0    0  501  0.00000000000E+00  0.00000000000E+00  0.39288338900E+03  0.39288338901E+03  0.25500000920E-02 0. -1.
        2   -1    0    0  501    0  0.00000000000E+00  0.00000000000E+00 -0.15270976567E+04  0.15270976567E+04  0.25500000920E-02 0.  1.
    10030    2    1    2    0    0  0.00000000000E+00  0.00000000000E+00 -0.11342142677E+04  0.19199810457E+04  0.15491562900E+04 0.  0.
        3    1    3    3  502    0 -0.13488476133E+03  0.74085021235E+03 -0.34224269526E+03  0.82715355808E+03  0.10100000352E+00 0. -1.
       -3    1    3    3    0  502  0.13488476133E+03 -0.74085021235E+03 -0.79197157246E+03  0.10928274877E+04  0.10100000352E+00 0.  1.
</event>
<event>
 5   0  0.3907345E-04  0.1502589E+04  0.7818609E-02  0.8882733E-01
       -1   -1    0    0    0  501  0.00000000000E+00  0.00000000000E+00  0.58504226370E+03  0.58504226372E+03  0.50400001928E-02 0. -1.
        1   -1    0    0  501    0  0.00000000000E+00  0.00000000000E+00 -0.96479066236E+03  0.96479066237E+03  0.50400001928E-02 0.  1.
    10030    2    1    2    0    0  0.00000000000E+00  0.00000000000E+00 -0.37974839866E+03  0.15498329261E+04  0.15025888501E+04 0.  0.
        5    1    3    3  502    0 -0.40761979158E+03 -0.47125571869E+03  0.24306773230E+03  0.66883470257E+03  0.46999998093E+01 0. -1.
       -5    1    3    3    0  502  0.40761979158E+03  0.47125571869E+03 -0.62281613095E+03  0.88099822353E+03  0.46999998093E+01 0.  1.
</event>
<event>
 5   0  0.4058874E-04  0.1443753E+04  0.7818609E-02  0.8922743E-01
        1   -1    0    0  501    0  0.00000000000E+00  0.00000000000E+00  0.54898025546E+03  0.54898025549E+03  0.50400001928E-02 0. -1.
       -1   -1    0    0    0  501  0.00000000000E+00  0.00000000000E+00 -0.94922428329E+03  0.94922428330E+03  0.50400001928E-02 0.  1.
    10030    2    1    2    0    0  0.00000000000E+00  0.00000000000E+00 -0.40024402783E+03  0.14982045388E+04  0.14437525959E+04 0.  0.
        4    1    3    3  502    0 -0.47514088821E+03  0.11950102309E+03 -0.75027220100E+03  0.89607440911E+03  0.12699999809E+01 0.  1.
       -4    1    3    3    0  502  0.47514088821E+03 -0.11950102309E+03  0.35002817317E+03  0.60213012969E+03  0.12699999809E+01 0. -1.
</event>
<event>
 5   0  0.3907345E-04  0.1241149E+04  0.7818609E-02  0.9077582E-01
       -1   -1    0    0    0  501  0.00000000000E+00  0.00000000000E+00  0.20590340600E+03  0.20590340607E+03  0.50400001928E-02 0. -1.
        1   -1    0    0  501    0  0.00000000000E+00  0.00000000000E+00 -0.18703565801E+04  0.18703565801E+04  0.50400001928E-02 0.  1.
    10030    2    1    2    0    0  0.00000000000E+00  0.00000000000E+00 -0.16644531741E+04  0.20762599862E+04  0.12411491294E+04 0.  0.
        5    1    3    3  502    0 -0.24327121174E+02  0.21543709271E+03 -0.18049093074E+04  0.18178901638E+04  0.46999998093E+01 0.  1.
       -5    1    3    3    0  502  0.24327121174E+02 -0.21543709271E+03  0.14045613329E+03  0.25836982238E+03  0.46999998093E+01 0. -1.
</event>
<event>
 5   0  0.4058874E-04  0.1468616E+04  0.7818609E-02  0.8905595E-01
       -1   -1    0    0    0  501  0.00000000000E+00  0.00000000000E+00  0.30716924943E+03  0.30716924947E+03  0.50400001928E-02 0. -1.
        1   -1    0    0  501    0  0.00000000000E+00  0.00000000000E+00 -0.17554106235E+04  0.17554106235E+04  0.50400001928E-02 0.  1.
    10030    2    1    2    0    0  0.00000000000E+00  0.00000000000E+00 -0.14482413740E+04  0.20625798729E+04  0.14686158976E+04 0.  0.
        4    1    3    3  502    0  0.63005969746E+03 -0.80691579651E+02 -0.12415187420E+04  0.13945812106E+04  0.12699999809E+01 0. -1.
       -4    1    3    3    0  502 -0.63005969746E+03  0.80691579651E+02 -0.20672263205E+03  0.66799866234E+03  0.12699999809E+01 0.  1.
</event>
<event>
 5   0  0.7454828E-04  0.1501842E+04  0.7818609E-02  0.8883229E-01
        2   -1    0    0  501    0  0.00000000000E+00  0.00000000000E+00  0.23942926612E+04  0.23942926612E+04  0.25500000920E-02 0.  1.
       -2   -1    0    0    0  501  0.00000000000E+00  0.00000000000E+00 -0.23551097007E+03  0.23551097008E+03  0.25500000920E-02 0. -1.
    10030    2    1    2    0    0  0.00000000000E+00  0.00000000000E+00  0.21587816911E+04  0.26298036313E+04  0.15018417856E+04 0.  0.
        3    1    3    3  502    0 -0.24730273748E+03 -0.89558909556E+02 -0.15221372758E+03  0.30388891278E+03  0.10100000352E+00 0. -1.
       -3    1    3    3    0  502  0.24730273748E+03  0.89558909556E+02  0.23109954187E+04  0.23259147185E+04  0.10100000352E+00 0.  1.
</event>
<event>
 5   0  0.4086710E-04  0.1505019E+04  0.7818609E-02  0.8881122E-01
        1   -1    0    0  501    0  0.00000000000E+00  0.00000000000E+00  0.41026070315E+03  0.41026070318E+03  0.50400001928E-02 0. -1.
       -1   -1    0    0    0  501  0.00000000000E+00  0.00000000000E+00 -0.13802695774E+04  0.13802695774E+04  0.50400001928E-02 0.  1.
    10030    2    1    2    0    0  0.00000000000E+00  0.00000000000E+00 -0.97000887423E+03  0.17905302806E+04  0.15050187605E+04 0.  0.
        3    1    3    3  502    0 -0.72594116872E+03  0.19651210703E+03 -0.51563258220E+03  0.91185775134E+03  0.10100000352E+00 0. -1.
       -3    1    3    3    0  502  0.72594116872E+03 -0.19651210703E+03 -0.45437629203E+03  0.87867252922E+03  0.10100000352E+00 0.  1.
</event>
<event>
 5   0  0.2800375E-04  0.1485756E+04  0.7818609E-02  0.8893981E-01
       -4   -1    0    0    0  501  0.00000000000E+00  0.00000000000E+00  0.18743088809E+04  0.18743093111E+04  0.12699999809E+01 0.  1.
        4   -1    0    0  501    0  0.00000000000E+00  0.00000000000E+00 -0.29443606503E+03  0.29443880398E+03  0.12699999809E+01 0. -1.
    10030    2    1    2    0    0  0.00000000000E+00  0.00000000000E+00  0.15798728158E+04  0.21687481151E+04  0.14857557917E+04 0.  0.
        2    1    3    3  502    0  0.40179457816E+03 -0.32710110389E+03  0.12817790946E+02  0.51826471130E+03  0.25500000920E-02 0. -1.
       -2    1    3    3    0  502 -0.40179457816E+03  0.32710110389E+03  0.15670550249E+04  0.16504834038E+04  0.25500000920E-02 0.  1.
</event>
<event>
 5   0  0.7454828E-04  0.1513418E+04  0.7818609E-02  0.8875579E-01
        2   -1    0    0  501    0  0.00000000000E+00  0.00000000000E+00  0.15082434558E+04  0.15082434558E+04  0.25500000920E-02 0. -1.
       -2   -1    0    0    0  501  0.00000000000E+00  0.00000000000E+00 -0.37965269858E+03  0.37965269859E+03  0.25500000920E-02 0.  1.
    10030    2    1    2    0    0  0.00000000000E+00  0.00000000000E+00  0.11285907572E+04  0.18878961544E+04  0.15134182477E+04 0.  0.
        3    1    3    3  502    0 -0.39162253556E+03  0.57575287754E+03  0.19477322955E+03  0.72304647672E+03  0.10100000352E+00 0.  1.
       -3    1    3    3    0  502  0.39162253556E+03 -0.57575287754E+03  0.93381752765E+03  0.11648496776E+04  0.10100000352E+00 0. -1.
</event>
<event>
 5   0  0.4086710E-04  0.1487839E+04  0.7818609E-02  0.8892581E-01
        1   -1    0    0  501    0  0.00000000000E+00  0.00000000000E+00  0.17929931253E+04  0.17929931253E+04  0.50400001928E-02 0. -1.
       -1   -1    0    0    0  501  0.00000000000E+00  0.00000000000E+00 -0.30865479494E+03  0.30865479498E+03  0.50400001928E-02 0.  1.
    10030    2    1    2    0    0  0.00000000000E+00  0.00000000000E+00  0.14843383304E+04  0.21016479203E+04  0.14878386008E+04 0.  0.
        3    1    3    3  502    0  0.28991084790E+03 -0.67423386088E+03  0.91387586108E+03  0.11720958572E+04  0.10100000352E+00 0.  1.
       -3    1    3    3    0  502 -0.28991084790E+03  0.67423386088E+03  0.57046246929E+03  0.92955206307E+03  0.10100000352E+00 0. -1.
</event>
<event>
 5   0  0.7547580E-04  0.1496508E+04  0.7818609E-02  0.8886779E-01
       -2   -1    0    0    0  501  0.00000000000E+00  0.00000000000E+00  0.11161287869E+04  0.11161287869E+04  0.25500000920E-02 0. -1.
        2   -1    0    0  501    0  0.00000000000E+00  0.00000000000E+00 -0.50163009243E+03  0.50163009244E+03  0.25500000920E-02 0.  1.
    10030    2    1    2    0    0  0.00000000000E+00  0.00000000000E+00  0.61449869445E+03  0.16177588793E+04  0.14965076499E+04 0.  0.
        4    1    3    3  502    0  0.45446598102E+03  0.10087362320E+03 -0.32601908068E+03  0.56833517366E+03  0.12699999809E+01 0.  1.
       -4    1    3    3    0  502 -0.45446598102E+03 -0.10087362320E+03  0.94051777513E+03  0.10494237057E+04  0.12699999809E+01 0. -1.
</event>
<event>
 5   0  0.2800375E-04  0.1463498E+04  0.7818609E-02  0.8909096E-01
        4   -1    0    0  501    0  0.00000000000E+00  0.00000000000E+00  0.24619357973E+03  0.24619685538E+03  0.12699999809E+01 0. -1.
       -4   -1    0    0    0  501  0.00000000000E+00  0.00000000000E+00 -0.21749239591E+04  0.21749243299E+04  0.12699999809E+01 0.  1.
    10030    2    1    2    0    0  0.00000000000E+00  0.00000000000E+00 -0.19287303793E+04  0.24211211852E+04  0.14634981781E+04 0.  0.
        4    1    3    3  502    0 -0.20578805798E+03 -0.12492299995E+03 -0.21075365058E+04  0.21212416687E+04  0.12699999809E+01 0.  1.
       -4    1    3    3    0  502  0.20578805798E+03  0.12492299995E+03  0.17880612644E+03  0.29987951659E+03  0.12699999809E+01 0. -1.
</event>
<event>
 5   0  0.4015204E-04  0.1519331E+04  0.7818609E-02  0.8871699E-01
        1   -1    0    0  501    0  0.00000000000E+00  0.00000000000E+00  0.13063017241E+04  0.13063017241E+04  0.50400001928E-02 0.  1.
       -1   -1    0    0    0  501  0.00000000000E+00  0.00000000000E+00 -0.44177530199E+03  0.44177530202E+03  0.50400001928E-02 0. -1.
    10030    2    1    2    0    0  0.00000000000E+00  0.00000000000E+00  0.86452642207E+03  0.17480770261E+04  0.15193312195E+04 0.  0.
        2    1    3    3  502    0  0.31199818087E+03  0.18950119929E+02 -0.36435921484E+03  0.48006208906E+03  0.25500000920E-02 0. -1.
       -2    1    3    3    0  502 -0.31199818087E+03 -0.18950119929E+02  0.12288856369E+04  0.12680149370E+04  0.25500000920E-02 0.  1.
</event>
<event>
 5   0  0.4058874E-04  0.1489551E+04  0.7818609E-02  0.8891431E-01
        1   -1    0    0  501    0  0.00000000000E+00  0.00000000000E+00  0.79124234352E+03  0.79124234353E+03  0.50400001928E-02 0. -1.
       -1   -1    0    0    0  501  0.00000000000E+00  0.00000000000E+00 -0.70103720639E+03  0.70103720641E+03  0.50400001928E-02 0.  1.
    10030    2    1    2    0    0  0.00000000000E+00  0.00000000000E+00  0.90205137125E+02  0.14922795499E+04  0.14895507002E+04 0.  0.
        4    1    3    3  502    0  0.54451363724E+03  0.41067894982E+03  0.34487709930E+03  0.76426051023E+03  0.12699999809E+01 0. -1.
       -4    1    3    3    0  502 -0.54451363724E+03 -0.41067894982E+03 -0.25467196218E+03  0.72801903971E+03  0.12699999809E+01 0.  1.
</event>
<event>
 5   0  0.4086710E-04  0.1503004E+04  0.7818609E-02  0.8882458E-01
       -1   -1    0    0    0  501  0.00000000000E+00  0.00000000000E+00  0.46504448044E+03  0.46504448046E+03  0.50400001928E-02 0. -1.
        1   -1    0    0  501    0  0.00000000000E+00  0.00000000000E+00 -0.12144117177E+04  0.12144117177E+04  0.50400001928E-02 0.  1.
    10030    2    1    2    0    0  0.00000000000E+00  0.00000000000E+00 -0.74936723723E+03  0.16794561981E+04  0.15030042798E+04 0.  0.
        3    1    3    3  502    0 -0.11142621289E+03  0.72732775871E+03 -0.54537159762E+03  0.91588845347E+03  0.10100000352E+00 0.  1.
       -3    1    3    3    0  502  0.11142621289E+03 -0.72732775871E+03 -0.20399563962E+03  0.76356774467E+03  0.10100000352E+00 0. -1.
</event>
<event>
 5   0  0.3907345E-04  0.1500460E+04  0.7818609E-02  0.8884147E-01
       -1   -1    0    0    0  501  0.00000000000E+00  0.00000000000E+00  0.48253526403E+03  0.48253526405E+03  0.50400001928E-02 0. -1.
        1   -1    0    0  501    0  0.00000000000E+00  0.00000000000E+00 -0.11664331208E+04  0.11664331208E+04  0.50400001928E-02 0.  1.
    10030    2    1    2    0    0  0.00000000000E+00  0.00000000000E+00 -0.68389785681E+03  0.16489683849E+04  0.15004600814E+04 0.  0.
        5    1    3    3  502    0 -0.61539372661E+03 -0.40229274155E+03 -0.17793213760E+03  0.75645940026E+03  0.46999998093E+01 0. -1.
       -5    1    3    3    0  502  0.61539372661E+03  0.40229274155E+03 -0.50596571921E+03  0.89250898464E+03  0.46999998093E+01 0.  1.
</event>
<event>
 5   0  0.7454828E-04  0.1371289E+04  0.7818609E-02  0.8974867E-01
        2   -1    0    0  501    0  0.00000000000E+00  0.00000000000E+00  0.10148286460E+04  0.10148286460E+04  0.25500000920E-02 0. -1.
       -2   -1    0    0    0  501  0.00000000000E+00  0.00000000000E+00 -0.46323920885E+03  0.46323920886E+03  0.25500000920E-02 0.  1.
    10030    2    1    2    0    0  0.00000000000E+00  0.00000000000E+00  0.55158943719E+03  0.14780678549E+04  0.13712890565E+04 0.  0.
        3    1    3    3  502    0 -0.30812065792E+03 -0.49357640235E+03  0.66673890252E+03  0.88492755586E+03  0.10100000352E+00 0.  1.
       -3    1    3    3    0  502  0.30812065792E+03  0.49357640235E+03 -0.11514946533E+03  0.59314029905E+03  0.10100000352E+00 0. -1.
</event>
<event>
 5   0  0.4084462E-04  0.1502767E+04  0.7818609E-02  0.8882615E-01
        1   -1    0    0  501    0  0.00000000000E+00  0.00000000000E+00  0.10716137034E+04  0.10716137034E+04  0.50400001928E-02 0.  1.
       -1   -1    0    0    0  501  0.00000000000E+00  0.00000000000E+00 -0.52684759454E+03  0.52684759456E+03  0.50400001928E-02 0. -1.
    10030    2    1    2    0    0  0.00000000000E+00  0.00000000000E+00  0.54476610883E+03  0.15984612979E+04  0.15027669173E+04 0.  0.
        1    1    3    3  502    0 -0.14565521263E+03 -0.73682626161E+03  0.24985110532E+03  0.79155161273E+03  0.50400001928E-02 0.  1.
       -1    1    3    3    0  502  0.14565521263E+03  0.73682626161E+03  0.29491500351E+03  0.80690968521E+03  0.50400001928E-02 0. -1.
</event>
<event>
 5   0  0.7359897E-04  0.1520604E+04  0.7818609E-02  0.8870866E-01
       -2   -1    0    0    0  501  0.00000000000E+00  0.00000000000E+00  0.33454830314E+03  0.33454830315E+03  0.25500000920E-02 0.  1.
        2   -1    0    0  501    0  0.00000000000E+00  0.00000000000E+00 -0.17278796458E+04  0.17278796458E+04  0.25500000920E-02 0. -1.
    10030    2    1    2    0    0  0.00000000000E+00  0.00000000000E+00 -0.13933313427E+04  0.20624279490E+04  0.15206040952E+04 0.  0.
        1    1    3    3  502    0 -0.29870619047E+03 -0.69532205816E+03 -0.79597443807E+03  0.10983048115E+04  0.50400001928E-02 0.  1.
       -1    1    3    3    0  502  0.29870619047E+03  0.69532205816E+03 -0.59735690464E+03  0.96412313753E+03  0.50400001928E-02 0. -1.
</event>
<event>
 5   0  0.4086710E-04  0.1546723E+04  0.7818609E-02  0.8853964E-01
       -1   -1    0    0    0  501  0.00000000000E+00  0.00000000000E+00  0.66402352421E+03  0.66402352423E+03  0.50400001928E-02 0.  1.
        1   -1    0    0  501    0  0.00000000000E+00  0.00000000000E+00 -0.90070310287E+03  0.90070310289E+03  0.50400001928E-02 0. -1.
    10030    2    1    2    0    0  0.00000000000E+00  0.00000000000E+00 -0.23667957867E+03  0.15647266271E+04  0.15467230504E+04 0.  0.
        3    1    3    3  502    0  0.21026179114E+03  0.41902191050E+03  0.50387927664E+03  0.68824684374E+03  0.10100000352E+00 0.  1.
       -3    1    3    3    0  502 -0.21026179114E+03 -0.41902191050E+03 -0.74055885530E+03  0.87647978337E+03  0.10100000352E+00 0. -1.
</event>
<event>
 5   0  0.4015204E-04  0.1500823E+04  0.7818609E-02  0.8883906E-01
       -1   -1    0    0    0  501  0.00000000000E+00  0.00000000000E+00  0.67706070741E+03  0.67706070743E+03  0.50400001928E-02 0. -1.
        1   -1    0    0  501    0  0.00000000000E+00  0.00000000000E+00 -0.83170901343E+03  0.83170901345E+03  0.50400001928E-02 0.  1.
    10030    2    1    2    0    0  0.00000000000E+00  0.00000000000E+00 -0.15464830602E+03  0.15087697209E+04  0.15008230982E+04 0.  0.
        2    1    3    3  502    0 -0.39519695557E+03 -0.50974590019E+03  0.30823751606E+03  0.71486494022E+03  0.25500000920E-02 0. -1.
       -2    1    3    3    0  502  0.39519695557E+03  0.50974590019E+03 -0.46288582208E+03  0.79390478065E+03  0.25500000920E-02 0.  1.
</event>
<event>
 5   0  0.3907345E-04  0.1535906E+04  0.7818609E-02  0.8860921E-01
       -1   -1    0    0    0  501  0.00000000000E+00  0.00000000000E+00  0.25793658276E+03  0.25793658281E+03  0.50400001928E-02 0.  1.
        1   -1    0    0  501    0  0.00000000000E+00  0.00000000000E+00 -0.22864229255E+04  0.22864229255E+04  0.50400001928E-02 0. -1.
    10030    2    1    2    0    0  0.00000000000E+00  0.00000000000E+00 -0.20284863427E+04  0.25443595083E+04  0.15359063985E+04 0.  0.
        5    1    3    3  502    0 -0.20369311850E+03  0.92138041544E+02 -0.22312974264E+04  0.22424742140E+04  0.46999998093E+01 0. -1.
       -5    1    3    3    0  502  0.20369311850E+03 -0.92138041544E+02  0.20281108373E+03  0.30188529428E+03  0.46999998093E+01 0.  1.
</event>
<event>
 5   0  0.7672251E-04  0.1501283E+04  0.7818609E-02  0.8883600E-01
       -2   -1    0    0    0  501  0.00000000000E+00  0.00000000000E+00  0.49229375654E+03  0.49229375655E+03  0.25500000920E-02 0. -1.
        2   -1    0    0  501    0  0.00000000000E+00  0.00000000000E+00 -0.11445664277E+04  0.11445664277E+04  0.25500000920E-02 0.  1.
    10030    2    1    2    0    0  0.00000000000E+00  0.00000000000E+00 -0.65227267120E+03  0.16368601843E+04  0.15012833261E+04 0.  0.
        5    1    3    3  502    0  0.35245604438E+03  0.23718618946E+03 -0.10008579875E+04  0.10873000289E+04  0.46999998093E+01 0.  1.
       -5    1    3    3    0  502 -0.35245604438E+03 -0.23718618946E+03  0.34858531628E+03  0.54956015541E+03  0.46999998093E+01 0. -1.
</event>
<event>
 5   0  0.7672251E-04  0.1486197E+04  0.7818609E-02  0.8893684E-01
        2   -1    0    0  501    0  0.00000000000E+00  0.00000000000E+00  0.19450828239E+04  0.19450828239E+04  0.25500000920E-02 0.  1.
       -2   -1    0    0    0  501  0.00000000000E+00  0.00000000000E+00 -0.28389286848E+03  0.28389286849E+03  0.25500000920E-02 0. -1.
    10030    2    1    2    0    0  0.00000000000E+00  0.00000000000E+00  0.16611899554E+04  0.22289756924E+04  0.14861966792E+04 0.  0.
        5    1    3    3  502    0 -0.41241740445E+03  0.76171927113E+02  0.17505915612E+04  0.18001342123E+04  0.46999998093E+01 0.  1.
       -5    1    3    3    0  502  0.41241740445E+03 -0.76171927113E+02 -0.89401605780E+02  0.42884148014E+03  0.46999998093E+01 0. -1.
</event>
<event>
 5   0  0.7672251E-04  0.1494235E+04  0.7818609E-02  0.8888296E-01
       -2   -1    0    0    0  501  0.00000000000E+00  0.00000000000E+00  0.26796726383E+03  0.26796726384E+03  0.25500000920E-02 0.  1.
        2   -1    0    0  501    0  0.00000000000E+00  0.00000000000E+00 -0.20830330209E+04  0.20830330209E+04  0.25500000920E-02 0. -1.
    10030    2    1    2    0    0  0.00000000000E+00  0.00000000000E+00 -0.18150657571E+04  0.23510002848E+04  0.14942351342E+04 0.  0.
        5    1    3    3  502    0  0.67815577650E+03  0.30392069758E+03 -0.10283816198E+04  0.12688001788E+04  0.46999998093E+01 0. -1.
       -5    1    3    3    0  502 -0.67815577650E+03 -0.30392069758E+03 -0.78668413729E+03  0.10822001060E+04  0.46999998093E+01 0.  1.
</event>
<event>
 5   0  0.4058874E-04  0.1341972E+04  0.7818609E-02  0.8996928E-01
       -1   -1    0    0    0  501  0.00000000000E+00  0.00000000000E+00  0.57023062013E+03  0.57023062015E+03  0.50400001928E-02 0.  1.
        1   -1    0    0  501    0  0.00000000000E+00  0.00000000000E+00 -0.78954408823E+03  0.78954408825E+03  0.50400001928E-02 0. -1.
    10030    2    1    2    0    0  0.00000000000E+00  0.00000000000E+00 -0.21931346811E+03  0.13597747084E+04  0.13419720043E+04 0.  0.
        4    1    3    3  502    0 -0.21686723312E+03 -0.24832363406E+03 -0.70181048556E+03  0.77539383192E+03  0.12699999809E+01 0. -1.
       -4    1    3    3    0  502  0.21686723312E+03  0.24832363406E+03  0.48249701746E+03  0.58438087647E+03  0.12699999809E+01 0.  1.
</event>
<event>
 5   0  0.7634227E-04  0.1485457E+04  0.7818609E-02  0.8894182E-01
        2   -1    0    0  501    0  0.00000000000E+00  0.00000000000E+00  0.10336609633E+04  0.10336609633E+04  0.25500000920E-02 0. -1.
       -2   -1    0    0    0  501  0.00000000000E+00  0.00000000000E+00 -0.53368150274E+03  0.53368150275E+03  0.25500000920E-02 0.  1.
    10030    2    1    2    0    0  0.00000000000E+00  0.00000000000E+00  0.49997946059E+03  0.15673424661E+04  0.14854571502E+04 0.  0.
        2    1    3    3  502    0  0.10625365833E+03 -0.11745511628E+03 -0.51565585681E+03  0.53943165176E+03  0.25500000920E-02 0.  1.
       -2    1    3    3    0  502 -0.10625365833E+03  0.11745511628E+03  0.10156353174E+04  0.10279108143E+04  0.25500000920E-02 0. -1.
</event>
<event>
 5   0  0.7454828E-04  0.1501442E+04  0.7818609E-02  0.8883494E-01
        2   -1    0    0  501    0  0.00000000000E+00  0.00000000000E+00  0.67839324674E+03  0.67839324674E+03  0.25500000920E-02 0.  1.
       -2   -1    0    0    0  501  0.00000000000E+00  0.00000000000E+00 -0.83076060887E+03  0.83076060888E+03  0.25500000920E-02 0. -1.
    10030    2    1    2    0    0  0.00000000000E+00  0.00000000000E+00 -0.15236736214E+03  0.15091538556E+04  0.15014424887E+04 0.  0.
        3    1    3    3  502    0  0.58883901849E+03  0.21068722597E+03 -0.49360187391E+03  0.79672035057E+03  0.10100000352E+00 0. -1.
       -3    1    3    3    0  502 -0.58883901849E+03 -0.21068722597E+03  0.34123451177E+03  0.71243350505E+03  0.10100000352E+00 0.  1.
</event>
<event>
 5   0  0.4084462E-04  0.1496125E+04  0.7818609E-02  0.8887034E-01
        1   -1    0    0  501    0  0.00000000000E+00  0.00000000000E+00  0.94436704295E+03  0.94436704297E+03  0.50400001928E-02 0. -1.
       -1   -1    0    0    0  501  0.00000000000E+00  0.00000000000E+00 -0.59256392189E+03  0.59256392191E+03  0.50400001928E-02 0.  1.
    10030    2    1    2    0    0  0.00000000000E+00  0.00000000000E+00  0.35180312107E+03  0.15369309649E+04  0.14961254475E+04 0.  0.
        1    1    3    3  502    0  0.30961710215E+03 -0.33504412841E+03  0.78492916992E+03  0.90787175292E+03  0.50400001928E-02 0. -1.
       -1    1    3    3    0  502 -0.30961710215E+03  0.33504412841E+03 -0.43312604885E+03  0.62905921196E+03  0.50400001928E-02 0.  1.
</event>
<event>
 5   0  0.7454828E-04  0.1497498E+04  0.7818609E-02  0.8886118E-01
       -2   -1    0    0    0  501  0.00000000000E+00  0.00000000000E+00  0.47137227011E+03  0.47137227012E+03  0.25500000920E-02 0. -1.
        2   -1    0    0  501    0  0.00000000000E+00  0.00000000000E+00 -0.11893466964E+04  0.11893466964E+04  0.25500000920E-02 0.  1.
    10030    2    1    2    0    0  0.00000000000E+00  0.00000000000E+00 -0.71797442626E+03  0.16607189665E+04  0.14974979829E+04 0.  0.
        3    1    3    3  502    0  0.17597583831E+03  0.71375737615E+03 -0.51663616060E+03  0.89851545358E+03  0.10100000352E+00 0.  1.
       -3    1    3    3    0  502 -0.17597583831E+03 -0.71375737615E+03 -0.20133826566E+03  0.76220351291E+03  0.10100000352E+00 0. -1.
</event>
<event>
 5   0  0.4058874E-04  0.1502241E+04  0.7818609E-02  0.8882964E-01
        1   -1    0    0  501    0  0.00000000000E+00  0.00000000000E+00  0.38538582063E+03  0.38538582067E+03  0.50400001928E-02 0.  1.
       -1   -1    0    0    0  501  0.00000000000E+00  0.00000000000E+00 -0.14639408563E+04  0.14639408563E+04  0.50400001928E-02 0. -1.
    10030    2    1    2    0    0  0.00000000000E+00  0.00000000000E+00 -0.10785550356E+04  0.18493266769E+04  0.15022410569E+04 0.  0.
        4    1    3    3  502    0  0.58052064892E+03 -0.47661553700E+03 -0.53469752512E+03  0.92199221809E+03  0.12699999809E+01 0. -1.
       -4    1    3    3    0  502 -0.58052064892E+03  0.47661553700E+03 -0.54385751050E+03  0.92733445885E+03  0.12699999809E+01 0.  1.
</event>
<event>
 5   0  0.7672251E-04  0.1495699E+04  0.7818609E-02  0.8887318E-01
       -2   -1    0    0    0  501  0.00000000000E+00  0.00000000000E+00  0.10724671546E+04  0.10724671546E+04  0.25500000920E-02 0. -1.
        2   -1    0    0  501    0  0.00000000000E+00  0.00000000000E+00 -0.52148793851E+03  0.52148793852E+03  0.25500000920E-02 0.  1.
    10030    2    1    2    0    0  0.00000000000E+00  0.00000000000E+00  0.55097921611E+03  0.15939550931E+04  0.14956987472E+04 0.  0.
        5    1    3    3  502    0  0.55514889755E+03  0.41133157718E+03 -0.29441214034E+02  0.69157272931E+03  0.46999998093E+01 0.  1.
       -5    1    3    3    0  502 -0.55514889755E+03 -0.41133157718E+03  0.58042043014E+03  0.90238236384E+03  0.46999998093E+01 0. -1.
</event>
<event>
 5   0  0.4086710E-04  0.1489111E+04  0.7818609E-02  0.8891727E-01
       -1   -1    0    0    0  501  0.00000000000E+00  0.00000000000E+00  0.30738440813E+03  0.30738440817E+03  0.50400001928E-02 0. -1.
        1   -1    0    0  501    0  0.00000000000E+00  0.00000000000E+00 -0.18034833156E+04  0.18034833156E+04  0.50400001928E-02 0.  1.
    10030    2    1    2    0    0  0.00000000000E+00  0.00000000000E+00 -0.14960989075E+04  0.21108677238E+04  0.14891106763E+04 0.  0.
        3    1    3    3  502    0 -0.36502287425E+03 -0.75566520387E+02  0.16558580614E+03  0.40788560544E+03  0.10100000352E+00 0. -1.
       -3    1    3    3    0  502  0.36502287425E+03  0.75566520387E+02 -0.16616847136E+04  0.17029821184E+04  0.10100000352E+00 0.  1.
</event>
<event>
 5   0  0.7634227E-04  0.1493450E+04  0.7818609E-02  0.8888820E-01
        2   -1    0    0  501    0  0.00000000000E+00  0.00000000000E+00  0.21018107732E+04  0.21018107732E+04  0.25500000920E-02 0. -1.
       -2   -1    0    0    0  501  0.00000000000E+00  0.00000000000E+00 -0.26529432920E+03  0.26529432921E+03  0.25500000920E-02 0.  1.
    10030    2    1    2    0    0  0.00000000000E+00  0.00000000000E+00  0.18365164440E+04  0.23671051024E+04  0.14934503396E+04 0.  0.
        2    1    3    3  502    0  0.33070555692E+02 -0.64841480368E+03  0.33360698571E+03  0.72995139578E+03  0.25500000920E-02 0. -1.
       -2    1    3    3    0  502 -0.33070555692E+02  0.64841480368E+03  0.15029094583E+04  0.16371537066E+04  0.25500000920E-02 0.  1.
</event>
<event>
 5   0  0.3907345E-04  0.1510001E+04  0.7818609E-02  0.8877829E-01
       -1   -1    0    0    0  501  0.00000000000E+00  0.00000000000E+00  0.65950409460E+03  0.65950409462E+03  0.50400001928E-02 0. -1.
        1   -1    0    0  501    0  0.00000000000E+00  0.00000000000E+00 -0.86432524942E+03  0.86432524944E+03  0.50400001928E-02 0.  1.
    10030    2    1    2    0    0  0.00000000000E+00  0.00000000000E+00 -0.20482115482E+03  0.15238293441E+04  0.15100013789E+04 0.  0.
        5    1    3    3  502    0  0.64486097473E+03 -0.36250254311E+03 -0.25462346076E+03  0.78237393059E+03  0.46999998093E+01 0. -1.
       -5    1    3    3    0  502 -0.64486097473E+03  0.36250254311E+03  0.49802305939E+02  0.74145541347E+03  0.46999998093E+01 0.  1.
</event>
<event>
 5   0  0.4015204E-04  0.1494001E+04  0.7818609E-02  0.8888452E-01
        1   -1    0    0  501    0  0.00000000000E+00  0.00000000000E+00  0.12694017597E+04  0.12694017597E+04  0.50400001928E-02 0. -1.
       -1   -1    0    0    0  501  0.00000000000E+00  0.00000000000E+00 -0.43958502165E+03  0.43958502168E+03  0.50400001928E-02 0.  1.
    10030    2    1    2    0    0  0.00000000000E+00  0.00000000000E+00  0.82981673801E+03  0.17089867813E+04  0.14940013387E+04 0.  0.
        2    1    3    3  502    0  0.44384171343E+03  0.46836925066E+03  0.84542308545E+03  0.10635343976E+04  0.25500000920E-02 0. -1.
       -2    1    3    3    0  502 -0.44384171343E+03 -0.46836925066E+03 -0.15606347439E+02  0.64545238371E+03  0.25500000920E-02 0.  1.
</event>
<event>
 5   0  0.3907345E-04  0.1433207E+04  0.7818609E-02  0.8930127E-01
        1   -1    0    0  501    0  0.00000000000E+00  0.00000000000E+00  0.66169984491E+03  0.66169984493E+03  0.50400001928E-02 0. -1.
       -1   -1    0    0    0  501  0.00000000000E+00  0.00000000000E+00 -0.77606219132E+03  0.77606219134E+03  0.50400001928E-02 0.  1.
    10030    2    1    2    0    0  0.00000000000E+00  0.00000000000E+00 -0.11436234641E+03  0.14377620363E+04  0.14332065192E+04 0.  0.
        5    1    3    3  502    0 -0.44571697847E+03 -0.36616214018E+03  0.36932877731E+03  0.68495559969E+03  0.46999998093E+01 0. -1.
       -5    1    3    3    0  502  0.44571697847E+03  0.36616214018E+03 -0.48369112372E+03  0.75280643658E+03  0.46999998093E+01 0.  1.
</event>
<event>
 5   0  0.7672251E-04  0.1493930E+04  0.7818609E-02  0.8888500E-01
        2   -1    0    0  501    0  0.00000000000E+00  0.00000000000E+00  0.76084018962E+03  0.76084018962E+03  0.25500000920E-02 0.  1.
       -2   -1    0    0    0  501  0.00000000000E+00  0.00000000000E+00 -0.73334246968E+03  0.73334246969E+03  0.25500000920E-02 0. -1.
    10030    2    1    2    0    0  0.00000000000E+00  0.00000000000E+00  0.27497719936E+02  0.14941826593E+04  0.14939296151E+04 0.  0.
        5    1    3    3  502    0  0.59244659572E+03  0.28616325527E+03  0.36743561806E+03  0.75360029250E+03  0.46999998093E+01 0.  1.
       -5    1    3    3    0  502 -0.59244659572E+03 -0.28616325527E+03 -0.33993789813E+03  0.74058236681E+03  0.46999998093E+01 0. -1.
</event>
<event>
 5   0  0.3907345E-04  0.1492126E+04  0.7818609E-02  0.8889706E-01
       -1   -1    0    0    0  501  0.00000000000E+00  0.00000000000E+00  0.19708868404E+04  0.19708868404E+04  0.50400001928E-02 0.  1.
        1   -1    0    0  501    0  0.00000000000E+00  0.00000000000E+00 -0.28241582355E+03  0.28241582360E+03  0.50400001928E-02 0. -1.
    10030    2    1    2    0    0  0.00000000000E+00  0.00000000000E+00  0.16884710168E+04  0.22533026640E+04  0.14921255044E+04 0.  0.
        5    1    3    3  502    0 -0.61357096743E+03  0.42440242102E+03  0.84289058495E+03  0.11256435383E+04  0.46999998093E+01 0.  1.
       -5    1    3    3    0  502  0.61357096743E+03 -0.42440242102E+03  0.84558043188E+03  0.11276591257E+04  0.46999998093E+01 0. -1.
</event>
<event>
 5   0  0.7359897E-04  0.1562066E+04  0.7818609E-02  0.8844197E-01
        2   -1    0    0  501    0  0.00000000000E+00  0.00000000000E+00  0.20253041455E+04  0.20253041455E+04  0.25500000920E-02 0.  1.
       -2   -1    0    0    0  501  0.00000000000E+00  0.00000000000E+00 -0.30119549745E+03  0.30119549746E+03  0.25500000920E-02 0. -1.
    10030    2    1    2    0    0  0.00000000000E+00  0.00000000000E+00  0.17241086480E+04  0.23264996429E+04  0.15620659264E+04 0.  0.
        1    1    3    3  502    0 -0.47360470036E+03  0.44817413528E+03  0.15024001145E+04  0.16377935070E+04  0.50400001928E-02 0.  1.
       -1    1    3    3    0  502  0.47360470036E+03 -0.44817413528E+03  0.22170853356E+03  0.68870613589E+03  0.50400001928E-02 0. -1.
</event>
<event>
 5   0  0.7672251E-04  0.1530358E+04  0.7818609E-02  0.8864512E-01
       -2   -1    0    0    0  501  0.00000000000E+00  0.00000000000E+00  0.55801611920E+03  0.55801611921E+03  0.25500000920E-02 0. -1.
        2   -1    0    0  501    0  0.00000000000E+00  0.00000000000E+00 -0.10492511348E+04  0.10492511348E+04  0.25500000920E-02 0.  1.
    10030    2    1    2    0    0  0.00000000000E+00  0.00000000000E+00 -0.49123501564E+03  0.16072672541E+04  0.15303581886E+04 0.  0.
        5    1    3    3  502    0 -0.60406016750E+02 -0.60709606278E+03 -0.73062918170E+03  0.95186953279E+03  0.46999998093E+01 0.  1.
       -5    1    3    3    0  502  0.60406016750E+02  0.60709606278E+03  0.23939416606E+03  0.65539772127E+03  0.46999998093E+01 0. -1.
</event>
<event>
 5   0  0.7672251E-04  0.1527834E+04  0.7818609E-02  0.8866152E-01
        2   -1    0    0  501    0  0.00000000000E+00  0.00000000000E+00  0.15405775098E+04  0.15405775098E+04  0.25500000920E-02 0.  1.
       -2   -1    0    0    0  501  0.00000000000E+00  0.00000000000E+00 -0.37879875694E+03  0.37879875695E+03  0.25500000920E-02 0. -1.
    10030    2    1    2    0    0  0.00000000000E+00  0.00000000000E+00  0.11617787529E+04  0.19193762668E+04  0.15278335586E+04 0.  0.
        5    1    3    3  502    0 -0.52820237764E+03 -0.55157032091E+03  0.55844511385E+03  0.94610285161E+03  0.46999998093E+01 0. -1.
       -5    1    3    3    0  502  0.52820237764E+03  0.55157032091E+03  0.60333363903E+03  0.97327341515E+03  0.46999998093E+01 0.  1.
</event>
<event>
 5   0  0.3907345E-04  0.1471438E+04  0.7818609E-02  0.8903672E-01
        1   -1    0    0  501    0  0.00000000000E+00  0.00000000000E+00  0.82913073766E+03  0.82913073767E+03  0.50400001928E-02 0.  1.
       -1   -1    0    0    0  501  0.00000000000E+00  0.00000000000E+00 -0.65283081783E+03  0.65283081785E+03  0.50400001928E-02 0. -1.
    10030    2    1    2    0    0  0.00000000000E+00  0.00000000000E+00  0.17629991983E+03  0.14819615555E+04  0.14714375251E+04 0.  0.
        5    1    3    3  502    0  0.43105863367E+03 -0.58410035846E+03  0.20848350609E+03  0.75529612519E+03  0.46999998093E+01 0. -1.
       -5    1    3    3    0  502 -0.43105863367E+03  0.58410035846E+03 -0.32183586257E+02  0.72666543033E+03  0.46999998093E+01 0.  1.
</event>
<event>
 5   0  0.3907345E-04  0.1497642E+04  0.7818609E-02  0.8886022E-01
       -1   -1    0    0    0  501  0.00000000000E+00  0.00000000000E+00  0.52312895620E+03  0.52312895622E+03  0.50400001928E-02 0. -1.
        1   -1    0    0  501    0  0.00000000000E+00  0.00000000000E+00 -0.10718829126E+04  0.10718829126E+04  0.50400001928E-02 0.  1.
    10030    2    1    2    0    0  0.00000000000E+00  0.00000000000E+00 -0.54875395639E+03  0.15950118688E+04  0.14976421325E+04 0.  0.
        5    1    3    3  502    0  0.48638087873E+03  0.34472904961E+03  0.20818948585E+03  0.63148193074E+03  0.46999998093E+01 0. -1.
       -5    1    3    3    0  502 -0.48638087873E+03 -0.34472904961E+03 -0.75694344224E+03  0.96352993808E+03  0.46999998093E+01 0.  1.
</event>
<event>
 5   0  0.7672251E-04  0.1503037E+04  0.7818609E-02  0.8882436E-01
       -2   -1    0    0    0  501  0.00000000000E+00  0.00000000000E+00  0.65300398379E+03  0.65300398380E+03  0.25500000920E-02 0. -1.
        2   -1    0    0  501    0  0.00000000000E+00  0.00000000000E+00 -0.86489566044E+03  0.86489566044E+03  0.25500000920E-02 0.  1.
    10030    2    1    2    0    0  0.00000000000E+00  0.00000000000E+00 -0.21189167665E+03  0.15178996442E+04  0.15030373406E+04 0.  0.
        5    1    3    3  502    0 -0.66259629947E+03 -0.12353962870E+03 -0.44159099199E+03  0.80580431256E+03  0.46999998093E+01 0.  1.
       -5    1    3    3    0  502  0.66259629947E+03  0.12353962870E+03  0.22969931534E+03  0.71209533168E+03  0.46999998093E+01 0. -1.
</event>
<event>
 5   0  0.4058874E-04  0.1517018E+04  0.7818609E-02  0.8873215E-01
       -1   -1    0    0    0  501  0.00000000000E+00  0.00000000000E+00  0.91049794967E+03  0.91049794968E+03  0.50400001928E-02 0. -1.
        1   -1    0    0  501    0  0.00000000000E+00  0.00000000000E+00 -0.63189111858E+03  0.63189111860E+03  0.50400001928E-02 0.  1.
    10030    2    1    2    0    0  0.00000000000E+00  0.00000000000E+00  0.27860683109E+03  0.15423890683E+04  0.15170175581E+04 0.  0.
        4    1    3    3  502    0 -0.29869724837E+03  0.48989919989E+02  0.84643073014E+03  0.89892527624E+03  0.12699999809E+01 0. -1.
       -4    1    3    3    0  502  0.29869724837E+03 -0.48989919989E+02 -0.56782389905E+03  0.64346379204E+03  0.12699999809E+01 0.  1.
</event>
<event>
 5   0  0.7359897E-04  0.1502133E+04  0.7818609E-02  0.8883036E-01
       -2   -1    0    0    0  501  0.00000000000E+00  0.00000000000E+00  0.42032249727E+03  0.42032249727E+03  0.25500000920E-02 0.  1.
        2   -1    0    0  501    0  0.00000000000E+00  0.00000000000E+00 -0.13420667979E+04  0.13420667980E+04  0.25500000920E-02 0. -1.
    10030    2    1    2    0    0  0.00000000000E+00  0.00000000000E+00 -0.92174430068E+03  0.17623892952E+04  0.15021329742E+04 0.  0.
        1    1    3    3  502    0  0.11104216968E+03  0.38642860075E+02 -0.13312027226E+04  0.13363847959E+04  0.50400001928E-02 0. -1.
       -1    1    3    3    0  502 -0.11104216968E+03 -0.38642860075E+02  0.40945842194E+03  0.42600449928E+03  0.50400001928E-02 0.  1.
</event>
<event>
 5   0  0.3907345E-04  0.1498143E+04  0.7818609E-02  0.8885688E-01
       -1   -1    0    0    0  501  0.00000000000E+00  0.00000000000E+00  0.49331234451E+03  0.49331234454E+03  0.50400001928E-02 0. -1.
        1   -1    0    0  501    0  0.00000000000E+00  0.00000000000E+00 -0.11374303307E+04  0.11374303307E+04  0.50400001928E-02 0.  1.
    10030    2    1    2    0    0  0.00000000000E+00  0.00000000000E+00 -0.64411798622E+03  0.16307426753E+04  0.14981434153E+04 0.  0.
        5    1    3    3  502    0  0.56462939705E+03  0.30567188997E+03  0.97892079327E+02  0.64949719748E+03  0.46999998093E+01 0. -1.
       -5    1    3    3    0  502 -0.56462939705E+03 -0.30567188997E+03 -0.74201006554E+03  0.98124547780E+03  0.46999998093E+01 0.  1.
</event>
<event>
 5   0  0.4084462E-04  0.1493808E+04  0.7818609E-02  0.8888581E-01
       -1   -1    0    0    0  501  0.00000000000E+00  0.00000000000E+00  0.80872808616E+03  0.80872808618E+03  0.50400001928E-02 0. -1.
        1   -1    0    0  501    0  0.00000000000E+00  0.00000000000E+00 -0.68980584372E+03  0.68980584374E+03  0.50400001928E-02 0.  1.
    10030    2    1    2    0    0  0.00000000000E+00  0.00000000000E+00  0.11892224244E+03  0.14985339299E+04  0.14938076983E+04 0.  0.
        1    1    3    3  502    0  0.74406851208E+03 -0.64959467058E+02  0.56681654422E+02  0.74904638909E+03  0.50400001928E-02 0.  1.
       -1    1    3    3    0  502 -0.74406851208E+03  0.64959467058E+02  0.62240588017E+02  0.74948754083E+03  0.50400001928E-02 0. -1.
</event>
<event>
 5   0  0.4084462E-04  0.1497436E+04  0.7818609E-02  0.8886159E-01
        1   -1    0    0  501    0  0.00000000000E+00  0.00000000000E+00  0.13036319191E+04  0.13036319191E+04  0.50400001928E-02 0.  1.
       -1   -1    0    0    0  501  0.00000000000E+00  0.00000000000E+00 -0.43001324908E+03  0.43001324911E+03  0.50400001928E-02 0. -1.
    10030    2    1    2    0    0  0.00000000000E+00  0.00000000000E+00  0.87361866998E+03  0.17336451682E+04  0.14974364723E+04 0.  0.
        1    1    3    3  502    0 -0.47607757732E+03 -0.22274179710E+03  0.10541314967E+04  0.11779036379E+04  0.50400001928E-02 0.  1.
       -1    1    3    3    0  502  0.47607757732E+03  0.22274179710E+03 -0.18051282675E+03  0.55574153025E+03  0.50400001928E-02 0. -1.
</event>
<event>
 5   0  0.4058874E-04  0.1489108E+04  0.7818609E-02  0.8891729E-01
        1   -1    0    0  501    0  0.00000000000E+00  0.00000000000E+00  0.88719869652E+03  0.88719869654E+03  0.50400001928E-02 0.  1.
       -1   -1    0    0    0  501  0.00000000000E+00  0.00000000000E+00 -0.62484376861E+03  0.62484376863E+03  0.50400001928E-02 0. -1.
    10030    2    1    2    0    0  0.00000000000E+00  0.00000000000E+00  0.26235492791E+03  0.15120424652E+04  0.14891078901E+04 0.  0.
        4    1    3    3  502    0  0.34982677046E+03  0.36192379150E+03 -0.42589903958E+03  0.65936272643E+03  0.12699999809E+01 0. -1.
       -4    1    3    3    0  502 -0.34982677046E+03 -0.36192379150E+03  0.68825396749E+03  0.85267973874E+03  0.12699999809E+01 0.  1.
</event>
<event>
 5   0  0.7547580E-04  0.1467519E+04  0.7818609E-02  0.8906344E-01
       -2   -1    0    0    0  501  0.00000000000E+00  0.00000000000E+00  0.48081255635E+03  0.48081255636E+03  0.25500000920E-02 0.  1.
        2   -1    0    0  501    0  0.00000000000E+00  0.00000000000E+00 -0.11197780811E+04  0.11197780811E+04  0.25500000920E-02 0. -1.
    10030    2    1    2    0    0  0.00000000000E+00  0.00000000000E+00 -0.63896552473E+03  0.16005906375E+04  0.14675194877E+04 0.  0.
        4    1    3    3  502    0  0.70324019950E+03  0.52072843593E+02 -0.54071398992E+03  0.88861217133E+03  0.12699999809E+01 0. -1.
       -4    1    3    3    0  502 -0.70324019950E+03 -0.52072843593E+02 -0.98251534809E+02  0.71197846612E+03  0.12699999809E+01 0.  1.
</event>
<event>
 5   0  0.7454828E-04  0.1496365E+04  0.7818609E-02  0.8886874E-01
        2   -1    0    0  501    0  0.00000000000E+00  0.00000000000E+00  0.69271049569E+03  0.69271049570E+03  0.25500000920E-02 0. -1.
       -2   -1    0    0    0  501  0.00000000000E+00  0.00000000000E+00 -0.80809623318E+03  0.80809623319E+03  0.25500000920E-02 0.  1.
    10030    2    1    2    0    0  0.00000000000E+00  0.00000000000E+00 -0.11538573749E+03  0.15008067289E+04  0.14963645843E+04 0.  0.
        3    1    3    3  502    0  0.89518957390E+02  0.73371522840E+03  0.58517621852E+02  0.74146881417E+03  0.10100000352E+00 0.  1.
       -3    1    3    3    0  502 -0.89518957390E+02 -0.73371522840E+03 -0.17390335934E+03  0.75933791471E+03  0.10100000352E+00 0. -1.
</event>
<event>
 5   0  0.4058874E-04  0.1297755E+04  0.7818609E-02  0.9031347E-01
       -1   -1    0    0    0  501  0.00000000000E+00  0.00000000000E+00  0.10099121635E+04  0.10099121636E+04  0.50400001928E-02 0. -1.
        1   -1    0    0  501    0  0.00000000000E+00  0.00000000000E+00 -0.41690946986E+03  0.41690946989E+03  0.50400001928E-02 0.  1.
    10030    2    1    2    0    0  0.00000000000E+00  0.00000000000E+00  0.59300269368E+03  0.14268216335E+04  0.12977548994E+04 0.  0.
        4    1    3    3  502    0  0.63072907826E+03 -0.13936374720E+03  0.22873620113E+03  0.68524688018E+03  0.12699999809E+01 0.  1.
       -4    1    3    3    0  502 -0.63072907826E+03  0.13936374720E+03  0.36426649255E+03  0.74157475327E+03  0.12699999809E+01 0. -1.
</event>
<event>
 5   0  0.7672251E-04  0.1482328E+04  0.7818609E-02  0.8896291E-01
        2   -1    0    0  501    0  0.00000000000E+00  0.00000000000E+00  0.13215920676E+04  0.13215920676E+04  0.25500000920E-02 0.  1.
       -2   -1    0    0    0  501  0.00000000000E+00  0.00000000000E+00 -0.41565304398E+03  0.41565304399E+03  0.25500000920E-02 0. -1.
    10030    2    1    2    0    0  0.00000000000E+00  0.00000000000E+00  0.90593902365E+03  0.17372451116E+04  0.14823275830E+04 0.  0.
        5    1    3    3  502    0  0.13168863697E+03  0.55246560315E+03  0.10110315110E+04  0.11596408694E+04  0.46999998093E+01 0.  1.
       -5    1    3    3    0  502 -0.13168863697E+03 -0.55246560315E+03 -0.10509248731E+03  0.57760424225E+03  0.46999998093E+01 0. -1.
</event>
<event>
 5   0  0.7454828E-04  0.1482813E+04  0.7818609E-02  0.8895963E-01
       -2   -1    0    0    0  501  0.00000000000E+00  0.00000000000E+00  0.35567373384E+03  0.35567373385E+03  0.25500000920E-02 0.  1.
        2   -1    0    0  501    0  0.00000000000E+00  0.00000000000E+00 -0.15454722107E+04  0.15454722107E+04  0.25500000920E-02 0. -1.
    10030    2    1    2    0    0  0.00000000000E+00  0.00000000000E+00 -0.11897984768E+04  0.19011459445E+04  0.14828133689E+04 0.  0.
        3    1    3    3  502    0 -0.23161657428E+03  0.26750249524E+03  0.24042984205E+03  0.42779707993E+03  0.10100000352E+00 0.  1.
       -3    1    3    3    0  502  0.23161657428E+03 -0.26750249524E+03 -0.14302283189E+04  0.14733488646E+04  0.10100000352E+00 0. -1.
</event>
<event>
 5   0  0.7547580E-04  0.1509458E+04  0.7818609E-02  0.8878188E-01
       -2   -1    0    0    0  501  0.00000000000E+00  0.00000000000E+00  0.31653732735E+03  0.31653732736E+03  0.25500000920E-02 0.  1.
        2   -1    0    0  501    0  0.00000000000E+00  0.00000000000E+00 -0.17995222791E+04  0.17995222791E+04  0.25500000920E-02 0. -1.
    10030    2    1    2    0    0  0.00000000000E+00  0.00000000000E+00 -0.14829849517E+04  0.21160596065E+04  0.15094581448E+04 0.  0.
        4    1    3    3  502    0 -0.48005814367E+03  0.29368936853E+03 -0.14464867826E+04  0.15521065980E+04  0.12699999809E+01 0. -1.
       -4    1    3    3    0  502  0.48005814367E+03 -0.29368936853E+03 -0.36498169160E+02  0.56395300845E+03  0.12699999809E+01 0.  1.
</event>
<event>
 5   0  0.7634227E-04  0.1484625E+04  0.7818609E-02  0.8894742E-01
       -2   -1    0    0    0  501  0.00000000000E+00  0.00000000000E+00  0.95276116775E+03  0.95276116775E+03  0.25500000920E-02 0.  1.
        2   -1    0    0  501    0  0.00000000000E+00  0.00000000000E+00 -0.57834868224E+03  0.57834868225E+03  0.25500000920E-02 0. -1.
    10030    2    1    2    0    0  0.00000000000E+00  0.00000000000E+00  0.37441248550E+03  0.15311098500E+04  0.14846254287E+04 0.  0.
        2    1    3    3  502    0 -0.43906067718E+03 -0.42043616519E+02  0.80296533049E+03  0.91613059435E+03  0.25500000920E-02 0.  1.
       -2    1    3    3    0  502  0.43906067718E+03  0.42043616519E+02 -0.42855284498E+03  0.61497925565E+03  0.25500000920E-02 0. -1.
</event>
<event>
 5   0  0.7634227E-04  0.1500863E+04  0.7818609E-02  0.8883879E-01
       -2   -1    0    0    0  501  0.00000000000E+00  0.00000000000E+00  0.41184540297E+03  0.41184540298E+03  0.25500000920E-02 0. -1.
        2   -1    0    0  501    0  0.00000000000E+00  0.00000000000E+00 -0.13673752154E+04  0.13673752154E+04  0.25500000920E-02 0.  1.
    10030    2    1    2    0    0  0.00000000000E+00  0.00000000000E+00 -0.95552981238E+03  0.17792206183E+04  0.15008626807E+04 0.  0.
        2    1    3    3  502    0 -0.24333594738E+03  0.39429390914E+03 -0.11775581591E+04  0.12654340315E+04  0.25500000920E-02 0.  1.
       -2    1    3    3    0  502  0.24333594738E+03 -0.39429390914E+03  0.22202834669E+03  0.51378658684E+03  0.25500000920E-02 0. -1.
</event>
<event>
 5   0  0.7634227E-04  0.1507010E+04  0.7818609E-02  0.8879805E-01
       -2   -1    0    0    0  501  0.00000000000E+00  0.00000000000E+00  0.22597737648E+03  0.22597737650E+03  0.25500000920E-02 0. -1.
        2   -1    0    0  501    0  0.00000000000E+00  0.00000000000E+00 -0.25125058844E+04  0.25125058844E+04  0.25500000920E-02 0.  1.
    10030    2    1    2    0    0  0.00000000000E+00  0.00000000000E+00 -0.22865285079E+04  0.27384832609E+04  0.15070096060E+04 0.  0.
        2    1    3    3  502    0 -0.19682902472E+03  0.86507561288E+02  0.16905547259E+03  0.27350498341E+03  0.25500000920E-02 0. -1.
       -2    1    3    3    0  502  0.19682902472E+03 -0.86507561288E+02 -0.24555839805E+04  0.24649782775E+04  0.25500000920E-02 0.  1.
</event>
<event>
 5   0  0.7454828E-04  0.1537549E+04  0.7818609E-02  0.8859860E-01
       -2   -1    0    0    0  501  0.00000000000E+00  0.00000000000E+00  0.47591408380E+03  0.47591408381E+03  0.25500000920E-02 0. -1.
        2   -1    0    0  501    0  0.00000000000E+00  0.00000000000E+00 -0.12418507573E+04  0.12418507573E+04  0.25500000920E-02 0.  1.
    10030    2    1    2    0    0  0.00000000000E+00  0.00000000000E+00 -0.76593667352E+03  0.17177648411E+04  0.15375490436E+04 0.  0.
        3    1    3    3  502    0  0.70955384302E+03 -0.17062197694E+02 -0.52953414537E+02  0.71173158497E+03  0.10100000352E+00 0.  1.
       -3    1    3    3    0  502 -0.70955384302E+03  0.17062197694E+02 -0.71298325899E+03  0.10060332562E+04  0.10100000352E+00 0. -1.
</event>
<event>
 5   0  0.7547580E-04  0.1582346E+04  0.7818609E-02  0.8831467E-01
       -2   -1    0    0    0  501  0.00000000000E+00  0.00000000000E+00  0.48390743950E+03  0.48390743951E+03  0.25500000920E-02 0.  1.
        2   -1    0    0  501    0  0.00000000000E+00  0.00000000000E+00 -0.12935423337E+04  0.12935423337E+04  0.25500000920E-02 0. -1.
    10030    2    1    2    0    0  0.00000000000E+00  0.00000000000E+00 -0.80963489421E+03  0.17774497732E+04  0.15823460539E+04 0.  0.
        4    1    3    3  502    0 -0.57963244311E+03 -0.14027519434E+03 -0.98882800245E+03  0.11547438376E+04  0.12699999809E+01 0. -1.
       -4    1    3    3    0  502  0.57963244311E+03  0.14027519434E+03  0.17919310824E+03  0.62270593557E+03  0.12699999809E+01 0.  1.
</event>
<event>
 5   0  0.7359897E-04  0.1514240E+04  0.7818609E-02  0.8875039E-01
        2   -1    0    0  501    0  0.00000000000E+00  0.00000000000E+00  0.21614029820E+04  0.21614029820E+04  0.25500000920E-02 0.  1.
       -2   -1    0    0    0  501  0.00000000000E+00  0.00000000000E+00 -0.26521215689E+03  0.26521215690E+03  0.25500000920E-02 0. -1.
    10030    2    1    2    0    0  0.00000000000E+00  0.00000000000E+00  0.18961908251E+04  0.24266151389E+04  0.15142395409E+04 0.  0.
        1    1    3    3  502    0  0.64045148175E+03  0.40149628337E+03  0.10170783637E+04  0.12672118071E+04  0.50400001928E-02 0. -1.
       -1    1    3    3    0  502 -0.64045148175E+03 -0.40149628337E+03  0.87911246138E+03  0.11594033318E+04  0.50400001928E-02 0.  1.
</event>
<event>
 5   0  0.4084462E-04  0.1508859E+04  0.7818609E-02  0.8878583E-01
        1   -1    0    0  501    0  0.00000000000E+00  0.00000000000E+00  0.65507715665E+03  0.65507715667E+03  0.50400001928E-02 0.  1.
       -1   -1    0    0    0  501  0.00000000000E+00  0.00000000000E+00 -0.86884962476E+03  0.86884962478E+03  0.50400001928E-02 0. -1.
    10030    2    1    2    0    0  0.00000000000E+00  0.00000000000E+00 -0.21377246811E+03  0.15239267814E+04  0.15088585643E+04 0.  0.
        1    1    3    3  502    0 -0.23804682365E+03  0.15805243015E+03  0.59831052737E+03  0.66304023114E+03  0.50400001928E-02 0.  1.
       -1    1    3    3    0  502  0.23804682365E+03 -0.15805243015E+03 -0.81208299548E+03  0.86088655031E+03  0.50400001928E-02 0. -1.
</event>
<event>
 5   0  0.4086710E-04  0.1505946E+04  0.7818609E-02  0.8880508E-01
       -1   -1    0    0    0  501  0.00000000000E+00  0.00000000000E+00  0.51230478604E+03  0.51230478606E+03  0.50400001928E-02 0.  1.
        1   -1    0    0  501    0  0.00000000000E+00  0.00000000000E+00 -0.11067015283E+04  0.11067015283E+04  0.50400001928E-02 0. -1.
    10030    2    1    2    0    0  0.00000000000E+00  0.00000000000E+00 -0.59439674221E+03  0.16190063143E+04  0.15059462005E+04 0.  0.
        3    1    3    3  502    0 -0.36565618838E+03  0.38891569118E+03 -0.86811182101E+03  0.10191064748E+04  0.10100000352E+00 0. -1.
       -3    1    3    3    0  502  0.36565618838E+03 -0.38891569118E+03  0.27371507879E+03  0.59989983956E+03  0.10100000352E+00 0.  1.
</event>
<event>
 5   0  0.4084462E-04  0.1500216E+04  0.7818609E-02  0.8884310E-01
       -1   -1    0    0    0  501  0.00000000000E+00  0.00000000000E+00  0.56431972065E+03  0.56431972067E+03  0.50400001928E-02 0.  1.
        1   -1    0    0  501    0  0.00000000000E+00  0.00000000000E+00 -0.99706188886E+03  0.99706188887E+03  0.50400001928E-02 0. -1.
    10030    2    1    2    0    0  0.00000000000E+00  0.00000000000E+00 -0.43274216821E+03  0.15613816095E+04  0.15002155667E+04 0.  0.
        1    1    3    3  502    0 -0.13727342145E+03 -0.25680382757E+03  0.50309453182E+03  0.58128848782E+03  0.50400001928E-02 0.  1.
       -1    1    3    3    0  502  0.13727342145E+03  0.25680382757E+03 -0.93583670003E+03  0.98009312172E+03  0.50400001928E-02 0. -1.
</event>
<event>
 5   0  0.7547580E-04  0.1493733E+04  0.7818609E-02  0.8888631E-01
       -2   -1    0    0    0  501  0.00000000000E+00  0.00000000000E+00  0.49292223167E+03  0.49292223168E+03  0.25500000920E-02 0.  1.
        2   -1    0    0  501    0  0.00000000000E+00  0.00000000000E+00 -0.11316374473E+04  0.11316374473E+04  0.25500000920E-02 0. -1.
    10030    2    1    2    0    0  0.00000000000E+00  0.00000000000E+00 -0.63871521566E+03  0.16245596790E+04  0.14937325811E+04 0.  0.
        4    1    3    3  502    0  0.50062691351E+03 -0.27677080233E+03 -0.84159984656E+03  0.10176056693E+04  0.12699999809E+01 0. -1.
       -4    1    3    3    0  502 -0.50062691351E+03  0.27677080233E+03  0.20288463090E+03  0.60695400972E+03  0.12699999809E+01 0.  1.
</event>
<event>
 5   0  0.7634227E-04  0.1481147E+04  0.7818609E-02  0.8897087E-01
       -2   -1    0    0    0  501  0.00000000000E+00  0.00000000000E+00  0.70848900058E+03  0.70848900058E+03  0.25500000920E-02 0.  1.
        2   -1    0    0  501    0  0.00000000000E+00  0.00000000000E+00 -0.77411148294E+03  0.77411148294E+03  0.25500000920E-02 0. -1.
    10030    2    1    2    0    0  0.00000000000E+00  0.00000000000E+00 -0.65622482364E+02  0.14826004835E+04  0.14811474888E+04 0.  0.
        2    1    3    3  502    0 -0.31214173912E+03 -0.43753091874E+02  0.63799740331E+03  0.71160908158E+03  0.25500000920E-02 0.  1.
       -2    1    3    3    0  502  0.31214173912E+03  0.43753091874E+02 -0.70361988567E+03  0.77099140194E+03  0.25500000920E-02 0. -1.
</event>
<event>
 5   0  0.7634227E-04  0.1499957E+04  0.7818609E-02  0.8884482E-01
       -2   -1    0    0    0  501  0.00000000000E+00  0.00000000000E+00  0.37604143098E+03  0.37604143098E+03  0.25500000920E-02 0. -1.
        2   -1    0    0  501    0  0.00000000000E+00  0.00000000000E+00 -0.14957598537E+04  0.14957598538E+04  0.25500000920E-02 0.  1.
    10030    2    1    2    0    0  0.00000000000E+00  0.00000000000E+00 -0.11197184228E+04  0.18718012847E+04  0.14999569005E+04 0.  0.
        2    1    3    3  502    0 -0.28581424727E+03 -0.91799066367E+01 -0.14250564811E+04  0.14534648358E+04  0.25500000920E-02 0.  1.
       -2    1    3    3    0  502  0.28581424727E+03  0.91799066367E+01  0.30533805832E+03  0.41833644892E+03  0.25500000920E-02 0. -1.
</event>
<event>
 5   0  0.7359897E-04  0.1501168E+04  0.7818609E-02  0.8883677E-01
        2   -1    0    0  501    0  0.00000000000E+00  0.00000000000E+00  0.53712842749E+03  0.53712842749E+03  0.25500000920E-02 0.  1.
       -2   -1    0    0    0  501  0.00000000000E+00  0.00000000000E+00 -0.10488664407E+04  0.10488664407E+04  0.25500000920E-02 0. -1.
    10030    2    1    2    0    0  0.00000000000E+00  0.00000000000E+00 -0.51173801322E+03  0.15859948682E+04  0.15011675216E+04 0.  0.
        1    1    3    3  502    0 -0.37971401347E+02 -0.37844529505E+03 -0.93951457505E+03  0.10135829051E+04  0.50400001928E-02 0. -1.
       -1    1    3    3    0  502  0.37971401347E+02  0.37844529505E+03  0.42777656183E+03  0.57241196314E+03  0.50400001928E-02 0.  1.
</event>
<event>
 5   0  0.7672251E-04  0.1634881E+04  0.7818609E-02  0.8799401E-01
       -2   -1    0    0    0  501  0.00000000000E+00  0.00000000000E+00  0.36088303933E+03  0.36088303934E+03  0.25500000920E-02 0.  1.
        2   -1    0    0  501    0  0.00000000000E+00  0.00000000000E+00 -0.18515943901E+04  0.18515943901E+04  0.25500000920E-02 0. -1.
    10030    2    1    2    0    0  0.00000000000E+00  0.00000000000E+00 -0.14907113507E+04  0.22124774294E+04  0.16348810490E+04 0.  0.
        5    1    3    3  502    0 -0.70607337799E+03  0.32985939284E+03 -0.41155469926E+03  0.88133205696E+03  0.46999998093E+01 0.  1.
       -5    1    3    3    0  502  0.70607337799E+03 -0.32985939284E+03 -0.10791566515E+04  0.13311453724E+04  0.46999998093E+01 0. -1.
</event>
<event>
 5   0  0.4015204E-04  0.1499992E+04  0.7818609E-02  0.8884458E-01
       -1   -1    0    0    0  501  0.00000000000E+00  0.00000000000E+00  0.69543223550E+03  0.69543223552E+03  0.50400001928E-02 0.  1.
        1   -1    0    0  501    0  0.00000000000E+00  0.00000000000E+00 -0.80884099829E+03  0.80884099831E+03  0.50400001928E-02 0. -1.
    10030    2    1    2    0    0  0.00000000000E+00  0.00000000000E+00 -0.11340876279E+03  0.15042732338E+04  0.14999921382E+04 0.  0.
        2    1    3    3  502    0  0.45912892788E+03  0.11656561184E+03  0.52642503184E+03  0.70817386878E+03  0.25500000920E-02 0.  1.
       -2    1    3    3    0  502 -0.45912892788E+03 -0.11656561184E+03 -0.63983379463E+03  0.79609936505E+03  0.25500000920E-02 0. -1.
</event>
<event>
 5   0  0.4086710E-04  0.1503467E+04  0.7818609E-02  0.8882151E-01
        1   -1    0    0  501    0  0.00000000000E+00  0.00000000000E+00  0.16141480411E+04  0.16141480411E+04  0.50400001928E-02 0. -1.
       -1   -1    0    0    0  501  0.00000000000E+00  0.00000000000E+00 -0.35009364410E+03  0.35009364414E+03  0.50400001928E-02 0.  1.
    10030    2    1    2    0    0  0.00000000000E+00  0.00000000000E+00  0.12640543970E+04  0.19642416853E+04  0.15034666207E+04 0.  0.
        3    1    3    3  502    0 -0.29030383952E+03 -0.47733727322E+03  0.12891410085E+04  0.14049952817E+04  0.10100000352E+00 0. -1.
       -3    1    3    3    0  502  0.29030383952E+03  0.47733727322E+03 -0.25086611446E+02  0.55924640358E+03  0.10100000352E+00 0.  1.
</event>
<event>
 5   0  0.4084462E-04  0.1497985E+04  0.7818609E-02  0.8885794E-01
       -1   -1    0    0    0  501  0.00000000000E+00  0.00000000000E+00  0.26529349367E+03  0.26529349372E+03  0.50400001928E-02 0. -1.
        1   -1    0    0  501    0  0.00000000000E+00  0.00000000000E+00 -0.21145999919E+04  0.21145999919E+04  0.50400001928E-02 0.  1.
    10030    2    1    2    0    0  0.00000000000E+00  0.00000000000E+00 -0.18493064982E+04  0.23798934856E+04  0.14979848058E+04 0.  0.
        1    1    3    3  502    0 -0.32503071296E+01 -0.74255145123E+03 -0.10802871575E+04  0.13108827427E+04  0.50400001928E-02 0. -1.
       -1    1    3    3    0  502  0.32503071296E+01  0.74255145123E+03 -0.76901934067E+03  0.10690107430E+04  0.50400001928E-02 0.  1.
</event>
<event>
 5   0  0.4015204E-04  0.1508835E+04  0.7818609E-02  0.8878599E-01
        1   -1    0    0  501    0  0.00000000000E+00  0.00000000000E+00  0.16806188867E+04  0.16806188867E+04  0.50400001928E-02 0.  1.
       -1   -1    0    0    0  501  0.00000000000E+00  0.00000000000E+00 -0.33865244598E+03  0.33865244602E+03  0.50400001928E-02 0. -1.
    10030    2    1    2    0    0  0.00000000000E+00  0.00000000000E+00  0.13419664408E+04  0.20192713328E+04  0.15088349105E+04 0.  0.
        2    1    3    3  502    0 -0.38849817938E+03  0.12095924244E+03 -0.17921418833E+03  0.44461185209E+03  0.25500000920E-02 0. -1.
       -2    1    3    3    0  502  0.38849817938E+03 -0.12095924244E+03  0.15211806291E+04  0.15746594807E+04  0.25500000920E-02 0.  1.
</event>
<event>
 5   0  0.7454828E-04  0.1482141E+04  0.7818609E-02  0.8896417E-01
        2   -1    0    0  501    0  0.00000000000E+00  0.00000000000E+00  0.93290797546E+03  0.93290797546E+03  0.25500000920E-02 0. -1.
       -2   -1    0    0    0  501  0.00000000000E+00  0.00000000000E+00 -0.58868111902E+03  0.58868111902E+03  0.25500000920E-02 0.  1.
    10030    2    1    2    0    0  0.00000000000E+00  0.00000000000E+00  0.34422685644E+03  0.15215890945E+04  0.14821407638E+04 0.  0.
        3    1    3    3  502    0  0.42201145425E+02  0.62723043279E+03  0.57496869414E+03  0.85193189982E+03  0.10100000352E+00 0. -1.
       -3    1    3    3    0  502 -0.42201145425E+02 -0.62723043279E+03 -0.23074183770E+03  0.66965719466E+03  0.10100000352E+00 0.  1.
</event>
<event>
 5   0  0.4015204E-04  0.1467232E+04  0.7818609E-02  0.8906541E-01
        1   -1    0    0  501    0  0.00000000000E+00  0.00000000000E+00  0.16050311806E+04  0.16050311806E+04  0.50400001928E-02 0.  1.
       -1   -1    0    0    0  501  0.00000000000E+00  0.00000000000E+00 -0.33531580852E+03  0.33531580855E+03  0.50400001928E-02 0. -1.
    10030    2    1    2    0    0  0.00000000000E+00  0.00000000000E+00  0.12697153720E+04  0.19403469891E+04  0.14672318536E+04 0.  0.
        2    1    3    3  502    0 -0.55311617788E+03 -0.45952560260E+03  0.44280089151E+03  0.84449624937E+03  0.25500000920E-02 0. -1.
       -2    1    3    3    0  502  0.55311617788E+03  0.45952560260E+03  0.82691448054E+03  0.10958507398E+04  0.25500000920E-02 0.  1.
</event>
<event>
 5   0  0.7672251E-04  0.1500942E+04  0.7818609E-02  0.8883827E-01
        2   -1    0    0  501    0  0.00000000000E+00  0.00000000000E+00  0.16204237609E+04  0.16204237609E+04  0.25500000920E-02 0. -1.
       -2   -1    0    0    0  501  0.00000000000E+00  0.00000000000E+00 -0.34756735419E+03  0.34756735420E+03  0.25500000920E-02 0.  1.
    10030    2    1    2    0    0  0.00000000000E+00  0.00000000000E+00  0.12728564067E+04  0.19679911151E+04  0.15009415701E+04 0.  0.
        5    1    3    3  502    0 -0.51401525162E+03  0.52841460344E+03  0.45216021134E+03  0.86481478869E+03  0.46999998093E+01 0.  1.
       -5    1    3    3    0  502  0.51401525162E+03 -0.52841460344E+03  0.82069619532E+03  0.11031763264E+04  0.46999998093E+01 0. -1.
</event>
<event>
 5   0  0.7359897E-04  0.1498745E+04  0.7818609E-02  0.8885288E-01
        2   -1    0    0  501    0  0.00000000000E+00  0.00000000000E+00  0.11738236923E+04  0.11738236923E+04  0.25500000920E-02 0. -1.
       -2   -1    0    0    0  501  0.00000000000E+00  0.00000000000E+00 -0.47840185221E+03  0.47840185222E+03  0.25500000920E-02 0.  1.
    10030    2    1    2    0    0  0.00000000000E+00  0.00000000000E+00  0.69542184009E+03  0.16522255445E+04  0.14987453801E+04 0.  0.
        1    1    3    3  502    0 -0.91179855336E+02  0.42538668671E+03  0.10203517524E+04  0.11092273427E+04  0.50400001928E-02 0. -1.
       -1    1    3    3    0  502  0.91179855336E+02 -0.42538668671E+03 -0.32492991228E+03  0.54299820181E+03  0.50400001928E-02 0.  1.
</event>
<event>
 5   0  0.3907345E-04  0.1430569E+04  0.7818609E-02  0.8931984E-01
        1   -1    0    0  501    0  0.00000000000E+00  0.00000000000E+00  0.29375153339E+03  0.29375153344E+03  0.50400001928E-02 0.  1.
       -1   -1    0    0    0  501  0.00000000000E+00  0.00000000000E+00 -0.17417155631E+04  0.17417155631E+04  0.50400001928E-02 0. -1.
    10030    2    1    2    0    0  0.00000000000E+00  0.00000000000E+00 -0.14479640297E+04  0.20354670966E+04  0.14305685827E+04 0.  0.
        5    1    3    3  502    0 -0.32191845306E+03 -0.63682633598E+03 -0.79412452626E+03  0.10676306130E+04  0.46999998093E+01 0. -1.
       -5    1    3    3    0  502  0.32191845306E+03  0.63682633598E+03 -0.65383950347E+03  0.96783648356E+03  0.46999998093E+01 0.  1.
</event>
<event>
 5   0  0.4086710E-04  0.1501461E+04  0.7818609E-02  0.8883482E-01
        1   -1    0    0  501    0  0.00000000000E+00  0.00000000000E+00  0.36642780855E+03  0.36642780858E+03  0.50400001928E-02 0. -1.
       -1   -1    0    0    0  501  0.00000000000E+00  0.00000000000E+00 -0.15380824077E+04  0.15380824077E+04  0.50400001928E-02 0.  1.
    10030    2    1    2    0    0  0.00000000000E+00  0.00000000000E+00 -0.11716545992E+04  0.19045102163E+04  0.15014608434E+04 0.  0.
        3    1    3    3  502    0  0.39088812129E+03  0.52909678492E+03 -0.12697652686E+03  0.66997013348E+03  0.10100000352E+00 0. -1.
       -3    1    3    3    0  502 -0.39088812129E+03 -0.52909678492E+03 -0.10446780723E+04  0.12345400829E+04  0.10100000352E+00 0.  1.
</event>
<event>
 5   0  0.4058874E-04  0.1499493E+04  0.7818609E-02  0.8884790E-01
       -1   -1    0    0    0  501  0.00000000000E+00  0.00000000000E+00  0.78956747851E+03  0.78956747852E+03  0.50400001928E-02 0. -1.
        1   -1    0    0  501    0  0.00000000000E+00  0.00000000000E+00 -0.71193365244E+03  0.71193365246E+03  0.50400001928E-02 0.  1.
    10030    2    1    2    0    0  0.00000000000E+00  0.00000000000E+00  0.77633826064E+02  0.15015011310E+04  0.14994927927E+04 0.  0.
        4    1    3    3  502    0 -0.72528587464E+03 -0.18456796888E+03 -0.61108842546E+01  0.74842761233E+03  0.12699999809E+01 0. -1.
       -4    1    3    3    0  502  0.72528587464E+03  0.18456796888E+03  0.83744710319E+02  0.75307351866E+03  0.12699999809E+01 0.  1.
</event>
<event>
 5   0  0.3907345E-04  0.1518478E+04  0.7818609E-02  0.8872257E-01
       -1   -1    0    0    0  501  0.00000000000E+00  0.00000000000E+00  0.40184370204E+03  0.40184370207E+03  0.50400001928E-02 0.  1.
        1   -1    0    0  501    0  0.00000000000E+00  0.00000000000E+00 -0.14344976257E+04  0.14344976258E+04  0.50400001928E-02 0. -1.
    10030    2    1    2    0    0  0.00000000000E+00  0.00000000000E+00 -0.10326539237E+04  0.18363413278E+04  0.15184779702E+04 0.  0.
        5    1    3    3  502    0 -0.62048763837E+03  0.22198319137E+03 -0.60391338046E+02  0.66177839971E+03  0.46999998093E+01 0.  1.
       -5    1    3    3    0  502  0.62048763837E+03 -0.22198319137E+03 -0.97226258566E+03  0.11745629281E+04  0.46999998093E+01 0. -1.
</event>
<event>
 5   0  0.7634227E-04  0.1499973E+04  0.7818609E-02  0.8884471E-01
        2   -1    0    0  501    0  0.00000000000E+00  0.00000000000E+00  0.13078503673E+04  0.13078503673E+04  0.25500000920E-02 0. -1.
       -2   -1    0    0    0  501  0.00000000000E+00  0.00000000000E+00 -0.43007970641E+03  0.43007970642E+03  0.25500000920E-02 0.  1.
    10030    2    1    2    0    0  0.00000000000E+00  0.00000000000E+00  0.87777066087E+03  0.17379300737E+04  0.14999732024E+04 0.  0.
        2    1    3    3  502    0 -0.55365871291E+03 -0.24916373148E+03 -0.71257976137E+02  0.61130862470E+03  0.25500000920E-02 0.  1.
       -2    1    3    3    0  502  0.55365871291E+03  0.24916373148E+03  0.94902863700E+03  0.11266214490E+04  0.25500000920E-02 0. -1.
</event>
<event>
 5   0  0.4015204E-04  0.1479589E+04  0.7818609E-02  0.8898141E-01
        1   -1    0    0  501    0  0.00000000000E+00  0.00000000000E+00  0.11612251313E+04  0.11612251313E+04  0.50400001928E-02 0. -1.
       -1   -1    0    0    0  501  0.00000000000E+00  0.00000000000E+00 -0.47130909438E+03  0.47130909441E+03  0.50400001928E-02 0.  1.
    10030    2    1    2    0    0  0.00000000000E+00  0.00000000000E+00  0.68991603693E+03  0.16325342257E+04  0.14795890849E+04 0.  0.
        2    1    3    3  502    0  0.60235234575E+03  0.15654799091E+03 -0.96335287548E+02  0.62977464979E+03  0.25500000920E-02 0.  1.
       -2    1    3    3    0  502 -0.60235234575E+03 -0.15654799091E+03  0.78625132448E+03  0.10027595759E+04  0.25500000920E-02 0. -1.
</event>
<event>
 5   0  0.7672251E-04  0.1246486E+04  0.7818609E-02  0.9073113E-01
        2   -1    0    0  501    0  0.00000000000E+00  0.00000000000E+00  0.66438070902E+03  0.66438070902E+03  0.25500000920E-02 0. -1.
       -2   -1    0    0    0  501  0.00000000000E+00  0.00000000000E+00 -0.58465273997E+03  0.58465273998E+03  0.25500000920E-02 0.  1.
    10030    2    1    2    0    0  0.00000000000E+00  0.00000000000E+00  0.79727969045E+02  0.12490334490E+04  0.12464862645E+04 0.  0.
        5    1    3    3  502    0  0.43290308359E+03  0.39149418166E+03 -0.17907079596E+03  0.61054173815E+03  0.46999998093E+01 0.  1.
       -5    1    3    3    0  502 -0.43290308359E+03 -0.39149418166E+03  0.25879876500E+03  0.63849171085E+03  0.46999998093E+01 0. -1.
</event>
<event>
 5   0  0.4084462E-04  0.1477117E+04  0.7818609E-02  0.8899814E-01
        1   -1    0    0  501    0  0.00000000000E+00  0.00000000000E+00  0.78491084846E+03  0.78491084848E+03  0.50400001928E-02 0. -1.
       -1   -1    0    0    0  501  0.00000000000E+00  0.00000000000E+00 -0.69494304958E+03  0.69494304960E+03  0.50400001928E-02 0.  1.
    10030    2    1    2    0    0  0.00000000000E+00  0.00000000000E+00  0.89967798887E+02  0.14798538981E+04  0.14771165678E+04 0.  0.
        1    1    3    3  502    0 -0.41496332257E+03  0.60872124157E+03 -0.73837007990E+01  0.73674325791E+03  0.50400001928E-02 0. -1.
       -1    1    3    3    0  502  0.41496332257E+03 -0.60872124157E+03  0.97351499686E+02  0.74311064017E+03  0.50400001928E-02 0.  1.
</event>
<event>
 5   0  0.7454828E-04  0.1501602E+04  0.7818609E-02  0.8883388E-01
       -2   -1    0    0    0  501  0.00000000000E+00  0.00000000000E+00  0.63709779914E+03  0.63709779914E+03  0.25500000920E-02 0. -1.
        2   -1    0    0  501    0  0.00000000000E+00  0.00000000000E+00 -0.88479695017E+03  0.88479695017E+03  0.25500000920E-02 0.  1.
    10030    2    1    2    0    0  0.00000000000E+00  0.00000000000E+00 -0.24769915103E+03  0.15218947493E+04  0.15016020640E+04 0.  0.
        3    1    3    3  502    0  0.25816527948E+03 -0.69995340354E+03 -0.20935857578E+03  0.77486457017E+03  0.10100000352E+00 0.  1.
       -3    1    3    3    0  502 -0.25816527948E+03  0.69995340354E+03 -0.38340575253E+02  0.74703017915E+03  0.10100000352E+00 0. -1.
</event>
<event>
 5   0  0.7672251E-04  0.1498352E+04  0.7818609E-02  0.8885550E-01
       -2   -1    0    0    0  501  0.00000000000E+00  0.00000000000E+00  0.43535740092E+03  0.43535740092E+03  0.25500000920E-02 0.  1.
        2   -1    0    0  501    0  0.00000000000E+00  0.00000000000E+00 -0.12892045285E+04  0.12892045285E+04  0.25500000920E-02 0. -1.
    10030    2    1    2    0    0  0.00000000000E+00  0.00000000000E+00 -0.85384712761E+03  0.17245619295E+04  0.14983520718E+04 0.  0.
        5    1    3    3  502    0 -0.65778994660E+02 -0.54069754665E+03  0.16508582824E+03  0.56917144498E+03  0.46999998093E+01 0.  1.
       -5    1    3    3    0  502  0.65778994660E+02  0.54069754665E+03 -0.10189329559E+04  0.11553904845E+04  0.46999998093E+01 0. -1.
</event>
<event>
 5   0  0.7672251E-04  0.1504240E+04  0.7818609E-02  0.8881638E-01
        2   -1    0    0  501    0  0.00000000000E+00  0.00000000000E+00  0.12347216283E+04  0.12347216283E+04  0.25500000920E-02 0. -1.
       -2   -1    0    0    0  501  0.00000000000E+00  0.00000000000E+00 -0.45814761895E+03  0.45814761896E+03  0.25500000920E-02 0.  1.
    10030    2    1    2    0    0  0.00000000000E+00  0.00000000000E+00  0.77657400937E+03  0.16928692473E+04  0.15042403719E+04 0.  0.
        5    1    3    3  502    0  0.22890812003E+03  0.21469239363E+03  0.11574955175E+04  0.11992955075E+04  0.46999998093E+01 0. -1.
       -5    1    3    3    0  502 -0.22890812003E+03 -0.21469239363E+03 -0.38092150810E+03  0.49357373981E+03  0.46999998093E+01 0.  1.
</event>
<event>
 5   0  0.7454828E-04  0.1499531E+04  0.7818609E-02  0.8884765E-01
       -2   -1    0    0    0  501  0.00000000000E+00  0.00000000000E+00  0.36452448184E+03  0.36452448185E+03  0.25500000920E-02 0.  1.
        2   -1    0    0  501    0  0.00000000000E+00  0.00000000000E+00 -0.15421419094E+04  0.15421419094E+04  0.25500000920E-02 0. -1.
    10030    2    1    2    0    0  0.00000000000E+00  0.00000000000E+00 -0.11776174276E+04  0.19066663913E+04  0.14995312340E+04 0.  0.
        3    1    3    3  502    0  0.23131138319E+03 -0.63147699613E+03 -0.16732660118E+03  0.69301252103E+03  0.10100000352E+00 0.  1.
       -3    1    3    3    0  502 -0.23131138319E+03  0.63147699613E+03 -0.10102908264E+04  0.12136538702E+04  0.10100000352E+00 0. -1.
</event>
<event>
 5   0  0.4084462E-04  0.1493869E+04  0.7818609E-02  0.8888540E-01
       -1   -1    0    0    0  501  0.00000000000E+00  0.00000000000E+00  0.74373068730E+03  0.74373068732E+03  0.50400001928E-02 0.  1.
        1   -1    0    0  501    0  0.00000000000E+00  0.00000000000E+00 -0.75015177008E+03  0.75015177009E+03  0.50400001928E-02 0. -1.
    10030    2    1    2    0    0  0.00000000000E+00  0.00000000000E+00 -0.64210827776E+01  0.14938824574E+04  0.14938686576E+04 0.  0.
        1    1    3    3  502    0  0.14442996257E+02  0.61922666722E+03  0.41423867171E+03  0.74514692692E+03  0.50400001928E-02 0.  1.
       -1    1    3    3    0  502 -0.14442996257E+02 -0.61922666722E+03 -0.42065975449E+03  0.74873553049E+03  0.50400001928E-02 0. -1.
</event>
<event>
 5   0  0.4015204E-04  0.1493758E+04  0.7818609E-02  0.8888615E-01
       -1   -1    0    0    0  501  0.00000000000E+00  0.00000000000E+00  0.74844760603E+03  0.74844760604E+03  0.50400001928E-02 0. -1.
        1   -1    0    0  501    0  0.00000000000E+00  0.00000000000E+00 -0.74531350705E+03  0.74531350707E+03  0.50400001928E-02 0.  1.
    10030    2    1    2    0    0  0.00000000000E+00  0.00000000000E+00  0.31340989734E+01  0.14937611131E+04  0.14937578252E+04 0.  0.
        2    1    3    3  502    0 -0.38329691754E+03  0.55024455135E+03  0.33041806877E+03  0.74757052742E+03  0.25500000920E-02 0. -1.
       -2    1    3    3    0  502  0.38329691754E+03 -0.55024455135E+03 -0.32728396980E+03  0.74619058570E+03  0.25500000920E-02 0.  1.
</event>
<event>
 5   0  0.3907345E-04  0.1488687E+04  0.7818609E-02  0.8892011E-01
       -1   -1    0    0    0  501  0.00000000000E+00  0.00000000000E+00  0.40210553563E+03  0.40210553567E+03  0.50400001928E-02 0.  1.
        1   -1    0    0  501    0  0.00000000000E+00  0.00000000000E+00 -0.13778652420E+04  0.13778652420E+04  0.50400001928E-02 0. -1.
    10030    2    1    2    0    0  0.00000000000E+00  0.00000000000E+00 -0.97575970637E+03  0.17799707777E+04  0.14886869936E+04 0.  0.
        5    1    3    3  502    0 -0.12320155617E+03 -0.27319854279E+03  0.32676120670E+03  0.44340843861E+03  0.46999998093E+01 0.  1.
       -5    1    3    3    0  502  0.12320155617E+03  0.27319854279E+03 -0.13025209131E+04  0.13365623391E+04  0.46999998093E+01 0. -1.
</event>
<event>
 5   0  0.7634227E-04  0.1499829E+04  0.7818609E-02  0.8884566E-01
       -2   -1    0    0    0  501  0.00000000000E+00  0.00000000000E+00  0.54852528936E+03  0.54852528936E+03  0.25500000920E-02 0.  1.
        2   -1    0    0  501    0  0.00000000000E+00  0.00000000000E+00 -0.10252435748E+04  0.10252435748E+04  0.25500000920E-02 0. -1.
    10030    2    1    2    0    0  0.00000000000E+00  0.00000000000E+00 -0.47671828542E+03  0.15737688641E+04  0.14998293617E+04 0.  0.
        2    1    3    3  502    0 -0.48251561283E+03  0.40731500305E+03  0.18611450490E+03  0.65830497285E+03  0.25500000920E-02 0.  1.
       -2    1    3    3    0  502  0.48251561283E+03 -0.40731500305E+03 -0.66283279032E+03  0.91546389129E+03  0.25500000920E-02 0. -1.
</event>
<event>
 5   0  0.4086710E-04  0.1495737E+04  0.7818609E-02  0.8887292E-01
       -1   -1    0    0    0  501  0.00000000000E+00  0.00000000000E+00  0.80685651961E+03  0.80685651963E+03  0.50400001928E-02 0.  1.
        1   -1    0    0  501    0  0.00000000000E+00  0.00000000000E+00 -0.69319337527E+03  0.69319337528E+03  0.50400001928E-02 0. -1.
    10030    2    1    2    0    0  0.00000000000E+00  0.00000000000E+00  0.11366314434E+03  0.15000498949E+04  0.14957374024E+04 0.  0.
        3    1    3    3  502    0  0.17360689665E+02 -0.39276322444E+03 -0.58119703727E+03  0.70167966362E+03  0.10100000352E+00 0. -1.
       -3    1    3    3    0  502 -0.17360689665E+02  0.39276322444E+03  0.69486018161E+03  0.79837023129E+03  0.10100000352E+00 0.  1.
</event>
<event>
 5   0  0.4058874E-04  0.1565558E+04  0.7818609E-02  0.8841991E-01
        1   -1    0    0  501    0  0.00000000000E+00  0.00000000000E+00  0.12022736163E+04  0.12022736163E+04  0.50400001928E-02 0. -1.
       -1   -1    0    0    0  501  0.00000000000E+00  0.00000000000E+00 -0.50965343964E+03  0.50965343967E+03  0.50400001928E-02 0.  1.
    10030    2    1    2    0    0  0.00000000000E+00  0.00000000000E+00  0.69262017661E+03  0.17119270559E+04  0.15655578992E+04 0.  0.
        4    1    3    3  502    0  0.70623260548E+03  0.14842148974E+02 -0.22501204893E+02  0.70674797457E+03  0.12699999809E+01 0.  1.
       -4    1    3    3    0  502 -0.70623260548E+03 -0.14842148974E+02  0.71512138150E+03  0.10051790814E+04  0.12699999809E+01 0. -1.
</event>
<event>
 5   0  0.7547580E-04  0.1506237E+04  0.7818609E-02  0.8880316E-01
        2   -1    0    0  501    0  0.00000000000E+00  0.00000000000E+00  0.22908496026E+04  0.22908496026E+04  0.25500000920E-02 0. -1.
       -2   -1    0    0    0  501  0.00000000000E+00  0.00000000000E+00 -0.24758841372E+03  0.24758841374E+03  0.25500000920E-02 0.  1.
    10030    2    1    2    0    0  0.00000000000E+00  0.00000000000E+00  0.20432611888E+04  0.25384380163E+04  0.15062374570E+04 0.  0.
        4    1    3    3  502    0 -0.45038402416E+03 -0.40813216800E+03  0.27216490247E+03  0.66595268812E+03  0.12699999809E+01 0.  1.
       -4    1    3    3    0  502  0.45038402416E+03  0.40813216800E+03  0.17710962864E+04  0.18724853282E+04  0.12699999809E+01 0. -1.
</event>
<event>
 5   0  0.4058874E-04  0.1501197E+04  0.7818609E-02  0.8883657E-01
        1   -1    0    0  501    0  0.00000000000E+00  0.00000000000E+00  0.49227450960E+03  0.49227450963E+03  0.50400001928E-02 0. -1.
       -1   -1    0    0    0  501  0.00000000000E+00  0.00000000000E+00 -0.11444802635E+04  0.11444802635E+04  0.50400001928E-02 0.  1.
    10030    2    1    2    0    0  0.00000000000E+00  0.00000000000E+00 -0.65220575390E+03  0.16367547731E+04  0.15011974694E+04 0.  0.
        4    1    3    3  502    0  0.48773117780E+03 -0.24455338636E+03  0.23591321523E+03  0.59442806006E+03  0.12699999809E+01 0. -1.
       -4    1    3    3    0  502 -0.48773117780E+03  0.24455338636E+03 -0.88811896913E+03  0.10423267131E+04  0.12699999809E+01 0.  1.
</event>
<event>
 5   0  0.4058874E-04  0.1497111E+04  0.7818609E-02  0.8886377E-01
       -1   -1    0    0    0  501  0.00000000000E+00  0.00000000000E+00  0.62045777136E+03  0.62045777138E+03  0.50400001928E-02 0.  1.
        1   -1    0    0  501    0  0.00000000000E+00  0.00000000000E+00 -0.90309933064E+03  0.90309933065E+03  0.50400001928E-02 0. -1.
    10030    2    1    2    0    0  0.00000000000E+00  0.00000000000E+00 -0.28264155928E+03  0.15235571020E+04  0.14971105477E+04 0.  0.
        4    1    3    3  502    0  0.15327306490E+03 -0.31601486335E+03 -0.81403923094E+03  0.88657741269E+03  0.12699999809E+01 0. -1.
       -4    1    3    3    0  502 -0.15327306490E+03  0.31601486335E+03  0.53139767167E+03  0.63697968934E+03  0.12699999809E+01 0.  1.
</event>
<event>
 5   0  0.4084462E-04  0.1531764E+04  0.7818609E-02  0.8863601E-01
        1   -1    0    0  501    0  0.00000000000E+00  0.00000000000E+00  0.75793321874E+03  0.75793321875E+03  0.50400001928E-02 0. -1.
       -1   -1    0    0    0  501  0.00000000000E+00  0.00000000000E+00 -0.77391364479E+03  0.77391364481E+03  0.50400001928E-02 0.  1.
    10030    2    1    2    0    0  0.00000000000E+00  0.00000000000E+00 -0.15980426054E+02  0.15318468636E+04  0.15317635063E+04 0.  0.
        1    1    3    3  502    0  0.23338715607E+03  0.72882069488E+03  0.22436595303E+02  0.76560601535E+03  0.50400001928E-02 0.  1.
       -1    1    3    3    0  502 -0.23338715607E+03 -0.72882069488E+03 -0.38417021357E+02  0.76624084821E+03  0.50400001928E-02 0. -1.
</event>
<event>
 5   0  0.7359897E-04  0.1499288E+04  0.7818609E-02  0.8884926E-01
       -2   -1    0    0    0  501  0.00000000000E+00  0.00000000000E+00  0.47192865940E+03  0.47192865940E+03  0.25500000920E-02 0. -1.
        2   -1    0    0  501    0  0.00000000000E+00  0.00000000000E+00 -0.11907869463E+04  0.11907869463E+04  0.25500000920E-02 0.  1.
    10030    2    1    2    0    0  0.00000000000E+00  0.00000000000E+00 -0.71885828692E+03  0.16627156057E+04  0.14992884809E+04 0.  0.
        1    1    3    3  502    0 -0.26255634979E+03  0.11637285328E+03 -0.11273591614E+04  0.11633645846E+04  0.50400001928E-02 0.  1.
       -1    1    3    3    0  502  0.26255634979E+03 -0.11637285328E+03  0.40850087452E+03  0.49935102113E+03  0.50400001928E-02 0. -1.
</event>
<event>
 5   0  0.4086710E-04  0.1495866E+04  0.7818609E-02  0.8887206E-01
        1   -1    0    0  501    0  0.00000000000E+00  0.00000000000E+00  0.61815318507E+03  0.61815318509E+03  0.50400001928E-02 0.  1.
       -1   -1    0    0    0  501  0.00000000000E+00  0.00000000000E+00 -0.90496032704E+03  0.90496032705E+03  0.50400001928E-02 0. -1.
    10030    2    1    2    0    0  0.00000000000E+00  0.00000000000E+00 -0.28680714197E+03  0.15231135121E+04  0.14958664493E+04 0.  0.
        3    1    3    3  502    0 -0.47830721380E+03 -0.77418631597E+02  0.43674009720E+03  0.65231384930E+03  0.10100000352E+00 0.  1.
       -3    1    3    3    0  502  0.47830721380E+03  0.77418631597E+02 -0.72354723917E+03  0.87079966284E+03  0.10100000352E+00 0. -1.
</event>
<event>
 5   0  0.7634227E-04  0.1492783E+04  0.7818609E-02  0.8889267E-01
       -2   -1    0    0    0  501  0.00000000000E+00  0.00000000000E+00  0.11407806578E+04  0.11407806578E+04  0.25500000920E-02 0.  1.
        2   -1    0    0  501    0  0.00000000000E+00  0.00000000000E+00 -0.48834978561E+03  0.48834978562E+03  0.25500000920E-02 0. -1.
    10030    2    1    2    0    0  0.00000000000E+00  0.00000000000E+00  0.65243087223E+03  0.16291304435E+04  0.14927826227E+04 0.  0.
        2    1    3    3  502    0 -0.20451244501E+03 -0.30504499168E+03  0.10353519075E+04  0.10985587647E+04  0.25500000920E-02 0.  1.
       -2    1    3    3    0  502  0.20451244501E+03  0.30504499168E+03 -0.38292103523E+03  0.53057167880E+03  0.25500000920E-02 0. -1.
</event>
<event>
 5   0  0.7454828E-04  0.1498520E+04  0.7818609E-02  0.8885438E-01
        2   -1    0    0  501    0  0.00000000000E+00  0.00000000000E+00  0.10958305586E+04  0.10958305586E+04  0.25500000920E-02 0.  1.
       -2   -1    0    0    0  501  0.00000000000E+00  0.00000000000E+00 -0.51229662303E+03  0.51229662303E+03  0.25500000920E-02 0. -1.
    10030    2    1    2    0    0  0.00000000000E+00  0.00000000000E+00  0.58353393560E+03  0.16081271817E+04  0.14985196623E+04 0.  0.
        3    1    3    3  502    0 -0.31319850901E+03  0.56139232277E+02 -0.43618960693E+03  0.53991323640E+03  0.10100000352E+00 0. -1.
       -3    1    3    3    0  502  0.31319850901E+03 -0.56139232277E+02  0.10197235425E+04  0.10682139453E+04  0.10100000352E+00 0.  1.
</event>
<event>
 5   0  0.2800375E-04  0.1478991E+04  0.7818609E-02  0.8898545E-01
       -3   -1    0    0    0  501  0.00000000000E+00  0.00000000000E+00  0.28322853949E+03  0.28322855750E+03  0.10100000352E+00 0. -1.
        3   -1    0    0  501    0  0.00000000000E+00  0.00000000000E+00 -0.19307855114E+04  0.19307855141E+04  0.10100000352E+00 0.  1.
    10030    2    1    2    0    0  0.00000000000E+00  0.00000000000E+00 -0.16475569720E+04  0.22140140716E+04  0.14789909849E+04 0.  0.
        3    1    3    3  502    0  0.50964325722E+03 -0.42813303831E+03 -0.13061194640E+04  0.14659407261E+04  0.10100000352E+00 0.  1.
       -3    1    3    3    0  502 -0.50964325722E+03  0.42813303831E+03 -0.34143750798E+03  0.74807334546E+03  0.10100000352E+00 0. -1.
</event>
<event>
 5   0  0.3907345E-04  0.1535840E+04  0.7818609E-02  0.8860964E-01
       -1   -1    0    0    0  501  0.00000000000E+00  0.00000000000E+00  0.10048067055E+04  0.10048067055E+04  0.50400001928E-02 0.  1.
        1   -1    0    0  501    0  0.00000000000E+00  0.00000000000E+00 -0.58688001108E+03  0.58688001111E+03  0.50400001928E-02 0. -1.
    10030    2    1    2    0    0  0.00000000000E+00  0.00000000000E+00  0.41792669444E+03  0.15916867166E+04  0.15358397970E+04 0.  0.
        5    1    3    3  502    0  0.16613306337E+02  0.20502132825E+03  0.97570989062E+03  0.99716680031E+03  0.46999998093E+01 0.  1.
       -5    1    3    3    0  502 -0.16613306337E+02 -0.20502132825E+03 -0.55778319618E+03  0.59451991634E+03  0.46999998093E+01 0. -1.
</event>
<event>
 5   0  0.7547580E-04  0.1465765E+04  0.7818609E-02  0.8907544E-01
       -2   -1    0    0    0  501  0.00000000000E+00  0.00000000000E+00  0.54895456204E+03  0.54895456204E+03  0.25500000920E-02 0.  1.
        2   -1    0    0  501    0  0.00000000000E+00  0.00000000000E+00 -0.97843529682E+03  0.97843529682E+03  0.25500000920E-02 0. -1.
    10030    2    1    2    0    0  0.00000000000E+00  0.00000000000E+00 -0.42948073478E+03  0.15273898589E+04  0.14657646740E+04 0.  0.
        4    1    3    3  502    0 -0.25004327938E+03  0.55588408946E+03  0.20929067272E+03  0.64446331242E+03  0.12699999809E+01 0.  1.
       -4    1    3    3    0  502  0.25004327938E+03 -0.55588408946E+03 -0.63877140750E+03  0.88292654644E+03  0.12699999809E+01 0. -1.
</event>
<event>
 5   0  0.7547580E-04  0.1488618E+04  0.7818609E-02  0.8892058E-01
       -2   -1    0    0    0  501  0.00000000000E+00  0.00000000000E+00  0.11716507559E+04  0.11716507559E+04  0.25500000920E-02 0. -1.
        2   -1    0    0  501    0  0.00000000000E+00  0.00000000000E+00 -0.47283335643E+03  0.47283335644E+03  0.25500000920E-02 0.  1.
    10030    2    1    2    0    0  0.00000000000E+00  0.00000000000E+00  0.69881739944E+03  0.16444841123E+04  0.14886175593E+04 0.  0.
        4    1    3    3  502    0 -0.10367387649E+03 -0.12444968831E+03  0.11519436153E+04  0.11632762799E+04  0.12699999809E+01 0. -1.
       -4    1    3    3    0  502  0.10367387649E+03  0.12444968831E+03 -0.45312621587E+03  0.48120783243E+03  0.12699999809E+01 0.  1.
</event>
<event>
 5   0  0.7634227E-04  0.1486417E+04  0.7818609E-02  0.8893536E-01
        2   -1    0    0  501    0  0.00000000000E+00  0.00000000000E+00  0.11574118494E+04  0.11574118494E+04  0.25500000920E-02 0.  1.
       -2   -1    0    0    0  501  0.00000000000E+00  0.00000000000E+00 -0.47723642727E+03  0.47723642728E+03  0.25500000920E-02 0. -1.
    10030    2    1    2    0    0  0.00000000000E+00  0.00000000000E+00  0.68017542210E+03  0.16346482766E+04  0.14864172979E+04 0.  0.
        2    1    3    3  502    0 -0.28721905410E+03 -0.27384895730E+03 -0.35096507579E+03  0.52977780331E+03  0.25500000920E-02 0. -1.
       -2    1    3    3    0  502  0.28721905410E+03  0.27384895730E+03  0.10311404979E+04  0.11048704733E+04  0.25500000920E-02 0.  1.
</event>
<event>
 5   0  0.3907345E-04  0.1510431E+04  0.7818609E-02  0.8877546E-01
       -1   -1    0    0    0  501  0.00000000000E+00  0.00000000000E+00  0.63819014475E+03  0.63819014477E+03  0.50400001928E-02 0.  1.
        1   -1    0    0  501    0  0.00000000000E+00  0.00000000000E+00 -0.89369974497E+03  0.89369974498E+03  0.50400001928E-02 0. -1.
    10030    2    1    2    0    0  0.00000000000E+00  0.00000000000E+00 -0.25550960022E+03  0.15318898898E+04  0.15104308917E+04 0.  0.
        5    1    3    3  502    0  0.74744729632E+03 -0.10793851774E+03 -0.12806781239E+03  0.76599715336E+03  0.46999998093E+01 0.  1.
       -5    1    3    3    0  502 -0.74744729632E+03  0.10793851774E+03 -0.12744178783E+03  0.76589273640E+03  0.46999998093E+01 0. -1.
</event>
<event>
 5   0  0.7454828E-04  0.1451909E+04  0.7818609E-02  0.8917078E-01
       -2   -1    0    0    0  501  0.00000000000E+00  0.00000000000E+00  0.38470379167E+03  0.38470379168E+03  0.25500000920E-02 0.  1.
        2   -1    0    0  501    0  0.00000000000E+00  0.00000000000E+00 -0.13699108135E+04  0.13699108135E+04  0.25500000920E-02 0. -1.
    10030    2    1    2    0    0  0.00000000000E+00  0.00000000000E+00 -0.98520702185E+03  0.17546146052E+04  0.14519089286E+04 0.  0.
        3    1    3    3  502    0  0.63625521336E+03 -0.34276978535E+03 -0.40977091698E+03  0.83079722971E+03  0.10100000352E+00 0.  1.
       -3    1    3    3    0  502 -0.63625521336E+03  0.34276978535E+03 -0.57543610487E+03  0.92381737550E+03  0.10100000352E+00 0. -1.
</event>
<event>
 5   0  0.2800375E-04  0.1497181E+04  0.7818609E-02  0.8886330E-01
        3   -1    0    0  501    0  0.00000000000E+00  0.00000000000E+00  0.46956596571E+03  0.46956597657E+03  0.10100000352E+00 0. -1.
       -3   -1    0    0    0  501  0.00000000000E+00  0.00000000000E+00 -0.11934159173E+04  0.11934159216E+04  0.10100000352E+00 0.  1.
    10030    2    1    2    0    0  0.00000000000E+00  0.00000000000E+00 -0.72384995160E+03  0.16629818981E+04  0.14971806976E+04 0.  0.
        4    1    3    3  502    0  0.29031701525E+03 -0.37482060240E+03  0.28155003121E+03  0.55140410436E+03  0.12699999809E+01 0. -1.
       -4    1    3    3    0  502 -0.29031701525E+03  0.37482060240E+03 -0.10053999828E+04  0.11115777938E+04  0.12699999809E+01 0.  1.
</event>
<event>
 5   0  0.4086710E-04  0.1283756E+04  0.7818609E-02  0.9042547E-01
       -1   -1    0    0    0  501  0.00000000000E+00  0.00000000000E+00  0.23296188853E+03  0.23296188858E+03  0.50400001928E-02 0. -1.
        1   -1    0    0  501    0  0.00000000000E+00  0.00000000000E+00 -0.17685604882E+04  0.17685604882E+04  0.50400001928E-02 0.  1.
    10030    2    1    2    0    0  0.00000000000E+00  0.00000000000E+00 -0.15355985996E+04  0.20015223768E+04  0.12837557266E+04 0.  0.
        3    1    3    3  502    0  0.30206880221E+03  0.56277686334E+03 -0.86694504253E+03  0.10768273196E+04  0.10100000352E+00 0. -1.
       -3    1    3    3    0  502 -0.30206880221E+03 -0.56277686334E+03 -0.66865355712E+03  0.92469505721E+03  0.10100000352E+00 0.  1.
</event>
<event>
 5   0  0.2800375E-04  0.1483623E+04  0.7818609E-02  0.8895417E-01
        3   -1    0    0  501    0  0.00000000000E+00  0.00000000000E+00  0.83449924997E+03  0.83449925608E+03  0.10100000352E+00 0. -1.
       -3   -1    0    0    0  501  0.00000000000E+00  0.00000000000E+00 -0.65941869721E+03  0.65941870495E+03  0.10100000352E+00 0.  1.
    10030    2    1    2    0    0  0.00000000000E+00  0.00000000000E+00  0.17508055276E+03  0.14939179610E+04  0.14836231578E+04 0.  0.
        4    1    3    3  502    0 -0.22436118956E+03  0.83640498566E+02  0.79451550506E+03  0.82981333869E+03  0.12699999809E+01 0. -1.
       -4    1    3    3    0  502  0.22436118956E+03 -0.83640498566E+02 -0.61943495230E+03  0.66410462234E+03  0.12699999809E+01 0.  1.
</event>
<event>
 5   0  0.7547580E-04  0.1517401E+04  0.7818609E-02  0.8872963E-01
       -2   -1    0    0    0  501  0.00000000000E+00  0.00000000000E+00  0.46281681055E+03  0.46281681056E+03  0.25500000920E-02 0.  1.
        2   -1    0    0  501    0  0.00000000000E+00  0.00000000000E+00 -0.12437452786E+04  0.12437452786E+04  0.25500000920E-02 0. -1.
    10030    2    1    2    0    0  0.00000000000E+00  0.00000000000E+00 -0.78092846803E+03  0.17065620891E+04  0.15174007025E+04 0.  0.
        4    1    3    3  502    0 -0.45016581918E+03  0.28865684174E+03  0.21482159772E+03  0.57630024188E+03  0.12699999809E+01 0.  1.
       -4    1    3    3    0  502  0.45016581918E+03 -0.28865684174E+03 -0.99575006575E+03  0.11302618473E+04  0.12699999809E+01 0. -1.
</event>
<event>
 5   0  0.4058874E-04  0.1415131E+04  0.7818609E-02  0.8942938E-01
       -1   -1    0    0    0  501  0.00000000000E+00  0.00000000000E+00  0.61084085688E+03  0.61084085690E+03  0.50400001928E-02 0. -1.
        1   -1    0    0  501    0  0.00000000000E+00  0.00000000000E+00 -0.81960646559E+03  0.81960646560E+03  0.50400001928E-02 0.  1.
    10030    2    1    2    0    0  0.00000000000E+00  0.00000000000E+00 -0.20876560871E+03  0.14304473225E+04  0.14151312529E+04 0.  0.
        4    1    3    3  502    0 -0.57616409381E+03 -0.67551631444E+02 -0.51388370839E+03  0.77498797704E+03  0.12699999809E+01 0.  1.
       -4    1    3    3    0  502  0.57616409381E+03  0.67551631444E+02  0.30511809968E+03  0.65545934546E+03  0.12699999809E+01 0. -1.
</event>
<event>
 5   0  0.4086710E-04  0.1516373E+04  0.7818609E-02  0.8873637E-01
       -1   -1    0    0    0  501  0.00000000000E+00  0.00000000000E+00  0.51705750337E+03  0.51705750339E+03  0.50400001928E-02 0. -1.
        1   -1    0    0  501    0  0.00000000000E+00  0.00000000000E+00 -0.11117659444E+04  0.11117659444E+04  0.50400001928E-02 0.  1.
    10030    2    1    2    0    0  0.00000000000E+00  0.00000000000E+00 -0.59470844107E+03  0.16288234478E+04  0.15163732042E+04 0.  0.
        3    1    3    3  502    0  0.72910407586E+03  0.30837547408E+02 -0.51828414821E+03  0.89507663149E+03  0.10100000352E+00 0.  1.
       -3    1    3    3    0  502 -0.72910407586E+03 -0.30837547408E+02 -0.76424292863E+02  0.73374681635E+03  0.10100000352E+00 0. -1.
</event>
<event>
 5   0  0.7634227E-04  0.1482784E+04  0.7818609E-02  0.8895983E-01
        2   -1    0    0  501    0  0.00000000000E+00  0.00000000000E+00  0.22380576734E+04  0.22380576734E+04  0.25500000920E-02 0.  1.
       -2   -1    0    0    0  501  0.00000000000E+00  0.00000000000E+00 -0.24559786249E+03  0.24559786251E+03  0.25500000920E-02 0. -1.
    10030    2    1    2    0    0  0.00000000000E+00  0.00000000000E+00  0.19924598109E+04  0.24836555359E+04  0.14827841121E+04 0.  0.
        2    1    3    3  502    0 -0.60432399747E+03 -0.12314064813E+03  0.16854064057E+04  0.17947049522E+04  0.25500000920E-02 0.  1.
       -2    1    3    3    0  502  0.60432399747E+03  0.12314064813E+03  0.30705340525E+03  0.68895058373E+03  0.25500000920E-02 0. -1.
</event>
<event>
 5   0  0.4086710E-04  0.1479740E+04  0.7818609E-02  0.8898039E-01
        1   -1    0    0  501    0  0.00000000000E+00  0.00000000000E+00  0.91652732120E+03  0.91652732122E+03  0.50400001928E-02 0. -1.
       -1   -1    0    0    0  501  0.00000000000E+00  0.00000000000E+00 -0.59726237775E+03  0.59726237777E+03  0.50400001928E-02 0.  1.
    10030    2    1    2    0    0  0.00000000000E+00  0.00000000000E+00  0.31926494346E+03  0.15137896990E+04  0.14797395543E+04 0.  0.
        3    1    3    3  502    0 -0.47162953232E+03 -0.52983643287E+03  0.37482061007E+03  0.80227897971E+03  0.10100000352E+00 0. -1.
       -3    1    3    3    0  502  0.47162953232E+03  0.52983643287E+03 -0.55555666612E+02  0.71151071927E+03  0.10100000352E+00 0.  1.
</event>
<event>
 5   0  0.7547580E-04  0.1508910E+04  0.7818609E-02  0.8878549E-01
        2   -1    0    0  501    0  0.00000000000E+00  0.00000000000E+00  0.10087175045E+04  0.10087175045E+04  0.25500000920E-02 0.  1.
       -2   -1    0    0    0  501  0.00000000000E+00  0.00000000000E+00 -0.56428320994E+03  0.56428320995E+03  0.25500000920E-02 0. -1.
    10030    2    1    2    0    0  0.00000000000E+00  0.00000000000E+00  0.44443429453E+03  0.15730007144E+04  0.15089100057E+04 0.  0.
        4    1    3    3  502    0  0.33780547142E+03 -0.55196764785E+03  0.62653065857E+03  0.90073475553E+03  0.12699999809E+01 0.  1.
       -4    1    3    3    0  502 -0.33780547142E+03  0.55196764785E+03 -0.18209636404E+03  0.67226595890E+03  0.12699999809E+01 0. -1.
</event>
<event>
 5   0  0.7359897E-04  0.1496816E+04  0.7818609E-02  0.8886573E-01
       -2   -1    0    0    0  501  0.00000000000E+00  0.00000000000E+00  0.52579949154E+03  0.52579949155E+03  0.25500000920E-02 0. -1.
        2   -1    0    0  501    0  0.00000000000E+00  0.00000000000E+00 -0.10652627937E+04  0.10652627937E+04  0.25500000920E-02 0.  1.
    10030    2    1    2    0    0  0.00000000000E+00  0.00000000000E+00 -0.53946330214E+03  0.15910622852E+04  0.14968161347E+04 0.  0.
        1    1    3    3  502    0  0.37035083934E+03 -0.49221950975E+03  0.18209055434E+03  0.64233695206E+03  0.50400001928E-02 0. -1.
       -1    1    3    3    0  502 -0.37035083934E+03  0.49221950975E+03 -0.72155385648E+03  0.94872533317E+03  0.50400001928E-02 0.  1.
</event>
<event>
 5   0  0.7454828E-04  0.1498043E+04  0.7818609E-02  0.8885756E-01
       -2   -1    0    0    0  501  0.00000000000E+00  0.00000000000E+00  0.92109496864E+03  0.92109496864E+03  0.25500000920E-02 0.  1.
        2   -1    0    0  501    0  0.00000000000E+00  0.00000000000E+00 -0.60909349925E+03  0.60909349926E+03  0.25500000920E-02 0. -1.
    10030    2    1    2    0    0  0.00000000000E+00  0.00000000000E+00  0.31200146938E+03  0.15301884679E+04  0.14980426664E+04 0.  0.
        3    1    3    3  502    0  0.43810145422E+03 -0.26453291682E+03  0.71465768916E+03  0.87900294149E+03  0.10100000352E+00 0.  1.
       -3    1    3    3    0  502 -0.43810145422E+03  0.26453291682E+03 -0.40265621978E+03  0.65118552640E+03  0.10100000352E+00 0. -1.
</event>
<event>
 5   0  0.7454828E-04  0.1504174E+04  0.7818609E-02  0.8881682E-01
        2   -1    0    0  501    0  0.00000000000E+00  0.00000000000E+00  0.11421807462E+04  0.11421807462E+04  0.25500000920E-02 0.  1.
       -2   -1    0    0    0  501  0.00000000000E+00  0.00000000000E+00 -0.49522344574E+03  0.49522344574E+03  0.25500000920E-02 0. -1.
    10030    2    1    2    0    0  0.00000000000E+00  0.00000000000E+00  0.64695730048E+03  0.16374041920E+04  0.15041737729E+04 0.  0.
        3    1    3    3  502    0  0.58303371128E+03 -0.44253221378E+03  0.13533603726E+03  0.74436477744E+03  0.10100000352E+00 0.  1.
       -3    1    3    3    0  502 -0.58303371128E+03  0.44253221378E+03  0.51162126322E+03  0.89303941453E+03  0.10100000352E+00 0. -1.
</event>
<event>
 5   0  0.7672251E-04  0.1488277E+04  0.7818609E-02  0.8892286E-01
       -2   -1    0    0    0  501  0.00000000000E+00  0.00000000000E+00  0.35711044528E+03  0.35711044528E+03  0.25500000920E-02 0.  1.
        2   -1    0    0  501    0  0.00000000000E+00  0.00000000000E+00 -0.15506195535E+04  0.15506195535E+04  0.25500000920E-02 0. -1.
    10030    2    1    2    0    0  0.00000000000E+00  0.00000000000E+00 -0.11935091083E+04  0.19077299988E+04  0.14882774462E+04 0.  0.
        5    1    3    3  502    0  0.21598041000E+03 -0.80323791703E+02  0.31020411640E+03  0.38645586145E+03  0.46999998093E+01 0.  1.
       -5    1    3    3    0  502 -0.21598041000E+03  0.80323791703E+02 -0.15037132247E+04  0.15212741374E+04  0.46999998093E+01 0. -1.
</event>
<event>
 5   0  0.4086710E-04  0.1502518E+04  0.7818609E-02  0.8882780E-01
       -1   -1    0    0    0  501  0.00000000000E+00  0.00000000000E+00  0.49511840662E+03  0.49511840665E+03  0.50400001928E-02 0. -1.
        1   -1    0    0  501    0  0.00000000000E+00  0.00000000000E+00 -0.11399088481E+04  0.11399088481E+04  0.50400001928E-02 0.  1.
    10030    2    1    2    0    0  0.00000000000E+00  0.00000000000E+00 -0.64479044149E+03  0.16350272548E+04  0.15025176905E+04 0.  0.
        3    1    3    3  502    0  0.59759805314E+03  0.39988761730E+03 -0.55920209037E+03  0.91090094284E+03  0.10100000352E+00 0.  1.
       -3    1    3    3    0  502 -0.59759805314E+03 -0.39988761730E+03 -0.85588351114E+02  0.72412631193E+03  0.10100000352E+00 0. -1.
</event>
<event>
 5   0  0.4058874E-04  0.1484317E+04  0.7818609E-02  0.8894950E-01
        1   -1    0    0  501    0  0.00000000000E+00  0.00000000000E+00  0.41173429690E+03  0.41173429693E+03  0.50400001928E-02 0.  1.
       -1   -1    0    0    0  501  0.00000000000E+00  0.00000000000E+00 -0.13377535697E+04  0.13377535697E+04  0.50400001928E-02 0. -1.
    10030    2    1    2    0    0  0.00000000000E+00  0.00000000000E+00 -0.92601927284E+03  0.17494878667E+04  0.14843167122E+04 0.  0.
        4    1    3    3  502    0 -0.73719242614E+03 -0.61998277946E+02 -0.39327035045E+03  0.83783031759E+03  0.12699999809E+01 0. -1.
       -4    1    3    3    0  502  0.73719242614E+03  0.61998277946E+02 -0.53274892238E+03  0.91165754910E+03  0.12699999809E+01 0.  1.
</event>
<event>
 5   0  0.7547580E-04  0.1490054E+04  0.7818609E-02  0.8891094E-01
        2   -1    0    0  501    0  0.00000000000E+00  0.00000000000E+00  0.17979609222E+04  0.17979609222E+04  0.25500000920E-02 0. -1.
       -2   -1    0    0    0  501  0.00000000000E+00  0.00000000000E+00 -0.30871909050E+03  0.30871909052E+03  0.25500000920E-02 0.  1.
    10030    2    1    2    0    0  0.00000000000E+00  0.00000000000E+00  0.14892418317E+04  0.21066800127E+04  0.14900535033E+04 0.  0.
        4    1    3    3  502    0  0.66238270237E+03 -0.29863802007E+03  0.97748552526E+03  0.12179552851E+04  0.12699999809E+01 0. -1.
       -4    1    3    3    0  502 -0.66238270237E+03  0.29863802007E+03  0.51175630639E+03  0.88872472761E+03  0.12699999809E+01 0.  1.
</event>
<event>
 5   0  0.4086710E-04  0.1472274E+04  0.7818609E-02  0.8903103E-01
        1   -1    0    0  501    0  0.00000000000E+00  0.00000000000E+00  0.14134061696E+04  0.14134061696E+04  0.50400001928E-02 0. -1.
       -1   -1    0    0    0  501  0.00000000000E+00  0.00000000000E+00 -0.38339819431E+03  0.38339819434E+03  0.50400001928E-02 0.  1.
    10030    2    1    2    0    0  0.00000000000E+00  0.00000000000E+00  0.10300079753E+04  0.17968043639E+04  0.14722735796E+04 0.  0.
        3    1    3    3  502    0 -0.41463050781E+02 -0.73489288498E+03  0.52784032389E+03  0.90576053938E+03  0.10100000352E+00 0. -1.
       -3    1    3    3    0  502  0.41463050781E+02  0.73489288498E+03  0.50216765139E+03  0.89104382455E+03  0.10100000352E+00 0.  1.
</event>
<event>
 5   0  0.4015204E-04  0.1501139E+04  0.7818609E-02  0.8883696E-01
        1   -1    0    0  501    0  0.00000000000E+00  0.00000000000E+00  0.17637068254E+04  0.17637068254E+04  0.50400001928E-02 0.  1.
       -1   -1    0    0    0  501  0.00000000000E+00  0.00000000000E+00 -0.31941509891E+03  0.31941509895E+03  0.50400001928E-02 0. -1.
    10030    2    1    2    0    0  0.00000000000E+00  0.00000000000E+00  0.14442917265E+04  0.20831219244E+04  0.15011390211E+04 0.  0.
        2    1    3    3  502    0  0.89999325447E+02 -0.56212985463E+03  0.14009322516E+04  0.15121841904E+04  0.25500000920E-02 0.  1.
       -2    1    3    3    0  502 -0.89999325447E+02  0.56212985463E+03  0.43359474922E+02  0.57093773401E+03  0.25500000920E-02 0. -1.
</event>
<event>
 5   0  0.4086710E-04  0.1505160E+04  0.7818609E-02  0.8881029E-01
       -1   -1    0    0    0  501  0.00000000000E+00  0.00000000000E+00  0.77820622154E+03  0.77820622156E+03  0.50400001928E-02 0.  1.
        1   -1    0    0  501    0  0.00000000000E+00  0.00000000000E+00 -0.72779808104E+03  0.72779808106E+03  0.50400001928E-02 0. -1.
    10030    2    1    2    0    0  0.00000000000E+00  0.00000000000E+00  0.50408140500E+02  0.15060043026E+04  0.15051604495E+04 0.  0.
        3    1    3    3  502    0  0.54591349500E+02  0.78303977476E+02 -0.72171646212E+03  0.72800164164E+03  0.10100000352E+00 0. -1.
       -3    1    3    3    0  502 -0.54591349500E+02 -0.78303977476E+02  0.77212460262E+03  0.77800266099E+03  0.10100000352E+00 0.  1.
</event>
<event>
 5   0  0.4086710E-04  0.1503195E+04  0.7818609E-02  0.8882331E-01
       -1   -1    0    0    0  501  0.00000000000E+00  0.00000000000E+00  0.51896780387E+03  0.51896780390E+03  0.50400001928E-02 0.  1.
        1   -1    0    0  501    0  0.00000000000E+00  0.00000000000E+00 -0.10885048985E+04  0.10885048985E+04  0.50400001928E-02 0. -1.
    10030    2    1    2    0    0  0.00000000000E+00  0.00000000000E+00 -0.56953709465E+03  0.16074727024E+04  0.15031952591E+04 0.  0.
        3    1    3    3  502    0  0.26247970800E+03  0.48446633471E+03  0.26186262025E+03  0.61006169251E+03  0.10100000352E+00 0. -1.
       -3    1    3    3    0  502 -0.26247970800E+03 -0.48446633471E+03 -0.83139971489E+03  0.99741100992E+03  0.10100000352E+00 0.  1.
</event>
<event>
 5   0  0.3907345E-04  0.1502726E+04  0.7818609E-02  0.8882642E-01
        1   -1    0    0  501    0  0.00000000000E+00  0.00000000000E+00  0.45259360465E+03  0.45259360468E+03  0.50400001928E-02 0.  1.
       -1   -1    0    0    0  501  0.00000000000E+00  0.00000000000E+00 -0.12473574766E+04  0.12473574766E+04  0.50400001928E-02 0. -1.
    10030    2    1    2    0    0  0.00000000000E+00  0.00000000000E+00 -0.79476387194E+03  0.16999510813E+04  0.15027255460E+04 0.  0.
        5    1    3    3  502    0 -0.74087770298E+03 -0.10237484084E+03 -0.31625068991E+03  0.81204492959E+03  0.46999998093E+01 0.  1.
       -5    1    3    3    0  502  0.74087770298E+03  0.10237484084E+03 -0.47851318203E+03  0.88790615168E+03  0.46999998093E+01 0. -1.
</event>
<event>
 5   0  0.4015204E-04  0.1499889E+04  0.7818609E-02  0.8884526E-01
       -1   -1    0    0    0  501  0.00000000000E+00  0.00000000000E+00  0.74350460990E+03  0.74350460992E+03  0.50400001928E-02 0. -1.
        1   -1    0    0  501    0  0.00000000000E+00  0.00000000000E+00 -0.75644065160E+03  0.75644065162E+03  0.50400001928E-02 0.  1.
    10030    2    1    2    0    0  0.00000000000E+00  0.00000000000E+00 -0.12936041702E+02  0.14999452615E+04  0.14998894781E+04 0.  0.
        2    1    3    3  502    0  0.72237636192E+03 -0.73195930840E+02  0.18124047593E+03  0.74835376840E+03  0.25500000920E-02 0. -1.
       -2    1    3    3    0  502 -0.72237636192E+03  0.73195930840E+02 -0.19417651763E+03  0.75159149314E+03  0.25500000920E-02 0.  1.
</event>
<event>
 5   0  0.2800375E-04  0.1461749E+04  0.7818609E-02  0.8910295E-01
        3   -1    0    0  501    0  0.00000000000E+00  0.00000000000E+00  0.10006961649E+04  0.10006961700E+04  0.10100000352E+00 0.  1.
       -3   -1    0    0    0  501  0.00000000000E+00  0.00000000000E+00 -0.53380621133E+03  0.53380622089E+03  0.10100000352E+00 0. -1.
    10030    2    1    2    0    0  0.00000000000E+00  0.00000000000E+00  0.46688995357E+03  0.15345023909E+04  0.14617494173E+04 0.  0.
        5    1    3    3  502    0 -0.51440495857E+03  0.48833271218E+03  0.41849807865E+03  0.82355572429E+03  0.46999998093E+01 0.  1.
       -5    1    3    3    0  502  0.51440495857E+03 -0.48833271218E+03  0.48391874926E+02  0.71094666660E+03  0.46999998093E+01 0. -1.
</event>
<event>
 5   0  0.4015204E-04  0.1490307E+04  0.7818609E-02  0.8890924E-01
        1   -1    0    0  501    0  0.00000000000E+00  0.00000000000E+00  0.96230891241E+03  0.96230891242E+03  0.50400001928E-02 0. -1.
       -1   -1    0    0    0  501  0.00000000000E+00  0.00000000000E+00 -0.57700151391E+03  0.57700151394E+03  0.50400001928E-02 0.  1.
    10030    2    1    2    0    0  0.00000000000E+00  0.00000000000E+00  0.38530739849E+03  0.15393104264E+04  0.14903069474E+04 0.  0.
        2    1    3    3  502    0 -0.69138835158E+03 -0.18265276698E+03  0.40900184464E+03  0.82380968368E+03  0.25500000920E-02 0. -1.
       -2    1    3    3    0  502  0.69138835158E+03  0.18265276698E+03 -0.23694446149E+02  0.71550074268E+03  0.25500000920E-02 0.  1.
</event>
<event>
 5   0  0.7672251E-04  0.1494694E+04  0.7818609E-02  0.8887989E-01
       -2   -1    0    0    0  501  0.00000000000E+00  0.00000000000E+00  0.36638098610E+03  0.36638098610E+03  0.25500000920E-02 0.  1.
        2   -1    0    0  501    0  0.00000000000E+00  0.00000000000E+00 -0.15244441647E+04  0.15244441647E+04  0.25500000920E-02 0. -1.
    10030    2    1    2    0    0  0.00000000000E+00  0.00000000000E+00 -0.11580631786E+04  0.18908251508E+04  0.14946937564E+04 0.  0.
        5    1    3    3  502    0 -0.69227774247E+03  0.17849401985E+03 -0.85443740311E+03  0.11140888446E+04  0.46999998093E+01 0. -1.
       -5    1    3    3    0  502  0.69227774247E+03 -0.17849401985E+03 -0.30362577549E+03  0.77673630620E+03  0.46999998093E+01 0.  1.
</event>
<event>
 5   0  0.4086710E-04  0.1225749E+04  0.7818609E-02  0.9090612E-01
       -1   -1    0    0    0  501  0.00000000000E+00  0.00000000000E+00  0.87083747353E+03  0.87083747354E+03  0.50400001928E-02 0.  1.
        1   -1    0    0  501    0  0.00000000000E+00  0.00000000000E+00 -0.43132665072E+03  0.43132665075E+03  0.50400001928E-02 0. -1.
    10030    2    1    2    0    0  0.00000000000E+00  0.00000000000E+00  0.43951082281E+03  0.13021641243E+04  0.12257494211E+04 0.  0.
        3    1    3    3  502    0 -0.22762659308E+03 -0.49925961456E+03 -0.70287810135E+02  0.55318569673E+03  0.10100000352E+00 0. -1.
       -3    1    3    3    0  502  0.22762659308E+03  0.49925961456E+03  0.50979863294E+03  0.74897842757E+03  0.10100000352E+00 0.  1.
</event>
<event>
 5   0  0.7672251E-04  0.1494499E+04  0.7818609E-02  0.8888119E-01
       -2   -1    0    0    0  501  0.00000000000E+00  0.00000000000E+00  0.38923464721E+03  0.38923464722E+03  0.25500000920E-02 0. -1.
        2   -1    0    0  501    0  0.00000000000E+00  0.00000000000E+00 -0.14345643145E+04  0.14345643145E+04  0.25500000920E-02 0.  1.
    10030    2    1    2    0    0  0.00000000000E+00  0.00000000000E+00 -0.10453296673E+04  0.18237989617E+04  0.14944994277E+04 0.  0.
        5    1    3    3  502    0  0.36728855922E+03 -0.49201288049E+03 -0.10423961480E+04  0.12097889815E+04  0.46999998093E+01 0.  1.
       -5    1    3    3    0  502 -0.36728855922E+03  0.49201288049E+03 -0.29335192663E+01  0.61400998024E+03  0.46999998093E+01 0. -1.
</event>
<event>
 5   0  0.4086710E-04  0.1483601E+04  0.7818609E-02  0.8895432E-01
        1   -1    0    0  501    0  0.00000000000E+00  0.00000000000E+00  0.14255449231E+04  0.14255449231E+04  0.50400001928E-02 0.  1.
       -1   -1    0    0    0  501  0.00000000000E+00  0.00000000000E+00 -0.38600524145E+03  0.38600524148E+03  0.50400001928E-02 0. -1.
    10030    2    1    2    0    0  0.00000000000E+00  0.00000000000E+00  0.10395396817E+04  0.18115501646E+04  0.14836007715E+04 0.  0.
        3    1    3    3  502    0 -0.65379700747E+03  0.13344974572E+03  0.12408863852E+03  0.67871743901E+03  0.10100000352E+00 0. -1.
       -3    1    3    3    0  502  0.65379700747E+03 -0.13344974572E+03  0.91545104315E+03  0.11328327256E+04  0.10100000352E+00 0.  1.
</event>
<event>
 5   0  0.7547580E-04  0.1491370E+04  0.7818609E-02  0.8890212E-01
        2   -1    0    0  501    0  0.00000000000E+00  0.00000000000E+00  0.88498197592E+03  0.88498197593E+03  0.25500000920E-02 0.  1.
       -2   -1    0    0    0  501  0.00000000000E+00  0.00000000000E+00 -0.62831373677E+03  0.62831373678E+03  0.25500000920E-02 0. -1.
    10030    2    1    2    0    0  0.00000000000E+00  0.00000000000E+00  0.25666823915E+03  0.15132957127E+04  0.14913702857E+04 0.  0.
        4    1    3    3  502    0  0.16005145154E+03 -0.33391133928E+03  0.78509882916E+03  0.86804091729E+03  0.12699999809E+01 0.  1.
       -4    1    3    3    0  502 -0.16005145154E+03  0.33391133928E+03 -0.52843059001E+03  0.64525479541E+03  0.12699999809E+01 0. -1.
</event>
<event>
 5   0  0.4058874E-04  0.1496283E+04  0.7818609E-02  0.8886928E-01
       -1   -1    0    0    0  501  0.00000000000E+00  0.00000000000E+00  0.99816722717E+03  0.99816722719E+03  0.50400001928E-02 0.  1.
        1   -1    0    0  501    0  0.00000000000E+00  0.00000000000E+00 -0.56074353547E+03  0.56074353550E+03  0.50400001928E-02 0. -1.
    10030    2    1    2    0    0  0.00000000000E+00  0.00000000000E+00  0.43742369170E+03  0.15589107627E+04  0.14962831550E+04 0.  0.
        4    1    3    3  502    0  0.25445533796E+03  0.63142373220E+03 -0.10455016151E+03  0.68874944484E+03  0.12699999809E+01 0. -1.
       -4    1    3    3    0  502 -0.25445533796E+03 -0.63142373220E+03  0.54197385321E+03  0.87016131784E+03  0.12699999809E+01 0.  1.
</event>
<event>
 5   0  0.7547580E-04  0.1505940E+04  0.7818609E-02  0.8880512E-01
        2   -1    0    0  501    0  0.00000000000E+00  0.00000000000E+00  0.81030450248E+03  0.81030450248E+03  0.25500000920E-02 0. -1.
       -2   -1    0    0    0  501  0.00000000000E+00  0.00000000000E+00 -0.69969269478E+03  0.69969269478E+03  0.25500000920E-02 0.  1.
    10030    2    1    2    0    0  0.00000000000E+00  0.00000000000E+00  0.11061180770E+03  0.15099971973E+04  0.15059404250E+04 0.  0.
        4    1    3    3  502    0  0.49172018056E+03  0.43790968041E+03 -0.31092986474E+03  0.72817073400E+03  0.12699999809E+01 0. -1.
       -4    1    3    3    0  502 -0.49172018056E+03 -0.43790968041E+03  0.42154167244E+03  0.78182646327E+03  0.12699999809E+01 0.  1.
</event>
<event>
 5   0  0.7634227E-04  0.1543196E+04  0.7818609E-02  0.8856226E-01
       -2   -1    0    0    0  501  0.00000000000E+00  0.00000000000E+00  0.31840240606E+03  0.31840240607E+03  0.25500000920E-02 0.  1.
        2   -1    0    0  501    0  0.00000000000E+00  0.00000000000E+00 -0.18698450653E+04  0.18698450653E+04  0.25500000920E-02 0. -1.
    10030    2    1    2    0    0  0.00000000000E+00  0.00000000000E+00 -0.15514426592E+04  0.21882474713E+04  0.15431956036E+04 0.  0.
        2    1    3    3  502    0  0.71736538142E+03  0.28211241006E+03 -0.82407203639E+03  0.11284038389E+04  0.25500000920E-02 0. -1.
       -2    1    3    3    0  502 -0.71736538142E+03 -0.28211241006E+03 -0.72737062283E+03  0.10598436325E+04  0.25500000920E-02 0.  1.
</event>
<event>
 5   0  0.4084462E-04  0.1483297E+04  0.7818609E-02  0.8895637E-01
        1   -1    0    0  501    0  0.00000000000E+00  0.00000000000E+00  0.88589107396E+03  0.88589107397E+03  0.50400001928E-02 0.  1.
       -1   -1    0    0    0  501  0.00000000000E+00  0.00000000000E+00 -0.62089167742E+03  0.62089167744E+03  0.50400001928E-02 0. -1.
    10030    2    1    2    0    0  0.00000000000E+00  0.00000000000E+00  0.26499939654E+03  0.15067827514E+04  0.14832968617E+04 0.  0.
        1    1    3    3  502    0  0.25595342291E+03  0.67381285207E+03 -0.44926855106E+02  0.72218718948E+03  0.50400001928E-02 0.  1.
       -1    1    3    3    0  502 -0.25595342291E+03 -0.67381285207E+03  0.30992625165E+03  0.78459556193E+03  0.50400001928E-02 0. -1.
</event>
<event>
 5   0  0.2800375E-04  0.1492067E+04  0.7818609E-02  0.8889746E-01
        3   -1    0    0  501    0  0.00000000000E+00  0.00000000000E+00  0.15353479151E+04  0.15353479184E+04  0.10100000352E+00 0. -1.
       -3   -1    0    0    0  501  0.00000000000E+00  0.00000000000E+00 -0.36250138672E+03  0.36250140079E+03  0.10100000352E+00 0.  1.
    10030    2    1    2    0    0  0.00000000000E+00  0.00000000000E+00  0.11728465283E+04  0.18978493192E+04  0.14920667074E+04 0.  0.
        4    1    3    3  502    0  0.99301340545E+02  0.69783607941E+03  0.27556443359E+03  0.75681789085E+03  0.12699999809E+01 0.  1.
       -4    1    3    3    0  502 -0.99301340545E+02 -0.69783607941E+03  0.89728209476E+03  0.11410314283E+04  0.12699999809E+01 0. -1.
</event>
<event>
 5   0  0.4084462E-04  0.1503028E+04  0.7818609E-02  0.8882442E-01
        1   -1    0    0  501    0  0.00000000000E+00  0.00000000000E+00  0.34485208720E+03  0.34485208723E+03  0.50400001928E-02 0. -1.
       -1   -1    0    0    0  501  0.00000000000E+00  0.00000000000E+00 -0.16377257853E+04  0.16377257853E+04  0.50400001928E-02 0.  1.
    10030    2    1    2    0    0  0.00000000000E+00  0.00000000000E+00 -0.12928736981E+04  0.19825778725E+04  0.15030278179E+04 0.  0.
        1    1    3    3  502    0 -0.37530291294E+03 -0.54668847444E+03 -0.17998203129E+03  0.68710559316E+03  0.50400001928E-02 0. -1.
       -1    1    3    3    0  502  0.37530291294E+03  0.54668847444E+03 -0.11128916668E+04  0.12954722794E+04  0.50400001928E-02 0.  1.
</event>
<event>
 5   0  0.7672251E-04  0.1576559E+04  0.7818609E-02  0.8835080E-01
       -2   -1    0    0    0  501  0.00000000000E+00  0.00000000000E+00  0.76896277442E+03  0.76896277442E+03  0.25500000920E-02 0.  1.
        2   -1    0    0  501    0  0.00000000000E+00  0.00000000000E+00 -0.80808100564E+03  0.80808100564E+03  0.25500000920E-02 0. -1.
    10030    2    1    2    0    0  0.00000000000E+00  0.00000000000E+00 -0.39118231219E+02  0.15770437801E+04  0.15765585458E+04 0.  0.
        5    1    3    3  502    0  0.50404453758E+03  0.21341972279E+03  0.54784844292E+03  0.77444746778E+03  0.46999998093E+01 0.  1.
       -5    1    3    3    0  502 -0.50404453758E+03 -0.21341972279E+03 -0.58696667414E+03  0.80259631228E+03  0.46999998093E+01 0. -1.
</event>
<event>
 5   0  0.7454828E-04  0.1495460E+04  0.7818609E-02  0.8887478E-01
        2   -1    0    0  501    0  0.00000000000E+00  0.00000000000E+00  0.52757315346E+03  0.52757315347E+03  0.25500000920E-02 0.  1.
       -2   -1    0    0    0  501  0.00000000000E+00  0.00000000000E+00 -0.10597578404E+04  0.10597578404E+04  0.25500000920E-02 0. -1.
    10030    2    1    2    0    0  0.00000000000E+00  0.00000000000E+00 -0.53218468696E+03  0.15873309939E+04  0.14954595090E+04 0.  0.
        3    1    3    3  502    0 -0.68509497952E+02  0.65614407352E+03 -0.63968256710E+03  0.91891914409E+03  0.10100000352E+00 0. -1.
       -3    1    3    3    0  502  0.68509497952E+02 -0.65614407352E+03  0.10749788014E+03  0.66841184981E+03  0.10100000352E+00 0.  1.
</event>
<event>
 5   0  0.7672251E-04  0.1502709E+04  0.7818609E-02  0.8882653E-01
       -2   -1    0    0    0  501  0.00000000000E+00  0.00000000000E+00  0.28871012717E+03  0.28871012718E+03  0.25500000920E-02 0.  1.
        2   -1    0    0  501    0  0.00000000000E+00  0.00000000000E+00 -0.19553647658E+04  0.19553647658E+04  0.25500000920E-02 0. -1.
    10030    2    1    2    0    0  0.00000000000E+00  0.00000000000E+00 -0.16666546386E+04  0.22440748930E+04  0.15027090340E+04 0.  0.
        5    1    3    3  502    0 -0.58054708495E+03  0.32531448944E+03 -0.13541780807E+04  0.15088687150E+04  0.46999998093E+01 0. -1.
       -5    1    3    3    0  502  0.58054708495E+03 -0.32531448944E+03 -0.31247655794E+03  0.73520617799E+03  0.46999998093E+01 0.  1.
</event>
<event>
 5   0  0.4015204E-04  0.1479265E+04  0.7818609E-02  0.8898360E-01
       -1   -1    0    0    0  501  0.00000000000E+00  0.00000000000E+00  0.33659273894E+03  0.33659273898E+03  0.50400001928E-02 0. -1.
        1   -1    0    0  501    0  0.00000000000E+00  0.00000000000E+00 -0.16252764222E+04  0.16252764223E+04  0.50400001928E-02 0.  1.
    10030    2    1    2    0    0  0.00000000000E+00  0.00000000000E+00 -0.12886836833E+04  0.19618691612E+04  0.14792650101E+04 0.  0.
        2    1    3    3  502    0 -0.35216863247E+03  0.56825728037E+03 -0.22470045168E+03  0.70528673274E+03  0.25500000920E-02 0. -1.
       -2    1    3    3    0  502  0.35216863247E+03 -0.56825728037E+03 -0.10639832316E+04  0.12565824285E+04  0.25500000920E-02 0.  1.
</event>
<event>
 5   0  0.7547580E-04  0.1497441E+04  0.7818609E-02  0.8886156E-01
       -2   -1    0    0    0  501  0.00000000000E+00  0.00000000000E+00  0.66698236184E+03  0.66698236185E+03  0.25500000920E-02 0. -1.
        2   -1    0    0  501    0  0.00000000000E+00  0.00000000000E+00 -0.84047605914E+03  0.84047605914E+03  0.25500000920E-02 0.  1.
    10030    2    1    2    0    0  0.00000000000E+00  0.00000000000E+00 -0.17349369730E+03  0.15074584210E+04  0.14974414272E+04 0.  0.
        4    1    3    3  502    0  0.23505588931E+02  0.16960240577E+03 -0.82050093169E+03  0.83817711765E+03  0.12699999809E+01 0.  1.
       -4    1    3    3    0  502 -0.23505588931E+02 -0.16960240577E+03  0.64700723439E+03  0.66928130334E+03  0.12699999809E+01 0. -1.
</event>
<event>
 5   0  0.4084462E-04  0.1508057E+04  0.7818609E-02  0.8879113E-01
        1   -1    0    0  501    0  0.00000000000E+00  0.00000000000E+00  0.15105830883E+04  0.15105830884E+04  0.50400001928E-02 0.  1.
       -1   -1    0    0    0  501  0.00000000000E+00  0.00000000000E+00 -0.37638360741E+03  0.37638360745E+03  0.50400001928E-02 0. -1.
    10030    2    1    2    0    0  0.00000000000E+00  0.00000000000E+00  0.11341994809E+04  0.18869666958E+04  0.15080566463E+04 0.  0.
        1    1    3    3  502    0  0.60152648031E+03 -0.23601226986E+03  0.10533589719E+04  0.12357592895E+04  0.50400001928E-02 0.  1.
       -1    1    3    3    0  502 -0.60152648031E+03  0.23601226986E+03  0.80840509068E+02  0.65120740626E+03  0.50400001928E-02 0. -1.
</event>
<event>
 5   0  0.7454828E-04  0.1490253E+04  0.7818609E-02  0.8890961E-01
       -2   -1    0    0    0  501  0.00000000000E+00  0.00000000000E+00  0.33453593139E+03  0.33453593140E+03  0.25500000920E-02 0. -1.
        2   -1    0    0  501    0  0.00000000000E+00  0.00000000000E+00 -0.16596520385E+04  0.16596520385E+04  0.25500000920E-02 0.  1.
    10030    2    1    2    0    0  0.00000000000E+00  0.00000000000E+00 -0.13251161071E+04  0.19941879699E+04  0.14902526504E+04 0.  0.
        3    1    3    3  502    0 -0.84015030154E+02  0.68286660170E+03 -0.27972450914E+03  0.74270527952E+03  0.10100000352E+00 0. -1.
       -3    1    3    3    0  502  0.84015030154E+02 -0.68286660170E+03 -0.10453915979E+04  0.12514826903E+04  0.10100000352E+00 0.  1.
</event>
<event>
 5   0  0.4084462E-04  0.1651716E+04  0.7818609E-02  0.8789392E-01
       -1   -1    0    0    0  501  0.00000000000E+00  0.00000000000E+00  0.43583454750E+03  0.43583454753E+03  0.50400001928E-02 0. -1.
        1   -1    0    0  501    0  0.00000000000E+00  0.00000000000E+00 -0.15649089308E+04  0.15649089308E+04  0.50400001928E-02 0.  1.
    10030    2    1    2    0    0  0.00000000000E+00  0.00000000000E+00 -0.11290743833E+04  0.20007434783E+04  0.16517159269E+04 0.  0.
        1    1    3    3  502    0  0.24356837477E+03  0.67186342744E+03 -0.63171973573E+02  0.71743760467E+03  0.50400001928E-02 0. -1.
       -1    1    3    3    0  502 -0.24356837477E+03 -0.67186342744E+03 -0.10659024097E+04  0.12833058737E+04  0.50400001928E-02 0.  1.
</event>
<event>
 5   0  0.7672251E-04  0.1500710E+04  0.7818609E-02  0.8883981E-01
        2   -1    0    0  501    0  0.00000000000E+00  0.00000000000E+00  0.65547252025E+03  0.65547252026E+03  0.25500000920E-02 0. -1.
       -2   -1    0    0    0  501  0.00000000000E+00  0.00000000000E+00 -0.85897253239E+03  0.85897253240E+03  0.25500000920E-02 0.  1.
    10030    2    1    2    0    0  0.00000000000E+00  0.00000000000E+00 -0.20350001214E+03  0.15144450527E+04  0.15007103527E+04 0.  0.
        5    1    3    3  502    0 -0.39480999737E+03  0.19383653317E+03  0.51173088536E+03  0.67478746628E+03  0.46999998093E+01 0. -1.
       -5    1    3    3    0  502  0.39480999737E+03 -0.19383653317E+03 -0.71523089750E+03  0.83965758638E+03  0.46999998093E+01 0.  1.
</event>
<event>
 5   0  0.2800375E-04  0.1511058E+04  0.7818609E-02  0.8877133E-01
       -3   -1    0    0    0  501  0.00000000000E+00  0.00000000000E+00  0.67037985106E+03  0.67037985866E+03  0.10100000352E+00 0. -1.
        3   -1    0    0  501    0  0.00000000000E+00  0.00000000000E+00 -0.85149317374E+03  0.85149317973E+03  0.10100000352E+00 0.  1.
    10030    2    1    2    0    0  0.00000000000E+00  0.00000000000E+00 -0.18111332269E+03  0.15218730384E+04  0.15110577452E+04 0.  0.
        1    1    3    3  502    0 -0.47714604759E+03 -0.11279093030E+02 -0.68043485659E+03  0.83113606753E+03  0.50400001928E-02 0.  1.
       -1    1    3    3    0  502  0.47714604759E+03  0.11279093030E+02  0.49932153390E+03  0.69073697086E+03  0.50400001928E-02 0. -1.
</event>
<event>
 5   0  0.4058874E-04  0.1460720E+04  0.7818609E-02  0.8911002E-01
        1   -1    0    0  501    0  0.00000000000E+00  0.00000000000E+00  0.12063266455E+04  0.12063266455E+04  0.50400001928E-02 0.  1.
       -1   -1    0    0    0  501  0.00000000000E+00  0.00000000000E+00 -0.44219011996E+03  0.44219011999E+03  0.50400001928E-02 0. -1.
    10030    2    1    2    0    0  0.00000000000E+00  0.00000000000E+00  0.76413652550E+03  0.16485167655E+04  0.14607199925E+04 0.  0.
        4    1    3    3  502    0  0.70849012922E+03 -0.10999543569E+03  0.53912476211E+03  0.89705873893E+03  0.12699999809E+01 0.  1.
       -4    1    3    3    0  502 -0.70849012922E+03  0.10999543569E+03  0.22501176339E+03  0.75145802653E+03  0.12699999809E+01 0. -1.
</event>
<event>
 5   0  0.7634227E-04  0.1492976E+04  0.7818609E-02  0.8889137E-01
       -2   -1    0    0    0  501  0.00000000000E+00  0.00000000000E+00  0.70753863348E+03  0.70753863349E+03  0.25500000920E-02 0.  1.
        2   -1    0    0  501    0  0.00000000000E+00  0.00000000000E+00 -0.78758176613E+03  0.78758176614E+03  0.25500000920E-02 0. -1.
    10030    2    1    2    0    0  0.00000000000E+00  0.00000000000E+00 -0.80043132650E+02  0.14951203996E+04  0.14929762578E+04 0.  0.
        2    1    3    3  502    0  0.12889242834E+03  0.21048409487E+03  0.66549550840E+03  0.70978946455E+03  0.25500000920E-02 0.  1.
       -2    1    3    3    0  502 -0.12889242834E+03 -0.21048409487E+03 -0.74553864105E+03  0.78533093507E+03  0.25500000920E-02 0. -1.
</event>
<event>
 5   0  0.7454828E-04  0.1476419E+04  0.7818609E-02  0.8900287E-01
        2   -1    0    0  501    0  0.00000000000E+00  0.00000000000E+00  0.56206953806E+03  0.56206953806E+03  0.25500000920E-02 0. -1.
       -2   -1    0    0    0  501  0.00000000000E+00  0.00000000000E+00 -0.96954784584E+03  0.96954784585E+03  0.25500000920E-02 0.  1.
    10030    2    1    2    0    0  0.00000000000E+00  0.00000000000E+00 -0.40747830778E+03  0.15316173839E+04  0.14764190595E+04 0.  0.
        3    1    3    3  502    0 -0.72101918513E+03 -0.79006492856E+02 -0.61338771577E+02  0.72792386026E+03  0.10100000352E+00 0. -1.
       -3    1    3    3    0  502  0.72101918513E+03  0.79006492856E+02 -0.34613953621E+03  0.80369352365E+03  0.10100000352E+00 0.  1.
</event>
<event>
 5   0  0.3907345E-04  0.1504032E+04  0.7818609E-02  0.8881776E-01
       -1   -1    0    0    0  501  0.00000000000E+00  0.00000000000E+00  0.57383049822E+03  0.57383049824E+03  0.50400001928E-02 0. -1.
        1   -1    0    0  501    0  0.00000000000E+00  0.00000000000E+00 -0.98553134677E+03  0.98553134678E+03  0.50400001928E-02 0.  1.
    10030    2    1    2    0    0  0.00000000000E+00  0.00000000000E+00 -0.41170084855E+03  0.15593618450E+04  0.15040318398E+04 0.  0.
        5    1    3    3  502    0  0.29868135528E+03  0.17471143524E+03  0.48637235147E+03  0.59692109350E+03  0.46999998093E+01 0. -1.
       -5    1    3    3    0  502 -0.29868135528E+03 -0.17471143524E+03 -0.89807320002E+03  0.96244075152E+03  0.46999998093E+01 0.  1.
</event>
<event>
 5   0  0.2800375E-04  0.1505767E+04  0.7818609E-02  0.8880627E-01
       -4   -1    0    0    0  501  0.00000000000E+00  0.00000000000E+00  0.79449912005E+03  0.79450013509E+03  0.12699999809E+01 0. -1.
        4   -1    0    0  501    0  0.00000000000E+00  0.00000000000E+00 -0.71344601798E+03  0.71344714833E+03  0.12699999809E+01 0.  1.
    10030    2    1    2    0    0  0.00000000000E+00  0.00000000000E+00  0.81053102071E+02  0.15079472834E+04  0.15057673805E+04 0.  0.
        1    1    3    3  502    0 -0.10582320928E+03  0.16233475499E+03  0.76909797764E+03  0.79313480793E+03  0.50400001928E-02 0. -1.
       -1    1    3    3    0  502  0.10582320928E+03 -0.16233475499E+03 -0.68804487557E+03  0.71481247550E+03  0.50400001928E-02 0.  1.
</event>
<event>
 5   0  0.7359897E-04  0.1512819E+04  0.7818609E-02  0.8875973E-01
        2   -1    0    0  501    0  0.00000000000E+00  0.00000000000E+00  0.13331333701E+04  0.13331333701E+04  0.25500000920E-02 0. -1.
       -2   -1    0    0    0  501  0.00000000000E+00  0.00000000000E+00 -0.42918087723E+03  0.42918087723E+03  0.25500000920E-02 0.  1.
    10030    2    1    2    0    0  0.00000000000E+00  0.00000000000E+00  0.90395249291E+03  0.17623142474E+04  0.15128190232E+04 0.  0.
        1    1    3    3  502    0  0.35659388759E+03 -0.59909417646E+03  0.79376152087E+03  0.10564707213E+04  0.50400001928E-02 0. -1.
       -1    1    3    3    0  502 -0.35659388759E+03  0.59909417646E+03  0.11019097203E+03  0.70584352606E+03  0.50400001928E-02 0.  1.
</event>
<event>
 5   0  0.7634227E-04  0.1492410E+04  0.7818609E-02  0.8889516E-01
       -2   -1    0    0    0  501  0.00000000000E+00  0.00000000000E+00  0.84739505647E+03  0.84739505647E+03  0.25500000920E-02 0.  1.
        2   -1    0    0  501    0  0.00000000000E+00  0.00000000000E+00 -0.65709824651E+03  0.65709824652E+03  0.25500000920E-02 0. -1.
    10030    2    1    2    0    0  0.00000000000E+00  0.00000000000E+00  0.19029680996E+03  0.15044933030E+04  0.14924098709E+04 0.  0.
        2    1    3    3  502    0  0.10407582362E+03  0.25010372346E+03  0.79607511278E+03  0.84090382015E+03  0.25500000920E-02 0.  1.
       -2    1    3    3    0  502 -0.10407582362E+03 -0.25010372346E+03 -0.60577830282E+03  0.66358948283E+03  0.25500000920E-02 0. -1.
</event>
<event>
 5   0  0.4015204E-04  0.1486986E+04  0.7818609E-02  0.8893153E-01
       -1   -1    0    0    0  501  0.00000000000E+00  0.00000000000E+00  0.42854193328E+03  0.42854193331E+03  0.50400001928E-02 0.  1.
        1   -1    0    0  501    0  0.00000000000E+00  0.00000000000E+00 -0.12899137840E+04  0.12899137840E+04  0.50400001928E-02 0. -1.
    10030    2    1    2    0    0  0.00000000000E+00  0.00000000000E+00 -0.86137185076E+03  0.17184557174E+04  0.14869864112E+04 0.  0.
        2    1    3    3  502    0 -0.49423898754E+03  0.29782237460E+03  0.11113634286E+03  0.58764073236E+03  0.25500000920E-02 0.  1.
       -2    1    3    3    0  502  0.49423898754E+03 -0.29782237460E+03 -0.97250819362E+03  0.11308149850E+04  0.25500000920E-02 0. -1.
</event>
<event>
 5   0  0.7547580E-04  0.1403054E+04  0.7818609E-02  0.8951611E-01
       -2   -1    0    0    0  501  0.00000000000E+00  0.00000000000E+00  0.34644222017E+03  0.34644222018E+03  0.25500000920E-02 0. -1.
        2   -1    0    0  501    0  0.00000000000E+00  0.00000000000E+00 -0.14205557067E+04  0.14205557067E+04  0.25500000920E-02 0.  1.
    10030    2    1    2    0    0  0.00000000000E+00  0.00000000000E+00 -0.10741134866E+04  0.17669979269E+04  0.14030544864E+04 0.  0.
        4    1    3    3  502    0 -0.27539267464E+02 -0.40634275510E+03  0.18230513950E+03  0.44621701296E+03  0.12699999809E+01 0. -1.
       -4    1    3    3    0  502  0.27539267464E+02  0.40634275510E+03 -0.12564186261E+04  0.13207809140E+04  0.12699999809E+01 0.  1.
</event>
<event>
 5   0  0.7672251E-04  0.1545515E+04  0.7818609E-02  0.8854738E-01
       -2   -1    0    0    0  501  0.00000000000E+00  0.00000000000E+00  0.53819049790E+03  0.53819049791E+03  0.25500000920E-02 0. -1.
        2   -1    0    0  501    0  0.00000000000E+00  0.00000000000E+00 -0.11095583873E+04  0.11095583873E+04  0.25500000920E-02 0.  1.
    10030    2    1    2    0    0  0.00000000000E+00  0.00000000000E+00 -0.57136788944E+03  0.16477488852E+04  0.15455145175E+04 0.  0.
        5    1    3    3  502    0 -0.12561476003E+03 -0.45367807948E+02  0.52577695303E+03  0.54249497718E+03  0.46999998093E+01 0. -1.
       -5    1    3    3    0  502  0.12561476003E+03  0.45367807948E+02 -0.10971448425E+04  0.11052539081E+04  0.46999998093E+01 0.  1.
</event>
<event>
 5   0  0.7547580E-04  0.1504501E+04  0.7818609E-02  0.8881465E-01
        2   -1    0    0  501    0  0.00000000000E+00  0.00000000000E+00  0.86557943898E+03  0.86557943898E+03  0.25500000920E-02 0. -1.
       -2   -1    0    0    0  501  0.00000000000E+00  0.00000000000E+00 -0.65375932761E+03  0.65375932761E+03  0.25500000920E-02 0.  1.
    10030    2    1    2    0    0  0.00000000000E+00  0.00000000000E+00  0.21182011137E+03  0.15193387666E+04  0.15045007571E+04 0.  0.
        4    1    3    3  502    0  0.70124025660E+03  0.90885580227E+02 -0.15329417093E+03  0.72353217061E+03  0.12699999809E+01 0.  1.
       -4    1    3    3    0  502 -0.70124025660E+03 -0.90885580227E+02  0.36511428230E+03  0.79580659598E+03  0.12699999809E+01 0. -1.
</event>
<event>
 5   0  0.7634227E-04  0.1472373E+04  0.7818609E-02  0.8903035E-01
        2   -1    0    0  501    0  0.00000000000E+00  0.00000000000E+00  0.42879474036E+03  0.42879474037E+03  0.25500000920E-02 0.  1.
       -2   -1    0    0    0  501  0.00000000000E+00  0.00000000000E+00 -0.12639392890E+04  0.12639392890E+04  0.25500000920E-02 0. -1.
    10030    2    1    2    0    0  0.00000000000E+00  0.00000000000E+00 -0.83514454863E+03  0.16927340294E+04  0.14723729409E+04 0.  0.
        2    1    3    3  502    0  0.72398425090E+03  0.58096960569E+02 -0.55573330788E+03  0.91453155324E+03  0.25500000920E-02 0. -1.
       -2    1    3    3    0  502 -0.72398425090E+03 -0.58096960569E+02 -0.27941124075E+03  0.77820247612E+03  0.25500000920E-02 0.  1.
</event>
<event>
 5   0  0.7672251E-04  0.1494841E+04  0.7818609E-02  0.8887891E-01
        2   -1    0    0  501    0  0.00000000000E+00  0.00000000000E+00  0.15015592357E+04  0.15015592357E+04  0.25500000920E-02 0. -1.
       -2   -1    0    0    0  501  0.00000000000E+00  0.00000000000E+00 -0.37203826724E+03  0.37203826725E+03  0.25500000920E-02 0.  1.
    10030    2    1    2    0    0  0.00000000000E+00  0.00000000000E+00  0.11295209685E+04  0.18735975030E+04  0.14948411236E+04 0.  0.
        5    1    3    3  502    0  0.10184881828E+03 -0.66610008953E+03  0.15948597025E+03  0.69247409754E+03  0.46999998093E+01 0.  1.
       -5    1    3    3    0  502 -0.10184881828E+03  0.66610008953E+03  0.97003499824E+03  0.11811234054E+04  0.46999998093E+01 0. -1.
</event>
<event>
 5   0  0.4084462E-04  0.1280832E+04  0.7818609E-02  0.9044905E-01
       -1   -1    0    0    0  501  0.00000000000E+00  0.00000000000E+00  0.63878922507E+03  0.63878922509E+03  0.50400001928E-02 0.  1.
        1   -1    0    0  501    0  0.00000000000E+00  0.00000000000E+00 -0.64204671013E+03  0.64204671015E+03  0.50400001928E-02 0. -1.
    10030    2    1    2    0    0  0.00000000000E+00  0.00000000000E+00 -0.32574850619E+01  0.12808359352E+04  0.12808317929E+04 0.  0.
        1    1    3    3  502    0  0.27396613147E+03  0.41104739008E+02 -0.57902603733E+03  0.64188643287E+03  0.50400001928E-02 0. -1.
       -1    1    3    3    0  502 -0.27396613147E+03 -0.41104739008E+02  0.57576855227E+03  0.63894950237E+03  0.50400001928E-02 0.  1.
</event>
<event>
 5   0  0.7454828E-04  0.1496978E+04  0.7818609E-02  0.8886465E-01
       -2   -1    0    0    0  501  0.00000000000E+00  0.00000000000E+00  0.81762850917E+03  0.81762850918E+03  0.25500000920E-02 0. -1.
        2   -1    0    0  501    0  0.00000000000E+00  0.00000000000E+00 -0.68519635455E+03  0.68519635456E+03  0.25500000920E-02 0.  1.
    10030    2    1    2    0    0  0.00000000000E+00  0.00000000000E+00  0.13243215462E+03  0.15028248637E+04  0.14969783884E+04 0.  0.
        3    1    3    3  502    0 -0.20787630347E+03 -0.54574212575E+03  0.53622083777E+03  0.79283026079E+03  0.10100000352E+00 0. -1.
       -3    1    3    3    0  502  0.20787630347E+03  0.54574212575E+03 -0.40378868315E+03  0.70999460294E+03  0.10100000352E+00 0.  1.
</event>
<event>
 5   0  0.4084462E-04  0.1504070E+04  0.7818609E-02  0.8881751E-01
       -1   -1    0    0    0  501  0.00000000000E+00  0.00000000000E+00  0.14657081158E+04  0.14657081158E+04  0.50400001928E-02 0.  1.
        1   -1    0    0  501    0  0.00000000000E+00  0.00000000000E+00 -0.38585916406E+03  0.38585916409E+03  0.50400001928E-02 0. -1.
    10030    2    1    2    0    0  0.00000000000E+00  0.00000000000E+00  0.10798489517E+04  0.18515672799E+04  0.15040703552E+04 0.  0.
        1    1    3    3  502    0 -0.23178007387E+03 -0.19451078267E+03  0.13874654985E+04  0.14200763912E+04  0.50400001928E-02 0.  1.
       -1    1    3    3    0  502  0.23178007387E+03  0.19451078267E+03 -0.30761654674E+03  0.43149088875E+03  0.50400001928E-02 0. -1.
</event>
<event>
 5   0  0.7634227E-04  0.1508468E+04  0.7818609E-02  0.8878841E-01
       -2   -1    0    0    0  501  0.00000000000E+00  0.00000000000E+00  0.10358689216E+04  0.10358689216E+04  0.25500000920E-02 0. -1.
        2   -1    0    0  501    0  0.00000000000E+00  0.00000000000E+00 -0.54917098718E+03  0.54917098719E+03  0.25500000920E-02 0.  1.
    10030    2    1    2    0    0  0.00000000000E+00  0.00000000000E+00  0.48669793440E+03  0.15850399088E+04  0.15084683069E+04 0.  0.
        2    1    3    3  502    0 -0.36477103256E+03  0.28136272906E+03  0.87086214821E+03  0.98520240189E+03  0.25500000920E-02 0. -1.
       -2    1    3    3    0  502  0.36477103256E+03 -0.28136272906E+03 -0.38416421380E+03  0.59983750689E+03  0.25500000920E-02 0.  1.
</event>
<event>
 5   0  0.7672251E-04  0.1261346E+04  0.7818609E-02  0.9060792E-01
        2   -1    0    0  501    0  0.00000000000E+00  0.00000000000E+00  0.64921870210E+03  0.64921870210E+03  0.25500000920E-02 0.  1.
       -2   -1    0    0    0  501  0.00000000000E+00  0.00000000000E+00 -0.61265740523E+03  0.61265740523E+03  0.25500000920E-02 0. -1.
    10030    2    1    2    0    0  0.00000000000E+00  0.00000000000E+00  0.36561296870E+02  0.12618761073E+04  0.12613463370E+04 0.  0.
        5    1    3    3  502    0 -0.55355211069E+03  0.13811763138E+03 -0.25058887890E+03  0.62314789222E+03  0.46999998093E+01 0. -1.
       -5    1    3    3    0  502  0.55355211069E+03 -0.13811763138E+03  0.28715017577E+03  0.63872821512E+03  0.46999998093E+01 0.  1.
</event>
<event>
 5   0  0.4084462E-04  0.1511520E+04  0.7818609E-02  0.8876828E-01
       -1   -1    0    0    0  501  0.00000000000E+00  0.00000000000E+00  0.41673347546E+03  0.41673347549E+03  0.50400001928E-02 0.  1.
        1   -1    0    0  501    0  0.00000000000E+00  0.00000000000E+00 -0.13705963521E+04  0.13705963521E+04  0.50400001928E-02 0. -1.
    10030    2    1    2    0    0  0.00000000000E+00  0.00000000000E+00 -0.95386287662E+03  0.17873298276E+04  0.15115202695E+04 0.  0.
        1    1    3    3  502    0  0.48494527669E+03 -0.29786172121E+03 -0.10649419586E+04  0.12074745967E+04  0.50400001928E-02 0.  1.
       -1    1    3    3    0  502 -0.48494527669E+03  0.29786172121E+03  0.11107908198E+03  0.57985523092E+03  0.50400001928E-02 0. -1.
</event>
<event>
 5   0  0.4058874E-04  0.1499965E+04  0.7818609E-02  0.8884476E-01
        1   -1    0    0  501    0  0.00000000000E+00  0.00000000000E+00  0.77766383263E+03  0.77766383265E+03  0.50400001928E-02 0. -1.
       -1   -1    0    0    0  501  0.00000000000E+00  0.00000000000E+00 -0.72328653775E+03  0.72328653777E+03  0.50400001928E-02 0.  1.
    10030    2    1    2    0    0  0.00000000000E+00  0.00000000000E+00  0.54377294883E+02  0.15009503704E+04  0.14999650410E+04 0.  0.
        4    1    3    3  502    0 -0.79217012462E+02 -0.22481219918E+02 -0.71874817079E+03  0.72345095634E+03  0.12699999809E+01 0.  1.
       -4    1    3    3    0  502  0.79217012462E+02  0.22481219918E+02  0.77312546568E+03  0.77749941408E+03  0.12699999809E+01 0. -1.
</event>
<event>
 5   0  0.3907345E-04  0.1511365E+04  0.7818609E-02  0.8876930E-01
       -1   -1    0    0    0  501  0.00000000000E+00  0.00000000000E+00  0.48874871177E+03  0.48874871179E+03  0.50400001928E-02 0. -1.
        1   -1    0    0  501    0  0.00000000000E+00  0.00000000000E+00 -0.11684040284E+04  0.11684040284E+04  0.50400001928E-02 0.  1.
    10030    2    1    2    0    0  0.00000000000E+00  0.00000000000E+00 -0.67965531664E+03  0.16571527402E+04  0.15113648980E+04 0.  0.
        5    1    3    3  502    0 -0.26379420019E+03  0.26344962759E+03  0.38087410130E+03  0.53299179860E+03  0.46999998093E+01 0. -1.
       -5    1    3    3    0  502  0.26379420019E+03 -0.26344962759E+03 -0.10605294179E+04  0.11241609416E+04  0.46999998093E+01 0.  1.
</event>
<event>
 5   0  0.2800375E-04  0.1467821E+04  0.7818609E-02  0.8906138E-01
       -3   -1    0    0    0  501  0.00000000000E+00  0.00000000000E+00  0.46622272488E+03  0.46622273582E+03  0.10100000352E+00 0. -1.
        3   -1    0    0  501    0  0.00000000000E+00  0.00000000000E+00 -0.11552948729E+04  0.11552948773E+04  0.10100000352E+00 0.  1.
    10030    2    1    2    0    0  0.00000000000E+00  0.00000000000E+00 -0.68907214799E+03  0.16215176131E+04  0.14678211555E+04 0.  0.
        1    1    3    3  502    0  0.17778890348E+03  0.80862322650E+01 -0.11310950402E+04  0.11450110354E+04  0.50400001928E-02 0.  1.
       -1    1    3    3    0  502 -0.17778890348E+03 -0.80862322650E+01  0.44202289216E+03  0.47650657768E+03  0.50400001928E-02 0. -1.
</event>
<event>
 5   0  0.2800375E-04  0.1502412E+04  0.7818609E-02  0.8882851E-01
       -3   -1    0    0    0  501  0.00000000000E+00  0.00000000000E+00  0.27674875504E+03  0.27674877347E+03  0.10100000352E+00 0. -1.
        3   -1    0    0  501    0  0.00000000000E+00  0.00000000000E+00 -0.20390703488E+04  0.20390703513E+04  0.10100000352E+00 0.  1.
    10030    2    1    2    0    0  0.00000000000E+00  0.00000000000E+00 -0.17623215937E+04  0.23158191247E+04  0.15024116675E+04 0.  0.
        2    1    3    3  502    0 -0.70512189359E+03  0.11313313261E+03 -0.52193092883E+03  0.88453823263E+03  0.25500000920E-02 0. -1.
       -2    1    3    3    0  502  0.70512189359E+03 -0.11313313261E+03 -0.12403906649E+04  0.14312808921E+04  0.25500000920E-02 0.  1.
</event>
<event>
 5   0  0.4086710E-04  0.1501126E+04  0.7818609E-02  0.8883704E-01
       -1   -1    0    0    0  501  0.00000000000E+00  0.00000000000E+00  0.48520813077E+03  0.48520813080E+03  0.50400001928E-02 0.  1.
        1   -1    0    0  501    0  0.00000000000E+00  0.00000000000E+00 -0.11610378708E+04  0.11610378708E+04  0.50400001928E-02 0. -1.
    10030    2    1    2    0    0  0.00000000000E+00  0.00000000000E+00 -0.67582973998E+03  0.16462460016E+04  0.15011262639E+04 0.  0.
        3    1    3    3  502    0  0.58898038564E+03 -0.16099022673E+03 -0.81660926972E+03  0.10196403569E+04  0.10100000352E+00 0. -1.
       -3    1    3    3    0  502 -0.58898038564E+03  0.16099022673E+03  0.14077952974E+03  0.62660564470E+03  0.10100000352E+00 0.  1.
</event>
<event>
 5   0  0.7672251E-04  0.1504352E+04  0.7818609E-02  0.8881564E-01
        2   -1    0    0  501    0  0.00000000000E+00  0.00000000000E+00  0.65889933420E+03  0.65889933420E+03  0.25500000920E-02 0.  1.
       -2   -1    0    0    0  501  0.00000000000E+00  0.00000000000E+00 -0.85865745716E+03  0.85865745716E+03  0.25500000920E-02 0. -1.
    10030    2    1    2    0    0  0.00000000000E+00  0.00000000000E+00 -0.19975812296E+03  0.15175567914E+04  0.15043521221E+04 0.  0.
        5    1    3    3  502    0 -0.68924775589E+03 -0.29809742973E+03 -0.14294087405E+03  0.76444668230E+03  0.46999998093E+01 0.  1.
       -5    1    3    3    0  502  0.68924775589E+03  0.29809742973E+03 -0.56817248906E+02  0.75311010906E+03  0.46999998093E+01 0. -1.
</event>
<event>
 5   0  0.2800375E-04  0.1501229E+04  0.7818609E-02  0.8883636E-01
        3   -1    0    0  501    0  0.00000000000E+00  0.00000000000E+00  0.75340215703E+03  0.75340216380E+03  0.10100000352E+00 0.  1.
       -3   -1    0    0    0  501  0.00000000000E+00  0.00000000000E+00 -0.74783718438E+03  0.74783719120E+03  0.10100000352E+00 0. -1.
    10030    2    1    2    0    0  0.00000000000E+00  0.00000000000E+00  0.55649726493E+01  0.15012393550E+04  0.15012290405E+04 0.  0.
        2    1    3    3  502    0 -0.64757898331E+03 -0.80899333446E+02 -0.36805549169E+03  0.74924501116E+03  0.25500000920E-02 0. -1.
       -2    1    3    3    0  502  0.64757898331E+03  0.80899333446E+02  0.37362046434E+03  0.75199434383E+03  0.25500000920E-02 0.  1.
</event>
<event>
 5   0  0.7672251E-04  0.1504250E+04  0.7818609E-02  0.8881632E-01
       -2   -1    0    0    0  501  0.00000000000E+00  0.00000000000E+00  0.56192629488E+03  0.56192629488E+03  0.25500000920E-02 0.  1.
        2   -1    0    0  501    0  0.00000000000E+00  0.00000000000E+00 -0.10067010947E+04  0.10067010947E+04  0.25500000920E-02 0. -1.
    10030    2    1    2    0    0  0.00000000000E+00  0.00000000000E+00 -0.44477479985E+03  0.15686273896E+04  0.15042497349E+04 0.  0.
        5    1    3    3  502    0  0.70875667623E+03 -0.16924746528E+03 -0.28166611367E+02  0.72924356603E+03  0.46999998093E+01 0.  1.
       -5    1    3    3    0  502 -0.70875667623E+03  0.16924746528E+03 -0.41660818848E+03  0.83938382359E+03  0.46999998093E+01 0. -1.
</event>
<event>
 5   0  0.4058874E-04  0.1502145E+04  0.7818609E-02  0.8883028E-01
        1   -1    0    0  501    0  0.00000000000E+00  0.00000000000E+00  0.11298087642E+04  0.11298087642E+04  0.50400001928E-02 0.  1.
       -1   -1    0    0    0  501  0.00000000000E+00  0.00000000000E+00 -0.49929691039E+03  0.49929691042E+03  0.50400001928E-02 0. -1.
    10030    2    1    2    0    0  0.00000000000E+00  0.00000000000E+00  0.63051185382E+03  0.16291056747E+04  0.15021451665E+04 0.  0.
        4    1    3    3  502    0 -0.38120399928E+03  0.16724452015E+02 -0.38634704728E+03  0.54301183247E+03  0.12699999809E+01 0. -1.
       -4    1    3    3    0  502  0.38120399928E+03 -0.16724452015E+02  0.10168589011E+04  0.10860938422E+04  0.12699999809E+01 0.  1.
</event>
<event>
 5   0  0.3907345E-04  0.1487915E+04  0.7818609E-02  0.8892530E-01
       -1   -1    0    0    0  501  0.00000000000E+00  0.00000000000E+00  0.93044663240E+03  0.93044663241E+03  0.50400001928E-02 0.  1.
        1   -1    0    0  501    0  0.00000000000E+00  0.00000000000E+00 -0.59484601561E+03  0.59484601564E+03  0.50400001928E-02 0. -1.
    10030    2    1    2    0    0  0.00000000000E+00  0.00000000000E+00  0.33560061679E+03  0.15252926480E+04  0.14879146105E+04 0.  0.
        5    1    3    3  502    0  0.46048427143E+03  0.37848298500E+03 -0.28852857451E+03  0.66224312943E+03  0.46999998093E+01 0. -1.
       -5    1    3    3    0  502 -0.46048427143E+03 -0.37848298500E+03  0.62412919129E+03  0.86304951862E+03  0.46999998093E+01 0.  1.
</event>
<event>
 5   0  0.7454828E-04  0.1497852E+04  0.7818609E-02  0.8885882E-01
        2   -1    0    0  501    0  0.00000000000E+00  0.00000000000E+00  0.10304097063E+04  0.10304097063E+04  0.25500000920E-02 0. -1.
       -2   -1    0    0    0  501  0.00000000000E+00  0.00000000000E+00 -0.54433736265E+03  0.54433736265E+03  0.25500000920E-02 0.  1.
    10030    2    1    2    0    0  0.00000000000E+00  0.00000000000E+00  0.48607234365E+03  0.15747470690E+04  0.14978524653E+04 0.  0.
        3    1    3    3  502    0 -0.17013964510E+03 -0.60586136561E+03 -0.18385696486E+03  0.65560574044E+03  0.10100000352E+00 0.  1.
       -3    1    3    3    0  502  0.17013964510E+03  0.60586136561E+03  0.66992930851E+03  0.91914132851E+03  0.10100000352E+00 0. -1.
</event>
<event>
 5   0  0.7672251E-04  0.1491990E+04  0.7818609E-02  0.8889797E-01
       -2   -1    0    0    0  501  0.00000000000E+00  0.00000000000E+00  0.90971903299E+03  0.90971903300E+03  0.25500000920E-02 0. -1.
        2   -1    0    0  501    0  0.00000000000E+00  0.00000000000E+00 -0.61173679131E+03  0.61173679131E+03  0.25500000920E-02 0.  1.
    10030    2    1    2    0    0  0.00000000000E+00  0.00000000000E+00  0.29798224169E+03  0.15214558243E+04  0.14919900834E+04 0.  0.
        5    1    3    3  502    0 -0.24127085146E+03  0.11742981734E+03  0.85878726362E+03  0.89974387462E+03  0.46999998093E+01 0. -1.
       -5    1    3    3    0  502  0.24127085146E+03 -0.11742981734E+03 -0.56080502193E+03  0.62171194969E+03  0.46999998093E+01 0.  1.
</event>
<event>
 5   0  0.2800375E-04  0.1466628E+04  0.7818609E-02  0.8906953E-01
        3   -1    0    0  501    0  0.00000000000E+00  0.00000000000E+00  0.23738270306E+03  0.23738272454E+03  0.10100000352E+00 0.  1.
       -3   -1    0    0    0  501  0.00000000000E+00  0.00000000000E+00 -0.22653275456E+04  0.22653275478E+04  0.10100000352E+00 0. -1.
    10030    2    1    2    0    0  0.00000000000E+00  0.00000000000E+00 -0.20279448425E+04  0.25027102724E+04  0.14666282498E+04 0.  0.
        4    1    3    3  502    0  0.54291940908E+03  0.52568510489E+02 -0.18503413251E+04  0.19290644275E+04  0.12699999809E+01 0. -1.
       -4    1    3    3    0  502 -0.54291940908E+03 -0.52568510489E+02 -0.17760351739E+03  0.57364584487E+03  0.12699999809E+01 0.  1.
</event>
<event>
 5   0  0.7547580E-04  0.1501876E+04  0.7818609E-02  0.8883207E-01
       -2   -1    0    0    0  501  0.00000000000E+00  0.00000000000E+00  0.53277465344E+03  0.53277465345E+03  0.25500000920E-02 0. -1.
        2   -1    0    0  501    0  0.00000000000E+00  0.00000000000E+00 -0.10584354094E+04  0.10584354094E+04  0.25500000920E-02 0.  1.
    10030    2    1    2    0    0  0.00000000000E+00  0.00000000000E+00 -0.52566075593E+03  0.15912100628E+04  0.15018755720E+04 0.  0.
        4    1    3    3  502    0 -0.48721077976E+03  0.31568573779E+03  0.24181469648E+03  0.62889410022E+03  0.12699999809E+01 0. -1.
       -4    1    3    3    0  502  0.48721077976E+03 -0.31568573779E+03 -0.76747545240E+03  0.96231596261E+03  0.12699999809E+01 0.  1.
</event>
<event>
 5   0  0.4084462E-04  0.1508230E+04  0.7818609E-02  0.8878998E-01
        1   -1    0    0  501    0  0.00000000000E+00  0.00000000000E+00  0.73799757515E+03  0.73799757516E+03  0.50400001928E-02 0.  1.
       -1   -1    0    0    0  501  0.00000000000E+00  0.00000000000E+00 -0.77058486281E+03  0.77058486283E+03  0.50400001928E-02 0. -1.
    10030    2    1    2    0    0  0.00000000000E+00  0.00000000000E+00 -0.32587287667E+02  0.15085824380E+04  0.15082304336E+04 0.  0.
        1    1    3    3  502    0  0.26946978335E+03 -0.69907531483E+03  0.69572185101E+02  0.75243640855E+03  0.50400001928E-02 0. -1.
       -1    1    3    3    0  502 -0.26946978335E+03  0.69907531483E+03 -0.10215947277E+03  0.75614602944E+03  0.50400001928E-02 0.  1.
</event>
<event>
 5   0  0.4058874E-04  0.1481744E+04  0.7818609E-02  0.8896684E-01
       -1   -1    0    0    0  501  0.00000000000E+00  0.00000000000E+00  0.55649459214E+03  0.55649459216E+03  0.50400001928E-02 0.  1.
        1   -1    0    0  501    0  0.00000000000E+00  0.00000000000E+00 -0.98633739466E+03  0.98633739467E+03  0.50400001928E-02 0. -1.
    10030    2    1    2    0    0  0.00000000000E+00  0.00000000000E+00 -0.42984280252E+03  0.15428319868E+04  0.14817441428E+04 0.  0.
        4    1    3    3  502    0  0.54590743880E+03 -0.40669417703E+03  0.89492358232E+02  0.68660438423E+03  0.12699999809E+01 0.  1.
       -4    1    3    3    0  502 -0.54590743880E+03  0.40669417703E+03 -0.51933516075E+03  0.85622760260E+03  0.12699999809E+01 0. -1.
</event>
<event>
 5   0  0.4058874E-04  0.1512164E+04  0.7818609E-02  0.8876404E-01
       -1   -1    0    0    0  501  0.00000000000E+00  0.00000000000E+00  0.78571168047E+03  0.78571168049E+03  0.50400001928E-02 0.  1.
        1   -1    0    0  501    0  0.00000000000E+00  0.00000000000E+00 -0.72756928499E+03  0.72756928501E+03  0.50400001928E-02 0. -1.
    10030    2    1    2    0    0  0.00000000000E+00  0.00000000000E+00  0.58142395480E+02  0.15132809655E+04  0.15121635964E+04 0.  0.
        4    1    3    3  502    0 -0.45029251562E+03 -0.59261695151E+02  0.63398685458E+03  0.77988219804E+03  0.12699999809E+01 0.  1.
       -4    1    3    3    0  502  0.45029251562E+03  0.59261695151E+02 -0.57584445910E+03  0.73339876746E+03  0.12699999809E+01 0. -1.
</event>
<event>
 5   0  0.4058874E-04  0.1517818E+04  0.7818609E-02  0.8872690E-01
        1   -1    0    0  501    0  0.00000000000E+00  0.00000000000E+00  0.11041672808E+04  0.11041672809E+04  0.50400001928E-02 0.  1.
       -1   -1    0    0    0  501  0.00000000000E+00  0.00000000000E+00 -0.52160818232E+03  0.52160818235E+03  0.50400001928E-02 0. -1.
    10030    2    1    2    0    0  0.00000000000E+00  0.00000000000E+00  0.58255909852E+03  0.16257754632E+04  0.15178177603E+04 0.  0.
        4    1    3    3  502    0  0.62518803738E+03  0.58577718002E+02 -0.16523877074E+03  0.64930493251E+03  0.12699999809E+01 0. -1.
       -4    1    3    3    0  502 -0.62518803738E+03 -0.58577718002E+02  0.74779786927E+03  0.97647053069E+03  0.12699999809E+01 0.  1.
</event>
<event>
 5   0  0.4084462E-04  0.1490037E+04  0.7818609E-02  0.8891105E-01
       -1   -1    0    0    0  501  0.00000000000E+00  0.00000000000E+00  0.42808639727E+03  0.42808639730E+03  0.50400001928E-02 0. -1.
        1   -1    0    0  501    0  0.00000000000E+00  0.00000000000E+00 -0.12965902775E+04  0.12965902775E+04  0.50400001928E-02 0.  1.
    10030    2    1    2    0    0  0.00000000000E+00  0.00000000000E+00 -0.86850388025E+03  0.17246766748E+04  0.14900371280E+04 0.  0.
        1    1    3    3  502    0  0.14187599155E+03 -0.47991646306E+02  0.41048134340E+03  0.43695186051E+03  0.50400001928E-02 0. -1.
       -1    1    3    3    0  502 -0.14187599155E+03  0.47991646306E+02 -0.12789852237E+04  0.12877248143E+04  0.50400001928E-02 0.  1.
</event>
<event>
 5   0  0.3907345E-04  0.1470801E+04  0.7818609E-02  0.8904105E-01
       -1   -1    0    0    0  501  0.00000000000E+00  0.00000000000E+00  0.68190217698E+03  0.68190217699E+03  0.50400001928E-02 0. -1.
        1   -1    0    0  501    0  0.00000000000E+00  0.00000000000E+00 -0.79309650219E+03  0.79309650220E+03  0.50400001928E-02 0.  1.
    10030    2    1    2    0    0  0.00000000000E+00  0.00000000000E+00 -0.11119432521E+03  0.14749986792E+04  0.14708014569E+04 0.  0.
        5    1    3    3  502    0  0.31982035065E+03  0.17079614190E+03 -0.69721647100E+03  0.78586848531E+03  0.46999998093E+01 0.  1.
       -5    1    3    3    0  502 -0.31982035065E+03 -0.17079614190E+03  0.58602214579E+03  0.68913019389E+03  0.46999998093E+01 0. -1.
</event>
<event>
 5   0  0.7547580E-04  0.1515125E+04  0.7818609E-02  0.8874457E-01
        2   -1    0    0  501    0  0.00000000000E+00  0.00000000000E+00  0.85158582751E+03  0.85158582752E+03  0.25500000920E-02 0. -1.
       -2   -1    0    0    0  501  0.00000000000E+00  0.00000000000E+00 -0.67392019924E+03  0.67392019924E+03  0.25500000920E-02 0.  1.
    10030    2    1    2    0    0  0.00000000000E+00  0.00000000000E+00  0.17766562827E+03  0.15255060268E+04  0.15151249329E+04 0.  0.
        4    1    3    3  502    0  0.62921199264E+03  0.30585284408E+03 -0.20375346354E+03  0.72867741883E+03  0.12699999809E+01 0.  1.
       -4    1    3    3    0  502 -0.62921199264E+03 -0.30585284408E+03  0.38141909182E+03  0.79682860793E+03  0.12699999809E+01 0. -1.
</event>
<event>
 5   0  0.3907345E-04  0.1536949E+04  0.7818609E-02  0.8860248E-01
        1   -1    0    0  501    0  0.00000000000E+00  0.00000000000E+00  0.18490293681E+04  0.18490293681E+04  0.50400001928E-02 0.  1.
       -1   -1    0    0    0  501  0.00000000000E+00  0.00000000000E+00 -0.31938532974E+03  0.31938532978E+03  0.50400001928E-02 0. -1.
    10030    2    1    2    0    0  0.00000000000E+00  0.00000000000E+00  0.15296440383E+04  0.21684146979E+04  0.15369487362E+04 0.  0.
        5    1    3    3  502    0  0.22630733703E+03  0.36255389128E+03 -0.13621797918E+03  0.44859532179E+03  0.46999998093E+01 0. -1.
       -5    1    3    3    0  502 -0.22630733703E+03 -0.36255389128E+03  0.16658620175E+04  0.17198193761E+04  0.46999998093E+01 0.  1.
</event>
<event>
 5   0  0.7547580E-04  0.1494143E+04  0.7818609E-02  0.8888357E-01
       -2   -1    0    0    0  501  0.00000000000E+00  0.00000000000E+00  0.68734610599E+03  0.68734610599E+03  0.25500000920E-02 0.  1.
        2   -1    0    0  501    0  0.00000000000E+00  0.00000000000E+00 -0.81198700258E+03  0.81198700258E+03  0.25500000920E-02 0. -1.
    10030    2    1    2    0    0  0.00000000000E+00  0.00000000000E+00 -0.12464089659E+03  0.14993331086E+04  0.14941433724E+04 0.  0.
        4    1    3    3  502    0 -0.40077433517E+03 -0.28196467064E+02 -0.69434888815E+03  0.80220764136E+03  0.12699999809E+01 0. -1.
       -4    1    3    3    0  502  0.40077433517E+03  0.28196467064E+02  0.56970799156E+03  0.69712546721E+03  0.12699999809E+01 0.  1.
</event>
<event>
 5   0  0.4084462E-04  0.1493313E+04  0.7818609E-02  0.8888912E-01
       -1   -1    0    0    0  501  0.00000000000E+00  0.00000000000E+00  0.56271731615E+03  0.56271731618E+03  0.50400001928E-02 0.  1.
        1   -1    0    0  501    0  0.00000000000E+00  0.00000000000E+00 -0.99072146746E+03  0.99072146748E+03  0.50400001928E-02 0. -1.
    10030    2    1    2    0    0  0.00000000000E+00  0.00000000000E+00 -0.42800415131E+03  0.15534387837E+04  0.14933132629E+04 0.  0.
        1    1    3    3  502    0  0.26422983851E+03  0.66066159286E+03 -0.44939820140E+03  0.84157583811E+03  0.50400001928E-02 0. -1.
       -1    1    3    3    0  502 -0.26422983851E+03 -0.66066159286E+03  0.21394050091E+02  0.71186294555E+03  0.50400001928E-02 0.  1.
</event>
<event>
 5   0  0.7359897E-04  0.1475190E+04  0.7818609E-02  0.8901121E-01
       -2   -1    0    0    0  501  0.00000000000E+00  0.00000000000E+00  0.35766529270E+03  0.35766529271E+03  0.25500000920E-02 0. -1.
        2   -1    0    0  501    0  0.00000000000E+00  0.00000000000E+00 -0.15211052214E+04  0.15211052214E+04  0.25500000920E-02 0.  1.
    10030    2    1    2    0    0  0.00000000000E+00  0.00000000000E+00 -0.11634399287E+04  0.18787705141E+04  0.14751902172E+04 0.  0.
        1    1    3    3  502    0 -0.69830502399E+03  0.22045956391E+02 -0.28052306028E+03  0.75286726459E+03  0.50400001928E-02 0. -1.
       -1    1    3    3    0  502  0.69830502399E+03 -0.22045956391E+02 -0.88291686841E+03  0.11259032495E+04  0.50400001928E-02 0.  1.
</event>
<event>
 5   0  0.4086710E-04  0.1490895E+04  0.7818609E-02  0.8890530E-01
       -1   -1    0    0    0  501  0.00000000000E+00  0.00000000000E+00  0.56230425526E+03  0.56230425529E+03  0.50400001928E-02 0. -1.
        1   -1    0    0  501    0  0.00000000000E+00  0.00000000000E+00 -0.98824058760E+03  0.98824058761E+03  0.50400001928E-02 0.  1.
    10030    2    1    2    0    0  0.00000000000E+00  0.00000000000E+00 -0.42593633233E+03  0.15505448429E+04  0.14908948825E+04 0.  0.
        3    1    3    3  502    0 -0.31376127862E+03 -0.46300440220E+03 -0.72550681827E+03  0.91606733922E+03  0.10100000352E+00 0.  1.
       -3    1    3    3    0  502  0.31376127862E+03  0.46300440220E+03  0.29957048594E+03  0.63447750367E+03  0.10100000352E+00 0. -1.
</event>
<event>
 5   0  0.7634227E-04  0.1450533E+04  0.7818609E-02  0.8918031E-01
       -2   -1    0    0    0  501  0.00000000000E+00  0.00000000000E+00  0.29798795031E+03  0.29798795032E+03  0.25500000920E-02 0.  1.
        2   -1    0    0  501    0  0.00000000000E+00  0.00000000000E+00 -0.17652101310E+04  0.17652101310E+04  0.25500000920E-02 0. -1.
    10030    2    1    2    0    0  0.00000000000E+00  0.00000000000E+00 -0.14672221807E+04  0.20631980813E+04  0.14505327970E+04 0.  0.
        2    1    3    3  502    0  0.11544825043E+03 -0.36560333512E+03  0.14206372914E+03  0.40887186296E+03  0.25500000920E-02 0.  1.
       -2    1    3    3    0  502 -0.11544825043E+03  0.36560333512E+03 -0.16092859098E+04  0.16543262184E+04  0.25500000920E-02 0. -1.
</event>
<event>
 5   0  0.4084462E-04  0.1503182E+04  0.7818609E-02  0.8882339E-01
       -1   -1    0    0    0  501  0.00000000000E+00  0.00000000000E+00  0.61376418262E+03  0.61376418264E+03  0.50400001928E-02 0.  1.
        1   -1    0    0  501    0  0.00000000000E+00  0.00000000000E+00 -0.92036879853E+03  0.92036879855E+03  0.50400001928E-02 0. -1.
    10030    2    1    2    0    0  0.00000000000E+00  0.00000000000E+00 -0.30660461591E+03  0.15341329812E+04  0.15031824951E+04 0.  0.
        1    1    3    3  502    0 -0.49667024686E+03 -0.89447591142E+02  0.41512800822E+03  0.65346267599E+03  0.50400001928E-02 0.  1.
       -1    1    3    3    0  502  0.49667024686E+03  0.89447591142E+02 -0.72173262414E+03  0.88067030519E+03  0.50400001928E-02 0. -1.
</event>
<event>
 5   0  0.4086710E-04  0.1445109E+04  0.7818609E-02  0.8921798E-01
        1   -1    0    0  501    0  0.00000000000E+00  0.00000000000E+00  0.99583759208E+03  0.99583759209E+03  0.50400001928E-02 0.  1.
       -1   -1    0    0    0  501  0.00000000000E+00  0.00000000000E+00 -0.52426744906E+03  0.52426744909E+03  0.50400001928E-02 0. -1.
    10030    2    1    2    0    0  0.00000000000E+00  0.00000000000E+00  0.47157014301E+03  0.15201050412E+04  0.14451093164E+04 0.  0.
        3    1    3    3  502    0  0.43483582841E+03 -0.57620634090E+03  0.26887015852E+03  0.77031624499E+03  0.10100000352E+00 0.  1.
       -3    1    3    3    0  502 -0.43483582841E+03  0.57620634090E+03  0.20269998450E+03  0.74978879618E+03  0.10100000352E+00 0. -1.
</event>
<event>
 5   0  0.4084462E-04  0.1532069E+04  0.7818609E-02  0.8863403E-01
       -1   -1    0    0    0  501  0.00000000000E+00  0.00000000000E+00  0.44443240892E+03  0.44443240895E+03  0.50400001928E-02 0. -1.
        1   -1    0    0  501    0  0.00000000000E+00  0.00000000000E+00 -0.13203556463E+04  0.13203556463E+04  0.50400001928E-02 0.  1.
    10030    2    1    2    0    0  0.00000000000E+00  0.00000000000E+00 -0.87592323735E+03  0.17647880552E+04  0.15320689809E+04 0.  0.
        1    1    3    3  502    0 -0.61171544209E+02  0.51434593052E+03  0.21213705588E+03  0.55972834891E+03  0.50400001928E-02 0. -1.
       -1    1    3    3    0  502  0.61171544209E+02 -0.51434593052E+03 -0.10880602932E+04  0.12050597063E+04  0.50400001928E-02 0.  1.
</event>
<event>
 5   0  0.7672251E-04  0.1491063E+04  0.7818609E-02  0.8890418E-01
       -2   -1    0    0    0  501  0.00000000000E+00  0.00000000000E+00  0.35280096265E+03  0.35280096266E+03  0.25500000920E-02 0. -1.
        2   -1    0    0  501    0  0.00000000000E+00  0.00000000000E+00 -0.15754417992E+04  0.15754417992E+04  0.25500000920E-02 0.  1.
    10030    2    1    2    0    0  0.00000000000E+00  0.00000000000E+00 -0.12226408365E+04  0.19282427619E+04  0.14910632225E+04 0.  0.
        5    1    3    3  502    0 -0.58828245404E+03 -0.15567304462E+03 -0.54365567116E+02  0.61097303332E+03  0.46999998093E+01 0. -1.
       -5    1    3    3    0  502  0.58828245404E+03  0.15567304462E+03 -0.11682752694E+04  0.13172697285E+04  0.46999998093E+01 0.  1.
</event>
<event>
 5   0  0.7454828E-04  0.1468059E+04  0.7818609E-02  0.8905976E-01
        2   -1    0    0  501    0  0.00000000000E+00  0.00000000000E+00  0.73154877113E+03  0.73154877114E+03  0.25500000920E-02 0.  1.
       -2   -1    0    0    0  501  0.00000000000E+00  0.00000000000E+00 -0.73651844201E+03  0.73651844201E+03  0.25500000920E-02 0. -1.
    10030    2    1    2    0    0  0.00000000000E+00  0.00000000000E+00 -0.49696708744E+01  0.14680672131E+04  0.14680588015E+04 0.  0.
        3    1    3    3  502    0  0.55134333460E+03 -0.40591684444E+02 -0.48536646230E+03  0.73566824750E+03  0.10100000352E+00 0. -1.
       -3    1    3    3    0  502 -0.55134333460E+03  0.40591684444E+02  0.48039679143E+03  0.73239896564E+03  0.10100000352E+00 0.  1.
</event>
<event>
 5   0  0.7359897E-04  0.1506627E+04  0.7818609E-02  0.8880058E-01
        2   -1    0    0  501    0  0.00000000000E+00  0.00000000000E+00  0.68843431458E+03  0.68843431458E+03  0.25500000920E-02 0. -1.
       -2   -1    0    0    0  501  0.00000000000E+00  0.00000000000E+00 -0.82430737027E+03  0.82430737027E+03  0.25500000920E-02 0.  1.
    10030    2    1    2    0    0  0.00000000000E+00  0.00000000000E+00 -0.13587305569E+03  0.15127416849E+04  0.15066273321E+04 0.  0.
        1    1    3    3  502    0  0.71242098037E+03  0.46349762074E+02  0.17343358734E+03  0.73469120245E+03  0.50400001928E-02 0.  1.
       -1    1    3    3    0  502 -0.71242098037E+03 -0.46349762074E+02 -0.30930664303E+03  0.77805048240E+03  0.50400001928E-02 0. -1.
</event>
<event>
 5   0  0.4015204E-04  0.1497632E+04  0.7818609E-02  0.8886029E-01
        1   -1    0    0  501    0  0.00000000000E+00  0.00000000000E+00  0.95208835168E+03  0.95208835169E+03  0.50400001928E-02 0.  1.
       -1   -1    0    0    0  501  0.00000000000E+00  0.00000000000E+00 -0.58894300026E+03  0.58894300028E+03  0.50400001928E-02 0. -1.
    10030    2    1    2    0    0  0.00000000000E+00  0.00000000000E+00  0.36314535142E+03  0.15410313520E+04  0.14976324921E+04 0.  0.
        2    1    3    3  502    0  0.46299594431E+03 -0.31449784388E+03  0.69343289918E+03  0.89113597387E+03  0.25500000920E-02 0.  1.
       -2    1    3    3    0  502 -0.46299594431E+03  0.31449784388E+03 -0.33028754776E+03  0.64989537810E+03  0.25500000920E-02 0. -1.
</event>
<event>
 5   0  0.4084462E-04  0.1494584E+04  0.7818609E-02  0.8888063E-01
       -1   -1    0    0    0  501  0.00000000000E+00  0.00000000000E+00  0.28862973150E+03  0.28862973155E+03  0.50400001928E-02 0.  1.
        1   -1    0    0  501    0  0.00000000000E+00  0.00000000000E+00 -0.19348145637E+04  0.19348145637E+04  0.50400001928E-02 0. -1.
    10030    2    1    2    0    0  0.00000000000E+00  0.00000000000E+00 -0.16461848322E+04  0.22234442952E+04  0.14945835649E+04 0.  0.
        1    1    3    3  502    0  0.16278269392E+03 -0.58397397985E+03 -0.17306283388E+03  0.63045583436E+03  0.50400001928E-02 0.  1.
       -1    1    3    3    0  502 -0.16278269392E+03  0.58397397985E+03 -0.14731219983E+04  0.15929884609E+04  0.50400001928E-02 0. -1.
</event>
<event>
 5   0  0.7672251E-04  0.1538190E+04  0.7818609E-02  0.8859447E-01
        2   -1    0    0  501    0  0.00000000000E+00  0.00000000000E+00  0.60450518427E+03  0.60450518427E+03  0.25500000920E-02 0. -1.
       -2   -1    0    0    0  501  0.00000000000E+00  0.00000000000E+00 -0.97849820156E+03  0.97849820156E+03  0.25500000920E-02 0.  1.
    10030    2    1    2    0    0  0.00000000000E+00  0.00000000000E+00 -0.37399301729E+03  0.15830033858E+04  0.15381901516E+04 0.  0.
        5    1    3    3  502    0  0.17184453133E+03  0.33868695307E+03 -0.87524446224E+03  0.95410395335E+03  0.46999998093E+01 0.  1.
       -5    1    3    3    0  502 -0.17184453133E+03 -0.33868695307E+03  0.50125144494E+03  0.62889943249E+03  0.46999998093E+01 0. -1.
</event>
<event>
 5   0  0.3907345E-04  0.1472255E+04  0.7818609E-02  0.8903116E-01
        1   -1    0    0  501    0  0.00000000000E+00  0.00000000000E+00  0.15248573392E+04  0.15248573392E+04  0.50400001928E-02 0.  1.
       -1   -1    0    0    0  501  0.00000000000E+00  0.00000000000E+00 -0.35536679235E+03  0.35536679239E+03  0.50400001928E-02 0. -1.
    10030    2    1    2    0    0  0.00000000000E+00  0.00000000000E+00  0.11694905468E+04  0.18802241316E+04  0.14722549527E+04 0.  0.
        5    1    3    3  502    0 -0.33575899500E+03  0.12082784917E+03  0.14069947127E+04  0.14515473411E+04  0.46999998093E+01 0.  1.
       -5    1    3    3    0  502  0.33575899500E+03 -0.12082784917E+03 -0.23750416590E+03  0.42867679046E+03  0.46999998093E+01 0. -1.
</event>
<event>
 5   0  0.4058874E-04  0.1498619E+04  0.7818609E-02  0.8885372E-01
       -1   -1    0    0    0  501  0.00000000000E+00  0.00000000000E+00  0.91663459505E+03  0.91663459507E+03  0.50400001928E-02 0.  1.
        1   -1    0    0  501    0  0.00000000000E+00  0.00000000000E+00 -0.61252873985E+03  0.61252873987E+03  0.50400001928E-02 0. -1.
    10030    2    1    2    0    0  0.00000000000E+00  0.00000000000E+00  0.30410585521E+03  0.15291633349E+04  0.14986194092E+04 0.  0.
        4    1    3    3  502    0 -0.73616822725E+03  0.29123372007E+02  0.12623904241E+02  0.73685331339E+03  0.12699999809E+01 0. -1.
       -4    1    3    3    0  502  0.73616822725E+03 -0.29123372007E+02  0.29148195096E+03  0.79231002154E+03  0.12699999809E+01 0.  1.
</event>
<event>
 5   0  0.7672251E-04  0.1418442E+04  0.7818609E-02  0.8940577E-01
       -2   -1    0    0    0  501  0.00000000000E+00  0.00000000000E+00  0.33404651970E+03  0.33404651971E+03  0.25500000920E-02 0. -1.
        2   -1    0    0  501    0  0.00000000000E+00  0.00000000000E+00 -0.15057609690E+04  0.15057609690E+04  0.25500000920E-02 0.  1.
    10030    2    1    2    0    0  0.00000000000E+00  0.00000000000E+00 -0.11717144493E+04  0.18398074887E+04  0.14184416959E+04 0.  0.
        5    1    3    3  502    0  0.11426213677E+03  0.11073198588E+03 -0.14822904123E+04  0.14908133234E+04  0.46999998093E+01 0.  1.
       -5    1    3    3    0  502 -0.11426213677E+03 -0.11073198588E+03  0.31057596307E+03  0.34899416532E+03  0.46999998093E+01 0. -1.
</event>
<event>
 5   0  0.3907345E-04  0.1483189E+04  0.7818609E-02  0.8895710E-01
        1   -1    0    0  501    0  0.00000000000E+00  0.00000000000E+00  0.12123736647E+04  0.12123736647E+04  0.50400001928E-02 0. -1.
       -1   -1    0    0    0  501  0.00000000000E+00  0.00000000000E+00 -0.45362451621E+03  0.45362451624E+03  0.50400001928E-02 0.  1.
    10030    2    1    2    0    0  0.00000000000E+00  0.00000000000E+00  0.75874914844E+03  0.16659981809E+04  0.14831890198E+04 0.  0.
        5    1    3    3  502    0 -0.70968465933E+03  0.14328360535E+03  0.19910079134E+03  0.75089661230E+03  0.46999998093E+01 0.  1.
       -5    1    3    3    0  502  0.70968465933E+03 -0.14328360535E+03  0.55964835711E+03  0.91510156860E+03  0.46999998093E+01 0. -1.
</event>
<event>
 5   0  0.7672251E-04  0.1522309E+04  0.7818609E-02  0.8869752E-01
       -2   -1    0    0    0  501  0.00000000000E+00  0.00000000000E+00  0.33691367465E+03  0.33691367466E+03  0.25500000920E-02 0. -1.
        2   -1    0    0  501    0  0.00000000000E+00  0.00000000000E+00 -0.17195977796E+04  0.17195977796E+04  0.25500000920E-02 0.  1.
    10030    2    1    2    0    0  0.00000000000E+00  0.00000000000E+00 -0.13826841049E+04  0.20565114542E+04  0.15223087819E+04 0.  0.
        5    1    3    3  502    0  0.37578195674E+03  0.59276371088E+03 -0.10892390695E+04  0.12957795864E+04  0.46999998093E+01 0. -1.
       -5    1    3    3    0  502 -0.37578195674E+03 -0.59276371088E+03 -0.29344503540E+03  0.76073186783E+03  0.46999998093E+01 0.  1.
</event>
<event>
 5   0  0.7547580E-04  0.1486861E+04  0.7818609E-02  0.8893238E-01
        2   -1    0    0  501    0  0.00000000000E+00  0.00000000000E+00  0.66020569456E+03  0.66020569456E+03  0.25500000920E-02 0.  1.
       -2   -1    0    0    0  501  0.00000000000E+00  0.00000000000E+00 -0.83714615022E+03  0.83714615022E+03  0.25500000920E-02 0. -1.
    10030    2    1    2    0    0  0.00000000000E+00  0.00000000000E+00 -0.17694045567E+03  0.14973518448E+04  0.14868606600E+04 0.  0.
        4    1    3    3  502    0  0.86519311552E+02 -0.48529566561E+03 -0.64889442648E+03  0.81490064668E+03  0.12699999809E+01 0. -1.
       -4    1    3    3    0  502 -0.86519311552E+02  0.48529566561E+03  0.47195397082E+03  0.68245119811E+03  0.12699999809E+01 0.  1.
</event>
<event>
 5   0  0.7359897E-04  0.1503478E+04  0.7818609E-02  0.8882144E-01
        2   -1    0    0  501    0  0.00000000000E+00  0.00000000000E+00  0.94096269656E+03  0.94096269656E+03  0.25500000920E-02 0.  1.
       -2   -1    0    0    0  501  0.00000000000E+00  0.00000000000E+00 -0.60056707964E+03  0.60056707964E+03  0.25500000920E-02 0. -1.
    10030    2    1    2    0    0  0.00000000000E+00  0.00000000000E+00  0.34039561692E+03  0.15415297762E+04  0.15034775938E+04 0.  0.
        1    1    3    3  502    0  0.66382514989E+03 -0.19308602314E+03  0.47290759744E+03  0.83760828416E+03  0.50400001928E-02 0.  1.
       -1    1    3    3    0  502 -0.66382514989E+03  0.19308602314E+03 -0.13251198052E+03  0.70392149204E+03  0.50400001928E-02 0. -1.
</event>
<event>
 5   0  0.7359897E-04  0.1489323E+04  0.7818609E-02  0.8891584E-01
       -2   -1    0    0    0  501  0.00000000000E+00  0.00000000000E+00  0.59602937663E+03  0.59602937664E+03  0.25500000920E-02 0.  1.
        2   -1    0    0  501    0  0.00000000000E+00  0.00000000000E+00 -0.93035808605E+03  0.93035808605E+03  0.25500000920E-02 0. -1.
    10030    2    1    2    0    0  0.00000000000E+00  0.00000000000E+00 -0.33432870941E+03  0.15263874627E+04  0.14893230007E+04 0.  0.
        1    1    3    3  502    0  0.43939055340E+03  0.55600811130E+03  0.67245137124E+02  0.71185039632E+03  0.50400001928E-02 0.  1.
       -1    1    3    3    0  502 -0.43939055340E+03 -0.55600811130E+03 -0.40157384654E+03  0.81453706637E+03  0.50400001928E-02 0. -1.
</event>
<event>
 5   0  0.4015204E-04  0.1362843E+04  0.7818609E-02  0.8981163E-01
       -1   -1    0    0    0  501  0.00000000000E+00  0.00000000000E+00  0.23012836321E+03  0.23012836327E+03  0.50400001928E-02 0.  1.
        1   -1    0    0  501    0  0.00000000000E+00  0.00000000000E+00 -0.20177228950E+04  0.20177228950E+04  0.50400001928E-02 0. -1.
    10030    2    1    2    0    0  0.00000000000E+00  0.00000000000E+00 -0.17875945318E+04  0.22478512583E+04  0.13628430098E+04 0.  0.
        2    1    3    3  502    0  0.21268634577E+03 -0.47102915633E+03 -0.16263007243E+04  0.17064460126E+04  0.25500000920E-02 0. -1.
       -2    1    3    3    0  502 -0.21268634577E+03  0.47102915633E+03 -0.16129380749E+03  0.54140524576E+03  0.25500000920E-02 0.  1.
</event>
<event>
 5   0  0.7359897E-04  0.1502490E+04  0.7818609E-02  0.8882799E-01
        2   -1    0    0  501    0  0.00000000000E+00  0.00000000000E+00  0.92968792851E+03  0.92968792852E+03  0.25500000920E-02 0. -1.
       -2   -1    0    0    0  501  0.00000000000E+00  0.00000000000E+00 -0.60705221971E+03  0.60705221971E+03  0.25500000920E-02 0.  1.
    10030    2    1    2    0    0  0.00000000000E+00  0.00000000000E+00  0.32263570881E+03  0.15367401482E+04  0.15024900940E+04 0.  0.
        1    1    3    3  502    0  0.57731208677E+03 -0.19572696311E+03 -0.28774742729E+03  0.67408966137E+03  0.50400001928E-02 0.  1.
       -1    1    3    3    0  502 -0.57731208677E+03  0.19572696311E+03  0.61038313610E+03  0.86265048686E+03  0.50400001928E-02 0. -1.
</event>
<event>
 5   0  0.3907345E-04  0.1480541E+04  0.7818609E-02  0.8897497E-01
        1   -1    0    0  501    0  0.00000000000E+00  0.00000000000E+00  0.87285938011E+03  0.87285938012E+03  0.50400001928E-02 0. -1.
       -1   -1    0    0    0  501  0.00000000000E+00  0.00000000000E+00 -0.62782247271E+03  0.62782247273E+03  0.50400001928E-02 0.  1.
    10030    2    1    2    0    0  0.00000000000E+00  0.00000000000E+00  0.24503690740E+03  0.15006818529E+04  0.14805414339E+04 0.  0.
        5    1    3    3  502    0 -0.40141265778E+03  0.36488229066E+03  0.63306420160E+03  0.83370473263E+03  0.46999998093E+01 0. -1.
       -5    1    3    3    0  502  0.40141265778E+03 -0.36488229066E+03 -0.38802729420E+03  0.66697712022E+03  0.46999998093E+01 0.  1.
</event>
<event>
 5   0  0.4086710E-04  0.1481438E+04  0.7818609E-02  0.8896891E-01
        1   -1    0    0  501    0  0.00000000000E+00  0.00000000000E+00  0.83039062524E+03  0.83039062526E+03  0.50400001928E-02 0. -1.
       -1   -1    0    0    0  501  0.00000000000E+00  0.00000000000E+00 -0.66073113906E+03  0.66073113908E+03  0.50400001928E-02 0.  1.
    10030    2    1    2    0    0  0.00000000000E+00  0.00000000000E+00  0.16965948618E+03  0.14911217643E+04  0.14814384141E+04 0.  0.
        3    1    3    3  502    0  0.13002157751E+03 -0.60671818751E+03 -0.32235420472E+03  0.69923158766E+03  0.10100000352E+00 0.  1.
       -3    1    3    3    0  502 -0.13002157751E+03  0.60671818751E+03  0.49201369090E+03  0.79189017668E+03  0.10100000352E+00 0. -1.
</event>
<event>
 5   0  0.7547580E-04  0.1499121E+04  0.7818609E-02  0.8885038E-01
       -2   -1    0    0    0  501  0.00000000000E+00  0.00000000000E+00  0.62638607003E+03  0.62638607003E+03  0.25500000920E-02 0.  1.
        2   -1    0    0  501    0  0.00000000000E+00  0.00000000000E+00 -0.89695638727E+03  0.89695638728E+03  0.25500000920E-02 0. -1.
    10030    2    1    2    0    0  0.00000000000E+00  0.00000000000E+00 -0.27057031724E+03  0.15233424573E+04  0.14991210577E+04 0.  0.
        4    1    3    3  502    0 -0.55530891656E+03  0.58579157732E+01  0.37627405091E+03  0.67081001951E+03  0.12699999809E+01 0.  1.
       -4    1    3    3    0  502  0.55530891656E+03 -0.58579157732E+01 -0.64684436815E+03  0.85253243780E+03  0.12699999809E+01 0. -1.
</event>
<event>
 5   0  0.4058874E-04  0.1645158E+04  0.7818609E-02  0.8793276E-01
        1   -1    0    0  501    0  0.00000000000E+00  0.00000000000E+00  0.16076082179E+04  0.16076082179E+04  0.50400001928E-02 0.  1.
       -1   -1    0    0    0  501  0.00000000000E+00  0.00000000000E+00 -0.42089646496E+03  0.42089646499E+03  0.50400001928E-02 0. -1.
    10030    2    1    2    0    0  0.00000000000E+00  0.00000000000E+00  0.11867117529E+04  0.20285046829E+04  0.16451584920E+04 0.  0.
        4    1    3    3  502    0  0.39393023591E+03 -0.71947149103E+03  0.51720041045E+03  0.96970002301E+03  0.12699999809E+01 0. -1.
       -4    1    3    3    0  502 -0.39393023591E+03  0.71947149103E+03  0.66951134248E+03  0.10588046599E+04  0.12699999809E+01 0.  1.
</event>
<event>
 5   0  0.7454828E-04  0.1488050E+04  0.7818609E-02  0.8892438E-01
        2   -1    0    0  501    0  0.00000000000E+00  0.00000000000E+00  0.86273620997E+03  0.86273620997E+03  0.25500000920E-02 0. -1.
       -2   -1    0    0    0  501  0.00000000000E+00  0.00000000000E+00 -0.64164859400E+03  0.64164859400E+03  0.25500000920E-02 0.  1.
    10030    2    1    2    0    0  0.00000000000E+00  0.00000000000E+00  0.22108761597E+03  0.15043848040E+04  0.14880503703E+04 0.  0.
        3    1    3    3  502    0  0.54849143011E+03 -0.42712253826E+03  0.37858994967E+03  0.79158503762E+03  0.10100000352E+00 0. -1.
       -3    1    3    3    0  502 -0.54849143011E+03  0.42712253826E+03 -0.15750233370E+03  0.71279976636E+03  0.10100000352E+00 0.  1.
</event>
<event>
 5   0  0.7454828E-04  0.1497464E+04  0.7818609E-02  0.8886141E-01
       -2   -1    0    0    0  501  0.00000000000E+00  0.00000000000E+00  0.45238688787E+03  0.45238688787E+03  0.25500000920E-02 0.  1.
        2   -1    0    0  501    0  0.00000000000E+00  0.00000000000E+00 -0.12392042674E+04  0.12392042674E+04  0.25500000920E-02 0. -1.
    10030    2    1    2    0    0  0.00000000000E+00  0.00000000000E+00 -0.78681737949E+03  0.16915911552E+04  0.14974642058E+04 0.  0.
        3    1    3    3  502    0  0.54653723277E+03 -0.13309461955E+03  0.16479967044E+03  0.58615361991E+03  0.10100000352E+00 0.  1.
       -3    1    3    3    0  502 -0.54653723277E+03  0.13309461955E+03 -0.95161704994E+03  0.11054375353E+04  0.10100000352E+00 0. -1.
</event>
<event>
 5   0  0.7454828E-04  0.1501554E+04  0.7818609E-02  0.8883420E-01
        2   -1    0    0  501    0  0.00000000000E+00  0.00000000000E+00  0.12551356703E+04  0.12551356703E+04  0.25500000920E-02 0. -1.
       -2   -1    0    0    0  501  0.00000000000E+00  0.00000000000E+00 -0.44908761894E+03  0.44908761895E+03  0.25500000920E-02 0.  1.
    10030    2    1    2    0    0  0.00000000000E+00  0.00000000000E+00  0.80604805136E+03  0.17042232893E+04  0.15015537148E+04 0.  0.
        3    1    3    3  502    0 -0.52607954966E+03  0.29562543840E+03  0.90997959964E+03  0.10918868872E+04  0.10100000352E+00 0.  1.
       -3    1    3    3    0  502  0.52607954966E+03 -0.29562543840E+03 -0.10393154828E+03  0.61233640209E+03  0.10100000352E+00 0. -1.
</event>
<event>
 5   0  0.4015204E-04  0.1498611E+04  0.7818609E-02  0.8885377E-01
        1   -1    0    0  501    0  0.00000000000E+00  0.00000000000E+00  0.84278383396E+03  0.84278383398E+03  0.50400001928E-02 0. -1.
       -1   -1    0    0    0  501  0.00000000000E+00  0.00000000000E+00 -0.66619558256E+03  0.66619558258E+03  0.50400001928E-02 0.  1.
    10030    2    1    2    0    0  0.00000000000E+00  0.00000000000E+00  0.17658825140E+03  0.15089794166E+04  0.14986111801E+04 0.  0.
        2    1    3    3  502    0  0.66056741723E+03 -0.77835534974E+02 -0.25913098703E+03  0.71383229939E+03  0.25500000920E-02 0. -1.
       -2    1    3    3    0  502 -0.66056741723E+03  0.77835534974E+02  0.43571923843E+03  0.79514711717E+03  0.25500000920E-02 0.  1.
</event>
<event>
 5   0  0.7672251E-04  0.1495512E+04  0.7818609E-02  0.8887443E-01
       -2   -1    0    0    0  501  0.00000000000E+00  0.00000000000E+00  0.82148485400E+03  0.82148485400E+03  0.25500000920E-02 0.  1.
        2   -1    0    0  501    0  0.00000000000E+00  0.00000000000E+00 -0.68064427155E+03  0.68064427155E+03  0.25500000920E-02 0. -1.
    10030    2    1    2    0    0  0.00000000000E+00  0.00000000000E+00  0.14084058245E+03  0.15021291256E+04  0.14955118990E+04 0.  0.
        5    1    3    3  502    0  0.29962295139E+02 -0.42687523987E+03  0.68631913380E+03  0.80881163008E+03  0.46999998093E+01 0.  1.
       -5    1    3    3    0  502 -0.29962295139E+02  0.42687523987E+03 -0.54547855134E+03  0.69331749547E+03  0.46999998093E+01 0. -1.
</event>
<event>
 5   0  0.7672251E-04  0.1443302E+04  0.7818609E-02  0.8923057E-01
        2   -1    0    0  501    0  0.00000000000E+00  0.00000000000E+00  0.11455997474E+04  0.11455997474E+04  0.25500000920E-02 0.  1.
       -2   -1    0    0    0  501  0.00000000000E+00  0.00000000000E+00 -0.45459162302E+03  0.45459162303E+03  0.25500000920E-02 0. -1.
    10030    2    1    2    0    0  0.00000000000E+00  0.00000000000E+00  0.69100812440E+03  0.16001913705E+04  0.14433018375E+04 0.  0.
        5    1    3    3  502    0  0.14014507289E+03 -0.68155125082E+03  0.55762630403E+03  0.89169609951E+03  0.46999998093E+01 0. -1.
       -5    1    3    3    0  502 -0.14014507289E+03  0.68155125082E+03  0.13338182037E+03  0.70849527094E+03  0.46999998093E+01 0.  1.
</event>
<event>
 5   0  0.7547580E-04  0.1497736E+04  0.7818609E-02  0.8885960E-01
       -2   -1    0    0    0  501  0.00000000000E+00  0.00000000000E+00  0.83181685344E+03  0.83181685344E+03  0.25500000920E-02 0.  1.
        2   -1    0    0  501    0  0.00000000000E+00  0.00000000000E+00 -0.67419124033E+03  0.67419124033E+03  0.25500000920E-02 0. -1.
    10030    2    1    2    0    0  0.00000000000E+00  0.00000000000E+00  0.15762561311E+03  0.15060080938E+04  0.14977364737E+04 0.  0.
        4    1    3    3  502    0  0.22399850038E+03 -0.71430103418E+03  0.98941544815E+02  0.75511081160E+03  0.12699999809E+01 0.  1.
       -4    1    3    3    0  502 -0.22399850038E+03  0.71430103418E+03  0.58684068295E+02  0.75089728217E+03  0.12699999809E+01 0. -1.
</event>
<event>
 5   0  0.7547580E-04  0.1543064E+04  0.7818609E-02  0.8856310E-01
       -2   -1    0    0    0  501  0.00000000000E+00  0.00000000000E+00  0.11750212239E+04  0.11750212239E+04  0.25500000920E-02 0. -1.
        2   -1    0    0  501    0  0.00000000000E+00  0.00000000000E+00 -0.50659680116E+03  0.50659680116E+03  0.25500000920E-02 0.  1.
    10030    2    1    2    0    0  0.00000000000E+00  0.00000000000E+00  0.66842442273E+03  0.16816180250E+04  0.15430644748E+04 0.  0.
        4    1    3    3  502    0  0.75468090824E+03  0.12934620693E+03  0.23090215957E+03  0.79974441836E+03  0.12699999809E+01 0. -1.
       -4    1    3    3    0  502 -0.75468090824E+03 -0.12934620693E+03  0.43752226316E+03  0.88187360669E+03  0.12699999809E+01 0.  1.
</event>
<event>
 5   0  0.4015204E-04  0.1520735E+04  0.7818609E-02  0.8870780E-01
        1   -1    0    0  501    0  0.00000000000E+00  0.00000000000E+00  0.99300510512E+03  0.99300510513E+03  0.50400001928E-02 0.  1.
       -1   -1    0    0    0  501  0.00000000000E+00  0.00000000000E+00 -0.58223145530E+03  0.58223145532E+03  0.50400001928E-02 0. -1.
    10030    2    1    2    0    0  0.00000000000E+00  0.00000000000E+00  0.41077364982E+03  0.15752365605E+04  0.15207350953E+04 0.  0.
        2    1    3    3  502    0 -0.56056120637E+03  0.33811275964E+03 -0.19526958483E+03  0.68313930870E+03  0.25500000920E-02 0. -1.
       -2    1    3    3    0  502  0.56056120637E+03 -0.33811275964E+03  0.60604323465E+03  0.89209725176E+03  0.25500000920E-02 0.  1.
</event>
<event>
 5   0  0.7454828E-04  0.1488469E+04  0.7818609E-02  0.8892158E-01
        2   -1    0    0  501    0  0.00000000000E+00  0.00000000000E+00  0.17713984600E+04  0.17713984600E+04  0.25500000920E-02 0.  1.
       -2   -1    0    0    0  501  0.00000000000E+00  0.00000000000E+00 -0.31268215230E+03  0.31268215231E+03  0.25500000920E-02 0. -1.
    10030    2    1    2    0    0  0.00000000000E+00  0.00000000000E+00  0.14587163077E+04  0.20840806123E+04  0.14884685862E+04 0.  0.
        3    1    3    3  502    0  0.25917226567E+03 -0.18974689763E+03 -0.21063283374E+03  0.38410981412E+03  0.10100000352E+00 0. -1.
       -3    1    3    3    0  502 -0.25917226567E+03  0.18974689763E+03  0.16693491414E+04  0.16999707982E+04  0.10100000352E+00 0.  1.
</event>
<event>
 5   0  0.4058874E-04  0.1492040E+04  0.7818609E-02  0.8889763E-01
        1   -1    0    0  501    0  0.00000000000E+00  0.00000000000E+00  0.42126824817E+03  0.42126824820E+03  0.50400001928E-02 0. -1.
       -1   -1    0    0    0  501  0.00000000000E+00  0.00000000000E+00 -0.13211202986E+04  0.13211202986E+04  0.50400001928E-02 0.  1.
    10030    2    1    2    0    0  0.00000000000E+00  0.00000000000E+00 -0.89985205040E+03  0.17423885468E+04  0.14920402593E+04 0.  0.
        4    1    3    3  502    0 -0.62191697939E+03 -0.21127335169E+03 -0.36840062063E+02  0.65785709805E+03  0.12699999809E+01 0. -1.
       -4    1    3    3    0  502  0.62191697939E+03  0.21127335169E+03 -0.86301198833E+03  0.10845314487E+04  0.12699999809E+01 0.  1.
</event>
<event>
 5   0  0.7359897E-04  0.1496351E+04  0.7818609E-02  0.8886883E-01
       -2   -1    0    0    0  501  0.00000000000E+00  0.00000000000E+00  0.10057353823E+04  0.10057353823E+04  0.25500000920E-02 0.  1.
        2   -1    0    0  501    0  0.00000000000E+00  0.00000000000E+00 -0.55657409204E+03  0.55657409204E+03  0.25500000920E-02 0. -1.
    10030    2    1    2    0    0  0.00000000000E+00  0.00000000000E+00  0.44916129028E+03  0.15623094744E+04  0.14963505702E+04 0.  0.
        1    1    3    3  502    0  0.39662471187E+03 -0.12783053849E+03 -0.42419081946E+03  0.59463405551E+03  0.50400001928E-02 0. -1.
       -1    1    3    3    0  502 -0.39662471187E+03  0.12783053849E+03  0.87335210974E+03  0.96767541885E+03  0.50400001928E-02 0.  1.
</event>
<event>
 5   0  0.7634227E-04  0.1507710E+04  0.7818609E-02  0.8879342E-01
        2   -1    0    0  501    0  0.00000000000E+00  0.00000000000E+00  0.22687781527E+04  0.22687781527E+04  0.25500000920E-02 0. -1.
       -2   -1    0    0    0  501  0.00000000000E+00  0.00000000000E+00 -0.25048611439E+03  0.25048611440E+03  0.25500000920E-02 0.  1.
    10030    2    1    2    0    0  0.00000000000E+00  0.00000000000E+00  0.20182920383E+04  0.25192642671E+04  0.15077100834E+04 0.  0.
        2    1    3    3  502    0 -0.13946849524E+03 -0.72685959590E+03  0.12485085158E+04  0.14513958273E+04  0.25500000920E-02 0.  1.
       -2    1    3    3    0  502  0.13946849524E+03  0.72685959590E+03  0.76978352249E+03  0.10678684398E+04  0.25500000920E-02 0. -1.
</event>
<event>
 5   0  0.4058874E-04  0.1497951E+04  0.7818609E-02  0.8885817E-01
       -1   -1    0    0    0  501  0.00000000000E+00  0.00000000000E+00  0.39682852539E+03  0.39682852542E+03  0.50400001928E-02 0.  1.
        1   -1    0    0  501    0  0.00000000000E+00  0.00000000000E+00 -0.14136182738E+04  0.14136182738E+04  0.50400001928E-02 0. -1.
    10030    2    1    2    0    0  0.00000000000E+00  0.00000000000E+00 -0.10167897484E+04  0.18104467992E+04  0.14979506735E+04 0.  0.
        4    1    3    3  502    0  0.15907615787E+03 -0.56600364282E+03  0.52404266213E+02  0.59026533670E+03  0.12699999809E+01 0. -1.
       -4    1    3    3    0  502 -0.15907615787E+03  0.56600364282E+03 -0.10691940146E+04  0.12201814625E+04  0.12699999809E+01 0.  1.
</event>
<event>
 5   0  0.4015204E-04  0.1484944E+04  0.7818609E-02  0.8894527E-01
        1   -1    0    0  501    0  0.00000000000E+00  0.00000000000E+00  0.98656678385E+03  0.98656678386E+03  0.50400001928E-02 0.  1.
       -1   -1    0    0    0  501  0.00000000000E+00  0.00000000000E+00 -0.55877040342E+03  0.55877040344E+03  0.50400001928E-02 0. -1.
    10030    2    1    2    0    0  0.00000000000E+00  0.00000000000E+00  0.42779638043E+03  0.15453371873E+04  0.14849435273E+04 0.  0.
        2    1    3    3  502    0  0.71324303145E+03 -0.87807385664E+02  0.19656064700E+02  0.71889645971E+03  0.25500000920E-02 0. -1.
       -2    1    3    3    0  502 -0.71324303145E+03  0.87807385664E+02  0.40814031573E+03  0.82644072759E+03  0.25500000920E-02 0.  1.
</event>
<event>
 5   0  0.7547580E-04  0.1468509E+04  0.7818609E-02  0.8905668E-01
        2   -1    0    0  501    0  0.00000000000E+00  0.00000000000E+00  0.10969246624E+04  0.10969246624E+04  0.25500000920E-02 0. -1.
       -2   -1    0    0    0  501  0.00000000000E+00  0.00000000000E+00 -0.49149230189E+03  0.49149230190E+03  0.25500000920E-02 0.  1.
    10030    2    1    2    0    0  0.00000000000E+00  0.00000000000E+00  0.60543236047E+03  0.15884169643E+04  0.14685094856E+04 0.  0.
        4    1    3    3  502    0 -0.42709170724E+03  0.44687500051E+03 -0.12590194510E+03  0.63083873149E+03  0.12699999809E+01 0.  1.
       -4    1    3    3    0  502  0.42709170724E+03 -0.44687500051E+03  0.73133430558E+03  0.95757823277E+03  0.12699999809E+01 0. -1.
</event>
<event>
 5   0  0.7547580E-04  0.1460489E+04  0.7818609E-02  0.8911161E-01
       -2   -1    0    0    0  501  0.00000000000E+00  0.00000000000E+00  0.42783042336E+03  0.42783042337E+03  0.25500000920E-02 0.  1.
        2   -1    0    0  501    0  0.00000000000E+00  0.00000000000E+00 -0.12464210559E+04  0.12464210559E+04  0.25500000920E-02 0. -1.
    10030    2    1    2    0    0  0.00000000000E+00  0.00000000000E+00 -0.81859063253E+03  0.16742514793E+04  0.14604887511E+04 0.  0.
        4    1    3    3  502    0  0.60648891452E+03  0.31982732871E+03 -0.69734283717E+03  0.97796061734E+03  0.12699999809E+01 0. -1.
       -4    1    3    3    0  502 -0.60648891452E+03 -0.31982732871E+03 -0.12124779536E+03  0.69629086192E+03  0.12699999809E+01 0.  1.
</event>
<event>
 5   0  0.4058874E-04  0.1513846E+04  0.7818609E-02  0.8875298E-01
       -1   -1    0    0    0  501  0.00000000000E+00  0.00000000000E+00  0.59895477401E+03  0.59895477403E+03  0.50400001928E-02 0. -1.
        1   -1    0    0  501    0  0.00000000000E+00  0.00000000000E+00 -0.95655330364E+03  0.95655330365E+03  0.50400001928E-02 0.  1.
    10030    2    1    2    0    0  0.00000000000E+00  0.00000000000E+00 -0.35759852963E+03  0.15555080777E+04  0.15138456564E+04 0.  0.
        4    1    3    3  502    0  0.64717839981E+03 -0.72909796780E+02  0.21752933293E+03  0.68664134978E+03  0.12699999809E+01 0. -1.
       -4    1    3    3    0  502 -0.64717839981E+03  0.72909796780E+02 -0.57512786256E+03  0.86886672789E+03  0.12699999809E+01 0.  1.
</event>
<event>
 5   0  0.4015204E-04  0.1502508E+04  0.7818609E-02  0.8882787E-01
       -1   -1    0    0    0  501  0.00000000000E+00  0.00000000000E+00  0.15014904714E+04  0.15014904715E+04  0.50400001928E-02 0.  1.
        1   -1    0    0  501    0  0.00000000000E+00  0.00000000000E+00 -0.37588167677E+03  0.37588167681E+03  0.50400001928E-02 0. -1.
    10030    2    1    2    0    0  0.00000000000E+00  0.00000000000E+00  0.11256087947E+04  0.18773721483E+04  0.15025082444E+04 0.  0.
        2    1    3    3  502    0  0.53446579428E+03  0.22577274427E+02 -0.96258954894E+02  0.54353399615E+03  0.25500000920E-02 0. -1.
       -2    1    3    3    0  502 -0.53446579428E+03 -0.22577274427E+02  0.12218677496E+04  0.13338381521E+04  0.25500000920E-02 0.  1.
</event>
<event>
 5   0  0.7672251E-04  0.1547426E+04  0.7818609E-02  0.8853514E-01
        2   -1    0    0  501    0  0.00000000000E+00  0.00000000000E+00  0.63182957282E+03  0.63182957282E+03  0.25500000920E-02 0.  1.
       -2   -1    0    0    0  501  0.00000000000E+00  0.00000000000E+00 -0.94745711157E+03  0.94745711157E+03  0.25500000920E-02 0. -1.
    10030    2    1    2    0    0  0.00000000000E+00  0.00000000000E+00 -0.31562753875E+03  0.15792866844E+04  0.15474255033E+04 0.  0.
        5    1    3    3  502    0  0.54943263563E+03  0.15148652178E+03  0.37620436456E+03  0.68291741908E+03  0.46999998093E+01 0. -1.
       -5    1    3    3    0  502 -0.54943263563E+03 -0.15148652178E+03 -0.69183190331E+03  0.89636926532E+03  0.46999998093E+01 0.  1.
</event>
<event>
 5   0  0.7672251E-04  0.1473013E+04  0.7818609E-02  0.8902600E-01
       -2   -1    0    0    0  501  0.00000000000E+00  0.00000000000E+00  0.37236321184E+03  0.37236321185E+03  0.25500000920E-02 0.  1.
        2   -1    0    0  501    0  0.00000000000E+00  0.00000000000E+00 -0.14567549736E+04  0.14567549736E+04  0.25500000920E-02 0. -1.
    10030    2    1    2    0    0  0.00000000000E+00  0.00000000000E+00 -0.10843917617E+04  0.18291181854E+04  0.14730131851E+04 0.  0.
        5    1    3    3  502    0 -0.51613712319E+03  0.49614872444E+03 -0.32762479802E+03  0.78735073822E+03  0.46999998093E+01 0.  1.
       -5    1    3    3    0  502  0.51613712319E+03 -0.49614872444E+03 -0.75676696372E+03  0.10417674472E+04  0.46999998093E+01 0. -1.
</event>
<event>
 5   0  0.3907345E-04  0.1501166E+04  0.7818609E-02  0.8883678E-01
        1   -1    0    0  501    0  0.00000000000E+00  0.00000000000E+00  0.14087362618E+04  0.14087362618E+04  0.50400001928E-02 0. -1.
       -1   -1    0    0    0  501  0.00000000000E+00  0.00000000000E+00 -0.39991498985E+03  0.39991498989E+03  0.50400001928E-02 0.  1.
    10030    2    1    2    0    0  0.00000000000E+00  0.00000000000E+00  0.10088212719E+04  0.18086512517E+04  0.15011658774E+04 0.  0.
        5    1    3    3  502    0  0.48667451011E+03  0.10833170288E+03  0.11803679065E+04  0.12813579989E+04  0.46999998093E+01 0. -1.
       -5    1    3    3    0  502 -0.48667451011E+03 -0.10833170288E+03 -0.17154663454E+03  0.52729325281E+03  0.46999998093E+01 0.  1.
</event>
<event>
 5   0  0.7634227E-04  0.1596369E+04  0.7818609E-02  0.8822782E-01
       -2   -1    0    0    0  501  0.00000000000E+00  0.00000000000E+00  0.43497004747E+03  0.43497004747E+03  0.25500000920E-02 0. -1.
        2   -1    0    0  501    0  0.00000000000E+00  0.00000000000E+00 -0.14646958135E+04  0.14646958135E+04  0.25500000920E-02 0.  1.
    10030    2    1    2    0    0  0.00000000000E+00  0.00000000000E+00 -0.10297257660E+04  0.18996658609E+04  0.15963693902E+04 0.  0.
        2    1    3    3  502    0  0.58996814422E+03 -0.52447873966E+03 -0.65545546022E+03  0.10260420166E+04  0.25500000920E-02 0.  1.
       -2    1    3    3    0  502 -0.58996814422E+03  0.52447873966E+03 -0.37427030578E+03  0.87362384431E+03  0.25500000920E-02 0. -1.
</event>
<event>
 5   0  0.4058874E-04  0.1587467E+04  0.7818609E-02  0.8828285E-01
        1   -1    0    0  501    0  0.00000000000E+00  0.00000000000E+00  0.80228099772E+03  0.80228099773E+03  0.50400001928E-02 0. -1.
       -1   -1    0    0    0  501  0.00000000000E+00  0.00000000000E+00 -0.78527692336E+03  0.78527692337E+03  0.50400001928E-02 0.  1.
    10030    2    1    2    0    0  0.00000000000E+00  0.00000000000E+00  0.17004074358E+02  0.15875579211E+04  0.15874668546E+04 0.  0.
        4    1    3    3  502    0 -0.10313828421E+03 -0.78292622651E+03 -0.71503544941E+02  0.79292203379E+03  0.12699999809E+01 0. -1.
       -4    1    3    3    0  502  0.10313828421E+03  0.78292622651E+03  0.88507619299E+02  0.79463588731E+03  0.12699999809E+01 0.  1.
</event>
<event>
 5   0  0.7454828E-04  0.1500707E+04  0.7818609E-02  0.8883983E-01
        2   -1    0    0  501    0  0.00000000000E+00  0.00000000000E+00  0.96620275877E+03  0.96620275877E+03  0.25500000920E-02 0. -1.
       -2   -1    0    0    0  501  0.00000000000E+00  0.00000000000E+00 -0.58272467545E+03  0.58272467546E+03  0.25500000920E-02 0.  1.
    10030    2    1    2    0    0  0.00000000000E+00  0.00000000000E+00  0.38347808332E+03  0.15489274342E+04  0.15007067522E+04 0.  0.
        3    1    3    3  502    0 -0.15664418351E+03 -0.58951411398E+03 -0.25929895934E+03  0.66279729278E+03  0.10100000352E+00 0.  1.
       -3    1    3    3    0  502  0.15664418351E+03  0.58951411398E+03  0.64277704266E+03  0.88613014144E+03  0.10100000352E+00 0. -1.
</event>
<event>
 5   0  0.2800375E-04  0.1471772E+04  0.7818609E-02  0.8903444E-01
        4   -1    0    0  501    0  0.00000000000E+00  0.00000000000E+00  0.92873206669E+03  0.92873293503E+03  0.12699999809E+01 0.  1.
       -4   -1    0    0    0  501  0.00000000000E+00  0.00000000000E+00 -0.58308176488E+03  0.58308314797E+03  0.12699999809E+01 0. -1.
    10030    2    1    2    0    0  0.00000000000E+00  0.00000000000E+00  0.34565030181E+03  0.15118160830E+04  0.14717723118E+04 0.  0.
        4    1    3    3  502    0  0.41218948105E+03  0.52356002395E+02  0.79670955085E+03  0.89854829619E+03  0.12699999809E+01 0.  1.
       -4    1    3    3    0  502 -0.41218948105E+03 -0.52356002395E+02 -0.45105924904E+03  0.61326778680E+03  0.12699999809E+01 0. -1.
</event>
<event>
 5   0  0.7634227E-04  0.1543785E+04  0.7818609E-02  0.8855848E-01
       -2   -1    0    0    0  501  0.00000000000E+00  0.00000000000E+00  0.51461826736E+03  0.51461826737E+03  0.25500000920E-02 0.  1.
        2   -1    0    0  501    0  0.00000000000E+00  0.00000000000E+00 -0.11577857707E+04  0.11577857707E+04  0.25500000920E-02 0. -1.
    10030    2    1    2    0    0  0.00000000000E+00  0.00000000000E+00 -0.64316750336E+03  0.16724040381E+04  0.15437845799E+04 0.  0.
        2    1    3    3  502    0  0.43664525815E+03  0.39714960716E+03  0.21728301702E+03  0.62896645493E+03  0.25500000920E-02 0.  1.
       -2    1    3    3    0  502 -0.43664525815E+03 -0.39714960716E+03 -0.86045052038E+03  0.10434375832E+04  0.25500000920E-02 0. -1.
</event>
<event>
 5   0  0.4086710E-04  0.1495745E+04  0.7818609E-02  0.8887287E-01
       -1   -1    0    0    0  501  0.00000000000E+00  0.00000000000E+00  0.35653585963E+03  0.35653585966E+03  0.50400001928E-02 0.  1.
        1   -1    0    0  501    0  0.00000000000E+00  0.00000000000E+00 -0.15687444220E+04  0.15687444220E+04  0.50400001928E-02 0. -1.
    10030    2    1    2    0    0  0.00000000000E+00  0.00000000000E+00 -0.12122085624E+04  0.19252802817E+04  0.14957454878E+04 0.  0.
        3    1    3    3  502    0 -0.16008362526E+03  0.48492161121E+03  0.97188232445E+02  0.51982814354E+03  0.10100000352E+00 0.  1.
       -3    1    3    3    0  502  0.16008362526E+03 -0.48492161121E+03 -0.13093967948E+04  0.14054521382E+04  0.10100000352E+00 0. -1.
</event>
<event>
 5   0  0.7634227E-04  0.1493943E+04  0.7818609E-02  0.8888491E-01
        2   -1    0    0  501    0  0.00000000000E+00  0.00000000000E+00  0.14682779390E+04  0.14682779390E+04  0.25500000920E-02 0. -1.
       -2   -1    0    0    0  501  0.00000000000E+00  0.00000000000E+00 -0.38001395806E+03  0.38001395807E+03  0.25500000920E-02 0.  1.
    10030    2    1    2    0    0  0.00000000000E+00  0.00000000000E+00  0.10882639809E+04  0.18482918970E+04  0.14939425841E+04 0.  0.
        2    1    3    3  502    0 -0.25369862088E+03  0.58608670933E+03  0.10234623546E+04  0.12063729988E+04  0.25500000920E-02 0. -1.
       -2    1    3    3    0  502  0.25369862088E+03 -0.58608670933E+03  0.64801626340E+02  0.64191889821E+03  0.25500000920E-02 0.  1.
</event>
<event>
 5   0  0.3907345E-04  0.1489147E+04  0.7818609E-02  0.8891702E-01
        1   -1    0    0  501    0  0.00000000000E+00  0.00000000000E+00  0.77434849167E+03  0.77434849169E+03  0.50400001928E-02 0.  1.
       -1   -1    0    0    0  501  0.00000000000E+00  0.00000000000E+00 -0.71594360061E+03  0.71594360063E+03  0.50400001928E-02 0. -1.
    10030    2    1    2    0    0  0.00000000000E+00  0.00000000000E+00  0.58404891059E+02  0.14902920923E+04  0.14891472020E+04 0.  0.
        5    1    3    3  502    0  0.22487628775E+03 -0.68181399195E+03  0.22665617048E+03  0.75288430321E+03  0.46999998093E+01 0. -1.
       -5    1    3    3    0  502 -0.22487628775E+03  0.68181399195E+03 -0.16825127942E+03  0.73740778911E+03  0.46999998093E+01 0.  1.
</event>
<event>
 5   0  0.4058874E-04  0.1581770E+04  0.7818609E-02  0.8831826E-01
        1   -1    0    0  501    0  0.00000000000E+00  0.00000000000E+00  0.52689965197E+03  0.52689965200E+03  0.50400001928E-02 0. -1.
       -1   -1    0    0    0  501  0.00000000000E+00  0.00000000000E+00 -0.11871308938E+04  0.11871308938E+04  0.50400001928E-02 0.  1.
    10030    2    1    2    0    0  0.00000000000E+00  0.00000000000E+00 -0.66023124184E+03  0.17140305458E+04  0.15817697112E+04 0.  0.
        4    1    3    3  502    0 -0.12335861257E+03  0.43101210670E+03 -0.10361380145E+04  0.11289696105E+04  0.12699999809E+01 0.  1.
       -4    1    3    3    0  502  0.12335861257E+03 -0.43101210670E+03  0.37590677266E+03  0.58506093533E+03  0.12699999809E+01 0. -1.
</event>
<event>
 5   0  0.7454828E-04  0.1495735E+04  0.7818609E-02  0.8887294E-01
       -2   -1    0    0    0  501  0.00000000000E+00  0.00000000000E+00  0.97850725601E+03  0.97850725601E+03  0.25500000920E-02 0. -1.
        2   -1    0    0  501    0  0.00000000000E+00  0.00000000000E+00 -0.57159075723E+03  0.57159075723E+03  0.25500000920E-02 0.  1.
    10030    2    1    2    0    0  0.00000000000E+00  0.00000000000E+00  0.40691649878E+03  0.15500980132E+04  0.14957348741E+04 0.  0.
        3    1    3    3  502    0 -0.14330127422E+03  0.73131790591E+03  0.13836982752E+03  0.75796263369E+03  0.10100000352E+00 0. -1.
       -3    1    3    3    0  502  0.14330127422E+03 -0.73131790591E+03  0.26854667126E+03  0.79213537956E+03  0.10100000352E+00 0.  1.
</event>
<event>
 5   0  0.4086710E-04  0.1489892E+04  0.7818609E-02  0.8891203E-01
        1   -1    0    0  501    0  0.00000000000E+00  0.00000000000E+00  0.28095822935E+04  0.28095822935E+04  0.50400001928E-02 0. -1.
       -1   -1    0    0    0  501  0.00000000000E+00  0.00000000000E+00 -0.19751839321E+03  0.19751839327E+03  0.50400001928E-02 0.  1.
    10030    2    1    2    0    0  0.00000000000E+00  0.00000000000E+00  0.26120639003E+04  0.30071006868E+04  0.14898915132E+04 0.  0.
        3    1    3    3  502    0 -0.30911360734E+03  0.65898710738E+03  0.16259806942E+04  0.17814680626E+04  0.10100000352E+00 0. -1.
       -3    1    3    3    0  502  0.30911360734E+03 -0.65898710738E+03  0.98608320609E+03  0.12256326242E+04  0.10100000352E+00 0.  1.
</event>
<event>
 5   0  0.4015204E-04  0.1489176E+04  0.7818609E-02  0.8891683E-01
       -1   -1    0    0    0  501  0.00000000000E+00  0.00000000000E+00  0.13614861282E+04  0.13614861282E+04  0.50400001928E-02 0. -1.
        1   -1    0    0  501    0  0.00000000000E+00  0.00000000000E+00 -0.40721026680E+03  0.40721026683E+03  0.50400001928E-02 0.  1.
    10030    2    1    2    0    0  0.00000000000E+00  0.00000000000E+00  0.95427586137E+03  0.17686963950E+04  0.14891757848E+04 0.  0.
        2    1    3    3  502    0  0.86752767409E+02  0.41830733812E+03  0.12014450991E+04  0.12751381878E+04  0.25500000920E-02 0. -1.
       -2    1    3    3    0  502 -0.86752767409E+02 -0.41830733812E+03 -0.24716923777E+03  0.49355820719E+03  0.25500000920E-02 0.  1.
</event>
<event>
 5   0  0.4015204E-04  0.1499081E+04  0.7818609E-02  0.8885064E-01
        1   -1    0    0  501    0  0.00000000000E+00  0.00000000000E+00  0.10019588434E+04  0.10019588434E+04  0.50400001928E-02 0.  1.
       -1   -1    0    0    0  501  0.00000000000E+00  0.00000000000E+00 -0.56071245987E+03  0.56071245989E+03  0.50400001928E-02 0. -1.
    10030    2    1    2    0    0  0.00000000000E+00  0.00000000000E+00  0.44124638352E+03  0.15626713033E+04  0.14990807954E+04 0.  0.
        2    1    3    3  502    0 -0.26776592376E+03 -0.59651191526E+03 -0.16137170894E+03  0.67347300126E+03  0.25500000920E-02 0. -1.
       -2    1    3    3    0  502  0.26776592376E+03  0.59651191526E+03  0.60261809246E+03  0.88919830203E+03  0.25500000920E-02 0.  1.
</event>
<event>
 5   0  0.7547580E-04  0.1525704E+04  0.7818609E-02  0.8867537E-01
       -2   -1    0    0    0  501  0.00000000000E+00  0.00000000000E+00  0.48919013123E+03  0.48919013124E+03  0.25500000920E-02 0.  1.
        2   -1    0    0  501    0  0.00000000000E+00  0.00000000000E+00 -0.11896058459E+04  0.11896058459E+04  0.25500000920E-02 0. -1.
    10030    2    1    2    0    0  0.00000000000E+00  0.00000000000E+00 -0.70041571465E+03  0.16787959771E+04  0.15257043486E+04 0.  0.
        4    1    3    3  502    0  0.72788174809E+03  0.59927300842E+02 -0.59262963664E+03  0.94053953650E+03  0.12699999809E+01 0. -1.
       -4    1    3    3    0  502 -0.72788174809E+03 -0.59927300842E+02 -0.10778607801E+03  0.73825644061E+03  0.12699999809E+01 0.  1.
</event>
<event>
 5   0  0.4084462E-04  0.1484494E+04  0.7818609E-02  0.8894830E-01
       -1   -1    0    0    0  501  0.00000000000E+00  0.00000000000E+00  0.40227490337E+03  0.40227490341E+03  0.50400001928E-02 0. -1.
        1   -1    0    0  501    0  0.00000000000E+00  0.00000000000E+00 -0.13695374898E+04  0.13695374898E+04  0.50400001928E-02 0.  1.
    10030    2    1    2    0    0  0.00000000000E+00  0.00000000000E+00 -0.96726258644E+03  0.17718123932E+04  0.14844939359E+04 0.  0.
        1    1    3    3  502    0  0.37170624923E+03  0.56408533441E+02 -0.12474852334E+04  0.13029070827E+04  0.50400001928E-02 0.  1.
       -1    1    3    3    0  502 -0.37170624923E+03 -0.56408533441E+02  0.28022264700E+03  0.46890531057E+03  0.50400001928E-02 0. -1.
</event>
<event>
 5   0  0.4084462E-04  0.1518647E+04  0.7818609E-02  0.8872147E-01
        1   -1    0    0  501    0  0.00000000000E+00  0.00000000000E+00  0.11967152077E+04  0.11967152077E+04  0.50400001928E-02 0. -1.
       -1   -1    0    0    0  501  0.00000000000E+00  0.00000000000E+00 -0.48179576725E+03  0.48179576728E+03  0.50400001928E-02 0.  1.
    10030    2    1    2    0    0  0.00000000000E+00  0.00000000000E+00  0.71491944044E+03  0.16785109750E+04  0.15186471897E+04 0.  0.
        1    1    3    3  502    0  0.13870263656E+03  0.16612415177E+03 -0.44698704853E+03  0.49662166361E+03  0.50400001928E-02 0.  1.
       -1    1    3    3    0  502 -0.13870263656E+03 -0.16612415177E+03  0.11619064890E+04  0.11818893114E+04  0.50400001928E-02 0. -1.
</event>
<event>
 5   0  0.7672251E-04  0.1474798E+04  0.7818609E-02  0.8901387E-01
       -2   -1    0    0    0  501  0.00000000000E+00  0.00000000000E+00  0.39023387941E+03  0.39023387942E+03  0.25500000920E-02 0.  1.
        2   -1    0    0  501    0  0.00000000000E+00  0.00000000000E+00 -0.13934146176E+04  0.13934146176E+04  0.25500000920E-02 0. -1.
    10030    2    1    2    0    0  0.00000000000E+00  0.00000000000E+00 -0.10031807382E+04  0.17836484970E+04  0.14747984159E+04 0.  0.
        5    1    3    3  502    0  0.42940983883E+03  0.31375095085E+03 -0.11193452333E+04  0.12392692645E+04  0.46999998093E+01 0. -1.
       -5    1    3    3    0  502 -0.42940983883E+03 -0.31375095085E+03  0.11616449507E+03  0.54437923248E+03  0.46999998093E+01 0.  1.
</event>
<event>
 5   0  0.7359897E-04  0.1505322E+04  0.7818609E-02  0.8880921E-01
       -2   -1    0    0    0  501  0.00000000000E+00  0.00000000000E+00  0.34198690374E+03  0.34198690375E+03  0.25500000920E-02 0.  1.
        2   -1    0    0  501    0  0.00000000000E+00  0.00000000000E+00 -0.16564927844E+04  0.16564927844E+04  0.25500000920E-02 0. -1.
    10030    2    1    2    0    0  0.00000000000E+00  0.00000000000E+00 -0.13145058807E+04  0.19984796882E+04  0.15053223421E+04 0.  0.
        1    1    3    3  502    0  0.15571732832E+03 -0.54331245187E+03 -0.13171461733E+04  0.14332865549E+04  0.50400001928E-02 0. -1.
       -1    1    3    3    0  502 -0.15571732832E+03  0.54331245187E+03  0.26402926112E+01  0.56519313325E+03  0.50400001928E-02 0.  1.
</event>
<event>
 5   0  0.7359897E-04  0.1501163E+04  0.7818609E-02  0.8883680E-01
        2   -1    0    0  501    0  0.00000000000E+00  0.00000000000E+00  0.78315149307E+03  0.78315149307E+03  0.25500000920E-02 0.  1.
       -2   -1    0    0    0  501  0.00000000000E+00  0.00000000000E+00 -0.71936566177E+03  0.71936566178E+03  0.25500000920E-02 0. -1.
    10030    2    1    2    0    0  0.00000000000E+00  0.00000000000E+00  0.63785831298E+02  0.15025171548E+04  0.15011626056E+04 0.  0.
        1    1    3    3  502    0  0.87455115004E+02  0.37151901118E+02 -0.71332147508E+03  0.71962225350E+03  0.50400001928E-02 0. -1.
       -1    1    3    3    0  502 -0.87455115004E+02 -0.37151901118E+02  0.77710730638E+03  0.78289490135E+03  0.50400001928E-02 0.  1.
</event>
<event>
 5   0  0.4086710E-04  0.1503006E+04  0.7818609E-02  0.8882457E-01
       -1   -1    0    0    0  501  0.00000000000E+00  0.00000000000E+00  0.40734453985E+03  0.40734453989E+03  0.50400001928E-02 0. -1.
        1   -1    0    0  501    0  0.00000000000E+00  0.00000000000E+00 -0.13864346534E+04  0.13864346534E+04  0.50400001928E-02 0.  1.
    10030    2    1    2    0    0  0.00000000000E+00  0.00000000000E+00 -0.97909011357E+03  0.17937791933E+04  0.15030057697E+04 0.  0.
        3    1    3    3  502    0  0.27353664139E+03 -0.69963146047E+03 -0.51486503783E+03  0.91070988358E+03  0.10100000352E+00 0. -1.
       -3    1    3    3    0  502 -0.27353664139E+03  0.69963146047E+03 -0.46422507573E+03  0.88306930974E+03  0.10100000352E+00 0.  1.
</event>
<event>
 5   0  0.7672251E-04  0.1558016E+04  0.7818609E-02  0.8846764E-01
       -2   -1    0    0    0  501  0.00000000000E+00  0.00000000000E+00  0.66293035021E+03  0.66293035022E+03  0.25500000920E-02 0. -1.
        2   -1    0    0  501    0  0.00000000000E+00  0.00000000000E+00 -0.91541057653E+03  0.91541057653E+03  0.25500000920E-02 0.  1.
    10030    2    1    2    0    0  0.00000000000E+00  0.00000000000E+00 -0.25248022632E+03  0.15783409268E+04  0.15580159872E+04 0.  0.
        5    1    3    3  502    0 -0.14399517206E+03 -0.37698921704E+03 -0.80124761415E+03  0.89714843171E+03  0.46999998093E+01 0.  1.
       -5    1    3    3    0  502  0.14399517206E+03  0.37698921704E+03  0.54876738783E+03  0.68119249504E+03  0.46999998093E+01 0. -1.
</event>
<event>
 5   0  0.7634227E-04  0.1514547E+04  0.7818609E-02  0.8874836E-01
        2   -1    0    0  501    0  0.00000000000E+00  0.00000000000E+00  0.48964313663E+03  0.48964313663E+03  0.25500000920E-02 0. -1.
       -2   -1    0    0    0  501  0.00000000000E+00  0.00000000000E+00 -0.11711865726E+04  0.11711865726E+04  0.25500000920E-02 0.  1.
    10030    2    1    2    0    0  0.00000000000E+00  0.00000000000E+00 -0.68154343598E+03  0.16608297092E+04  0.15145474136E+04 0.  0.
        2    1    3    3  502    0  0.72782524772E+01  0.34259031025E+03 -0.10813054228E+04  0.11343026541E+04  0.25500000920E-02 0.  1.
       -2    1    3    3    0  502 -0.72782524772E+01 -0.34259031025E+03  0.39976198687E+03  0.52652705513E+03  0.25500000920E-02 0. -1.
</event>
<event>
 5   0  0.3907345E-04  0.1507061E+04  0.7818609E-02  0.8879771E-01
       -1   -1    0    0    0  501  0.00000000000E+00  0.00000000000E+00  0.91700373499E+03  0.91700373500E+03  0.50400001928E-02 0.  1.
        1   -1    0    0  501    0  0.00000000000E+00  0.00000000000E+00 -0.61919937139E+03  0.61919937141E+03  0.50400001928E-02 0. -1.
    10030    2    1    2    0    0  0.00000000000E+00  0.00000000000E+00  0.29780436359E+03  0.15362031064E+04  0.15070608963E+04 0.  0.
        5    1    3    3  502    0  0.61256584528E+03  0.25372151627E+03  0.51383985080E+03  0.83884742647E+03  0.46999998093E+01 0.  1.
       -5    1    3    3    0  502 -0.61256584528E+03 -0.25372151627E+03 -0.21603548720E+03  0.69735567994E+03  0.46999998093E+01 0. -1.
</event>
<event>
 5   0  0.7359897E-04  0.1504138E+04  0.7818609E-02  0.8881706E-01
        2   -1    0    0  501    0  0.00000000000E+00  0.00000000000E+00  0.17139798226E+04  0.17139798226E+04  0.25500000920E-02 0.  1.
       -2   -1    0    0    0  501  0.00000000000E+00  0.00000000000E+00 -0.32999660491E+03  0.32999660492E+03  0.25500000920E-02 0. -1.
    10030    2    1    2    0    0  0.00000000000E+00  0.00000000000E+00  0.13839832177E+04  0.20439764275E+04  0.15041376564E+04 0.  0.
        1    1    3    3  502    0  0.57899917059E+02 -0.70324237389E+03  0.33840192502E+03  0.78257146620E+03  0.50400001928E-02 0.  1.
       -1    1    3    3    0  502 -0.57899917059E+02  0.70324237389E+03  0.10455812927E+04  0.12614049613E+04  0.50400001928E-02 0. -1.
</event>
<event>
 5   0  0.7547580E-04  0.1458526E+04  0.7818609E-02  0.8912511E-01
       -2   -1    0    0    0  501  0.00000000000E+00  0.00000000000E+00  0.29912062163E+03  0.29912062164E+03  0.25500000920E-02 0. -1.
        2   -1    0    0  501    0  0.00000000000E+00  0.00000000000E+00 -0.17779607693E+04  0.17779607693E+04  0.25500000920E-02 0.  1.
    10030    2    1    2    0    0  0.00000000000E+00  0.00000000000E+00 -0.14788401477E+04  0.20770813909E+04  0.14585262844E+04 0.  0.
        4    1    3    3  502    0 -0.44220461819E+03 -0.13214122083E+03  0.64679655628E+02  0.46603787115E+03  0.12699999809E+01 0. -1.
       -4    1    3    3    0  502  0.44220461819E+03  0.13214122083E+03 -0.15435198033E+04  0.16110435198E+04  0.12699999809E+01 0.  1.
</event>
<event>
 5   0  0.7359897E-04  0.1502156E+04  0.7818609E-02  0.8883021E-01
        2   -1    0    0  501    0  0.00000000000E+00  0.00000000000E+00  0.11936589381E+04  0.11936589381E+04  0.25500000920E-02 0.  1.
       -2   -1    0    0    0  501  0.00000000000E+00  0.00000000000E+00 -0.47259546209E+03  0.47259546209E+03  0.25500000920E-02 0. -1.
    10030    2    1    2    0    0  0.00000000000E+00  0.00000000000E+00  0.72106347596E+03  0.16662544001E+04  0.15021555145E+04 0.  0.
        1    1    3    3  502    0  0.37484399315E+03 -0.56929916346E+03  0.71044140162E+03  0.98454890274E+03  0.50400001928E-02 0.  1.
       -1    1    3    3    0  502 -0.37484399315E+03  0.56929916346E+03  0.10622074340E+02  0.68170549741E+03  0.50400001928E-02 0. -1.
</event>
<event>
 5   0  0.7634227E-04  0.1700372E+04  0.7818609E-02  0.8761152E-01
       -2   -1    0    0    0  501  0.00000000000E+00  0.00000000000E+00  0.77032089262E+03  0.77032089262E+03  0.25500000920E-02 0.  1.
        2   -1    0    0  501    0  0.00000000000E+00  0.00000000000E+00 -0.93833158142E+03  0.93833158142E+03  0.25500000920E-02 0. -1.
    10030    2    1    2    0    0  0.00000000000E+00  0.00000000000E+00 -0.16801068880E+03  0.17086524740E+04  0.17003722197E+04 0.  0.
        2    1    3    3  502    0  0.54990147289E+03  0.11292015025E+03 -0.72560800492E+03  0.91741461021E+03  0.25500000920E-02 0. -1.
       -2    1    3    3    0  502 -0.54990147289E+03 -0.11292015025E+03  0.55759731612E+03  0.79123786384E+03  0.25500000920E-02 0.  1.
</event>
<event>
 5   0  0.4015204E-04  0.1474382E+04  0.7818609E-02  0.8901670E-01
        1   -1    0    0  501    0  0.00000000000E+00  0.00000000000E+00  0.90197437340E+03  0.90197437341E+03  0.50400001928E-02 0.  1.
       -1   -1    0    0    0  501  0.00000000000E+00  0.00000000000E+00 -0.60251195788E+03  0.60251195790E+03  0.50400001928E-02 0. -1.
    10030    2    1    2    0    0  0.00000000000E+00  0.00000000000E+00  0.29946241552E+03  0.15044863313E+04  0.14743816951E+04 0.  0.
        2    1    3    3  502    0 -0.36769545008E+03 -0.57150622385E+03  0.44127646102E+03  0.81027416531E+03  0.25500000920E-02 0.  1.
       -2    1    3    3    0  502  0.36769545008E+03  0.57150622385E+03 -0.14181404551E+03  0.69421216600E+03  0.25500000920E-02 0. -1.
</event>
<event>
 5   0  0.4015204E-04  0.1454288E+04  0.7818609E-02  0.8915433E-01
        1   -1    0    0  501    0  0.00000000000E+00  0.00000000000E+00  0.63963270361E+03  0.63963270363E+03  0.50400001928E-02 0.  1.
       -1   -1    0    0    0  501  0.00000000000E+00  0.00000000000E+00 -0.82662843946E+03  0.82662843948E+03  0.50400001928E-02 0. -1.
    10030    2    1    2    0    0  0.00000000000E+00  0.00000000000E+00 -0.18699573585E+03  0.14662611431E+04  0.14542882570E+04 0.  0.
        2    1    3    3  502    0  0.19547910714E+03 -0.65502903580E+03  0.15646145909E+03  0.70125267006E+03  0.25500000920E-02 0.  1.
       -2    1    3    3    0  502 -0.19547910714E+03  0.65502903580E+03 -0.34345719494E+03  0.76500847305E+03  0.25500000920E-02 0. -1.
</event>
<event>
 5   0  0.7359897E-04  0.1497156E+04  0.7818609E-02  0.8886347E-01
        2   -1    0    0  501    0  0.00000000000E+00  0.00000000000E+00  0.14282019486E+04  0.14282019486E+04  0.25500000920E-02 0.  1.
       -2   -1    0    0    0  501  0.00000000000E+00  0.00000000000E+00 -0.39235962118E+03  0.39235962119E+03  0.25500000920E-02 0. -1.
    10030    2    1    2    0    0  0.00000000000E+00  0.00000000000E+00  0.10358423274E+04  0.18205615698E+04  0.14971556706E+04 0.  0.
        1    1    3    3  502    0  0.27229699352E+03  0.50502993442E+03  0.11025795238E+04  0.12429330206E+04  0.50400001928E-02 0.  1.
       -1    1    3    3    0  502 -0.27229699352E+03 -0.50502993442E+03 -0.66737196461E+02  0.57762854912E+03  0.50400001928E-02 0. -1.
</event>
<event>
 5   0  0.4084462E-04  0.1493199E+04  0.7818609E-02  0.8888988E-01
        1   -1    0    0  501    0  0.00000000000E+00  0.00000000000E+00  0.91860134259E+03  0.91860134261E+03  0.50400001928E-02 0. -1.
       -1   -1    0    0    0  501  0.00000000000E+00  0.00000000000E+00 -0.60680373046E+03  0.60680373048E+03  0.50400001928E-02 0.  1.
    10030    2    1    2    0    0  0.00000000000E+00  0.00000000000E+00  0.31179761214E+03  0.15254050731E+04  0.14931988769E+04 0.  0.
        1    1    3    3  502    0 -0.35193332520E+03  0.50463979184E+03 -0.27618043366E+03  0.67438417601E+03  0.50400001928E-02 0.  1.
       -1    1    3    3    0  502  0.35193332520E+03 -0.50463979184E+03  0.58797804580E+03  0.85102089708E+03  0.50400001928E-02 0. -1.
</event>
<event>
 5   0  0.3907345E-04  0.1459460E+04  0.7818609E-02  0.8911869E-01
       -1   -1    0    0    0  501  0.00000000000E+00  0.00000000000E+00  0.91921056783E+03  0.91921056784E+03  0.50400001928E-02 0. -1.
        1   -1    0    0  501    0  0.00000000000E+00  0.00000000000E+00 -0.57930750399E+03  0.57930750401E+03  0.50400001928E-02 0.  1.
    10030    2    1    2    0    0  0.00000000000E+00  0.00000000000E+00  0.33990306384E+03  0.14985180719E+04  0.14594595982E+04 0.  0.
        5    1    3    3  502    0 -0.32905748590E+03 -0.12540816124E+03 -0.48627525317E+03  0.60040964998E+03  0.46999998093E+01 0.  1.
       -5    1    3    3    0  502  0.32905748590E+03  0.12540816124E+03  0.82617831702E+03  0.89810842188E+03  0.46999998093E+01 0. -1.
</event>
<event>
 5   0  0.7359897E-04  0.1490271E+04  0.7818609E-02  0.8890949E-01
        2   -1    0    0  501    0  0.00000000000E+00  0.00000000000E+00  0.61118927794E+03  0.61118927795E+03  0.25500000920E-02 0. -1.
       -2   -1    0    0    0  501  0.00000000000E+00  0.00000000000E+00 -0.90843675581E+03  0.90843675581E+03  0.25500000920E-02 0.  1.
    10030    2    1    2    0    0  0.00000000000E+00  0.00000000000E+00 -0.29724747787E+03  0.15196260338E+04  0.14902708544E+04 0.  0.
        1    1    3    3  502    0  0.70826847026E+03 -0.18195742035E+03 -0.27175636860E+01  0.73127294081E+03  0.50400001928E-02 0. -1.
       -1    1    3    3    0  502 -0.70826847026E+03  0.18195742035E+03 -0.29452991418E+03  0.78835309295E+03  0.50400001928E-02 0.  1.
</event>
<event>
 5   0  0.4058874E-04  0.1505955E+04  0.7818609E-02  0.8880503E-01
       -1   -1    0    0    0  501  0.00000000000E+00  0.00000000000E+00  0.80537765968E+03  0.80537765969E+03  0.50400001928E-02 0.  1.
        1   -1    0    0  501    0  0.00000000000E+00  0.00000000000E+00 -0.70398628915E+03  0.70398628917E+03  0.50400001928E-02 0. -1.
    10030    2    1    2    0    0  0.00000000000E+00  0.00000000000E+00  0.10139137053E+03  0.15093639489E+04  0.15059546209E+04 0.  0.
        4    1    3    3  502    0 -0.50398754582E+03  0.47942232570E+03 -0.23826936281E+03  0.73527077657E+03  0.12699999809E+01 0. -1.
       -4    1    3    3    0  502  0.50398754582E+03 -0.47942232570E+03  0.33966073333E+03  0.77409317229E+03  0.12699999809E+01 0.  1.
</event>
<event>
 5   0  0.7634227E-04  0.1484791E+04  0.7818609E-02  0.8894630E-01
       -2   -1    0    0    0  501  0.00000000000E+00  0.00000000000E+00  0.78513050838E+03  0.78513050838E+03  0.25500000920E-02 0. -1.
        2   -1    0    0  501    0  0.00000000000E+00  0.00000000000E+00 -0.70198661081E+03  0.70198661081E+03  0.25500000920E-02 0.  1.
    10030    2    1    2    0    0  0.00000000000E+00  0.00000000000E+00  0.83143897570E+02  0.14871171192E+04  0.14847910353E+04 0.  0.
        2    1    3    3  502    0  0.13263533792E+03 -0.16568550751E+03 -0.67095473058E+03  0.70372158611E+03  0.25500000920E-02 0.  1.
       -2    1    3    3    0  502 -0.13263533792E+03  0.16568550751E+03  0.75409862815E+03  0.78339553308E+03  0.25500000920E-02 0. -1.
</event>
<event>
 5   0  0.4058874E-04  0.1426268E+04  0.7818609E-02  0.8935021E-01
        1   -1    0    0  501    0  0.00000000000E+00  0.00000000000E+00  0.61354717127E+03  0.61354717129E+03  0.50400001928E-02 0. -1.
       -1   -1    0    0    0  501  0.00000000000E+00  0.00000000000E+00 -0.82888507462E+03  0.82888507464E+03  0.50400001928E-02 0.  1.
    10030    2    1    2    0    0  0.00000000000E+00  0.00000000000E+00 -0.21533790335E+03  0.14424322459E+04  0.14262679873E+04 0.  0.
        4    1    3    3  502    0  0.37772439873E+03  0.59315739896E+03 -0.22753246016E+03  0.73911031292E+03  0.12699999809E+01 0.  1.
       -4    1    3    3    0  502 -0.37772439873E+03 -0.59315739896E+03  0.12194556801E+02  0.70332193301E+03  0.12699999809E+01 0. -1.
</event>
<event>
 5   0  0.4084462E-04  0.1415617E+04  0.7818609E-02  0.8942591E-01
       -1   -1    0    0    0  501  0.00000000000E+00  0.00000000000E+00  0.97911351100E+03  0.97911351101E+03  0.50400001928E-02 0.  1.
        1   -1    0    0  501    0  0.00000000000E+00  0.00000000000E+00 -0.51168040083E+03  0.51168040086E+03  0.50400001928E-02 0. -1.
    10030    2    1    2    0    0  0.00000000000E+00  0.00000000000E+00  0.46743311017E+03  0.14907939119E+04  0.14156174537E+04 0.  0.
        1    1    3    3  502    0  0.69418393122E+03 -0.10260169065E+03  0.33123406419E+03  0.77597322286E+03  0.50400001928E-02 0.  1.
       -1    1    3    3    0  502 -0.69418393122E+03  0.10260169065E+03  0.13619904598E+03  0.71482068901E+03  0.50400001928E-02 0. -1.
</event>
<event>
 5   0  0.7672251E-04  0.1499195E+04  0.7818609E-02  0.8884988E-01
        2   -1    0    0  501    0  0.00000000000E+00  0.00000000000E+00  0.18549693400E+03  0.18549693402E+03  0.25500000920E-02 0. -1.
       -2   -1    0    0    0  501  0.00000000000E+00  0.00000000000E+00 -0.30291407254E+04  0.30291407254E+04  0.25500000920E-02 0.  1.
    10030    2    1    2    0    0  0.00000000000E+00  0.00000000000E+00 -0.28436437914E+04  0.32146376594E+04  0.14991948736E+04 0.  0.
        5    1    3    3  502    0 -0.33459393292E+03 -0.66508822958E+03 -0.12351523704E+04  0.14421924009E+04  0.46999998093E+01 0. -1.
       -5    1    3    3    0  502  0.33459393292E+03  0.66508822958E+03 -0.16084914210E+04  0.17724452586E+04  0.46999998093E+01 0.  1.
</event>
<event>
 5   0  0.4086710E-04  0.1489334E+04  0.7818609E-02  0.8891577E-01
        1   -1    0    0  501    0  0.00000000000E+00  0.00000000000E+00  0.90856946324E+03  0.90856946325E+03  0.50400001928E-02 0.  1.
       -1   -1    0    0    0  501  0.00000000000E+00  0.00000000000E+00 -0.61033206712E+03  0.61033206714E+03  0.50400001928E-02 0. -1.
    10030    2    1    2    0    0  0.00000000000E+00  0.00000000000E+00  0.29823739612E+03  0.15189015304E+04  0.14893341850E+04 0.  0.
        3    1    3    3  502    0 -0.85205836576E+02 -0.62060066439E+03  0.55975837995E+03  0.84008015889E+03  0.10100000352E+00 0.  1.
       -3    1    3    3    0  502  0.85205836576E+02  0.62060066439E+03 -0.26152098384E+03  0.67882137151E+03  0.10100000352E+00 0. -1.
</event>
<event>
 5   0  0.4086710E-04  0.1496976E+04  0.7818609E-02  0.8886466E-01
       -1   -1    0    0    0  501  0.00000000000E+00  0.00000000000E+00  0.44450613441E+03  0.44450613444E+03  0.50400001928E-02 0. -1.
        1   -1    0    0  501    0  0.00000000000E+00  0.00000000000E+00 -0.12603525155E+04  0.12603525155E+04  0.50400001928E-02 0.  1.
    10030    2    1    2    0    0  0.00000000000E+00  0.00000000000E+00 -0.81584638110E+03  0.17048586500E+04  0.14969761851E+04 0.  0.
        3    1    3    3  502    0 -0.26759416921E+03 -0.58928672102E+03  0.20280572949E+02  0.64751586143E+03  0.10100000352E+00 0. -1.
       -3    1    3    3    0  502  0.26759416921E+03  0.58928672102E+03 -0.83612695404E+03  0.10573427885E+04  0.10100000352E+00 0.  1.
</event>
<event>
 5   0  0.7634227E-04  0.1513560E+04  0.7818609E-02  0.8875485E-01
        2   -1    0    0  501    0  0.00000000000E+00  0.00000000000E+00  0.93457646730E+03  0.93457646731E+03  0.25500000920E-02 0. -1.
       -2   -1    0    0    0  501  0.00000000000E+00  0.00000000000E+00 -0.61280799495E+03  0.61280799495E+03  0.25500000920E-02 0.  1.
    10030    2    1    2    0    0  0.00000000000E+00  0.00000000000E+00  0.32176847236E+03  0.15473844623E+04  0.15135599507E+04 0.  0.
        2    1    3    3  502    0  0.67835193412E+03 -0.30047283690E+03  0.31345282749E+03  0.80541787124E+03  0.25500000920E-02 0.  1.
       -2    1    3    3    0  502 -0.67835193412E+03  0.30047283690E+03  0.83156448619E+01  0.74196659102E+03  0.25500000920E-02 0. -1.
</event>
<event>
 5   0  0.7547580E-04  0.1507503E+04  0.7818609E-02  0.8879479E-01
       -2   -1    0    0    0  501  0.00000000000E+00  0.00000000000E+00  0.30958913806E+03  0.30958913807E+03  0.25500000920E-02 0.  1.
        2   -1    0    0  501    0  0.00000000000E+00  0.00000000000E+00 -0.18351465461E+04  0.18351465462E+04  0.25500000920E-02 0. -1.
    10030    2    1    2    0    0  0.00000000000E+00  0.00000000000E+00 -0.15255574081E+04  0.21447356842E+04  0.15075031508E+04 0.  0.
        4    1    3    3  502    0 -0.57829963843E+02 -0.94308395560E+02  0.29797474151E+03  0.31785049578E+03  0.12699999809E+01 0.  1.
       -4    1    3    3    0  502  0.57829963843E+02  0.94308395560E+02 -0.18235321496E+04  0.18268851884E+04  0.12699999809E+01 0. -1.
</event>
<event>
 5   0  0.4086710E-04  0.1493640E+04  0.7818609E-02  0.8888693E-01
        1   -1    0    0  501    0  0.00000000000E+00  0.00000000000E+00  0.11474261204E+04  0.11474261204E+04  0.50400001928E-02 0. -1.
       -1   -1    0    0    0  501  0.00000000000E+00  0.00000000000E+00 -0.48607934190E+03  0.48607934192E+03  0.50400001928E-02 0.  1.
    10030    2    1    2    0    0  0.00000000000E+00  0.00000000000E+00  0.66134677852E+03  0.16335054624E+04  0.14936400283E+04 0.  0.
        3    1    3    3  502    0 -0.49843697974E+03  0.15668997629E+03  0.91426053084E+03  0.10530258781E+04  0.10100000352E+00 0. -1.
       -3    1    3    3    0  502  0.49843697974E+03 -0.15668997629E+03 -0.25291375232E+03  0.58047958427E+03  0.10100000352E+00 0.  1.
</event>
<event>
 5   0  0.7634227E-04  0.1484609E+04  0.7818609E-02  0.8894753E-01
        2   -1    0    0  501    0  0.00000000000E+00  0.00000000000E+00  0.49860717628E+03  0.49860717629E+03  0.25500000920E-02 0. -1.
       -2   -1    0    0    0  501  0.00000000000E+00  0.00000000000E+00 -0.11051098194E+04  0.11051098194E+04  0.25500000920E-02 0.  1.
    10030    2    1    2    0    0  0.00000000000E+00  0.00000000000E+00 -0.60650264308E+03  0.16037169957E+04  0.14846086171E+04 0.  0.
        2    1    3    3  502    0 -0.19151863002E+03 -0.58639793445E+03 -0.74926125264E+03  0.97053302257E+03  0.25500000920E-02 0.  1.
       -2    1    3    3    0  502  0.19151863002E+03  0.58639793445E+03  0.14275860956E+03  0.63318397309E+03  0.25500000920E-02 0. -1.
</event>
<event>
 5   0  0.7547580E-04  0.1494042E+04  0.7818609E-02  0.8888425E-01
        2   -1    0    0  501    0  0.00000000000E+00  0.00000000000E+00  0.60349881806E+03  0.60349881807E+03  0.25500000920E-02 0.  1.
       -2   -1    0    0    0  501  0.00000000000E+00  0.00000000000E+00 -0.92467510504E+03  0.92467510505E+03  0.25500000920E-02 0. -1.
    10030    2    1    2    0    0  0.00000000000E+00  0.00000000000E+00 -0.32117628698E+03  0.15281739231E+04  0.14940419445E+04 0.  0.
        4    1    3    3  502    0  0.38888341403E+03  0.38737718544E+03 -0.67886636451E+03  0.87301348630E+03  0.12699999809E+01 0. -1.
       -4    1    3    3    0  502 -0.38888341403E+03 -0.38737718544E+03  0.35769007752E+03  0.65516043681E+03  0.12699999809E+01 0.  1.
</event>
<event>
 5   0  0.7454828E-04  0.1464861E+04  0.7818609E-02  0.8908162E-01
        2   -1    0    0  501    0  0.00000000000E+00  0.00000000000E+00  0.12584020489E+04  0.12584020489E+04  0.25500000920E-02 0.  1.
       -2   -1    0    0    0  501  0.00000000000E+00  0.00000000000E+00 -0.42629810405E+03  0.42629810406E+03  0.25500000920E-02 0. -1.
    10030    2    1    2    0    0  0.00000000000E+00  0.00000000000E+00  0.83210394484E+03  0.16847001530E+04  0.14648609594E+04 0.  0.
        3    1    3    3  502    0 -0.16104885175E+03 -0.25424493706E+03  0.11840035413E+04  0.12216552773E+04  0.10100000352E+00 0.  1.
       -3    1    3    3    0  502  0.16104885175E+03  0.25424493706E+03 -0.35189959643E+03  0.46304487563E+03  0.10100000352E+00 0. -1.
</event>
<event>
 5   0  0.4086710E-04  0.1438304E+04  0.7818609E-02  0.8926549E-01
        1   -1    0    0  501    0  0.00000000000E+00  0.00000000000E+00  0.73768980225E+03  0.73768980227E+03  0.50400001928E-02 0.  1.
       -1   -1    0    0    0  501  0.00000000000E+00  0.00000000000E+00 -0.70108008886E+03  0.70108008887E+03  0.50400001928E-02 0. -1.
    10030    2    1    2    0    0  0.00000000000E+00  0.00000000000E+00  0.36609713397E+02  0.14387698911E+04  0.14383040459E+04 0.  0.
        3    1    3    3  502    0 -0.37680007917E+03 -0.21669271298E+03 -0.55480791802E+03  0.70480200597E+03  0.10100000352E+00 0. -1.
       -3    1    3    3    0  502  0.37680007917E+03  0.21669271298E+03  0.59141763141E+03  0.73396788518E+03  0.10100000352E+00 0.  1.
</event>
<event>
 5   0  0.7634227E-04  0.1565598E+04  0.7818609E-02  0.8841966E-01
       -2   -1    0    0    0  501  0.00000000000E+00  0.00000000000E+00  0.92751351555E+03  0.92751351556E+03  0.25500000920E-02 0.  1.
        2   -1    0    0  501    0  0.00000000000E+00  0.00000000000E+00 -0.66066335266E+03  0.66066335267E+03  0.25500000920E-02 0. -1.
    10030    2    1    2    0    0  0.00000000000E+00  0.00000000000E+00  0.26685016289E+03  0.15881768682E+04  0.15655978907E+04 0.  0.
        2    1    3    3  502    0  0.62329850887E+03  0.15127951432E+03  0.58865948246E+03  0.87057826122E+03  0.25500000920E-02 0.  1.
       -2    1    3    3    0  502 -0.62329850887E+03 -0.15127951432E+03 -0.32180931957E+03  0.71759860701E+03  0.25500000920E-02 0. -1.
</event>
<event>
 5   0  0.2800375E-04  0.1564001E+04  0.7818609E-02  0.8842974E-01
        3   -1    0    0  501    0  0.00000000000E+00  0.00000000000E+00  0.45015332494E+03  0.45015333627E+03  0.10100000352E+00 0.  1.
       -3   -1    0    0    0  501  0.00000000000E+00  0.00000000000E+00 -0.13584812946E+04  0.13584812984E+04  0.10100000352E+00 0. -1.
    10030    2    1    2    0    0  0.00000000000E+00  0.00000000000E+00 -0.90832796969E+03  0.18086346347E+04  0.15640011321E+04 0.  0.
        2    1    3    3  502    0 -0.48518329322E+02  0.64772606319E+03  0.49403774834E+02  0.65141677457E+03  0.25500000920E-02 0. -1.
       -2    1    3    3    0  502  0.48518329322E+02 -0.64772606319E+03 -0.95773174453E+03  0.11572178601E+04  0.25500000920E-02 0.  1.
</event>
<event>
 5   0  0.4058874E-04  0.1515181E+04  0.7818609E-02  0.8874420E-01
        1   -1    0    0  501    0  0.00000000000E+00  0.00000000000E+00  0.65133778142E+03  0.65133778144E+03  0.50400001928E-02 0. -1.
       -1   -1    0    0    0  501  0.00000000000E+00  0.00000000000E+00 -0.88117587786E+03  0.88117587788E+03  0.50400001928E-02 0.  1.
    10030    2    1    2    0    0  0.00000000000E+00  0.00000000000E+00 -0.22983809645E+03  0.15325136593E+04  0.15151807039E+04 0.  0.
        4    1    3    3  502    0  0.60466077147E+03 -0.88662847452E+01  0.34664356463E+03  0.69703416943E+03  0.12699999809E+01 0. -1.
       -4    1    3    3    0  502 -0.60466077147E+03  0.88662847452E+01 -0.57648166108E+03  0.83547948988E+03  0.12699999809E+01 0.  1.
</event>
<event>
 5   0  0.7634227E-04  0.1496222E+04  0.7818609E-02  0.8886969E-01
        2   -1    0    0  501    0  0.00000000000E+00  0.00000000000E+00  0.88314625734E+03  0.88314625734E+03  0.25500000920E-02 0. -1.
       -2   -1    0    0    0  501  0.00000000000E+00  0.00000000000E+00 -0.63372288109E+03  0.63372288109E+03  0.25500000920E-02 0.  1.
    10030    2    1    2    0    0  0.00000000000E+00  0.00000000000E+00  0.24942337625E+03  0.15168691384E+04  0.14962218961E+04 0.  0.
        2    1    3    3  502    0 -0.39016673911E+03 -0.51602988209E+03 -0.25617629327E+03  0.69580400743E+03  0.25500000920E-02 0. -1.
       -2    1    3    3    0  502  0.39016673911E+03  0.51602988209E+03  0.50559966952E+03  0.82106513100E+03  0.25500000920E-02 0.  1.
</event>
<event>
 5   0  0.3907345E-04  0.1508409E+04  0.7818609E-02  0.8878880E-01
       -1   -1    0    0    0  501  0.00000000000E+00  0.00000000000E+00  0.16005739402E+04  0.16005739402E+04  0.50400001928E-02 0. -1.
        1   -1    0    0  501    0  0.00000000000E+00  0.00000000000E+00 -0.35538785739E+03  0.35538785742E+03  0.50400001928E-02 0.  1.
    10030    2    1    2    0    0  0.00000000000E+00  0.00000000000E+00  0.12451860828E+04  0.19559617976E+04  0.15084091530E+04 0.  0.
        5    1    3    3  502    0  0.53686593170E+03  0.50851741215E+03  0.43031539337E+03  0.85557490312E+03  0.46999998093E+01 0.  1.
       -5    1    3    3    0  502 -0.53686593170E+03 -0.50851741215E+03  0.81487068941E+03  0.11003868945E+04  0.46999998093E+01 0. -1.
</event>
<event>
 5   0  0.3907345E-04  0.1497396E+04  0.7818609E-02  0.8886186E-01
        1   -1    0    0  501    0  0.00000000000E+00  0.00000000000E+00  0.15589031202E+04  0.15589031202E+04  0.50400001928E-02 0. -1.
       -1   -1    0    0    0  501  0.00000000000E+00  0.00000000000E+00 -0.35957891843E+03  0.35957891847E+03  0.50400001928E-02 0.  1.
    10030    2    1    2    0    0  0.00000000000E+00  0.00000000000E+00  0.11993242018E+04  0.19184820387E+04  0.14973960037E+04 0.  0.
        5    1    3    3  502    0 -0.29088445302E+02  0.73768303839E+03  0.44013083135E+03  0.85951128060E+03  0.46999998093E+01 0.  1.
       -5    1    3    3    0  502  0.29088445302E+02 -0.73768303839E+03  0.75919337042E+03  0.10589707581E+04  0.46999998093E+01 0. -1.
</event>
<event>
 5   0  0.4086710E-04  0.1547845E+04  0.7818609E-02  0.8853246E-01
       -1   -1    0    0    0  501  0.00000000000E+00  0.00000000000E+00  0.55975651661E+03  0.55975651663E+03  0.50400001928E-02 0. -1.
        1   -1    0    0  501    0  0.00000000000E+00  0.00000000000E+00 -0.10700291008E+04  0.10700291008E+04  0.50400001928E-02 0.  1.
    10030    2    1    2    0    0  0.00000000000E+00  0.00000000000E+00 -0.51027258417E+03  0.16297856174E+04  0.15478446461E+04 0.  0.
        3    1    3    3  502    0 -0.18684751552E+03  0.64217650746E+03 -0.66517867157E+03  0.94327373339E+03  0.10100000352E+00 0.  1.
       -3    1    3    3    0  502  0.18684751552E+03 -0.64217650746E+03  0.15490608740E+03  0.68651188402E+03  0.10100000352E+00 0. -1.
</event>
<event>
 5   0  0.4015204E-04  0.1504137E+04  0.7818609E-02  0.8881706E-01
       -1   -1    0    0    0  501  0.00000000000E+00  0.00000000000E+00  0.13261987956E+04  0.13261987956E+04  0.50400001928E-02 0.  1.
        1   -1    0    0  501    0  0.00000000000E+00  0.00000000000E+00 -0.42648758571E+03  0.42648758574E+03  0.50400001928E-02 0. -1.
    10030    2    1    2    0    0  0.00000000000E+00  0.00000000000E+00  0.89971120989E+03  0.17526863813E+04  0.15041373907E+04 0.  0.
        2    1    3    3  502    0  0.54396770584E+03 -0.20646892505E+03  0.10051244637E+04  0.11613808460E+04  0.25500000920E-02 0.  1.
       -2    1    3    3    0  502 -0.54396770584E+03  0.20646892505E+03 -0.10541325381E+03  0.59130553531E+03  0.25500000920E-02 0. -1.
</event>
<event>
 5   0  0.7672251E-04  0.1512457E+04  0.7818609E-02  0.8876211E-01
       -2   -1    0    0    0  501  0.00000000000E+00  0.00000000000E+00  0.71884110223E+03  0.71884110224E+03  0.25500000920E-02 0.  1.
        2   -1    0    0  501    0  0.00000000000E+00  0.00000000000E+00 -0.79556058406E+03  0.79556058406E+03  0.25500000920E-02 0. -1.
    10030    2    1    2    0    0  0.00000000000E+00  0.00000000000E+00 -0.76719481826E+02  0.15144016863E+04  0.15124571361E+04 0.  0.
        5    1    3    3  502    0  0.48678587481E+02  0.19482213611E+03  0.69164158938E+03  0.72021902762E+03  0.46999998093E+01 0.  1.
       -5    1    3    3    0  502 -0.48678587481E+02 -0.19482213611E+03 -0.76836107120E+03  0.79418265867E+03  0.46999998093E+01 0. -1.
</event>
<event>
 5   0  0.4058874E-04  0.1497509E+04  0.7818609E-02  0.8886111E-01
       -1   -1    0    0    0  501  0.00000000000E+00  0.00000000000E+00  0.88281334117E+03  0.88281334119E+03  0.50400001928E-02 0. -1.
        1   -1    0    0  501    0  0.00000000000E+00  0.00000000000E+00 -0.63505270697E+03  0.63505270699E+03  0.50400001928E-02 0.  1.
    10030    2    1    2    0    0  0.00000000000E+00  0.00000000000E+00  0.24776063421E+03  0.15178660482E+04  0.14975086004E+04 0.  0.
        4    1    3    3  502    0 -0.14117040075E+03  0.31588630732E+03 -0.54916314315E+03  0.64907242423E+03  0.12699999809E+01 0.  1.
       -4    1    3    3    0  502  0.14117040075E+03 -0.31588630732E+03  0.79692377736E+03  0.86879362395E+03  0.12699999809E+01 0. -1.
</event>
<event>
 5   0  0.3907345E-04  0.1507848E+04  0.7818609E-02  0.8879251E-01
        1   -1    0    0  501    0  0.00000000000E+00  0.00000000000E+00  0.11285686055E+04  0.11285686055E+04  0.50400001928E-02 0. -1.
       -1   -1    0    0    0  501  0.00000000000E+00  0.00000000000E+00 -0.50364825763E+03  0.50364825765E+03  0.50400001928E-02 0.  1.
    10030    2    1    2    0    0  0.00000000000E+00  0.00000000000E+00  0.62492034785E+03  0.16322168631E+04  0.15078482839E+04 0.  0.
        5    1    3    3  502    0 -0.44671126235E+03 -0.19433192778E+02 -0.34460740321E+03  0.56453959404E+03  0.46999998093E+01 0.  1.
       -5    1    3    3    0  502  0.44671126235E+03  0.19433192778E+02  0.96952775106E+03  0.10676772691E+04  0.46999998093E+01 0. -1.
</event>
<event>
 5   0  0.7634227E-04  0.1485982E+04  0.7818609E-02  0.8893828E-01
        2   -1    0    0  501    0  0.00000000000E+00  0.00000000000E+00  0.55033406298E+03  0.55033406298E+03  0.25500000920E-02 0. -1.
       -2   -1    0    0    0  501  0.00000000000E+00  0.00000000000E+00 -0.10030922061E+04  0.10030922061E+04  0.25500000920E-02 0.  1.
    10030    2    1    2    0    0  0.00000000000E+00  0.00000000000E+00 -0.45275814308E+03  0.15534262690E+04  0.14859822466E+04 0.  0.
        2    1    3    3  502    0  0.33361679620E+03 -0.55424180675E+03  0.15565462706E+03  0.66536644790E+03  0.25500000920E-02 0. -1.
       -2    1    3    3    0  502 -0.33361679620E+03  0.55424180675E+03 -0.60841277014E+03  0.88805982115E+03  0.25500000920E-02 0.  1.
</event>
<event>
 5   0  0.4015204E-04  0.1515213E+04  0.7818609E-02  0.8874399E-01
        1   -1    0    0  501    0  0.00000000000E+00  0.00000000000E+00  0.83227794071E+03  0.83227794072E+03  0.50400001928E-02 0.  1.
       -1   -1    0    0    0  501  0.00000000000E+00  0.00000000000E+00 -0.68963493086E+03  0.68963493088E+03  0.50400001928E-02 0. -1.
    10030    2    1    2    0    0  0.00000000000E+00  0.00000000000E+00  0.14264300985E+03  0.15219128716E+04  0.15152134373E+04 0.  0.
        2    1    3    3  502    0  0.83364278683E+02  0.74434973793E+03  0.18567480846E+03  0.77167432886E+03  0.25500000920E-02 0. -1.
       -2    1    3    3    0  502 -0.83364278683E+02 -0.74434973793E+03 -0.43031798609E+02  0.75023854274E+03  0.25500000920E-02 0.  1.
</event>
<event>
 5   0  0.7672251E-04  0.1493775E+04  0.7818609E-02  0.8888603E-01
       -2   -1    0    0    0  501  0.00000000000E+00  0.00000000000E+00  0.37989141352E+03  0.37989141353E+03  0.25500000920E-02 0.  1.
        2   -1    0    0  501    0  0.00000000000E+00  0.00000000000E+00 -0.14684217522E+04  0.14684217522E+04  0.25500000920E-02 0. -1.
    10030    2    1    2    0    0  0.00000000000E+00  0.00000000000E+00 -0.10885303387E+04  0.18483131657E+04  0.14937748359E+04 0.  0.
        5    1    3    3  502    0 -0.37614274046E+03  0.45338752237E+03 -0.11123328599E+04  0.12587096916E+04  0.46999998093E+01 0. -1.
       -5    1    3    3    0  502  0.37614274046E+03 -0.45338752237E+03  0.23802521216E+02  0.58960347409E+03  0.46999998093E+01 0.  1.
</event>
<event>
 5   0  0.4084462E-04  0.1486918E+04  0.7818609E-02  0.8893200E-01
       -1   -1    0    0    0  501  0.00000000000E+00  0.00000000000E+00  0.85519070568E+03  0.85519070569E+03  0.50400001928E-02 0.  1.
        1   -1    0    0  501    0  0.00000000000E+00  0.00000000000E+00 -0.64632476494E+03  0.64632476496E+03  0.50400001928E-02 0. -1.
    10030    2    1    2    0    0  0.00000000000E+00  0.00000000000E+00  0.20886594074E+03  0.15015154707E+04  0.14869175254E+04 0.  0.
        1    1    3    3  502    0  0.58617801600E+03 -0.28086184413E+03  0.46886785578E+03  0.80145187513E+03  0.50400001928E-02 0.  1.
       -1    1    3    3    0  502 -0.58617801600E+03  0.28086184413E+03 -0.26000191504E+03  0.70006359553E+03  0.50400001928E-02 0. -1.
</event>
<event>
 5   0  0.7454828E-04  0.1491695E+04  0.7818609E-02  0.8889995E-01
        2   -1    0    0  501    0  0.00000000000E+00  0.00000000000E+00  0.67163217927E+03  0.67163217928E+03  0.25500000920E-02 0. -1.
       -2   -1    0    0    0  501  0.00000000000E+00  0.00000000000E+00 -0.82826320034E+03  0.82826320035E+03  0.25500000920E-02 0.  1.
    10030    2    1    2    0    0  0.00000000000E+00  0.00000000000E+00 -0.15663102107E+03  0.14998953796E+04  0.14916946313E+04 0.  0.
        3    1    3    3  502    0  0.71685628482E+03  0.18561101964E+03  0.11359004993E+02  0.74058316271E+03  0.10100000352E+00 0. -1.
       -3    1    3    3    0  502 -0.71685628482E+03 -0.18561101964E+03 -0.16799002606E+03  0.75931221691E+03  0.10100000352E+00 0.  1.
</event>
<event>
 5   0  0.7672251E-04  0.1502108E+04  0.7818609E-02  0.8883052E-01
       -2   -1    0    0    0  501  0.00000000000E+00  0.00000000000E+00  0.83862615649E+03  0.83862615649E+03  0.25500000920E-02 0.  1.
        2   -1    0    0  501    0  0.00000000000E+00  0.00000000000E+00 -0.67262677502E+03  0.67262677502E+03  0.25500000920E-02 0. -1.
    10030    2    1    2    0    0  0.00000000000E+00  0.00000000000E+00  0.16599938147E+03  0.15112529315E+04  0.15021083943E+04 0.  0.
        5    1    3    3  502    0  0.43643743101E+03  0.61119424883E+03  0.78042617357E+02  0.75508196980E+03  0.46999998093E+01 0. -1.
       -5    1    3    3    0  502 -0.43643743101E+03 -0.61119424883E+03  0.87956764115E+02  0.75617096172E+03  0.46999998093E+01 0.  1.
</event>
<event>
 5   0  0.4084462E-04  0.1494303E+04  0.7818609E-02  0.8888250E-01
       -1   -1    0    0    0  501  0.00000000000E+00  0.00000000000E+00  0.42640787683E+03  0.42640787686E+03  0.50400001928E-02 0. -1.
        1   -1    0    0  501    0  0.00000000000E+00  0.00000000000E+00 -0.13091587836E+04  0.13091587836E+04  0.50400001928E-02 0.  1.
    10030    2    1    2    0    0  0.00000000000E+00  0.00000000000E+00 -0.88275090674E+03  0.17355666604E+04  0.14943033392E+04 0.  0.
        1    1    3    3  502    0  0.60498323534E+03 -0.23770929768E+03 -0.86926607165E+03  0.10854187803E+04  0.50400001928E-02 0.  1.
       -1    1    3    3    0  502 -0.60498323534E+03  0.23770929768E+03 -0.13484835088E+02  0.65014788014E+03  0.50400001928E-02 0. -1.
</event>
<event>
 5   0  0.7634227E-04  0.1500138E+04  0.7818609E-02  0.8884361E-01
       -2   -1    0    0    0  501  0.00000000000E+00  0.00000000000E+00  0.67270370122E+03  0.67270370123E+03  0.25500000920E-02 0. -1.
        2   -1    0    0  501    0  0.00000000000E+00  0.00000000000E+00 -0.83633155587E+03  0.83633155587E+03  0.25500000920E-02 0.  1.
    10030    2    1    2    0    0  0.00000000000E+00  0.00000000000E+00 -0.16362785465E+03  0.15090352571E+04  0.15001377711E+04 0.  0.
        2    1    3    3  502    0 -0.14241243838E+03 -0.45536657371E+02 -0.82118933730E+03  0.83468965339E+03  0.25500000920E-02 0.  1.
       -2    1    3    3    0  502  0.14241243838E+03  0.45536657371E+02  0.65756148266E+03  0.67434560371E+03  0.25500000920E-02 0. -1.
</event>
<event>
 5   0  0.7672251E-04  0.1492317E+04  0.7818609E-02  0.8889578E-01
        2   -1    0    0  501    0  0.00000000000E+00  0.00000000000E+00  0.12831153309E+04  0.12831153309E+04  0.25500000920E-02 0. -1.
       -2   -1    0    0    0  501  0.00000000000E+00  0.00000000000E+00 -0.43390665054E+03  0.43390665054E+03  0.25500000920E-02 0.  1.
    10030    2    1    2    0    0  0.00000000000E+00  0.00000000000E+00  0.84920868038E+03  0.17170219815E+04  0.14923166896E+04 0.  0.
        5    1    3    3  502    0 -0.66871580969E+03  0.18186705396E+03  0.10642572703E+03  0.70114548049E+03  0.46999998093E+01 0.  1.
       -5    1    3    3    0  502  0.66871580969E+03 -0.18186705396E+03  0.74278295335E+03  0.10158765010E+04  0.46999998093E+01 0. -1.
</event>
<event>
 5   0  0.4015204E-04  0.1506392E+04  0.7818609E-02  0.8880214E-01
       -1   -1    0    0    0  501  0.00000000000E+00  0.00000000000E+00  0.70852096338E+03  0.70852096340E+03  0.50400001928E-02 0. -1.
        1   -1    0    0  501    0  0.00000000000E+00  0.00000000000E+00 -0.80068771050E+03  0.80068771051E+03  0.50400001928E-02 0.  1.
    10030    2    1    2    0    0  0.00000000000E+00  0.00000000000E+00 -0.92166747112E+02  0.15092086739E+04  0.15063917525E+04 0.  0.
        2    1    3    3  502    0  0.20737155233E+03  0.12507444694E+03  0.66845255032E+03  0.71096792475E+03  0.25500000920E-02 0. -1.
       -2    1    3    3    0  502 -0.20737155233E+03 -0.12507444694E+03 -0.76061929743E+03  0.79824074916E+03  0.25500000920E-02 0.  1.
</event>
<event>
 5   0  0.7672251E-04  0.1499745E+04  0.7818609E-02  0.8884622E-01
        2   -1    0    0  501    0  0.00000000000E+00  0.00000000000E+00  0.32273786936E+03  0.32273786937E+03  0.25500000920E-02 0. -1.
       -2   -1    0    0    0  501  0.00000000000E+00  0.00000000000E+00 -0.17423089384E+04  0.17423089384E+04  0.25500000920E-02 0.  1.
    10030    2    1    2    0    0  0.00000000000E+00  0.00000000000E+00 -0.14195710690E+04  0.20650468077E+04  0.14997454111E+04 0.  0.
        5    1    3    3  502    0  0.49795195690E+03  0.43876575954E+03 -0.22920792811E+03  0.70216088429E+03  0.46999998093E+01 0.  1.
       -5    1    3    3    0  502 -0.49795195690E+03 -0.43876575954E+03 -0.11903631409E+04  0.13628859234E+04  0.46999998093E+01 0. -1.
</event>
<event>
 5   0  0.4058874E-04  0.1514766E+04  0.7818609E-02  0.8874693E-01
       -1   -1    0    0    0  501  0.00000000000E+00  0.00000000000E+00  0.45211963344E+03  0.45211963347E+03  0.50400001928E-02 0. -1.
        1   -1    0    0  501    0  0.00000000000E+00  0.00000000000E+00 -0.12687543546E+04  0.12687543546E+04  0.50400001928E-02 0.  1.
    10030    2    1    2    0    0  0.00000000000E+00  0.00000000000E+00 -0.81663472112E+03  0.17208739880E+04  0.15147656634E+04 0.  0.
        4    1    3    3  502    0 -0.63055362763E+03 -0.38164244129E+03 -0.21030813436E+03  0.76647240954E+03  0.12699999809E+01 0. -1.
       -4    1    3    3    0  502  0.63055362763E+03  0.38164244129E+03 -0.60632658675E+03  0.95440157849E+03  0.12699999809E+01 0.  1.
</event>
<event>
 5   0  0.3907345E-04  0.1505215E+04  0.7818609E-02  0.8880993E-01
        1   -1    0    0  501    0  0.00000000000E+00  0.00000000000E+00  0.12108541175E+04  0.12108541175E+04  0.50400001928E-02 0.  1.
       -1   -1    0    0    0  501  0.00000000000E+00  0.00000000000E+00 -0.46778374901E+03  0.46778374903E+03  0.50400001928E-02 0. -1.
    10030    2    1    2    0    0  0.00000000000E+00  0.00000000000E+00  0.74307036850E+03  0.16786378666E+04  0.15052147735E+04 0.  0.
        5    1    3    3  502    0 -0.30772702287E+03 -0.32503055927E+03  0.10462678206E+04  0.11379979031E+04  0.46999998093E+01 0.  1.
       -5    1    3    3    0  502  0.30772702287E+03  0.32503055927E+03 -0.30319745213E+03  0.54063996341E+03  0.46999998093E+01 0. -1.
</event>
<event>
 5   0  0.3907345E-04  0.1502491E+04  0.7818609E-02  0.8882798E-01
       -1   -1    0    0    0  501  0.00000000000E+00  0.00000000000E+00  0.61147329792E+03  0.61147329794E+03  0.50400001928E-02 0. -1.
        1   -1    0    0  501    0  0.00000000000E+00  0.00000000000E+00 -0.92296722397E+03  0.92296722398E+03  0.50400001928E-02 0.  1.
    10030    2    1    2    0    0  0.00000000000E+00  0.00000000000E+00 -0.31149392605E+03  0.15344405219E+04  0.15024910147E+04 0.  0.
        5    1    3    3  502    0 -0.39185868879E+03 -0.61675369096E+03  0.22344016625E+02  0.73106750193E+03  0.46999998093E+01 0.  1.
       -5    1    3    3    0  502  0.39185868879E+03  0.61675369096E+03 -0.33383794267E+03  0.80337302000E+03  0.46999998093E+01 0. -1.
</event>
<event>
 5   0  0.2800375E-04  0.1532999E+04  0.7818609E-02  0.8862801E-01
        3   -1    0    0  501    0  0.00000000000E+00  0.00000000000E+00  0.60170564589E+03  0.60170565437E+03  0.10100000352E+00 0. -1.
       -3   -1    0    0    0  501  0.00000000000E+00  0.00000000000E+00 -0.97642705238E+03  0.97642705761E+03  0.10100000352E+00 0.  1.
    10030    2    1    2    0    0  0.00000000000E+00  0.00000000000E+00 -0.37472140649E+03  0.15781327120E+04  0.15329992577E+04 0.  0.
        4    1    3    3  502    0  0.15128149000E+03 -0.34521056016E+03 -0.87444134434E+03  0.95221095229E+03  0.12699999809E+01 0.  1.
       -4    1    3    3    0  502 -0.15128149000E+03  0.34521056016E+03  0.49971993785E+03  0.62592175968E+03  0.12699999809E+01 0. -1.
</event>
<event>
 5   0  0.7454828E-04  0.1502629E+04  0.7818609E-02  0.8882707E-01
       -2   -1    0    0    0  501  0.00000000000E+00  0.00000000000E+00  0.31998770272E+03  0.31998770273E+03  0.25500000920E-02 0. -1.
        2   -1    0    0  501    0  0.00000000000E+00  0.00000000000E+00 -0.17640472242E+04  0.17640472242E+04  0.25500000920E-02 0.  1.
    10030    2    1    2    0    0  0.00000000000E+00  0.00000000000E+00 -0.14440595215E+04  0.20840349269E+04  0.15026289213E+04 0.  0.
        3    1    3    3  502    0  0.24139980784E+03  0.33880304533E+03  0.14567172034E+03  0.44077390015E+03  0.10100000352E+00 0. -1.
       -3    1    3    3    0  502 -0.24139980784E+03 -0.33880304533E+03 -0.15897312418E+04  0.16432610268E+04  0.10100000352E+00 0.  1.
</event>
<event>
 5   0  0.3907345E-04  0.1507482E+04  0.7818609E-02  0.8879493E-01
       -1   -1    0    0    0  501  0.00000000000E+00  0.00000000000E+00  0.24268930041E+03  0.24268930047E+03  0.50400001928E-02 0. -1.
        1   -1    0    0  501    0  0.00000000000E+00  0.00000000000E+00 -0.23409580598E+04  0.23409580598E+04  0.50400001928E-02 0.  1.
    10030    2    1    2    0    0  0.00000000000E+00  0.00000000000E+00 -0.20982687594E+04  0.25836473602E+04  0.15074819719E+04 0.  0.
        5    1    3    3  502    0 -0.68900276144E+03 -0.28264736576E+03 -0.12481887494E+04  0.14534825705E+04  0.46999998093E+01 0.  1.
       -5    1    3    3    0  502  0.68900276144E+03  0.28264736576E+03 -0.85008000999E+03  0.11301647898E+04  0.46999998093E+01 0. -1.
</event>
<event>
 5   0  0.3907345E-04  0.1422683E+04  0.7818609E-02  0.8937561E-01
        1   -1    0    0  501    0  0.00000000000E+00  0.00000000000E+00  0.22095832735E+03  0.22095832741E+03  0.50400001928E-02 0.  1.
       -1   -1    0    0    0  501  0.00000000000E+00  0.00000000000E+00 -0.22900537841E+04  0.22900537841E+04  0.50400001928E-02 0. -1.
    10030    2    1    2    0    0  0.00000000000E+00  0.00000000000E+00 -0.20690954567E+04  0.25110121115E+04  0.14226826122E+04 0.  0.
        5    1    3    3  502    0 -0.34449061590E+03 -0.52342415964E+03 -0.16287414188E+04  0.17451267388E+04  0.46999998093E+01 0. -1.
       -5    1    3    3    0  502  0.34449061590E+03  0.52342415964E+03 -0.44035403795E+03  0.76588537267E+03  0.46999998093E+01 0.  1.
</event>
<event>
 5   0  0.7454828E-04  0.1541678E+04  0.7818609E-02  0.8857201E-01
       -2   -1    0    0    0  501  0.00000000000E+00  0.00000000000E+00  0.37325074590E+03  0.37325074591E+03  0.25500000920E-02 0. -1.
        2   -1    0    0  501    0  0.00000000000E+00  0.00000000000E+00 -0.15919399527E+04  0.15919399527E+04  0.25500000920E-02 0.  1.
    10030    2    1    2    0    0  0.00000000000E+00  0.00000000000E+00 -0.12186892068E+04  0.19651906986E+04  0.15416780141E+04 0.  0.
        3    1    3    3  502    0 -0.54238240672E+03  0.42183767537E+03 -0.16398556319E+03  0.70641133528E+03  0.10100000352E+00 0. -1.
       -3    1    3    3    0  502  0.54238240672E+03 -0.42183767537E+03 -0.10547036436E+04  0.12587793633E+04  0.10100000352E+00 0.  1.
</event>
<event>
 5   0  0.7359897E-04  0.1475179E+04  0.7818609E-02  0.8901129E-01
       -2   -1    0    0    0  501  0.00000000000E+00  0.00000000000E+00  0.51272135048E+03  0.51272135049E+03  0.25500000920E-02 0.  1.
        2   -1    0    0  501    0  0.00000000000E+00  0.00000000000E+00 -0.10610791551E+04  0.10610791551E+04  0.25500000920E-02 0. -1.
    10030    2    1    2    0    0  0.00000000000E+00  0.00000000000E+00 -0.54835780464E+03  0.15738005056E+04  0.14751785484E+04 0.  0.
        1    1    3    3  502    0  0.99570089140E+02 -0.43143058553E+03  0.35516689753E+03  0.56761789781E+03  0.50400001928E-02 0.  1.
       -1    1    3    3    0  502 -0.99570089140E+02  0.43143058553E+03 -0.90352470216E+03  0.10061826078E+04  0.50400001928E-02 0. -1.
</event>
<event>
 5   0  0.7547580E-04  0.1508677E+04  0.7818609E-02  0.8878703E-01
        2   -1    0    0  501    0  0.00000000000E+00  0.00000000000E+00  0.15195309345E+04  0.15195309345E+04  0.25500000920E-02 0. -1.
       -2   -1    0    0    0  501  0.00000000000E+00  0.00000000000E+00 -0.37447495962E+03  0.37447495963E+03  0.25500000920E-02 0.  1.
    10030    2    1    2    0    0  0.00000000000E+00  0.00000000000E+00  0.11450559749E+04  0.18940058942E+04  0.15086766192E+04 0.  0.
        4    1    3    3  502    0 -0.20866481999E+03  0.34840027110E+03 -0.22552197957E+03  0.46452721359E+03  0.12699999809E+01 0.  1.
       -4    1    3    3    0  502  0.20866481999E+03 -0.34840027110E+03  0.13705779545E+04  0.14294786806E+04  0.12699999809E+01 0. -1.
</event>
<event>
 5   0  0.4015204E-04  0.1469775E+04  0.7818609E-02  0.8904805E-01
        1   -1    0    0  501    0  0.00000000000E+00  0.00000000000E+00  0.10059611955E+04  0.10059611956E+04  0.50400001928E-02 0.  1.
       -1   -1    0    0    0  501  0.00000000000E+00  0.00000000000E+00 -0.53685929867E+03  0.53685929870E+03  0.50400001928E-02 0. -1.
    10030    2    1    2    0    0  0.00000000000E+00  0.00000000000E+00  0.46910189687E+03  0.15428204942E+04  0.14697749786E+04 0.  0.
        2    1    3    3  502    0  0.72260858428E+03 -0.11381839509E+03  0.16075909851E+03  0.74897348478E+03  0.25500000920E-02 0.  1.
       -2    1    3    3    0  502 -0.72260858428E+03  0.11381839509E+03  0.30834279836E+03  0.79384700947E+03  0.25500000920E-02 0. -1.
</event>
<event>
 5   0  0.7672251E-04  0.1483936E+04  0.7818609E-02  0.8895206E-01
       -2   -1    0    0    0  501  0.00000000000E+00  0.00000000000E+00  0.43896516200E+03  0.43896516201E+03  0.25500000920E-02 0.  1.
        2   -1    0    0  501    0  0.00000000000E+00  0.00000000000E+00 -0.12541232325E+04  0.12541232325E+04  0.25500000920E-02 0. -1.
    10030    2    1    2    0    0  0.00000000000E+00  0.00000000000E+00 -0.81515807054E+03  0.16930883946E+04  0.14839358584E+04 0.  0.
        5    1    3    3  502    0 -0.44335742053E+03 -0.16335825163E+03  0.24509963317E+03  0.53230408686E+03  0.46999998093E+01 0.  1.
       -5    1    3    3    0  502  0.44335742053E+03  0.16335825163E+03 -0.10602577037E+04  0.11607843077E+04  0.46999998093E+01 0. -1.
</event>
<event>
 5   0  0.4058874E-04  0.1487705E+04  0.7818609E-02  0.8892671E-01
        1   -1    0    0  501    0  0.00000000000E+00  0.00000000000E+00  0.54637327376E+03  0.54637327378E+03  0.50400001928E-02 0.  1.
       -1   -1    0    0    0  501  0.00000000000E+00  0.00000000000E+00 -0.10127072641E+04  0.10127072641E+04  0.50400001928E-02 0. -1.
    10030    2    1    2    0    0  0.00000000000E+00  0.00000000000E+00 -0.46633399036E+03  0.15590805379E+04  0.14877045181E+04 0.  0.
        4    1    3    3  502    0  0.59477091772E+03  0.42583846124E+03 -0.37463900174E+03  0.82185572588E+03  0.12699999809E+01 0.  1.
       -4    1    3    3    0  502 -0.59477091772E+03 -0.42583846124E+03 -0.91694988620E+02  0.73722481203E+03  0.12699999809E+01 0. -1.
</event>
<event>
 5   0  0.7359897E-04  0.1476420E+04  0.7818609E-02  0.8900286E-01
        2   -1    0    0  501    0  0.00000000000E+00  0.00000000000E+00  0.12841033183E+04  0.12841033183E+04  0.25500000920E-02 0.  1.
       -2   -1    0    0    0  501  0.00000000000E+00  0.00000000000E+00 -0.42438506399E+03  0.42438506399E+03  0.25500000920E-02 0. -1.
    10030    2    1    2    0    0  0.00000000000E+00  0.00000000000E+00  0.85971825428E+03  0.17084883823E+04  0.14764203587E+04 0.  0.
        1    1    3    3  502    0  0.57264494466E+03 -0.22451643093E+03  0.90221717065E+03  0.10919366664E+04  0.50400001928E-02 0. -1.
       -1    1    3    3    0  502 -0.57264494466E+03  0.22451643093E+03 -0.42498916376E+02  0.61655171585E+03  0.50400001928E-02 0.  1.
</event>
<event>
 5   0  0.7672251E-04  0.1491235E+04  0.7818609E-02  0.8890302E-01
       -2   -1    0    0    0  501  0.00000000000E+00  0.00000000000E+00  0.40984549193E+03  0.40984549194E+03  0.25500000920E-02 0. -1.
        2   -1    0    0  501    0  0.00000000000E+00  0.00000000000E+00 -0.13564761629E+04  0.13564761629E+04  0.25500000920E-02 0.  1.
    10030    2    1    2    0    0  0.00000000000E+00  0.00000000000E+00 -0.94663067092E+03  0.17663216548E+04  0.14912352467E+04 0.  0.
        5    1    3    3  502    0  0.16284650666E+03  0.76466028971E+02  0.38373401647E+03  0.42383950230E+03  0.46999998093E+01 0. -1.
       -5    1    3    3    0  502 -0.16284650666E+03 -0.76466028971E+02 -0.13303646874E+04  0.13424821525E+04  0.46999998093E+01 0.  1.
</event>
<event>
 5   0  0.7634227E-04  0.1508315E+04  0.7818609E-02  0.8878943E-01
        2   -1    0    0  501    0  0.00000000000E+00  0.00000000000E+00  0.20428160582E+04  0.20428160582E+04  0.25500000920E-02 0.  1.
       -2   -1    0    0    0  501  0.00000000000E+00  0.00000000000E+00 -0.27841625199E+03  0.27841625200E+03  0.25500000920E-02 0. -1.
    10030    2    1    2    0    0  0.00000000000E+00  0.00000000000E+00  0.17643998062E+04  0.23212323102E+04  0.15083145434E+04 0.  0.
        2    1    3    3  502    0 -0.39612293153E+03 -0.11970582151E+03  0.18524884339E+04  0.18981454787E+04  0.25500000920E-02 0.  1.
       -2    1    3    3    0  502  0.39612293153E+03  0.11970582151E+03 -0.88088627755E+02  0.42308683144E+03  0.25500000920E-02 0. -1.
</event>
<event>
 5   0  0.4084462E-04  0.1511182E+04  0.7818609E-02  0.8877051E-01
        1   -1    0    0  501    0  0.00000000000E+00  0.00000000000E+00  0.83447902773E+03  0.83447902774E+03  0.50400001928E-02 0.  1.
       -1   -1    0    0    0  501  0.00000000000E+00  0.00000000000E+00 -0.68416096072E+03  0.68416096074E+03  0.50400001928E-02 0. -1.
    10030    2    1    2    0    0  0.00000000000E+00  0.00000000000E+00  0.15031806701E+03  0.15186399885E+04  0.15111822833E+04 0.  0.
        1    1    3    3  502    0  0.56453703065E+03  0.26399429738E+03 -0.35417635610E+03  0.71682350636E+03  0.50400001928E-02 0. -1.
       -1    1    3    3    0  502 -0.56453703065E+03 -0.26399429738E+03  0.50449442311E+03  0.80181648212E+03  0.50400001928E-02 0.  1.
</event>
<event>
 5   0  0.4058874E-04  0.1517121E+04  0.7818609E-02  0.8873147E-01
        1   -1    0    0  501    0  0.00000000000E+00  0.00000000000E+00  0.58103079528E+03  0.58103079530E+03  0.50400001928E-02 0.  1.
       -1   -1    0    0    0  501  0.00000000000E+00  0.00000000000E+00 -0.99033340074E+03  0.99033340075E+03  0.50400001928E-02 0. -1.
    10030    2    1    2    0    0  0.00000000000E+00  0.00000000000E+00 -0.40930260546E+03  0.15713641961E+04  0.15171212258E+04 0.  0.
        4    1    3    3  502    0  0.14906323095E+02  0.18955345958E+03  0.55594747548E+03  0.58756439724E+03  0.12699999809E+01 0.  1.
       -4    1    3    3    0  502 -0.14906323095E+02 -0.18955345958E+03 -0.96525008094E+03  0.98379979882E+03  0.12699999809E+01 0. -1.
</event>
<event>
 5   0  0.7634227E-04  0.1489526E+04  0.7818609E-02  0.8891448E-01
        2   -1    0    0  501    0  0.00000000000E+00  0.00000000000E+00  0.91152589820E+03  0.91152589820E+03  0.25500000920E-02 0. -1.
       -2   -1    0    0    0  501  0.00000000000E+00  0.00000000000E+00 -0.60850929065E+03  0.60850929066E+03  0.25500000920E-02 0.  1.
    10030    2    1    2    0    0  0.00000000000E+00  0.00000000000E+00  0.30301660754E+03  0.15200351889E+04  0.14895260692E+04 0.  0.
        2    1    3    3  502    0  0.28959836830E+03  0.67938858159E+03  0.53436182743E+02  0.74046707242E+03  0.25500000920E-02 0.  1.
       -2    1    3    3    0  502 -0.28959836830E+03 -0.67938858159E+03  0.24958042480E+03  0.77956811643E+03  0.25500000920E-02 0. -1.
</event>
<event>
 5   0  0.7672251E-04  0.1507101E+04  0.7818609E-02  0.8879745E-01
        2   -1    0    0  501    0  0.00000000000E+00  0.00000000000E+00  0.13828296788E+04  0.13828296788E+04  0.25500000920E-02 0.  1.
       -2   -1    0    0    0  501  0.00000000000E+00  0.00000000000E+00 -0.41063481276E+03  0.41063481277E+03  0.25500000920E-02 0. -1.
    10030    2    1    2    0    0  0.00000000000E+00  0.00000000000E+00  0.97219486603E+03  0.17934644916E+04  0.15071005358E+04 0.  0.
        5    1    3    3  502    0  0.15470451060E+03 -0.49321487946E+03  0.11385674912E+04  0.12504208991E+04  0.46999998093E+01 0.  1.
       -5    1    3    3    0  502 -0.15470451060E+03  0.49321487946E+03 -0.16637262515E+03  0.54304359247E+03  0.46999998093E+01 0. -1.
</event>
<event>
 5   0  0.4058874E-04  0.1515329E+04  0.7818609E-02  0.8874323E-01
       -1   -1    0    0    0  501  0.00000000000E+00  0.00000000000E+00  0.23809063707E+03  0.23809063713E+03  0.50400001928E-02 0. -1.
        1   -1    0    0  501    0  0.00000000000E+00  0.00000000000E+00 -0.24110797844E+04  0.24110797844E+04  0.50400001928E-02 0.  1.
    10030    2    1    2    0    0  0.00000000000E+00  0.00000000000E+00 -0.21729891474E+04  0.26491704216E+04  0.15153290362E+04 0.  0.
        4    1    3    3  502    0 -0.24247808104E+03 -0.42153834548E+03 -0.21022305376E+04  0.21577453609E+04  0.12699999809E+01 0.  1.
       -4    1    3    3    0  502  0.24247808104E+03  0.42153834548E+03 -0.70758609802E+02  0.49142506068E+03  0.12699999809E+01 0. -1.
</event>
<event>
 5   0  0.4015204E-04  0.1492381E+04  0.7818609E-02  0.8889535E-01
       -1   -1    0    0    0  501  0.00000000000E+00  0.00000000000E+00  0.11434318669E+04  0.11434318669E+04  0.50400001928E-02 0. -1.
        1   -1    0    0  501    0  0.00000000000E+00  0.00000000000E+00 -0.48695541282E+03  0.48695541285E+03  0.50400001928E-02 0.  1.
    10030    2    1    2    0    0  0.00000000000E+00  0.00000000000E+00  0.65647645408E+03  0.16303872798E+04  0.14923810999E+04 0.  0.
        2    1    3    3  502    0 -0.18341045180E+03  0.56095415335E+03 -0.17059467482E+03  0.61433826112E+03  0.25500000920E-02 0.  1.
       -2    1    3    3    0  502  0.18341045180E+03 -0.56095415335E+03  0.82707112891E+03  0.10160490186E+04  0.25500000920E-02 0. -1.
</event>
<event>
 5   0  0.7547580E-04  0.1504234E+04  0.7818609E-02  0.8881642E-01
        2   -1    0    0  501    0  0.00000000000E+00  0.00000000000E+00  0.69567772852E+03  0.69567772852E+03  0.25500000920E-02 0. -1.
       -2   -1    0    0    0  501  0.00000000000E+00  0.00000000000E+00 -0.81313501904E+03  0.81313501904E+03  0.25500000920E-02 0.  1.
    10030    2    1    2    0    0  0.00000000000E+00  0.00000000000E+00 -0.11745729052E+03  0.15088127476E+04  0.15042339220E+04 0.  0.
        4    1    3    3  502    0 -0.67417139376E+03 -0.32112177521E+03 -0.14873499093E+03  0.76141314219E+03  0.12699999809E+01 0.  1.
       -4    1    3    3    0  502  0.67417139376E+03  0.32112177521E+03  0.31277700408E+02  0.74739960538E+03  0.12699999809E+01 0. -1.
</event>
<event>
 5   0  0.3907345E-04  0.1498154E+04  0.7818609E-02  0.8885682E-01
        1   -1    0    0  501    0  0.00000000000E+00  0.00000000000E+00  0.28100777063E+03  0.28100777068E+03  0.50400001928E-02 0. -1.
       -1   -1    0    0    0  501  0.00000000000E+00  0.00000000000E+00 -0.19967993908E+04  0.19967993908E+04  0.50400001928E-02 0.  1.
    10030    2    1    2    0    0  0.00000000000E+00  0.00000000000E+00 -0.17157916202E+04  0.22778071615E+04  0.14981537241E+04 0.  0.
        5    1    3    3  502    0  0.77874130632E+02  0.89767207575E+02  0.26656140171E+03  0.29188970975E+03  0.46999998093E+01 0. -1.
       -5    1    3    3    0  502 -0.77874130632E+02 -0.89767207575E+02 -0.19823530219E+04  0.19859174517E+04  0.46999998093E+01 0.  1.
</event>
<event>
 5   0  0.7547580E-04  0.1498564E+04  0.7818609E-02  0.8885409E-01
       -2   -1    0    0    0  501  0.00000000000E+00  0.00000000000E+00  0.20265221541E+03  0.20265221543E+03  0.25500000920E-02 0. -1.
        2   -1    0    0  501    0  0.00000000000E+00  0.00000000000E+00 -0.27703784051E+04  0.27703784051E+04  0.25500000920E-02 0.  1.
    10030    2    1    2    0    0  0.00000000000E+00  0.00000000000E+00 -0.25677261897E+04  0.29730306205E+04  0.14985637408E+04 0.  0.
        4    1    3    3  502    0  0.25398842235E+03 -0.41588393248E+03 -0.24130467719E+04  0.24617607318E+04  0.12699999809E+01 0.  1.
       -4    1    3    3    0  502 -0.25398842235E+03  0.41588393248E+03 -0.15467941776E+03  0.51126988877E+03  0.12699999809E+01 0. -1.
</event>
<event>
 5   0  0.7547580E-04  0.1498630E+04  0.7818609E-02  0.8885364E-01
       -2   -1    0    0    0  501  0.00000000000E+00  0.00000000000E+00  0.46315786037E+03  0.46315786038E+03  0.25500000920E-02 0. -1.
        2   -1    0    0  501    0  0.00000000000E+00  0.00000000000E+00 -0.12122713666E+04  0.12122713666E+04  0.25500000920E-02 0.  1.
    10030    2    1    2    0    0  0.00000000000E+00  0.00000000000E+00 -0.74911350625E+03  0.16754292270E+04  0.14986300576E+04 0.  0.
        4    1    3    3  502    0 -0.69664353349E+03  0.27203998146E+03 -0.42643646456E+03  0.86091093353E+03  0.12699999809E+01 0.  1.
       -4    1    3    3    0  502  0.69664353349E+03 -0.27203998146E+03 -0.32267704169E+03  0.81451829347E+03  0.12699999809E+01 0. -1.
</event>
<event>
 5   0  0.7454828E-04  0.1513895E+04  0.7818609E-02  0.8875265E-01
        2   -1    0    0  501    0  0.00000000000E+00  0.00000000000E+00  0.22969317048E+03  0.22969317050E+03  0.25500000920E-02 0.  1.
       -2   -1    0    0    0  501  0.00000000000E+00  0.00000000000E+00 -0.24944995750E+04  0.24944995750E+04  0.25500000920E-02 0. -1.
    10030    2    1    2    0    0  0.00000000000E+00  0.00000000000E+00 -0.22648064045E+04  0.27241927455E+04  0.15138949979E+04 0.  0.
        3    1    3    3  502    0 -0.22928739267E+03  0.41430810464E+03 -0.21950683605E+04  0.22455620747E+04  0.10100000352E+00 0. -1.
       -3    1    3    3    0  502  0.22928739267E+03 -0.41430810464E+03 -0.69738044012E+02  0.47863067076E+03  0.10100000352E+00 0.  1.
</event>
<event>
 5   0  0.4015204E-04  0.1507787E+04  0.7818609E-02  0.8879291E-01
       -1   -1    0    0    0  501  0.00000000000E+00  0.00000000000E+00  0.34774187181E+03  0.34774187184E+03  0.50400001928E-02 0.  1.
        1   -1    0    0  501    0  0.00000000000E+00  0.00000000000E+00 -0.16344167844E+04  0.16344167844E+04  0.50400001928E-02 0. -1.
    10030    2    1    2    0    0  0.00000000000E+00  0.00000000000E+00 -0.12866749126E+04  0.19821586562E+04  0.15077866586E+04 0.  0.
        2    1    3    3  502    0 -0.62881680015E+03 -0.16225941205E+03 -0.11467104275E+04  0.13178328762E+04  0.25500000920E-02 0. -1.
       -2    1    3    3    0  502  0.62881680015E+03  0.16225941205E+03 -0.13996448504E+03  0.66432578004E+03  0.25500000920E-02 0.  1.
</event>
<event>
 5   0  0.4084462E-04  0.1481431E+04  0.7818609E-02  0.8896896E-01
       -1   -1    0    0    0  501  0.00000000000E+00  0.00000000000E+00  0.62050493991E+03  0.62050493993E+03  0.50400001928E-02 0. -1.
        1   -1    0    0  501    0  0.00000000000E+00  0.00000000000E+00 -0.88421388791E+03  0.88421388793E+03  0.50400001928E-02 0.  1.
    10030    2    1    2    0    0  0.00000000000E+00  0.00000000000E+00 -0.26370894800E+03  0.15047188279E+04  0.14814305052E+04 0.  0.
        1    1    3    3  502    0  0.92919891795E+02  0.17242447224E+03 -0.85743335747E+03  0.87952047586E+03  0.50400001928E-02 0.  1.
       -1    1    3    3    0  502 -0.92919891795E+02 -0.17242447224E+03  0.59372440947E+03  0.62519835200E+03  0.50400001928E-02 0. -1.
</event>
<event>
 5   0  0.3907345E-04  0.1493008E+04  0.7818609E-02  0.8889116E-01
       -1   -1    0    0    0  501  0.00000000000E+00  0.00000000000E+00  0.56370029072E+03  0.56370029075E+03  0.50400001928E-02 0. -1.
        1   -1    0    0  501    0  0.00000000000E+00  0.00000000000E+00 -0.98858913655E+03  0.98858913656E+03  0.50400001928E-02 0.  1.
    10030    2    1    2    0    0  0.00000000000E+00  0.00000000000E+00 -0.42488884583E+03  0.15522894273E+04  0.14930076808E+04 0.  0.
        5    1    3    3  502    0 -0.14470012778E+03  0.20577701967E+03 -0.94317641989E+03  0.97615887940E+03  0.46999998093E+01 0.  1.
       -5    1    3    3    0  502  0.14470012778E+03 -0.20577701967E+03  0.51828757406E+03  0.57613054791E+03  0.46999998093E+01 0. -1.
</event>
<event>
 5   0  0.7359897E-04  0.1516180E+04  0.7818609E-02  0.8873764E-01
        2   -1    0    0  501    0  0.00000000000E+00  0.00000000000E+00  0.14258972516E+04  0.14258972516E+04  0.25500000920E-02 0.  1.
       -2   -1    0    0    0  501  0.00000000000E+00  0.00000000000E+00 -0.40304465427E+03  0.40304465428E+03  0.25500000920E-02 0. -1.
    10030    2    1    2    0    0  0.00000000000E+00  0.00000000000E+00  0.10228525973E+04  0.18289419059E+04  0.15161797582E+04 0.  0.
        1    1    3    3  502    0 -0.47615794226E+03 -0.25282207585E+03 -0.13148393899E+03  0.55491748418E+03  0.50400001928E-02 0. -1.
       -1    1    3    3    0  502  0.47615794226E+03  0.25282207585E+03  0.11543365363E+04  0.12740244217E+04  0.50400001928E-02 0.  1.
</event>
<event>
 5   0  0.7672251E-04  0.1561609E+04  0.7818609E-02  0.8844487E-01
       -2   -1    0    0    0  501  0.00000000000E+00  0.00000000000E+00  0.60347006752E+03  0.60347006752E+03  0.25500000920E-02 0.  1.
        2   -1    0    0  501    0  0.00000000000E+00  0.00000000000E+00 -0.10102499119E+04  0.10102499119E+04  0.25500000920E-02 0. -1.
    10030    2    1    2    0    0  0.00000000000E+00  0.00000000000E+00 -0.40677984440E+03  0.16137199794E+04  0.15616088916E+04 0.  0.
        5    1    3    3  502    0 -0.70627590571E+03 -0.81491921644E+02  0.13012923273E+03  0.72278786341E+03  0.46999998093E+01 0. -1.
       -5    1    3    3    0  502  0.70627590571E+03  0.81491921644E+02 -0.53690907713E+03  0.89093211604E+03  0.46999998093E+01 0.  1.
</event>
<event>
 5   0  0.7547580E-04  0.1417299E+04  0.7818609E-02  0.8941391E-01
        2   -1    0    0  501    0  0.00000000000E+00  0.00000000000E+00  0.78030127530E+03  0.78030127531E+03  0.25500000920E-02 0. -1.
       -2   -1    0    0    0  501  0.00000000000E+00  0.00000000000E+00 -0.64357717168E+03  0.64357717169E+03  0.25500000920E-02 0.  1.
    10030    2    1    2    0    0  0.00000000000E+00  0.00000000000E+00  0.13672410362E+03  0.14238784470E+04  0.14172989633E+04 0.  0.
        4    1    3    3  502    0  0.17629452612E+02  0.39497604826E+03 -0.52247147371E+03  0.65520602107E+03  0.12699999809E+01 0.  1.
       -4    1    3    3    0  502 -0.17629452612E+02 -0.39497604826E+03  0.65919557733E+03  0.76867242593E+03  0.12699999809E+01 0. -1.
</event>
<event>
 5   0  0.3907345E-04  0.1473382E+04  0.7818609E-02  0.8902349E-01
       -1   -1    0    0    0  501  0.00000000000E+00  0.00000000000E+00  0.32953281162E+03  0.32953281166E+03  0.50400001928E-02 0. -1.
        1   -1    0    0  501    0  0.00000000000E+00  0.00000000000E+00 -0.16469172744E+04  0.16469172744E+04  0.50400001928E-02 0.  1.
    10030    2    1    2    0    0  0.00000000000E+00  0.00000000000E+00 -0.13173844627E+04  0.19764500860E+04  0.14733815256E+04 0.  0.
        5    1    3    3  502    0  0.26225860133E+03  0.41480525537E+03 -0.13956879038E+04  0.14794626689E+04  0.46999998093E+01 0.  1.
       -5    1    3    3    0  502 -0.26225860133E+03 -0.41480525537E+03  0.78303441102E+02  0.49698741709E+03  0.46999998093E+01 0. -1.
</event>
<event>
 5   0  0.4084462E-04  0.1504140E+04  0.7818609E-02  0.8881704E-01
       -1   -1    0    0    0  501  0.00000000000E+00  0.00000000000E+00  0.26526994609E+03  0.26526994614E+03  0.50400001928E-02 0.  1.
        1   -1    0    0  501    0  0.00000000000E+00  0.00000000000E+00 -0.21322029409E+04  0.21322029409E+04  0.50400001928E-02 0. -1.
    10030    2    1    2    0    0  0.00000000000E+00  0.00000000000E+00 -0.18669329948E+04  0.23974728870E+04  0.15041400988E+04 0.  0.
        1    1    3    3  502    0 -0.16782139537E+03 -0.70934576897E+03 -0.12285516071E+04  0.14285217856E+04  0.50400001928E-02 0. -1.
       -1    1    3    3    0  502  0.16782139537E+03  0.70934576897E+03 -0.63838138771E+03  0.96895110140E+03  0.50400001928E-02 0.  1.
</event>
<event>
 5   0  0.4015204E-04  0.1499600E+04  0.7818609E-02  0.8884719E-01
        1   -1    0    0  501    0  0.00000000000E+00  0.00000000000E+00  0.43599062793E+03  0.43599062796E+03  0.50400001928E-02 0.  1.
       -1   -1    0    0    0  501  0.00000000000E+00  0.00000000000E+00 -0.12894778566E+04  0.12894778566E+04  0.50400001928E-02 0. -1.
    10030    2    1    2    0    0  0.00000000000E+00  0.00000000000E+00 -0.85348722871E+03  0.17254684846E+04  0.14996002940E+04 0.  0.
        2    1    3    3  502    0  0.21122172673E+03  0.18089896756E+03  0.37445508064E+03  0.46642862447E+03  0.25500000920E-02 0.  1.
       -2    1    3    3    0  502 -0.21122172673E+03 -0.18089896756E+03 -0.12279423093E+04  0.12590398601E+04  0.25500000920E-02 0. -1.
</event>
<event>
 5   0  0.4015204E-04  0.1490515E+04  0.7818609E-02  0.8890785E-01
       -1   -1    0    0    0  501  0.00000000000E+00  0.00000000000E+00  0.12554218084E+04  0.12554218084E+04  0.50400001928E-02 0.  1.
        1   -1    0    0  501    0  0.00000000000E+00  0.00000000000E+00 -0.44240830862E+03  0.44240830865E+03  0.50400001928E-02 0. -1.
    10030    2    1    2    0    0  0.00000000000E+00  0.00000000000E+00  0.81301349974E+03  0.16978301170E+04  0.14905153993E+04 0.  0.
        2    1    3    3  502    0 -0.42646924576E+03 -0.14969729107E+03 -0.26846852448E+03  0.52570014759E+03  0.25500000920E-02 0. -1.
       -2    1    3    3    0  502  0.42646924576E+03  0.14969729107E+03  0.10814820242E+04  0.11721299694E+04  0.25500000920E-02 0.  1.
</event>
<event>
 5   0  0.3907345E-04  0.1555597E+04  0.7818609E-02  0.8848301E-01
       -1   -1    0    0    0  501  0.00000000000E+00  0.00000000000E+00  0.85409617358E+03  0.85409617360E+03  0.50400001928E-02 0.  1.
        1   -1    0    0  501    0  0.00000000000E+00  0.00000000000E+00 -0.70831667572E+03  0.70831667574E+03  0.50400001928E-02 0. -1.
    10030    2    1    2    0    0  0.00000000000E+00  0.00000000000E+00  0.14577949786E+03  0.15624128493E+04  0.15555970718E+04 0.  0.
        5    1    3    3  502    0  0.36161680522E+03  0.61194872473E+03 -0.24424759895E+03  0.75161621530E+03  0.46999998093E+01 0. -1.
       -5    1    3    3    0  502 -0.36161680522E+03 -0.61194872473E+03  0.39002709680E+03  0.81079663403E+03  0.46999998093E+01 0.  1.
</event>
<event>
 5   0  0.7359897E-04  0.1514252E+04  0.7818609E-02  0.8875031E-01
       -2   -1    0    0    0  501  0.00000000000E+00  0.00000000000E+00  0.58402020747E+03  0.58402020747E+03  0.25500000920E-02 0.  1.
        2   -1    0    0  501    0  0.00000000000E+00  0.00000000000E+00 -0.98154038508E+03  0.98154038508E+03  0.25500000920E-02 0. -1.
    10030    2    1    2    0    0  0.00000000000E+00  0.00000000000E+00 -0.39752017761E+03  0.15655605926E+04  0.15142515238E+04 0.  0.
        1    1    3    3  502    0  0.64059807718E+03  0.40141979457E+03 -0.24183313721E+03  0.79371721302E+03  0.50400001928E-02 0.  1.
       -1    1    3    3    0  502 -0.64059807718E+03 -0.40141979457E+03 -0.15568704041E+03  0.77184337954E+03  0.50400001928E-02 0. -1.
</event>
<event>
 5   0  0.4015204E-04  0.1500385E+04  0.7818609E-02  0.8884197E-01
        1   -1    0    0  501    0  0.00000000000E+00  0.00000000000E+00  0.10209798248E+04  0.10209798248E+04  0.50400001928E-02 0.  1.
       -1   -1    0    0    0  501  0.00000000000E+00  0.00000000000E+00 -0.55122392654E+03  0.55122392656E+03  0.50400001928E-02 0. -1.
    10030    2    1    2    0    0  0.00000000000E+00  0.00000000000E+00  0.46975589824E+03  0.15722037513E+04  0.15003846280E+04 0.  0.
        2    1    3    3  502    0  0.14280070746E+03  0.25279146051E+03 -0.48996512052E+03  0.56952733375E+03  0.25500000920E-02 0. -1.
       -2    1    3    3    0  502 -0.14280070746E+03 -0.25279146051E+03  0.95972101875E+03  0.10026764176E+04  0.25500000920E-02 0.  1.
</event>
<event>
 5   0  0.4084462E-04  0.1543928E+04  0.7818609E-02  0.8855756E-01
        1   -1    0    0  501    0  0.00000000000E+00  0.00000000000E+00  0.17341718639E+04  0.17341718639E+04  0.50400001928E-02 0. -1.
       -1   -1    0    0    0  501  0.00000000000E+00  0.00000000000E+00 -0.34363855370E+03  0.34363855374E+03  0.50400001928E-02 0.  1.
    10030    2    1    2    0    0  0.00000000000E+00  0.00000000000E+00  0.13905333102E+04  0.20778104177E+04  0.15439278626E+04 0.  0.
        1    1    3    3  502    0 -0.44487579864E+03  0.52548115991E+03  0.11651079331E+04  0.13533371426E+04  0.50400001928E-02 0. -1.
       -1    1    3    3    0  502  0.44487579864E+03 -0.52548115991E+03  0.22542537709E+03  0.72447327508E+03  0.50400001928E-02 0.  1.
</event>
<event>
 5   0  0.7547580E-04  0.1504176E+04  0.7818609E-02  0.8881681E-01
       -2   -1    0    0    0  501  0.00000000000E+00  0.00000000000E+00  0.49444849913E+03  0.49444849913E+03  0.25500000920E-02 0.  1.
        2   -1    0    0  501    0  0.00000000000E+00  0.00000000000E+00 -0.11439735854E+04  0.11439735854E+04  0.25500000920E-02 0. -1.
    10030    2    1    2    0    0  0.00000000000E+00  0.00000000000E+00 -0.64952508631E+03  0.16384220846E+04  0.15041755514E+04 0.  0.
        4    1    3    3  502    0 -0.21869599967E+02 -0.12684194113E+03  0.48236104318E+03  0.49924036928E+03  0.12699999809E+01 0.  1.
       -4    1    3    3    0  502  0.21869599967E+02  0.12684194113E+03 -0.11318861295E+04  0.11391817153E+04  0.12699999809E+01 0. -1.
</event>
<event>
 5   0  0.3907345E-04  0.1489591E+04  0.7818609E-02  0.8891405E-01
       -1   -1    0    0    0  501  0.00000000000E+00  0.00000000000E+00  0.10921968866E+04  0.10921968866E+04  0.50400001928E-02 0. -1.
        1   -1    0    0  501    0  0.00000000000E+00  0.00000000000E+00 -0.50789380676E+03  0.50789380678E+03  0.50400001928E-02 0.  1.
    10030    2    1    2    0    0  0.00000000000E+00  0.00000000000E+00  0.58430307981E+03  0.16000906934E+04  0.14895905941E+04 0.  0.
        5    1    3    3  502    0 -0.13886470881E+03  0.35582321522E+03 -0.39465661987E+03  0.54924448604E+03  0.46999998093E+01 0.  1.
       -5    1    3    3    0  502  0.13886470881E+03 -0.35582321522E+03  0.97895969968E+03  0.10508462073E+04  0.46999998093E+01 0. -1.
</event>
<event>
 5   0  0.3907345E-04  0.1489649E+04  0.7818609E-02  0.8891365E-01
       -1   -1    0    0    0  501  0.00000000000E+00  0.00000000000E+00  0.29907474571E+03  0.29907474575E+03  0.50400001928E-02 0.  1.
        1   -1    0    0  501    0  0.00000000000E+00  0.00000000000E+00 -0.18549331382E+04  0.18549331382E+04  0.50400001928E-02 0. -1.
    10030    2    1    2    0    0  0.00000000000E+00  0.00000000000E+00 -0.15558583925E+04  0.21540078840E+04  0.14896491623E+04 0.  0.
        5    1    3    3  502    0  0.28939916779E+03  0.46179894110E+03 -0.15120152620E+04  0.16072406113E+04  0.46999998093E+01 0. -1.
       -5    1    3    3    0  502 -0.28939916779E+03 -0.46179894110E+03 -0.43843130521E+02  0.54676727262E+03  0.46999998093E+01 0.  1.
</event>
<event>
 5   0  0.4015204E-04  0.1491075E+04  0.7818609E-02  0.8890410E-01
       -1   -1    0    0    0  501  0.00000000000E+00  0.00000000000E+00  0.67269439164E+03  0.67269439166E+03  0.50400001928E-02 0. -1.
        1   -1    0    0  501    0  0.00000000000E+00  0.00000000000E+00 -0.82626877529E+03  0.82626877530E+03  0.50400001928E-02 0.  1.
    10030    2    1    2    0    0  0.00000000000E+00  0.00000000000E+00 -0.15357438365E+03  0.14989631670E+04  0.14910752780E+04 0.  0.
        2    1    3    3  502    0  0.20966321615E+03  0.59888239931E+03 -0.47027521337E+03  0.78979590321E+03  0.25500000920E-02 0.  1.
       -2    1    3    3    0  502 -0.20966321615E+03 -0.59888239931E+03  0.31670082972E+03  0.70916726374E+03  0.25500000920E-02 0. -1.
</event>
<event>
 5   0  0.7359897E-04  0.1583090E+04  0.7818609E-02  0.8831004E-01
       -2   -1    0    0    0  501  0.00000000000E+00  0.00000000000E+00  0.49075018931E+03  0.49075018932E+03  0.25500000920E-02 0.  1.
        2   -1    0    0  501    0  0.00000000000E+00  0.00000000000E+00 -0.12767054688E+04  0.12767054688E+04  0.25500000920E-02 0. -1.
    10030    2    1    2    0    0  0.00000000000E+00  0.00000000000E+00 -0.78595527952E+03  0.17674556582E+04  0.15830899539E+04 0.  0.
        1    1    3    3  502    0 -0.55887716071E+03 -0.32418175735E+03  0.11755808549E+03  0.65670190807E+03  0.50400001928E-02 0.  1.
       -1    1    3    3    0  502  0.55887716071E+03  0.32418175735E+03 -0.90351336501E+03  0.11107537501E+04  0.50400001928E-02 0. -1.
</event>
<event>
 5   0  0.4015204E-04  0.1496574E+04  0.7818609E-02  0.8886735E-01
       -1   -1    0    0    0  501  0.00000000000E+00  0.00000000000E+00  0.55752021553E+03  0.55752021556E+03  0.50400001928E-02 0. -1.
        1   -1    0    0  501    0  0.00000000000E+00  0.00000000000E+00 -0.10043278247E+04  0.10043278247E+04  0.50400001928E-02 0.  1.
    10030    2    1    2    0    0  0.00000000000E+00  0.00000000000E+00 -0.44680760913E+03  0.15618480402E+04  0.14965735068E+04 0.  0.
        2    1    3    3  502    0 -0.24800401257E+03 -0.44511551335E+03 -0.79530084808E+03  0.94453017392E+03  0.25500000920E-02 0.  1.
       -2    1    3    3    0  502  0.24800401257E+03  0.44511551335E+03  0.34849323895E+03  0.61731786632E+03  0.25500000920E-02 0. -1.
</event>
<event>
 5   0  0.7359897E-04  0.1417801E+04  0.7818609E-02  0.8941033E-01
        2   -1    0    0  501    0  0.00000000000E+00  0.00000000000E+00  0.15526155278E+04  0.15526155278E+04  0.25500000920E-02 0.  1.
       -2   -1    0    0    0  501  0.00000000000E+00  0.00000000000E+00 -0.32367319770E+03  0.32367319771E+03  0.25500000920E-02 0. -1.
    10030    2    1    2    0    0  0.00000000000E+00  0.00000000000E+00  0.12289423301E+04  0.18762887255E+04  0.14178011605E+04 0.  0.
        1    1    3    3  502    0  0.72433270971E+02  0.70463940933E+03  0.57758811249E+03  0.91398648986E+03  0.50400001928E-02 0.  1.
       -1    1    3    3    0  502 -0.72433270971E+02 -0.70463940933E+03  0.65135421759E+03  0.96230223564E+03  0.50400001928E-02 0. -1.
</event>
<event>
 5   0  0.7454828E-04  0.1504491E+04  0.7818609E-02  0.8881472E-01
        2   -1    0    0  501    0  0.00000000000E+00  0.00000000000E+00  0.17396619579E+04  0.17396619579E+04  0.25500000920E-02 0.  1.
       -2   -1    0    0    0  501  0.00000000000E+00  0.00000000000E+00 -0.32527787964E+03  0.32527787965E+03  0.25500000920E-02 0. -1.
    10030    2    1    2    0    0  0.00000000000E+00  0.00000000000E+00  0.14143840782E+04  0.20649398375E+04  0.15044913465E+04 0.  0.
        3    1    3    3  502    0  0.24693717462E+03 -0.29249920353E+03 -0.18160120688E+03  0.42368946272E+03  0.10100000352E+00 0. -1.
       -3    1    3    3    0  502 -0.24693717462E+03  0.29249920353E+03  0.15959852851E+04  0.16412503748E+04  0.10100000352E+00 0.  1.
</event>
<event>
 5   0  0.7454828E-04  0.1493080E+04  0.7818609E-02  0.8889068E-01
        2   -1    0    0  501    0  0.00000000000E+00  0.00000000000E+00  0.20043910035E+04  0.20043910035E+04  0.25500000920E-02 0.  1.
       -2   -1    0    0    0  501  0.00000000000E+00  0.00000000000E+00 -0.27805057899E+03  0.27805057900E+03  0.25500000920E-02 0. -1.
    10030    2    1    2    0    0  0.00000000000E+00  0.00000000000E+00  0.17263404245E+04  0.22824415825E+04  0.14930801440E+04 0.  0.
        3    1    3    3  502    0  0.12620751346E+03  0.38768542080E+02  0.19864022630E+04  0.19907850956E+04  0.10100000352E+00 0.  1.
       -3    1    3    3    0  502 -0.12620751346E+03 -0.38768542080E+02 -0.26006183848E+03  0.29165648689E+03  0.10100000352E+00 0. -1.
</event>
<event>
 5   0  0.4084462E-04  0.1517295E+04  0.7818609E-02  0.8873033E-01
       -1   -1    0    0    0  501  0.00000000000E+00  0.00000000000E+00  0.88040619868E+03  0.88040619869E+03  0.50400001928E-02 0.  1.
        1   -1    0    0  501    0  0.00000000000E+00  0.00000000000E+00 -0.65372764380E+03  0.65372764382E+03  0.50400001928E-02 0. -1.
    10030    2    1    2    0    0  0.00000000000E+00  0.00000000000E+00  0.22667855488E+03  0.15341338425E+04  0.15172947899E+04 0.  0.
        1    1    3    3  502    0 -0.68184545824E+02  0.59746657974E+03 -0.35432000559E+03  0.69796712858E+03  0.50400001928E-02 0. -1.
       -1    1    3    3    0  502  0.68184545824E+02 -0.59746657974E+03  0.58099856047E+03  0.83616671393E+03  0.50400001928E-02 0.  1.
</event>
<event>
 5   0  0.3907345E-04  0.1473420E+04  0.7818609E-02  0.8902323E-01
       -1   -1    0    0    0  501  0.00000000000E+00  0.00000000000E+00  0.63394714136E+03  0.63394714138E+03  0.50400001928E-02 0. -1.
        1   -1    0    0  501    0  0.00000000000E+00  0.00000000000E+00 -0.85613029574E+03  0.85613029576E+03  0.50400001928E-02 0.  1.
    10030    2    1    2    0    0  0.00000000000E+00  0.00000000000E+00 -0.22218315438E+03  0.14900774371E+04  0.14734196329E+04 0.  0.
        5    1    3    3  502    0 -0.24148682201E+03 -0.45077534380E+03  0.42519123816E+03  0.66507441297E+03  0.46999998093E+01 0. -1.
       -5    1    3    3    0  502  0.24148682201E+03  0.45077534380E+03 -0.64737439254E+03  0.82500302417E+03  0.46999998093E+01 0.  1.
</event>
<event>
 5   0  0.7454828E-04  0.1478695E+04  0.7818609E-02  0.8898745E-01
       -2   -1    0    0    0  501  0.00000000000E+00  0.00000000000E+00  0.28147385026E+03  0.28147385027E+03  0.25500000920E-02 0. -1.
        2   -1    0    0  501    0  0.00000000000E+00  0.00000000000E+00 -0.19420456463E+04  0.19420456463E+04  0.25500000920E-02 0.  1.
    10030    2    1    2    0    0  0.00000000000E+00  0.00000000000E+00 -0.16605717961E+04  0.22235194966E+04  0.14786954595E+04 0.  0.
        3    1    3    3  502    0 -0.25064559136E+03 -0.69185828925E+03 -0.93813352369E+03  0.11923026559E+04  0.10100000352E+00 0. -1.
       -3    1    3    3    0  502  0.25064559136E+03  0.69185828925E+03 -0.72243827237E+03  0.10312168407E+04  0.10100000352E+00 0.  1.
</event>
<event>
 5   0  0.3907345E-04  0.1493423E+04  0.7818609E-02  0.8888839E-01
       -1   -1    0    0    0  501  0.00000000000E+00  0.00000000000E+00  0.65950686282E+03  0.65950686284E+03  0.50400001928E-02 0. -1.
        1   -1    0    0  501    0  0.00000000000E+00  0.00000000000E+00 -0.84544669759E+03  0.84544669761E+03  0.50400001928E-02 0.  1.
    10030    2    1    2    0    0  0.00000000000E+00  0.00000000000E+00 -0.18593983477E+03  0.15049535605E+04  0.14934227790E+04 0.  0.
        5    1    3    3  502    0 -0.17452526974E+03  0.24833621553E+03 -0.78045864879E+03  0.83741730230E+03  0.46999998093E+01 0.  1.
       -5    1    3    3    0  502  0.17452526974E+03 -0.24833621553E+03  0.59451881402E+03  0.66753625815E+03  0.46999998093E+01 0. -1.
</event>
<event>
 5   0  0.7634227E-04  0.1489327E+04  0.7818609E-02  0.8891581E-01
       -2   -1    0    0    0  501  0.00000000000E+00  0.00000000000E+00  0.12927358612E+04  0.12927358612E+04  0.25500000920E-02 0.  1.
        2   -1    0    0  501    0  0.00000000000E+00  0.00000000000E+00 -0.42895365501E+03  0.42895365502E+03  0.25500000920E-02 0. -1.
    10030    2    1    2    0    0  0.00000000000E+00  0.00000000000E+00  0.86378220618E+03  0.17216895162E+04  0.14893270596E+04 0.  0.
        2    1    3    3  502    0  0.11449502561E+03 -0.73302064804E+03  0.50587078418E+03  0.89796081855E+03  0.25500000920E-02 0.  1.
       -2    1    3    3    0  502 -0.11449502561E+03  0.73302064804E+03  0.35791142200E+03  0.82372869766E+03  0.25500000920E-02 0. -1.
</event>
<event>
 5   0  0.4086710E-04  0.1504737E+04  0.7818609E-02  0.8881309E-01
        1   -1    0    0  501    0  0.00000000000E+00  0.00000000000E+00  0.70967632287E+03  0.70967632289E+03  0.50400001928E-02 0.  1.
       -1   -1    0    0    0  501  0.00000000000E+00  0.00000000000E+00 -0.79762885743E+03  0.79762885745E+03  0.50400001928E-02 0. -1.
    10030    2    1    2    0    0  0.00000000000E+00  0.00000000000E+00 -0.87952534558E+02  0.15073051803E+04  0.15047369399E+04 0.  0.
        3    1    3    3  502    0  0.21010650957E+03 -0.68368089377E+03 -0.27781418280E+03  0.76729723069E+03  0.10100000352E+00 0. -1.
       -3    1    3    3    0  502 -0.21010650957E+03  0.68368089377E+03  0.18986164824E+03  0.74000794965E+03  0.10100000352E+00 0.  1.
</event>
<event>
 5   0  0.4084462E-04  0.1545654E+04  0.7818609E-02  0.8854649E-01
       -1   -1    0    0    0  501  0.00000000000E+00  0.00000000000E+00  0.62310397541E+03  0.62310397543E+03  0.50400001928E-02 0. -1.
        1   -1    0    0  501    0  0.00000000000E+00  0.00000000000E+00 -0.95852611260E+03  0.95852611261E+03  0.50400001928E-02 0.  1.
    10030    2    1    2    0    0  0.00000000000E+00  0.00000000000E+00 -0.33542213719E+03  0.15816300880E+04  0.15456538181E+04 0.  0.
        1    1    3    3  502    0  0.37323975791E+03  0.22120623643E+03 -0.82214477231E+03  0.92960321782E+03  0.50400001928E-02 0.  1.
       -1    1    3    3    0  502 -0.37323975791E+03 -0.22120623643E+03  0.48672263512E+03  0.65202687022E+03  0.50400001928E-02 0. -1.
</event>
<event>
 5   0  0.4058874E-04  0.1499478E+04  0.7818609E-02  0.8884800E-01
       -1   -1    0    0    0  501  0.00000000000E+00  0.00000000000E+00  0.24106708058E+03  0.24106708063E+03  0.50400001928E-02 0. -1.
        1   -1    0    0  501    0  0.00000000000E+00  0.00000000000E+00 -0.23317517301E+04  0.23317517301E+04  0.50400001928E-02 0.  1.
    10030    2    1    2    0    0  0.00000000000E+00  0.00000000000E+00 -0.20906846495E+04  0.25728188107E+04  0.14994780189E+04 0.  0.
        4    1    3    3  502    0  0.54182141041E+03 -0.40922957032E+02 -0.15897785918E+03  0.56614547759E+03  0.12699999809E+01 0. -1.
       -4    1    3    3    0  502 -0.54182141041E+03  0.40922957032E+02 -0.19317067903E+04  0.20066733331E+04  0.12699999809E+01 0.  1.
</event>
<event>
 5   0  0.7547580E-04  0.1487200E+04  0.7818609E-02  0.8893010E-01
       -2   -1    0    0    0  501  0.00000000000E+00  0.00000000000E+00  0.95883740378E+03  0.95883740379E+03  0.25500000920E-02 0.  1.
        2   -1    0    0  501    0  0.00000000000E+00  0.00000000000E+00 -0.57667830314E+03  0.57667830314E+03  0.25500000920E-02 0. -1.
    10030    2    1    2    0    0  0.00000000000E+00  0.00000000000E+00  0.38215910065E+03  0.15355157069E+04  0.14871996867E+04 0.  0.
        4    1    3    3  502    0 -0.91771459262E+02 -0.50476380530E+03  0.74683300564E+03  0.90607375587E+03  0.12699999809E+01 0.  1.
       -4    1    3    3    0  502  0.91771459262E+02  0.50476380530E+03 -0.36467390499E+03  0.62944195106E+03  0.12699999809E+01 0. -1.
</event>
<event>
 5   0  0.4086710E-04  0.1495376E+04  0.7818609E-02  0.8887534E-01
       -1   -1    0    0    0  501  0.00000000000E+00  0.00000000000E+00  0.64354643618E+03  0.64354643620E+03  0.50400001928E-02 0.  1.
        1   -1    0    0  501    0  0.00000000000E+00  0.00000000000E+00 -0.86868197047E+03  0.86868197048E+03  0.50400001928E-02 0. -1.
    10030    2    1    2    0    0  0.00000000000E+00  0.00000000000E+00 -0.22513553429E+03  0.15122284067E+04  0.14953757873E+04 0.  0.
        3    1    3    3  502    0  0.57303980044E+03 -0.25024750566E+03  0.30197731511E+03  0.69439811061E+03  0.10100000352E+00 0.  1.
       -3    1    3    3    0  502 -0.57303980044E+03  0.25024750566E+03 -0.52711284939E+03  0.81783029607E+03  0.10100000352E+00 0. -1.
</event>
<event>
 5   0  0.3907345E-04  0.1513189E+04  0.7818609E-02  0.8875729E-01
        1   -1    0    0  501    0  0.00000000000E+00  0.00000000000E+00  0.13521505803E+04  0.13521505803E+04  0.50400001928E-02 0.  1.
       -1   -1    0    0    0  501  0.00000000000E+00  0.00000000000E+00 -0.42335178552E+03  0.42335178555E+03  0.50400001928E-02 0. -1.
    10030    2    1    2    0    0  0.00000000000E+00  0.00000000000E+00  0.92879879477E+03  0.17755023658E+04  0.15131891653E+04 0.  0.
        5    1    3    3  502    0 -0.11592281785E+03 -0.74353213171E+03  0.37249414353E+03  0.83967381020E+03  0.46999998093E+01 0. -1.
       -5    1    3    3    0  502  0.11592281785E+03  0.74353213171E+03  0.55630465124E+03  0.93582855565E+03  0.46999998093E+01 0.  1.
</event>
<event>
 5   0  0.4058874E-04  0.1504471E+04  0.7818609E-02  0.8881485E-01
        1   -1    0    0  501    0  0.00000000000E+00  0.00000000000E+00  0.10417656884E+04  0.10417656884E+04  0.50400001928E-02 0. -1.
       -1   -1    0    0    0  501  0.00000000000E+00  0.00000000000E+00 -0.54317245897E+03  0.54317245900E+03  0.50400001928E-02 0.  1.
    10030    2    1    2    0    0  0.00000000000E+00  0.00000000000E+00  0.49859322939E+03  0.15849381474E+04  0.15044712435E+04 0.  0.
        4    1    3    3  502    0 -0.26515967485E+03 -0.63857421573E+03 -0.62809165612E+02  0.69428617035E+03  0.12699999809E+01 0.  1.
       -4    1    3    3    0  502  0.26515967485E+03  0.63857421573E+03  0.56140239500E+03  0.89065197702E+03  0.12699999809E+01 0. -1.
</event>
<event>
 5   0  0.7634227E-04  0.1410063E+04  0.7818609E-02  0.8946566E-01
        2   -1    0    0  501    0  0.00000000000E+00  0.00000000000E+00  0.15986172626E+04  0.15986172626E+04  0.25500000920E-02 0.  1.
       -2   -1    0    0    0  501  0.00000000000E+00  0.00000000000E+00 -0.31093731987E+03  0.31093731988E+03  0.25500000920E-02 0. -1.
    10030    2    1    2    0    0  0.00000000000E+00  0.00000000000E+00  0.12876799427E+04  0.19095545825E+04  0.14100634981E+04 0.  0.
        2    1    3    3  502    0  0.28723596260E+03  0.40499643010E+03 -0.34011717202E+02  0.49767801189E+03  0.25500000920E-02 0. -1.
       -2    1    3    3    0  502 -0.28723596260E+03 -0.40499643010E+03  0.13216916599E+04  0.14118765706E+04  0.25500000920E-02 0.  1.
</event>
<event>
 5   0  0.7547580E-04  0.1496471E+04  0.7818609E-02  0.8886803E-01
       -2   -1    0    0    0  501  0.00000000000E+00  0.00000000000E+00  0.92791233415E+03  0.92791233415E+03  0.25500000920E-02 0. -1.
        2   -1    0    0  501    0  0.00000000000E+00  0.00000000000E+00 -0.60335035787E+03  0.60335035788E+03  0.25500000920E-02 0.  1.
    10030    2    1    2    0    0  0.00000000000E+00  0.00000000000E+00  0.32456197628E+03  0.15312626920E+04  0.14964708335E+04 0.  0.
        4    1    3    3  502    0 -0.24244284632E+02 -0.27649942643E+03  0.87328455639E+03  0.91633358963E+03  0.12699999809E+01 0. -1.
       -4    1    3    3    0  502  0.24244284632E+02  0.27649942643E+03 -0.54872258011E+03  0.61492910240E+03  0.12699999809E+01 0.  1.
</event>
<event>
 5   0  0.7547580E-04  0.1509100E+04  0.7818609E-02  0.8878424E-01
       -2   -1    0    0    0  501  0.00000000000E+00  0.00000000000E+00  0.84336538957E+03  0.84336538957E+03  0.25500000920E-02 0.  1.
        2   -1    0    0  501    0  0.00000000000E+00  0.00000000000E+00 -0.67508801347E+03  0.67508801347E+03  0.25500000920E-02 0. -1.
    10030    2    1    2    0    0  0.00000000000E+00  0.00000000000E+00  0.16827737610E+03  0.15184534030E+04  0.15091002160E+04 0.  0.
        4    1    3    3  502    0 -0.49782087940E+03  0.28986760618E+03  0.57449411366E+03  0.81356865513E+03  0.12699999809E+01 0.  1.
       -4    1    3    3    0  502  0.49782087940E+03 -0.28986760618E+03 -0.40621673756E+03  0.70488474792E+03  0.12699999809E+01 0. -1.
</event>
<event>
 5   0  0.4058874E-04  0.1465528E+04  0.7818609E-02  0.8907706E-01
        1   -1    0    0  501    0  0.00000000000E+00  0.00000000000E+00  0.49480378603E+03  0.49480378605E+03  0.50400001928E-02 0.  1.
       -1   -1    0    0    0  501  0.00000000000E+00  0.00000000000E+00 -0.10851636128E+04  0.10851636128E+04  0.50400001928E-02 0. -1.
    10030    2    1    2    0    0  0.00000000000E+00  0.00000000000E+00 -0.59035982678E+03  0.15799673989E+04  0.14655279787E+04 0.  0.
        4    1    3    3  502    0 -0.41936525798E+03  0.54052159988E+03 -0.12172946297E+02  0.68423724910E+03  0.12699999809E+01 0.  1.
       -4    1    3    3    0  502  0.41936525798E+03 -0.54052159988E+03 -0.57818688048E+03  0.89573014976E+03  0.12699999809E+01 0. -1.
</event>
<event>
 5   0  0.7634227E-04  0.1496979E+04  0.7818609E-02  0.8886464E-01
       -2   -1    0    0    0  501  0.00000000000E+00  0.00000000000E+00  0.14143655228E+04  0.14143655228E+04  0.25500000920E-02 0.  1.
        2   -1    0    0  501    0  0.00000000000E+00  0.00000000000E+00 -0.39610474775E+03  0.39610474776E+03  0.25500000920E-02 0. -1.
    10030    2    1    2    0    0  0.00000000000E+00  0.00000000000E+00  0.10182607751E+04  0.18104702706E+04  0.14969794904E+04 0.  0.
        2    1    3    3  502    0  0.51045200520E+03 -0.53718024725E+03  0.38163578175E+03  0.83352848635E+03  0.25500000920E-02 0. -1.
       -2    1    3    3    0  502 -0.51045200520E+03  0.53718024725E+03  0.63662499333E+03  0.97694178424E+03  0.25500000920E-02 0.  1.
</event>
<event>
 5   0  0.7547580E-04  0.1491953E+04  0.7818609E-02  0.8889822E-01
       -2   -1    0    0    0  501  0.00000000000E+00  0.00000000000E+00  0.43674605596E+03  0.43674605597E+03  0.25500000920E-02 0.  1.
        2   -1    0    0  501    0  0.00000000000E+00  0.00000000000E+00 -0.12741525624E+04  0.12741525625E+04  0.25500000920E-02 0. -1.
    10030    2    1    2    0    0  0.00000000000E+00  0.00000000000E+00 -0.83740650649E+03  0.17108986184E+04  0.14919532249E+04 0.  0.
        4    1    3    3  502    0 -0.58702493887E+03  0.29990222736E+03 -0.18259125452E+02  0.65945025089E+03  0.12699999809E+01 0.  1.
       -4    1    3    3    0  502  0.58702493887E+03 -0.29990222736E+03 -0.81914738103E+03  0.10514483675E+04  0.12699999809E+01 0. -1.
</event>
<event>
 5   0  0.7672251E-04  0.1505744E+04  0.7818609E-02  0.8880642E-01
       -2   -1    0    0    0  501  0.00000000000E+00  0.00000000000E+00  0.63987517816E+03  0.63987517817E+03  0.25500000920E-02 0.  1.
        2   -1    0    0  501    0  0.00000000000E+00  0.00000000000E+00 -0.88582307107E+03  0.88582307107E+03  0.25500000920E-02 0. -1.
    10030    2    1    2    0    0  0.00000000000E+00  0.00000000000E+00 -0.24594789291E+03  0.15256982492E+04  0.15057439297E+04 0.  0.
        5    1    3    3  502    0 -0.39669969016E+03 -0.53193363772E+03  0.23736516227E+03  0.70476120024E+03  0.46999998093E+01 0.  1.
       -5    1    3    3    0  502  0.39669969016E+03  0.53193363772E+03 -0.48331305517E+03  0.82093704899E+03  0.46999998093E+01 0. -1.
</event>
<event>
 5   0  0.2800375E-04  0.1485129E+04  0.7818609E-02  0.8894403E-01
       -4   -1    0    0    0  501  0.00000000000E+00  0.00000000000E+00  0.79677575646E+03  0.79677676860E+03  0.12699999809E+01 0.  1.
        4   -1    0    0  501    0  0.00000000000E+00  0.00000000000E+00 -0.69203919889E+03  0.69204036422E+03  0.12699999809E+01 0. -1.
    10030    2    1    2    0    0  0.00000000000E+00  0.00000000000E+00  0.10473655757E+03  0.14888171328E+04  0.14851285158E+04 0.  0.
        3    1    3    3  502    0 -0.42982577421E+03 -0.58744743820E+03 -0.94819333801E+02  0.73405408867E+03  0.10100000352E+00 0. -1.
       -3    1    3    3    0  502  0.42982577421E+03  0.58744743820E+03  0.19955589137E+03  0.75476304415E+03  0.10100000352E+00 0.  1.
</event>
<event>
 5   0  0.7672251E-04  0.1398357E+04  0.7818609E-02  0.8955008E-01
        2   -1    0    0  501    0  0.00000000000E+00  0.00000000000E+00  0.73392466438E+03  0.73392466439E+03  0.25500000920E-02 0. -1.
       -2   -1    0    0    0  501  0.00000000000E+00  0.00000000000E+00 -0.66607779027E+03  0.66607779027E+03  0.25500000920E-02 0.  1.
    10030    2    1    2    0    0  0.00000000000E+00  0.00000000000E+00  0.67846874115E+02  0.14000024547E+04  0.13983574917E+04 0.  0.
        5    1    3    3  502    0  0.16589718733E+03 -0.44112055471E+03 -0.48313312694E+03  0.67494364869E+03  0.46999998093E+01 0.  1.
       -5    1    3    3    0  502 -0.16589718733E+03  0.44112055471E+03  0.55098000106E+03  0.72505880597E+03  0.46999998093E+01 0. -1.
</event>
<event>
 5   0  0.3907345E-04  0.1488310E+04  0.7818609E-02  0.8892264E-01
       -1   -1    0    0    0  501  0.00000000000E+00  0.00000000000E+00  0.23892020526E+03  0.23892020531E+03  0.50400001928E-02 0.  1.
        1   -1    0    0  501    0  0.00000000000E+00  0.00000000000E+00 -0.23177876345E+04  0.23177876345E+04  0.50400001928E-02 0. -1.
    10030    2    1    2    0    0  0.00000000000E+00  0.00000000000E+00 -0.20788674293E+04  0.25567078399E+04  0.14883095074E+04 0.  0.
        5    1    3    3  502    0 -0.20727602594E+03  0.69755268398E+03 -0.77219123897E+03  0.10610581970E+04  0.46999998093E+01 0. -1.
       -5    1    3    3    0  502  0.20727602594E+03 -0.69755268398E+03 -0.13066761903E+04  0.14956496429E+04  0.46999998093E+01 0.  1.
</event>
<event>
 5   0  0.4015204E-04  0.1487668E+04  0.7818609E-02  0.8892696E-01
        1   -1    0    0  501    0  0.00000000000E+00  0.00000000000E+00  0.75605628589E+03  0.75605628590E+03  0.50400001928E-02 0.  1.
       -1   -1    0    0    0  501  0.00000000000E+00  0.00000000000E+00 -0.73180885414E+03  0.73180885415E+03  0.50400001928E-02 0. -1.
    10030    2    1    2    0    0  0.00000000000E+00  0.00000000000E+00  0.24247431749E+02  0.14878651401E+04  0.14876675492E+04 0.  0.
        2    1    3    3  502    0  0.66036257450E+03 -0.18978194820E+02 -0.32975466079E+03  0.73836104854E+03  0.25500000920E-02 0.  1.
       -2    1    3    3    0  502 -0.66036257450E+03  0.18978194820E+02  0.35400209254E+03  0.74950409152E+03  0.25500000920E-02 0. -1.
</event>
<event>
 5   0  0.7359897E-04  0.1506372E+04  0.7818609E-02  0.8880227E-01
        2   -1    0    0  501    0  0.00000000000E+00  0.00000000000E+00  0.14797757241E+04  0.14797757241E+04  0.25500000920E-02 0. -1.
       -2   -1    0    0    0  501  0.00000000000E+00  0.00000000000E+00 -0.38336135633E+03  0.38336135634E+03  0.25500000920E-02 0.  1.
    10030    2    1    2    0    0  0.00000000000E+00  0.00000000000E+00  0.10964143677E+04  0.18631370804E+04  0.15063715726E+04 0.  0.
        1    1    3    3  502    0 -0.16554162067E+03  0.55957232847E+03 -0.40771230871E+02  0.58496795832E+03  0.50400001928E-02 0.  1.
       -1    1    3    3    0  502  0.16554162067E+03 -0.55957232847E+03  0.11371855986E+04  0.12781691221E+04  0.50400001928E-02 0. -1.
</event>
<event>
 5   0  0.4058874E-04  0.1496211E+04  0.7818609E-02  0.8886976E-01
        1   -1    0    0  501    0  0.00000000000E+00  0.00000000000E+00  0.66171407004E+03  0.66171407006E+03  0.50400001928E-02 0.  1.
       -1   -1    0    0    0  501  0.00000000000E+00  0.00000000000E+00 -0.84577647681E+03  0.84577647683E+03  0.50400001928E-02 0. -1.
    10030    2    1    2    0    0  0.00000000000E+00  0.00000000000E+00 -0.18406240678E+03  0.15074905469E+04  0.14962114755E+04 0.  0.
        4    1    3    3  502    0 -0.56354508333E+03 -0.13049227307E+03 -0.57000098181E+03  0.81210468934E+03  0.12699999809E+01 0. -1.
       -4    1    3    3    0  502  0.56354508333E+03  0.13049227307E+03  0.38593857503E+03  0.69538585755E+03  0.12699999809E+01 0.  1.
</event>
<event>
 5   0  0.7454828E-04  0.1571905E+04  0.7818609E-02  0.8837996E-01
        2   -1    0    0  501    0  0.00000000000E+00  0.00000000000E+00  0.20911812900E+04  0.20911812900E+04  0.25500000920E-02 0. -1.
       -2   -1    0    0    0  501  0.00000000000E+00  0.00000000000E+00 -0.29539345703E+03  0.29539345704E+03  0.25500000920E-02 0.  1.
    10030    2    1    2    0    0  0.00000000000E+00  0.00000000000E+00  0.17957878329E+04  0.23865747470E+04  0.15719049215E+04 0.  0.
        3    1    3    3  502    0  0.60288920026E+03  0.41705854177E+03  0.46763656963E+03  0.86953849053E+03  0.10100000352E+00 0.  1.
       -3    1    3    3    0  502 -0.60288920026E+03 -0.41705854177E+03  0.13281512633E+04  0.15170362565E+04  0.10100000352E+00 0. -1.
</event>
<event>
 5   0  0.3907345E-04  0.1492186E+04  0.7818609E-02  0.8889666E-01
       -1   -1    0    0    0  501  0.00000000000E+00  0.00000000000E+00  0.42631267201E+03  0.42631267204E+03  0.50400001928E-02 0.  1.
        1   -1    0    0  501    0  0.00000000000E+00  0.00000000000E+00 -0.13057422705E+04  0.13057422705E+04  0.50400001928E-02 0. -1.
    10030    2    1    2    0    0  0.00000000000E+00  0.00000000000E+00 -0.87942959844E+03  0.17320549425E+04  0.14921856135E+04 0.  0.
        5    1    3    3  502    0  0.53415967264E+02  0.23468564585E+03 -0.12594229806E+04  0.12822242206E+04  0.46999998093E+01 0. -1.
       -5    1    3    3    0  502 -0.53415967264E+02 -0.23468564585E+03  0.37999338211E+03  0.44983072191E+03  0.46999998093E+01 0.  1.
</event>
<event>
 5   0  0.4086710E-04  0.1496111E+04  0.7818609E-02  0.8887043E-01
       -1   -1    0    0    0  501  0.00000000000E+00  0.00000000000E+00  0.72939805810E+03  0.72939805812E+03  0.50400001928E-02 0. -1.
        1   -1    0    0  501    0  0.00000000000E+00  0.00000000000E+00 -0.76719000837E+03  0.76719000839E+03  0.50400001928E-02 0.  1.
    10030    2    1    2    0    0  0.00000000000E+00  0.00000000000E+00 -0.37791950268E+02  0.14965880665E+04  0.14961108279E+04 0.  0.
        3    1    3    3  502    0 -0.74626264250E+03 -0.15081912596E+02  0.30632407429E+02  0.74704333895E+03  0.10100000352E+00 0. -1.
       -3    1    3    3    0  502  0.74626264250E+03  0.15081912596E+02 -0.68424357697E+02  0.74954472756E+03  0.10100000352E+00 0.  1.
</event>
<event>
 5   0  0.2800375E-04  0.1523178E+04  0.7818609E-02  0.8869184E-01
       -3   -1    0    0    0  501  0.00000000000E+00  0.00000000000E+00  0.32421820495E+03  0.32421822068E+03  0.10100000352E+00 0.  1.
        3   -1    0    0  501    0  0.00000000000E+00  0.00000000000E+00 -0.17889743628E+04  0.17889743656E+04  0.10100000352E+00 0. -1.
    10030    2    1    2    0    0  0.00000000000E+00  0.00000000000E+00 -0.14647561578E+04  0.21131925863E+04  0.15231783563E+04 0.  0.
        4    1    3    3  502    0 -0.26972501102E+03  0.60772211677E+03 -0.21711218205E+03  0.69944053734E+03  0.12699999809E+01 0. -1.
       -4    1    3    3    0  502  0.26972501102E+03 -0.60772211677E+03 -0.12476439758E+04  0.14137520490E+04  0.12699999809E+01 0.  1.
</event>
<event>
 5   0  0.7634227E-04  0.1496947E+04  0.7818609E-02  0.8886486E-01
       -2   -1    0    0    0  501  0.00000000000E+00  0.00000000000E+00  0.34982913814E+03  0.34982913815E+03  0.25500000920E-02 0. -1.
        2   -1    0    0  501    0  0.00000000000E+00  0.00000000000E+00 -0.16013895850E+04  0.16013895850E+04  0.25500000920E-02 0.  1.
    10030    2    1    2    0    0  0.00000000000E+00  0.00000000000E+00 -0.12515604468E+04  0.19512187231E+04  0.14969472113E+04 0.  0.
        2    1    3    3  502    0  0.10730636462E+03  0.43101667008E+03 -0.14110276887E+04  0.14792867079E+04  0.25500000920E-02 0.  1.
       -2    1    3    3    0  502 -0.10730636462E+03 -0.43101667008E+03  0.15946724189E+03  0.47193201525E+03  0.25500000920E-02 0. -1.
</event>
<event>
 5   0  0.7672251E-04  0.1542837E+04  0.7818609E-02  0.8856456E-01
        2   -1    0    0  501    0  0.00000000000E+00  0.00000000000E+00  0.15865971840E+04  0.15865971840E+04  0.25500000920E-02 0.  1.
       -2   -1    0    0    0  501  0.00000000000E+00  0.00000000000E+00 -0.37507112843E+03  0.37507112844E+03  0.25500000920E-02 0. -1.
    10030    2    1    2    0    0  0.00000000000E+00  0.00000000000E+00  0.12115260556E+04  0.19616683124E+04  0.15428373812E+04 0.  0.
        5    1    3    3  502    0  0.26178607868E+03  0.42940053523E+03  0.13494880374E+04  0.14401586106E+04  0.46999998093E+01 0.  1.
       -5    1    3    3    0  502 -0.26178607868E+03 -0.42940053523E+03 -0.13796198185E+03  0.52150970181E+03  0.46999998093E+01 0. -1.
</event>
<event>
 5   0  0.4058874E-04  0.1499989E+04  0.7818609E-02  0.8884460E-01
       -1   -1    0    0    0  501  0.00000000000E+00  0.00000000000E+00  0.63957036298E+03  0.63957036300E+03  0.50400001928E-02 0. -1.
        1   -1    0    0  501    0  0.00000000000E+00  0.00000000000E+00 -0.87948369093E+03  0.87948369095E+03  0.50400001928E-02 0.  1.
    10030    2    1    2    0    0  0.00000000000E+00  0.00000000000E+00 -0.23991332795E+03  0.15190540539E+04  0.14999889379E+04 0.  0.
        4    1    3    3  502    0 -0.33660362735E+03 -0.62893004132E+03 -0.35449275674E+03  0.79656872038E+03  0.12699999809E+01 0.  1.
       -4    1    3    3    0  502  0.33660362735E+03  0.62893004132E+03  0.11457942879E+03  0.72248533357E+03  0.12699999809E+01 0. -1.
</event>
<event>
 5   0  0.7547580E-04  0.1488661E+04  0.7818609E-02  0.8892028E-01
        2   -1    0    0  501    0  0.00000000000E+00  0.00000000000E+00  0.54737788929E+03  0.54737788929E+03  0.25500000920E-02 0. -1.
       -2   -1    0    0    0  501  0.00000000000E+00  0.00000000000E+00 -0.10121488704E+04  0.10121488704E+04  0.25500000920E-02 0.  1.
    10030    2    1    2    0    0  0.00000000000E+00  0.00000000000E+00 -0.46477098111E+03  0.15595267597E+04  0.14886610257E+04 0.  0.
        4    1    3    3  502    0  0.37531174729E+03 -0.19479355155E+03  0.40932872464E+03  0.58851937359E+03  0.12699999809E+01 0. -1.
       -4    1    3    3    0  502 -0.37531174729E+03  0.19479355155E+03 -0.87409970574E+03  0.97100738610E+03  0.12699999809E+01 0.  1.
</event>
<event>
 5   0  0.3907345E-04  0.1500460E+04  0.7818609E-02  0.8884147E-01
       -1   -1    0    0    0  501  0.00000000000E+00  0.00000000000E+00  0.44939220414E+03  0.44939220417E+03  0.50400001928E-02 0.  1.
        1   -1    0    0  501    0  0.00000000000E+00  0.00000000000E+00 -0.12524588030E+04  0.12524588031E+04  0.50400001928E-02 0. -1.
    10030    2    1    2    0    0  0.00000000000E+00  0.00000000000E+00 -0.80306659890E+03  0.17018510072E+04  0.15004602256E+04 0.  0.
        5    1    3    3  502    0 -0.56460728463E+02 -0.11449183873E+03  0.43696625193E+03  0.45525574166E+03  0.46999998093E+01 0.  1.
       -5    1    3    3    0  502  0.56460728463E+02  0.11449183873E+03 -0.12400328508E+04  0.12465952656E+04  0.46999998093E+01 0. -1.
</event>
<event>
 5   0  0.7634227E-04  0.1485164E+04  0.7818609E-02  0.8894379E-01
        2   -1    0    0  501    0  0.00000000000E+00  0.00000000000E+00  0.52350972635E+03  0.52350972635E+03  0.25500000920E-02 0. -1.
       -2   -1    0    0    0  501  0.00000000000E+00  0.00000000000E+00 -0.10533293475E+04  0.10533293475E+04  0.25500000920E-02 0.  1.
    10030    2    1    2    0    0  0.00000000000E+00  0.00000000000E+00 -0.52981962119E+03  0.15768390739E+04  0.14851641774E+04 0.  0.
        2    1    3    3  502    0 -0.53590801867E+02 -0.15344892385E+03  0.50439161140E+03  0.52993343349E+03  0.25500000920E-02 0. -1.
       -2    1    3    3    0  502  0.53590801867E+02  0.15344892385E+03 -0.10342112326E+04  0.10469056404E+04  0.25500000920E-02 0.  1.
</event>
<event>
 5   0  0.7454828E-04  0.1422480E+04  0.7818609E-02  0.8937705E-01
        2   -1    0    0  501    0  0.00000000000E+00  0.00000000000E+00  0.12276714298E+04  0.12276714298E+04  0.25500000920E-02 0. -1.
       -2   -1    0    0    0  501  0.00000000000E+00  0.00000000000E+00 -0.41205033439E+03  0.41205033440E+03  0.25500000920E-02 0.  1.
    10030    2    1    2    0    0  0.00000000000E+00  0.00000000000E+00  0.81562109539E+03  0.16397217642E+04  0.14224801203E+04 0.  0.
        3    1    3    3  502    0 -0.57037217469E+03  0.15118124269E+03  0.86554681968E+03  0.10475454611E+04  0.10100000352E+00 0. -1.
       -3    1    3    3    0  502  0.57037217469E+03 -0.15118124269E+03 -0.49925724283E+02  0.59217630310E+03  0.10100000352E+00 0.  1.
</event>
<event>
 5   0  0.4015204E-04  0.1513418E+04  0.7818609E-02  0.8875579E-01
       -1   -1    0    0    0  501  0.00000000000E+00  0.00000000000E+00  0.58817791514E+03  0.58817791516E+03  0.50400001928E-02 0. -1.
        1   -1    0    0  501    0  0.00000000000E+00  0.00000000000E+00 -0.97352924079E+03  0.97352924080E+03  0.50400001928E-02 0.  1.
    10030    2    1    2    0    0  0.00000000000E+00  0.00000000000E+00 -0.38535132565E+03  0.15617071560E+04  0.15134178527E+04 0.  0.
        2    1    3    3  502    0  0.27208446014E+03 -0.70448829105E+03 -0.14346012982E+03  0.76870964254E+03  0.25500000920E-02 0.  1.
       -2    1    3    3    0  502 -0.27208446014E+03  0.70448829105E+03 -0.24189119583E+03  0.79299751343E+03  0.25500000920E-02 0. -1.
</event>
<event>
 5   0  0.3907345E-04  0.1512290E+04  0.7818609E-02  0.8876321E-01
       -1   -1    0    0    0  501  0.00000000000E+00  0.00000000000E+00  0.42593587006E+03  0.42593587009E+03  0.50400001928E-02 0. -1.
        1   -1    0    0  501    0  0.00000000000E+00  0.00000000000E+00 -0.13423501494E+04  0.13423501494E+04  0.50400001928E-02 0.  1.
    10030    2    1    2    0    0  0.00000000000E+00  0.00000000000E+00 -0.91641427929E+03  0.17682860194E+04  0.15122897590E+04 0.  0.
        5    1    3    3  502    0 -0.60292502544E+03  0.26973032900E+03 -0.27855996428E+02  0.66111351765E+03  0.46999998093E+01 0. -1.
       -5    1    3    3    0  502  0.60292502544E+03 -0.26973032900E+03 -0.88855828287E+03  0.11071725018E+04  0.46999998093E+01 0.  1.
</event>
<event>
 5   0  0.7454828E-04  0.1515324E+04  0.7818609E-02  0.8874326E-01
        2   -1    0    0  501    0  0.00000000000E+00  0.00000000000E+00  0.11336821555E+04  0.11336821555E+04  0.25500000920E-02 0.  1.
       -2   -1    0    0    0  501  0.00000000000E+00  0.00000000000E+00 -0.50636029669E+03  0.50636029669E+03  0.25500000920E-02 0. -1.
    10030    2    1    2    0    0  0.00000000000E+00  0.00000000000E+00  0.62732185878E+03  0.16400424522E+04  0.15153239028E+04 0.  0.
        3    1    3    3  502    0  0.23192345811E+03  0.47875592383E+03  0.89756004524E+03  0.10433646391E+04  0.10100000352E+00 0.  1.
       -3    1    3    3    0  502 -0.23192345811E+03 -0.47875592383E+03 -0.27023818646E+03  0.59667781310E+03  0.10100000352E+00 0. -1.
</event>
<event>
 5   0  0.7454828E-04  0.1502101E+04  0.7818609E-02  0.8883057E-01
        2   -1    0    0  501    0  0.00000000000E+00  0.00000000000E+00  0.46615765443E+03  0.46615765443E+03  0.25500000920E-02 0.  1.
       -2   -1    0    0    0  501  0.00000000000E+00  0.00000000000E+00 -0.12100551743E+04  0.12100551743E+04  0.25500000920E-02 0. -1.
    10030    2    1    2    0    0  0.00000000000E+00  0.00000000000E+00 -0.74389751992E+03  0.16762128288E+04  0.15021005050E+04 0.  0.
        3    1    3    3  502    0 -0.22295871548E+03 -0.22834156715E+03  0.38672900968E+03  0.50140781528E+03  0.10100000352E+00 0.  1.
       -3    1    3    3    0  502  0.22295871548E+03  0.22834156715E+03 -0.11306265296E+04  0.11748050135E+04  0.10100000352E+00 0. -1.
</event>
<event>
 5   0  0.7634227E-04  0.1443827E+04  0.7818609E-02  0.8922691E-01
        2   -1    0    0  501    0  0.00000000000E+00  0.00000000000E+00  0.39763491086E+03  0.39763491087E+03  0.25500000920E-02 0.  1.
       -2   -1    0    0    0  501  0.00000000000E+00  0.00000000000E+00 -0.13106470300E+04  0.13106470300E+04  0.25500000920E-02 0. -1.
    10030    2    1    2    0    0  0.00000000000E+00  0.00000000000E+00 -0.91301211918E+03  0.17082819409E+04  0.14438268802E+04 0.  0.
        2    1    3    3  502    0 -0.63361531963E+03  0.34052415098E+03 -0.52880440265E+03  0.89278170173E+03  0.25500000920E-02 0. -1.
       -2    1    3    3    0  502  0.63361531963E+03 -0.34052415098E+03 -0.38420771653E+03  0.81550023919E+03  0.25500000920E-02 0.  1.
</event>
<event>
 5   0  0.4084462E-04  0.1503831E+04  0.7818609E-02  0.8881909E-01
       -1   -1    0    0    0  501  0.00000000000E+00  0.00000000000E+00  0.14439424021E+04  0.14439424021E+04  0.50400001928E-02 0. -1.
        1   -1    0    0  501    0  0.00000000000E+00  0.00000000000E+00 -0.39155095466E+03  0.39155095470E+03  0.50400001928E-02 0.  1.
    10030    2    1    2    0    0  0.00000000000E+00  0.00000000000E+00  0.10523914475E+04  0.18354933568E+04  0.15038311422E+04 0.  0.
        1    1    3    3  502    0 -0.34498595009E+03  0.12168929571E+03  0.13280049181E+04  0.13774689299E+04  0.50400001928E-02 0. -1.
       -1    1    3    3    0  502  0.34498595009E+03 -0.12168929571E+03 -0.27561347060E+03  0.45802442691E+03  0.50400001928E-02 0.  1.
</event>
<event>
 5   0  0.7547580E-04  0.1499244E+04  0.7818609E-02  0.8884955E-01
        2   -1    0    0  501    0  0.00000000000E+00  0.00000000000E+00  0.92085350194E+03  0.92085350194E+03  0.25500000920E-02 0.  1.
       -2   -1    0    0    0  501  0.00000000000E+00  0.00000000000E+00 -0.61023115221E+03  0.61023115222E+03  0.25500000920E-02 0. -1.
    10030    2    1    2    0    0  0.00000000000E+00  0.00000000000E+00  0.31062234973E+03  0.15310846542E+04  0.14992444677E+04 0.  0.
        4    1    3    3  502    0 -0.60426935723E+03 -0.36247466875E+03 -0.10585928459E+03  0.71255676448E+03  0.12699999809E+01 0.  1.
       -4    1    3    3    0  502  0.60426935723E+03  0.36247466875E+03  0.41648163431E+03  0.81852788968E+03  0.12699999809E+01 0. -1.
</event>
<event>
 5   0  0.7454828E-04  0.1486286E+04  0.7818609E-02  0.8893624E-01
        2   -1    0    0  501    0  0.00000000000E+00  0.00000000000E+00  0.90880399093E+03  0.90880399093E+03  0.25500000920E-02 0. -1.
       -2   -1    0    0    0  501  0.00000000000E+00  0.00000000000E+00 -0.60767941773E+03  0.60767941774E+03  0.25500000920E-02 0.  1.
    10030    2    1    2    0    0  0.00000000000E+00  0.00000000000E+00  0.30112457320E+03  0.15164834087E+04  0.14862859483E+04 0.  0.
        3    1    3    3  502    0  0.45897474133E+03  0.11183151040E+03 -0.43476328389E+03  0.64201497110E+03  0.10100000352E+00 0.  1.
       -3    1    3    3    0  502 -0.45897474133E+03 -0.11183151040E+03  0.73588785709E+03  0.87446843757E+03  0.10100000352E+00 0. -1.
</event>
<event>
 5   0  0.4015204E-04  0.1494060E+04  0.7818609E-02  0.8888412E-01
        1   -1    0    0  501    0  0.00000000000E+00  0.00000000000E+00  0.93946040161E+03  0.93946040163E+03  0.50400001928E-02 0.  1.
       -1   -1    0    0    0  501  0.00000000000E+00  0.00000000000E+00 -0.59401551097E+03  0.59401551099E+03  0.50400001928E-02 0. -1.
    10030    2    1    2    0    0  0.00000000000E+00  0.00000000000E+00  0.34544489064E+03  0.15334759126E+04  0.14940603074E+04 0.  0.
        2    1    3    3  502    0 -0.46476344015E+03 -0.33038457209E+03 -0.32260106345E+03  0.65515682620E+03  0.25500000920E-02 0. -1.
       -2    1    3    3    0  502  0.46476344015E+03  0.33038457209E+03  0.66804595409E+03  0.87831908641E+03  0.25500000920E-02 0.  1.
</event>
<event>
 5   0  0.4084462E-04  0.1515225E+04  0.7818609E-02  0.8874391E-01
       -1   -1    0    0    0  501  0.00000000000E+00  0.00000000000E+00  0.27268002397E+03  0.27268002402E+03  0.50400001928E-02 0.  1.
        1   -1    0    0  501    0  0.00000000000E+00  0.00000000000E+00 -0.21049455509E+04  0.21049455509E+04  0.50400001928E-02 0. -1.
    10030    2    1    2    0    0  0.00000000000E+00  0.00000000000E+00 -0.18322655269E+04  0.23776255749E+04  0.15152248722E+04 0.  0.
        1    1    3    3  502    0 -0.19849149473E+03 -0.37356839265E+03 -0.19023630294E+04  0.19488297291E+04  0.50400001928E-02 0. -1.
       -1    1    3    3    0  502  0.19849149473E+03  0.37356839265E+03  0.70097502506E+02  0.42879584577E+03  0.50400001928E-02 0.  1.
</event>
<event>
 5   0  0.7359897E-04  0.1490324E+04  0.7818609E-02  0.8890913E-01
        2   -1    0    0  501    0  0.00000000000E+00  0.00000000000E+00  0.94250963126E+03  0.94250963126E+03  0.25500000920E-02 0.  1.
       -2   -1    0    0    0  501  0.00000000000E+00  0.00000000000E+00 -0.58913581422E+03  0.58913581423E+03  0.25500000920E-02 0. -1.
    10030    2    1    2    0    0  0.00000000000E+00  0.00000000000E+00  0.35337381703E+03  0.15316454455E+04  0.14903236951E+04 0.  0.
        1    1    3    3  502    0 -0.68163036791E+02 -0.66433915187E+03  0.51641777436E+03  0.84420378226E+03  0.50400001928E-02 0.  1.
       -1    1    3    3    0  502  0.68163036791E+02  0.66433915187E+03 -0.16304395733E+03  0.68744166322E+03  0.50400001928E-02 0. -1.
</event>
<event>
 5   0  0.3907345E-04  0.1506914E+04  0.7818609E-02  0.8879868E-01
       -1   -1    0    0    0  501  0.00000000000E+00  0.00000000000E+00  0.67133505637E+03  0.67133505639E+03  0.50400001928E-02 0. -1.
        1   -1    0    0  501    0  0.00000000000E+00  0.00000000000E+00 -0.84562428187E+03  0.84562428189E+03  0.50400001928E-02 0.  1.
    10030    2    1    2    0    0  0.00000000000E+00  0.00000000000E+00 -0.17428922550E+03  0.15169593383E+04  0.15069137002E+04 0.  0.
        5    1    3    3  502    0 -0.23739866506E+03 -0.67002546488E+03 -0.33857530262E+03  0.78736749698E+03  0.46999998093E+01 0. -1.
       -5    1    3    3    0  502  0.23739866506E+03  0.67002546488E+03  0.16428607712E+03  0.72959184130E+03  0.46999998093E+01 0.  1.
</event>
<event>
 5   0  0.4084462E-04  0.1503245E+04  0.7818609E-02  0.8882298E-01
       -1   -1    0    0    0  501  0.00000000000E+00  0.00000000000E+00  0.13294127032E+04  0.13294127032E+04  0.50400001928E-02 0. -1.
        1   -1    0    0  501    0  0.00000000000E+00  0.00000000000E+00 -0.42495195297E+03  0.42495195300E+03  0.50400001928E-02 0.  1.
    10030    2    1    2    0    0  0.00000000000E+00  0.00000000000E+00  0.90446075022E+03  0.17543646562E+04  0.15032451890E+04 0.  0.
        1    1    3    3  502    0 -0.32917106354E+03 -0.24109142404E+03 -0.28445363965E+03  0.49738570240E+03  0.50400001928E-02 0.  1.
       -1    1    3    3    0  502  0.32917106354E+03  0.24109142404E+03  0.11889143899E+04  0.12569789538E+04  0.50400001928E-02 0. -1.
</event>
<event>
 5   0  0.7454828E-04  0.1506035E+04  0.7818609E-02  0.8880450E-01
        2   -1    0    0  501    0  0.00000000000E+00  0.00000000000E+00  0.66773053786E+03  0.66773053787E+03  0.25500000920E-02 0. -1.
       -2   -1    0    0    0  501  0.00000000000E+00  0.00000000000E+00 -0.84919738621E+03  0.84919738622E+03  0.25500000920E-02 0.  1.
    10030    2    1    2    0    0  0.00000000000E+00  0.00000000000E+00 -0.18146684835E+03  0.15169279241E+04  0.15060345646E+04 0.  0.
        3    1    3    3  502    0  0.49217233380E+03 -0.45247281239E+03 -0.43975062995E+03  0.80021614509E+03  0.10100000352E+00 0.  1.
       -3    1    3    3    0  502 -0.49217233380E+03  0.45247281239E+03  0.25828378159E+03  0.71671177900E+03  0.10100000352E+00 0. -1.
</event>
<event>
 5   0  0.4084462E-04  0.1462975E+04  0.7818609E-02  0.8909454E-01
       -1   -1    0    0    0  501  0.00000000000E+00  0.00000000000E+00  0.34756421261E+03  0.34756421265E+03  0.50400001928E-02 0.  1.
        1   -1    0    0  501    0  0.00000000000E+00  0.00000000000E+00 -0.15394967503E+04  0.15394967503E+04  0.50400001928E-02 0. -1.
    10030    2    1    2    0    0  0.00000000000E+00  0.00000000000E+00 -0.11919325377E+04  0.18870609629E+04  0.14629750181E+04 0.  0.
        1    1    3    3  502    0  0.37256767345E+03 -0.25351686839E+03  0.14725096985E+03  0.47408893891E+03  0.50400001928E-02 0.  1.
       -1    1    3    3    0  502 -0.37256767345E+03  0.25351686839E+03 -0.13391835075E+04  0.14129720240E+04  0.50400001928E-02 0. -1.
</event>
<event>
 5   0  0.4084462E-04  0.1494538E+04  0.7818609E-02  0.8888093E-01
       -1   -1    0    0    0  501  0.00000000000E+00  0.00000000000E+00  0.47623169048E+03  0.47623169051E+03  0.50400001928E-02 0. -1.
        1   -1    0    0  501    0  0.00000000000E+00  0.00000000000E+00 -0.11725614106E+04  0.11725614106E+04  0.50400001928E-02 0.  1.
    10030    2    1    2    0    0  0.00000000000E+00  0.00000000000E+00 -0.69632972007E+03  0.16487931011E+04  0.14945379256E+04 0.  0.
        1    1    3    3  502    0  0.47575527541E+03  0.57109739169E+03 -0.26331360907E+03  0.78856158265E+03  0.50400001928E-02 0.  1.
       -1    1    3    3    0  502 -0.47575527541E+03 -0.57109739169E+03 -0.43301611100E+03  0.86023151843E+03  0.50400001928E-02 0. -1.
</event>
<event>
 5   0  0.4015204E-04  0.1439902E+04  0.7818609E-02  0.8925431E-01
       -1   -1    0    0    0  501  0.00000000000E+00  0.00000000000E+00  0.38461835823E+03  0.38461835826E+03  0.50400001928E-02 0.  1.
        1   -1    0    0  501    0  0.00000000000E+00  0.00000000000E+00 -0.13476461229E+04  0.13476461229E+04  0.50400001928E-02 0. -1.
    10030    2    1    2    0    0  0.00000000000E+00  0.00000000000E+00 -0.96302776471E+03  0.17322644812E+04  0.14399019957E+04 0.  0.
        2    1    3    3  502    0 -0.48425382055E+03  0.31428635957E+03 -0.99903476381E+03  0.11538406033E+04  0.25500000920E-02 0.  1.
       -2    1    3    3    0  502  0.48425382055E+03 -0.31428635957E+03  0.36006999108E+02  0.57842387789E+03  0.25500000920E-02 0. -1.
</event>
<event>
 5   0  0.7359897E-04  0.1504781E+04  0.7818609E-02  0.8881280E-01
        2   -1    0    0  501    0  0.00000000000E+00  0.00000000000E+00  0.81631264199E+03  0.81631264200E+03  0.25500000920E-02 0.  1.
       -2   -1    0    0    0  501  0.00000000000E+00  0.00000000000E+00 -0.69347416421E+03  0.69347416421E+03  0.25500000920E-02 0. -1.
    10030    2    1    2    0    0  0.00000000000E+00  0.00000000000E+00  0.12283847779E+03  0.15097868062E+04  0.15047813491E+04 0.  0.
        1    1    3    3  502    0  0.62101568411E+03  0.23838983385E+02 -0.36409400541E+03  0.72027301896E+03  0.50400001928E-02 0. -1.
       -1    1    3    3    0  502 -0.62101568411E+03 -0.23838983385E+02  0.48693248319E+03  0.78951378725E+03  0.50400001928E-02 0.  1.
</event>
<event>
 5   0  0.2800375E-04  0.1502826E+04  0.7818609E-02  0.8882576E-01
       -3   -1    0    0    0  501  0.00000000000E+00  0.00000000000E+00  0.29482081505E+03  0.29482083235E+03  0.10100000352E+00 0.  1.
        3   -1    0    0  501    0  0.00000000000E+00  0.00000000000E+00 -0.19151341932E+04  0.19151341959E+04  0.10100000352E+00 0. -1.
    10030    2    1    2    0    0  0.00000000000E+00  0.00000000000E+00 -0.16203133782E+04  0.22099550282E+04  0.15028259325E+04 0.  0.
        4    1    3    3  502    0 -0.21745212263E+03 -0.18885784141E+03  0.21042614045E+03  0.35669802828E+03  0.12699999809E+01 0.  1.
       -4    1    3    3    0  502  0.21745212263E+03  0.18885784141E+03 -0.18307395186E+04  0.18532569999E+04  0.12699999809E+01 0. -1.
</event>
<event>
 5   0  0.7454828E-04  0.1492677E+04  0.7818609E-02  0.8889337E-01
       -2   -1    0    0    0  501  0.00000000000E+00  0.00000000000E+00  0.10096435920E+04  0.10096435920E+04  0.25500000920E-02 0. -1.
        2   -1    0    0  501    0  0.00000000000E+00  0.00000000000E+00 -0.55170078053E+03  0.55170078053E+03  0.25500000920E-02 0.  1.
    10030    2    1    2    0    0  0.00000000000E+00  0.00000000000E+00  0.45794281145E+03  0.15613443725E+04  0.14926770016E+04 0.  0.
        3    1    3    3  502    0  0.61496697929E+03  0.31790366056E+03  0.52068061980E+03  0.86623059346E+03  0.10100000352E+00 0. -1.
       -3    1    3    3    0  502 -0.61496697929E+03 -0.31790366056E+03 -0.62737808352E+02  0.69511377904E+03  0.10100000352E+00 0.  1.
</event>
<event>
 5   0  0.7634227E-04  0.1507116E+04  0.7818609E-02  0.8879734E-01
       -2   -1    0    0    0  501  0.00000000000E+00  0.00000000000E+00  0.61524001410E+03  0.61524001411E+03  0.25500000920E-02 0. -1.
        2   -1    0    0  501    0  0.00000000000E+00  0.00000000000E+00 -0.92297280527E+03  0.92297280528E+03  0.25500000920E-02 0.  1.
    10030    2    1    2    0    0  0.00000000000E+00  0.00000000000E+00 -0.30773279117E+03  0.15382128194E+04  0.15071161889E+04 0.  0.
        2    1    3    3  502    0 -0.57612576676E+03 -0.39053990821E+03 -0.44862887336E+03  0.82807619520E+03  0.25500000920E-02 0.  1.
       -2    1    3    3    0  502  0.57612576676E+03  0.39053990821E+03  0.14089608219E+03  0.71013662419E+03  0.25500000920E-02 0. -1.
</event>
<event>
 5   0  0.7359897E-04  0.1506987E+04  0.7818609E-02  0.8879820E-01
       -2   -1    0    0    0  501  0.00000000000E+00  0.00000000000E+00  0.26567975703E+03  0.26567975704E+03  0.25500000920E-02 0.  1.
        2   -1    0    0  501    0  0.00000000000E+00  0.00000000000E+00 -0.21369795896E+04  0.21369795896E+04  0.25500000920E-02 0. -1.
    10030    2    1    2    0    0  0.00000000000E+00  0.00000000000E+00 -0.18712998325E+04  0.24026593466E+04  0.15069866863E+04 0.  0.
        1    1    3    3  502    0  0.22442148380E+02  0.70263420806E+02 -0.21312097436E+04  0.21324857724E+04  0.50400001928E-02 0. -1.
       -1    1    3    3    0  502 -0.22442148380E+02 -0.70263420806E+02  0.25990991103E+03  0.27017357422E+03  0.50400001928E-02 0.  1.
</event>
<event>
 5   0  0.7454828E-04  0.1501802E+04  0.7818609E-02  0.8883255E-01
        2   -1    0    0  501    0  0.00000000000E+00  0.00000000000E+00  0.21906301201E+04  0.21906301201E+04  0.25500000920E-02 0. -1.
       -2   -1    0    0    0  501  0.00000000000E+00  0.00000000000E+00 -0.25739280901E+03  0.25739280902E+03  0.25500000920E-02 0.  1.
    10030    2    1    2    0    0  0.00000000000E+00  0.00000000000E+00  0.19332373111E+04  0.24480229291E+04  0.15018021709E+04 0.  0.
        3    1    3    3  502    0  0.23962607545E+02 -0.52775072739E+03  0.18364604234E+04  0.19109374490E+04  0.10100000352E+00 0. -1.
       -3    1    3    3    0  502 -0.23962607545E+02  0.52775072739E+03  0.96776887676E+02  0.53708548017E+03  0.10100000352E+00 0.  1.
</event>
<event>
 5   0  0.4084462E-04  0.1499031E+04  0.7818609E-02  0.8885098E-01
       -1   -1    0    0    0  501  0.00000000000E+00  0.00000000000E+00  0.47676023876E+03  0.47676023878E+03  0.50400001928E-02 0.  1.
        1   -1    0    0  501    0  0.00000000000E+00  0.00000000000E+00 -0.11783140430E+04  0.11783140430E+04  0.50400001928E-02 0. -1.
    10030    2    1    2    0    0  0.00000000000E+00  0.00000000000E+00 -0.70155380427E+03  0.16550742818E+04  0.14990307329E+04 0.  0.
        1    1    3    3  502    0  0.77817920296E+02 -0.54985335265E+03  0.20498940742E+03  0.59195860946E+03  0.50400001928E-02 0.  1.
       -1    1    3    3    0  502 -0.77817920296E+02  0.54985335265E+03 -0.90654321169E+03  0.10631156724E+04  0.50400001928E-02 0. -1.
</event>
<event>
 5   0  0.2800375E-04  0.1473755E+04  0.7818609E-02  0.8902096E-01
        3   -1    0    0  501    0  0.00000000000E+00  0.00000000000E+00  0.28626784016E+03  0.28626785797E+03  0.10100000352E+00 0.  1.
       -3   -1    0    0    0  501  0.00000000000E+00  0.00000000000E+00 -0.18967843409E+04  0.18967843436E+04  0.10100000352E+00 0. -1.
    10030    2    1    2    0    0  0.00000000000E+00  0.00000000000E+00 -0.16105165008E+04  0.21830522016E+04  0.14737549035E+04 0.  0.
        2    1    3    3  502    0 -0.12091054629E+03  0.61755363168E+03 -0.13731850987E+04  0.15105062607E+04  0.25500000920E-02 0. -1.
       -2    1    3    3    0  502  0.12091054629E+03 -0.61755363168E+03 -0.23733140201E+03  0.67254594088E+03  0.25500000920E-02 0.  1.
</event>
<event>
 5   0  0.2800375E-04  0.1509773E+04  0.7818609E-02  0.8877980E-01
       -3   -1    0    0    0  501  0.00000000000E+00  0.00000000000E+00  0.11372938217E+04  0.11372938262E+04  0.10100000352E+00 0. -1.
        3   -1    0    0  501    0  0.00000000000E+00  0.00000000000E+00 -0.50106089045E+03  0.50106090062E+03  0.10100000352E+00 0.  1.
    10030    2    1    2    0    0  0.00000000000E+00  0.00000000000E+00  0.63623293129E+03  0.16383547268E+04  0.15097727869E+04 0.  0.
        3    1    3    3  502    0  0.94332905293E+02 -0.11418770491E+03  0.11213712262E+04  0.11311105013E+04  0.10100000352E+00 0. -1.
       -3    1    3    3    0  502 -0.94332905293E+02  0.11418770491E+03 -0.48513829491E+03  0.50724422556E+03  0.10100000352E+00 0.  1.
</event>
<event>
 5   0  0.7547580E-04  0.1495821E+04  0.7818609E-02  0.8887237E-01
        2   -1    0    0  501    0  0.00000000000E+00  0.00000000000E+00  0.21470762875E+04  0.21470762875E+04  0.25500000920E-02 0.  1.
       -2   -1    0    0    0  501  0.00000000000E+00  0.00000000000E+00 -0.26052636876E+03  0.26052636878E+03  0.25500000920E-02 0. -1.
    10030    2    1    2    0    0  0.00000000000E+00  0.00000000000E+00  0.18865499188E+04  0.24076026563E+04  0.14958208297E+04 0.  0.
        4    1    3    3  502    0  0.45801505138E+03  0.52846261568E+03  0.51646156898E+03  0.86935878014E+03  0.12699999809E+01 0. -1.
       -4    1    3    3    0  502 -0.45801505138E+03 -0.52846261568E+03  0.13700883498E+04  0.15382438762E+04  0.12699999809E+01 0.  1.
</event>
<event>
 5   0  0.7634227E-04  0.1497340E+04  0.7818609E-02  0.8886224E-01
       -2   -1    0    0    0  501  0.00000000000E+00  0.00000000000E+00  0.62253758344E+03  0.62253758345E+03  0.25500000920E-02 0. -1.
        2   -1    0    0  501    0  0.00000000000E+00  0.00000000000E+00 -0.90035783788E+03  0.90035783789E+03  0.25500000920E-02 0.  1.
    10030    2    1    2    0    0  0.00000000000E+00  0.00000000000E+00 -0.27782025444E+03  0.15228954213E+04  0.14973397646E+04 0.  0.
        2    1    3    3  502    0  0.49141044415E+03 -0.28527159957E+03  0.35689585555E+03  0.67099833223E+03  0.25500000920E-02 0. -1.
       -2    1    3    3    0  502 -0.49141044415E+03  0.28527159957E+03 -0.63471610999E+03  0.85189708910E+03  0.25500000920E-02 0.  1.
</event>
<event>
 5   0  0.4015204E-04  0.1502610E+04  0.7818609E-02  0.8882719E-01
        1   -1    0    0  501    0  0.00000000000E+00  0.00000000000E+00  0.13418074157E+04  0.13418074157E+04  0.50400001928E-02 0.  1.
       -1   -1    0    0    0  501  0.00000000000E+00  0.00000000000E+00 -0.42067062804E+03  0.42067062807E+03  0.50400001928E-02 0. -1.
    10030    2    1    2    0    0  0.00000000000E+00  0.00000000000E+00  0.92113678769E+03  0.17624780438E+04  0.15026096876E+04 0.  0.
        2    1    3    3  502    0 -0.20104823961E+03 -0.12312340364E+03  0.12972975094E+04  0.13185448779E+04  0.25500000920E-02 0.  1.
       -2    1    3    3    0  502  0.20104823961E+03  0.12312340364E+03 -0.37616072174E+03  0.44393316587E+03  0.25500000920E-02 0. -1.
</event>
<event>
 5   0  0.2800375E-04  0.1494113E+04  0.7818609E-02  0.8888377E-01
        4   -1    0    0  501    0  0.00000000000E+00  0.00000000000E+00  0.75866255766E+03  0.75866362065E+03  0.12699999809E+01 0. -1.
       -4   -1    0    0    0  501  0.00000000000E+00  0.00000000000E+00 -0.73562557301E+03  0.73562666929E+03  0.12699999809E+01 0.  1.
    10030    2    1    2    0    0  0.00000000000E+00  0.00000000000E+00  0.23036984651E+02  0.14942902899E+04  0.14941127026E+04 0.  0.
        5    1    3    3  502    0 -0.24178154471E+03  0.48713117564E+03 -0.50071032843E+03  0.73924828078E+03  0.46999998093E+01 0.  1.
       -5    1    3    3    0  502  0.24178154471E+03 -0.48713117564E+03  0.52374731308E+03  0.75504200916E+03  0.46999998093E+01 0. -1.
</event>
<event>
 5   0  0.7359897E-04  0.1549797E+04  0.7818609E-02  0.8851997E-01
       -2   -1    0    0    0  501  0.00000000000E+00  0.00000000000E+00  0.10583426871E+04  0.10583426871E+04  0.25500000920E-02 0. -1.
        2   -1    0    0  501    0  0.00000000000E+00  0.00000000000E+00 -0.56736619229E+03  0.56736619229E+03  0.25500000920E-02 0.  1.
    10030    2    1    2    0    0  0.00000000000E+00  0.00000000000E+00  0.49097649481E+03  0.16257088794E+04  0.15497972261E+04 0.  0.
        1    1    3    3  502    0  0.19519768631E+03 -0.53405512409E+03 -0.30674939279E+03  0.64607445570E+03  0.50400001928E-02 0.  1.
       -1    1    3    3    0  502 -0.19519768631E+03  0.53405512409E+03  0.79772588760E+03  0.97963442369E+03  0.50400001928E-02 0. -1.
</event>
<event>
 5   0  0.4084462E-04  0.1514096E+04  0.7818609E-02  0.8875133E-01
       -1   -1    0    0    0  501  0.00000000000E+00  0.00000000000E+00  0.80175092182E+03  0.80175092183E+03  0.50400001928E-02 0. -1.
        1   -1    0    0  501    0  0.00000000000E+00  0.00000000000E+00 -0.71483762963E+03  0.71483762965E+03  0.50400001928E-02 0.  1.
    10030    2    1    2    0    0  0.00000000000E+00  0.00000000000E+00  0.86913292190E+02  0.15165885515E+04  0.15140960716E+04 0.  0.
        1    1    3    3  502    0 -0.51983753964E+03 -0.55000574303E+03  0.63093600290E+02  0.75941963854E+03  0.50400001928E-02 0. -1.
       -1    1    3    3    0  502  0.51983753964E+03  0.55000574303E+03  0.23819691900E+02  0.75716891294E+03  0.50400001928E-02 0.  1.
</event>
<event>
 5   0  0.3907345E-04  0.1416817E+04  0.7818609E-02  0.8941735E-01
        1   -1    0    0  501    0  0.00000000000E+00  0.00000000000E+00  0.13488911315E+04  0.13488911315E+04  0.50400001928E-02 0. -1.
       -1   -1    0    0    0  501  0.00000000000E+00  0.00000000000E+00 -0.37204079716E+03  0.37204079719E+03  0.50400001928E-02 0.  1.
    10030    2    1    2    0    0  0.00000000000E+00  0.00000000000E+00  0.97685033436E+03  0.17209319287E+04  0.14168168998E+04 0.  0.
        5    1    3    3  502    0  0.19326655889E+03  0.50609337727E+03 -0.65988822609E+02  0.54576467823E+03  0.46999998093E+01 0.  1.
       -5    1    3    3    0  502 -0.19326655889E+03 -0.50609337727E+03  0.10428391570E+04  0.11751672505E+04  0.46999998093E+01 0. -1.
</event>
<event>
 5   0  0.4084462E-04  0.1514341E+04  0.7818609E-02  0.8874972E-01
        1   -1    0    0  501    0  0.00000000000E+00  0.00000000000E+00  0.60372503907E+03  0.60372503909E+03  0.50400001928E-02 0. -1.
       -1   -1    0    0    0  501  0.00000000000E+00  0.00000000000E+00 -0.94961694529E+03  0.94961694530E+03  0.50400001928E-02 0.  1.
    10030    2    1    2    0    0  0.00000000000E+00  0.00000000000E+00 -0.34589190622E+03  0.15533419844E+04  0.15143414772E+04 0.  0.
        1    1    3    3  502    0 -0.40933506410E+02 -0.53430912940E+03  0.37575649463E+03  0.65448815190E+03  0.50400001928E-02 0. -1.
       -1    1    3    3    0  502  0.40933506410E+02  0.53430912940E+03 -0.72164840085E+03  0.89885383248E+03  0.50400001928E-02 0.  1.
</event>
<event>
 5   0  0.4086710E-04  0.1498653E+04  0.7818609E-02  0.8885349E-01
        1   -1    0    0  501    0  0.00000000000E+00  0.00000000000E+00  0.11986981881E+04  0.11986981881E+04  0.50400001928E-02 0. -1.
       -1   -1    0    0    0  501  0.00000000000E+00  0.00000000000E+00 -0.46841641933E+03  0.46841641935E+03  0.50400001928E-02 0.  1.
    10030    2    1    2    0    0  0.00000000000E+00  0.00000000000E+00  0.73028176881E+03  0.16671146075E+04  0.14986526124E+04 0.  0.
        3    1    3    3  502    0 -0.86518624739E+02  0.50835200820E+03  0.96992999501E+03  0.10984859772E+04  0.10100000352E+00 0. -1.
       -3    1    3    3    0  502  0.86518624739E+02 -0.50835200820E+03 -0.23964822621E+03  0.56862863030E+03  0.10100000352E+00 0.  1.
</event>
<event>
 5   0  0.7454828E-04  0.1489779E+04  0.7818609E-02  0.8891278E-01
       -2   -1    0    0    0  501  0.00000000000E+00  0.00000000000E+00  0.14389995163E+04  0.14389995163E+04  0.25500000920E-02 0. -1.
        2   -1    0    0  501    0  0.00000000000E+00  0.00000000000E+00 -0.38558759867E+03  0.38558759868E+03  0.25500000920E-02 0.  1.
    10030    2    1    2    0    0  0.00000000000E+00  0.00000000000E+00  0.10534119176E+04  0.18245871150E+04  0.14897790010E+04 0.  0.
        3    1    3    3  502    0  0.47029889717E+03 -0.47219464136E+03  0.11919511178E+03  0.67702017465E+03  0.10100000352E+00 0.  1.
       -3    1    3    3    0  502 -0.47029889717E+03  0.47219464136E+03  0.93421680587E+03  0.11475669403E+04  0.10100000352E+00 0. -1.
</event>
<event>
 5   0  0.7359897E-04  0.1507943E+04  0.7818609E-02  0.8879188E-01
        2   -1    0    0  501    0  0.00000000000E+00  0.00000000000E+00  0.66862985258E+03  0.66862985258E+03  0.25500000920E-02 0.  1.
       -2   -1    0    0    0  501  0.00000000000E+00  0.00000000000E+00 -0.85020621610E+03  0.85020621611E+03  0.25500000920E-02 0. -1.
    10030    2    1    2    0    0  0.00000000000E+00  0.00000000000E+00 -0.18157636352E+03  0.15188360687E+04  0.15079433105E+04 0.  0.
        1    1    3    3  502    0  0.50092716902E+02  0.73322017574E+03 -0.26038546457E+03  0.77969333496E+03  0.50400001928E-02 0. -1.
       -1    1    3    3    0  502 -0.50092716902E+02 -0.73322017574E+03  0.78809101041E+02  0.73914273373E+03  0.50400001928E-02 0.  1.
</event>
<event>
 5   0  0.2800375E-04  0.1411591E+04  0.7818609E-02  0.8945471E-01
        3   -1    0    0  501    0  0.00000000000E+00  0.00000000000E+00  0.54653380943E+03  0.54653381876E+03  0.10100000352E+00 0.  1.
       -3   -1    0    0    0  501  0.00000000000E+00  0.00000000000E+00 -0.91146594716E+03  0.91146595276E+03  0.10100000352E+00 0. -1.
    10030    2    1    2    0    0  0.00000000000E+00  0.00000000000E+00 -0.36493213773E+03  0.14579997715E+04  0.14115905457E+04 0.  0.
        4    1    3    3  502    0 -0.48517035905E+03  0.51259619371E+03 -0.18198254237E+03  0.72887886080E+03  0.12699999809E+01 0.  1.
       -4    1    3    3    0  502  0.48517035905E+03 -0.51259619371E+03 -0.18294959536E+03  0.72912091071E+03  0.12699999809E+01 0. -1.
</event>
<event>
 5   0  0.7547580E-04  0.1506864E+04  0.7818609E-02  0.8879901E-01
       -2   -1    0    0    0  501  0.00000000000E+00  0.00000000000E+00  0.87210484833E+03  0.87210484833E+03  0.25500000920E-02 0. -1.
        2   -1    0    0  501    0  0.00000000000E+00  0.00000000000E+00 -0.65090788630E+03  0.65090788631E+03  0.25500000920E-02 0.  1.
    10030    2    1    2    0    0  0.00000000000E+00  0.00000000000E+00  0.22119696202E+03  0.15230127346E+04  0.15068641922E+04 0.  0.
        4    1    3    3  502    0 -0.56431148186E+03 -0.36488571452E+03 -0.23374198440E+03  0.71149558072E+03  0.12699999809E+01 0.  1.
       -4    1    3    3    0  502  0.56431148186E+03  0.36488571452E+03  0.45493894643E+03  0.81151715391E+03  0.12699999809E+01 0. -1.
</event>
<event>
 5   0  0.4015204E-04  0.1523269E+04  0.7818609E-02  0.8869125E-01
       -1   -1    0    0    0  501  0.00000000000E+00  0.00000000000E+00  0.33886682646E+03  0.33886682650E+03  0.50400001928E-02 0. -1.
        1   -1    0    0  501    0  0.00000000000E+00  0.00000000000E+00 -0.17118447240E+04  0.17118447240E+04  0.50400001928E-02 0.  1.
    10030    2    1    2    0    0  0.00000000000E+00  0.00000000000E+00 -0.13729778975E+04  0.20507115505E+04  0.15232693643E+04 0.  0.
        2    1    3    3  502    0 -0.74374582487E+01 -0.63122104642E+03 -0.12601776573E+04  0.14094477831E+04  0.25500000920E-02 0.  1.
       -2    1    3    3    0  502  0.74374582487E+01  0.63122104642E+03 -0.11280024023E+03  0.64126376744E+03  0.25500000920E-02 0. -1.
</event>
<event>
 5   0  0.7672251E-04  0.1392581E+04  0.7818609E-02  0.8959207E-01
        2   -1    0    0  501    0  0.00000000000E+00  0.00000000000E+00  0.16561187780E+04  0.16561187780E+04  0.25500000920E-02 0.  1.
       -2   -1    0    0    0  501  0.00000000000E+00  0.00000000000E+00 -0.29274482264E+03  0.29274482265E+03  0.25500000920E-02 0. -1.
    10030    2    1    2    0    0  0.00000000000E+00  0.00000000000E+00  0.13633739554E+04  0.19488636007E+04  0.13925806231E+04 0.  0.
        5    1    3    3  502    0 -0.69418648781E+03 -0.53760320622E+02  0.67663028233E+03  0.97089426865E+03  0.46999998093E+01 0.  1.
       -5    1    3    3    0  502  0.69418648781E+03  0.53760320622E+02  0.68674367307E+03  0.97796933205E+03  0.46999998093E+01 0. -1.
</event>
<event>
 5   0  0.7672251E-04  0.1508635E+04  0.7818609E-02  0.8878731E-01
       -2   -1    0    0    0  501  0.00000000000E+00  0.00000000000E+00  0.62616159625E+03  0.62616159625E+03  0.25500000920E-02 0. -1.
        2   -1    0    0  501    0  0.00000000000E+00  0.00000000000E+00 -0.90870304418E+03  0.90870304418E+03  0.25500000920E-02 0.  1.
    10030    2    1    2    0    0  0.00000000000E+00  0.00000000000E+00 -0.28254144793E+03  0.15348646404E+04  0.15086350767E+04 0.  0.
        5    1    3    3  502    0 -0.42453130933E+03 -0.46732360451E+03 -0.56118719291E+03  0.84473151913E+03  0.46999998093E+01 0.  1.
       -5    1    3    3    0  502  0.42453130933E+03  0.46732360451E+03  0.27864574498E+03  0.69013312131E+03  0.46999998093E+01 0. -1.
</event>
<event>
 5   0  0.7454828E-04  0.1206758E+04  0.7818609E-02  0.9106962E-01
        2   -1    0    0  501    0  0.00000000000E+00  0.00000000000E+00  0.87287583498E+03  0.87287583498E+03  0.25500000920E-02 0.  1.
       -2   -1    0    0    0  501  0.00000000000E+00  0.00000000000E+00 -0.41708793509E+03  0.41708793510E+03  0.25500000920E-02 0. -1.
    10030    2    1    2    0    0  0.00000000000E+00  0.00000000000E+00  0.45578789989E+03  0.12899637701E+04  0.12067576055E+04 0.  0.
        3    1    3    3  502    0 -0.25763387979E+03 -0.22399301733E+03  0.75970916472E+03  0.83289021665E+03  0.10100000352E+00 0.  1.
       -3    1    3    3    0  502  0.25763387979E+03  0.22399301733E+03 -0.30392126484E+03  0.45707355343E+03  0.10100000352E+00 0. -1.
</event>
<event>
 5   0  0.7672251E-04  0.1501751E+04  0.7818609E-02  0.8883290E-01
       -2   -1    0    0    0  501  0.00000000000E+00  0.00000000000E+00  0.53717161234E+03  0.53717161235E+03  0.25500000920E-02 0.  1.
        2   -1    0    0  501    0  0.00000000000E+00  0.00000000000E+00 -0.10495972141E+04  0.10495972141E+04  0.25500000920E-02 0. -1.
    10030    2    1    2    0    0  0.00000000000E+00  0.00000000000E+00 -0.51242560178E+03  0.15867688265E+04  0.15017507487E+04 0.  0.
        5    1    3    3  502    0 -0.26346216502E+03 -0.60870128360E+03 -0.62807766839E+03  0.91347315920E+03  0.46999998093E+01 0. -1.
       -5    1    3    3    0  502  0.26346216502E+03  0.60870128360E+03  0.11565206661E+03  0.67329566727E+03  0.46999998093E+01 0.  1.
</event>
<event>
 5   0  0.7634227E-04  0.1420541E+04  0.7818609E-02  0.8939083E-01
        2   -1    0    0  501    0  0.00000000000E+00  0.00000000000E+00  0.56774486740E+03  0.56774486740E+03  0.25500000920E-02 0. -1.
       -2   -1    0    0    0  501  0.00000000000E+00  0.00000000000E+00 -0.88857517974E+03  0.88857517975E+03  0.25500000920E-02 0.  1.
    10030    2    1    2    0    0  0.00000000000E+00  0.00000000000E+00 -0.32083031235E+03  0.14563200471E+04  0.14205407387E+04 0.  0.
        2    1    3    3  502    0 -0.46516608654E+03 -0.36511513153E+03 -0.56376531352E+03  0.81701889578E+03  0.25500000920E-02 0.  1.
       -2    1    3    3    0  502  0.46516608654E+03  0.36511513153E+03  0.24293500117E+03  0.63930115137E+03  0.25500000920E-02 0. -1.
</event>
<event>
 5   0  0.7672251E-04  0.1517000E+04  0.7818609E-02  0.8873226E-01
        2   -1    0    0  501    0  0.00000000000E+00  0.00000000000E+00  0.55318216932E+03  0.55318216933E+03  0.25500000920E-02 0.  1.
       -2   -1    0    0    0  501  0.00000000000E+00  0.00000000000E+00 -0.10400237539E+04  0.10400237539E+04  0.25500000920E-02 0. -1.
    10030    2    1    2    0    0  0.00000000000E+00  0.00000000000E+00 -0.48684158458E+03  0.15932059232E+04  0.15170004566E+04 0.  0.
        5    1    3    3  502    0  0.55234837913E+03  0.33287832913E+03 -0.66273108750E+03  0.92473309569E+03  0.46999998093E+01 0. -1.
       -5    1    3    3    0  502 -0.55234837913E+03 -0.33287832913E+03  0.17588950292E+03  0.66847282754E+03  0.46999998093E+01 0.  1.
</event>
<event>
 5   0  0.7634227E-04  0.1506972E+04  0.7818609E-02  0.8879830E-01
       -2   -1    0    0    0  501  0.00000000000E+00  0.00000000000E+00  0.33455560350E+03  0.33455560351E+03  0.25500000920E-02 0.  1.
        2   -1    0    0  501    0  0.00000000000E+00  0.00000000000E+00 -0.16970010690E+04  0.16970010690E+04  0.25500000920E-02 0. -1.
    10030    2    1    2    0    0  0.00000000000E+00  0.00000000000E+00 -0.13624454655E+04  0.20315566725E+04  0.15069720857E+04 0.  0.
        2    1    3    3  502    0  0.64909800450E+03 -0.25539481013E+03 -0.29710388943E+03  0.75817244055E+03  0.25500000920E-02 0.  1.
       -2    1    3    3    0  502 -0.64909800450E+03  0.25539481013E+03 -0.10653415760E+04  0.12733842319E+04  0.25500000920E-02 0. -1.
</event>
<event>
 5   0  0.7547580E-04  0.1272093E+04  0.7818609E-02  0.9051993E-01
        2   -1    0    0  501    0  0.00000000000E+00  0.00000000000E+00  0.75358246922E+03  0.75358246922E+03  0.25500000920E-02 0.  1.
       -2   -1    0    0    0  501  0.00000000000E+00  0.00000000000E+00 -0.53684290604E+03  0.53684290605E+03  0.25500000920E-02 0. -1.
    10030    2    1    2    0    0  0.00000000000E+00  0.00000000000E+00  0.21673956318E+03  0.12904253753E+04  0.12720933971E+04 0.  0.
        4    1    3    3  502    0  0.30175519977E+03 -0.23432042072E+03 -0.40747737828E+03  0.55857111173E+03  0.12699999809E+01 0. -1.
       -4    1    3    3    0  502 -0.30175519977E+03  0.23432042072E+03  0.62421694146E+03  0.73185426354E+03  0.12699999809E+01 0.  1.
</event>
<event>
 5   0  0.7359897E-04  0.1475224E+04  0.7818609E-02  0.8901098E-01
       -2   -1    0    0    0  501  0.00000000000E+00  0.00000000000E+00  0.62962020478E+03  0.62962020478E+03  0.25500000920E-02 0.  1.
        2   -1    0    0  501    0  0.00000000000E+00  0.00000000000E+00 -0.86412605030E+03  0.86412605031E+03  0.25500000920E-02 0. -1.
    10030    2    1    2    0    0  0.00000000000E+00  0.00000000000E+00 -0.23450584552E+03  0.14937462551E+04  0.14752236722E+04 0.  0.
        1    1    3    3  502    0  0.19656095964E+03  0.63440962532E+03 -0.44215466241E+03  0.79788002173E+03  0.50400001928E-02 0. -1.
       -1    1    3    3    0  502 -0.19656095964E+03 -0.63440962532E+03  0.20764881689E+03  0.69586623336E+03  0.50400001928E-02 0.  1.
</event>
<event>
 5   0  0.4084462E-04  0.1586861E+04  0.7818609E-02  0.8828661E-01
        1   -1    0    0  501    0  0.00000000000E+00  0.00000000000E+00  0.61645103908E+03  0.61645103910E+03  0.50400001928E-02 0. -1.
       -1   -1    0    0    0  501  0.00000000000E+00  0.00000000000E+00 -0.10212198528E+04  0.10212198528E+04  0.50400001928E-02 0.  1.
    10030    2    1    2    0    0  0.00000000000E+00  0.00000000000E+00 -0.40476881375E+03  0.16376708919E+04  0.15868611022E+04 0.  0.
        1    1    3    3  502    0 -0.64054735485E+03  0.24101308540E+03  0.21189613939E+03  0.71644134097E+03  0.50400001928E-02 0. -1.
       -1    1    3    3    0  502  0.64054735485E+03 -0.24101308540E+03 -0.61666495314E+03  0.92122955098E+03  0.50400001928E-02 0.  1.
</event>
<event>
 5   0  0.3907345E-04  0.1513291E+04  0.7818609E-02  0.8875662E-01
       -1   -1    0    0    0  501  0.00000000000E+00  0.00000000000E+00  0.40293358165E+03  0.40293358168E+03  0.50400001928E-02 0. -1.
        1   -1    0    0  501    0  0.00000000000E+00  0.00000000000E+00 -0.14208613529E+04  0.14208613529E+04  0.50400001928E-02 0.  1.
    10030    2    1    2    0    0  0.00000000000E+00  0.00000000000E+00 -0.10179277713E+04  0.18237949346E+04  0.15132914511E+04 0.  0.
        5    1    3    3  502    0 -0.72319373794E+03 -0.21825510039E+03 -0.56074744806E+03  0.94079979908E+03  0.46999998093E+01 0. -1.
       -5    1    3    3    0  502  0.72319373794E+03  0.21825510039E+03 -0.45718032323E+03  0.88299513554E+03  0.46999998093E+01 0.  1.
</event>
<event>
 5   0  0.4015204E-04  0.1404816E+04  0.7818609E-02  0.8950340E-01
        1   -1    0    0  501    0  0.00000000000E+00  0.00000000000E+00  0.18090546134E+04  0.18090546134E+04  0.50400001928E-02 0. -1.
       -1   -1    0    0    0  501  0.00000000000E+00  0.00000000000E+00 -0.27272632913E+03  0.27272632918E+03  0.50400001928E-02 0.  1.
    10030    2    1    2    0    0  0.00000000000E+00  0.00000000000E+00  0.15363282843E+04  0.20817809426E+04  0.14048157516E+04 0.  0.
        2    1    3    3  502    0 -0.17702564082E+03  0.64463115884E+03  0.44864807390E+03  0.80509161136E+03  0.25500000920E-02 0.  1.
       -2    1    3    3    0  502  0.17702564082E+03 -0.64463115884E+03  0.10876802104E+04  0.12766893312E+04  0.25500000920E-02 0. -1.
</event>
<event>
 5   0  0.3907345E-04  0.1495340E+04  0.7818609E-02  0.8887558E-01
       -1   -1    0    0    0  501  0.00000000000E+00  0.00000000000E+00  0.87835056108E+03  0.87835056110E+03  0.50400001928E-02 0.  1.
        1   -1    0    0  501    0  0.00000000000E+00  0.00000000000E+00 -0.63643185458E+03  0.63643185460E+03  0.50400001928E-02 0. -1.
    10030    2    1    2    0    0  0.00000000000E+00  0.00000000000E+00  0.24191870651E+03  0.15147824157E+04  0.14953397963E+04 0.  0.
        5    1    3    3  502    0  0.31280829134E+02 -0.70548655693E+03 -0.12779077258E+03  0.71766450646E+03  0.46999998093E+01 0. -1.
       -5    1    3    3    0  502 -0.31280829134E+02  0.70548655693E+03  0.36970947909E+03  0.79711790923E+03  0.46999998093E+01 0.  1.
</event>
<event>
 5   0  0.7359897E-04  0.1505079E+04  0.7818609E-02  0.8881082E-01
        2   -1    0    0  501    0  0.00000000000E+00  0.00000000000E+00  0.81971955628E+03  0.81971955629E+03  0.25500000920E-02 0. -1.
       -2   -1    0    0    0  501  0.00000000000E+00  0.00000000000E+00 -0.69086556796E+03  0.69086556796E+03  0.25500000920E-02 0.  1.
    10030    2    1    2    0    0  0.00000000000E+00  0.00000000000E+00  0.12885398832E+03  0.15105851243E+04  0.15050794223E+04 0.  0.
        1    1    3    3  502    0  0.12176957473E+03  0.36853264167E+03  0.71151165972E+03  0.81048934554E+03  0.50400001928E-02 0. -1.
       -1    1    3    3    0  502 -0.12176957473E+03 -0.36853264167E+03 -0.58265767139E+03  0.70009577871E+03  0.50400001928E-02 0.  1.
</event>
<event>
 5   0  0.7547580E-04  0.1431197E+04  0.7818609E-02  0.8931541E-01
       -2   -1    0    0    0  501  0.00000000000E+00  0.00000000000E+00  0.14333627162E+04  0.14333627162E+04  0.25500000920E-02 0.  1.
        2   -1    0    0  501    0  0.00000000000E+00  0.00000000000E+00 -0.35725886212E+03  0.35725886213E+03  0.25500000920E-02 0. -1.
    10030    2    1    2    0    0  0.00000000000E+00  0.00000000000E+00  0.10761038541E+04  0.17906215783E+04  0.14311974469E+04 0.  0.
        4    1    3    3  502    0 -0.23520699495E+03 -0.80713371200E+02  0.13775654910E+04  0.13998304446E+04  0.12699999809E+01 0.  1.
       -4    1    3    3    0  502  0.23520699495E+03  0.80713371200E+02 -0.30146163692E+03  0.39079113372E+03  0.12699999809E+01 0. -1.
</event>
<event>
 5   0  0.4058874E-04  0.1507101E+04  0.7818609E-02  0.8879745E-01
        1   -1    0    0  501    0  0.00000000000E+00  0.00000000000E+00  0.62564331772E+03  0.62564331774E+03  0.50400001928E-02 0. -1.
       -1   -1    0    0    0  501  0.00000000000E+00  0.00000000000E+00 -0.90760658791E+03  0.90760658792E+03  0.50400001928E-02 0.  1.
    10030    2    1    2    0    0  0.00000000000E+00  0.00000000000E+00 -0.28196327019E+03  0.15332499057E+04  0.15071005233E+04 0.  0.
        4    1    3    3  502    0 -0.39980432461E+03  0.24327485708E+03 -0.74183062126E+03  0.87712053767E+03  0.12699999809E+01 0.  1.
       -4    1    3    3    0  502  0.39980432461E+03 -0.24327485708E+03  0.45986735107E+03  0.65612936799E+03  0.12699999809E+01 0. -1.
</event>
<event>
 5   0  0.4015204E-04  0.1590806E+04  0.7818609E-02  0.8826216E-01
        1   -1    0    0  501    0  0.00000000000E+00  0.00000000000E+00  0.15907564432E+04  0.15907564432E+04  0.50400001928E-02 0.  1.
       -1   -1    0    0    0  501  0.00000000000E+00  0.00000000000E+00 -0.39771402839E+03  0.39771402842E+03  0.50400001928E-02 0. -1.
    10030    2    1    2    0    0  0.00000000000E+00  0.00000000000E+00  0.11930424148E+04  0.19884704716E+04  0.15908062776E+04 0.  0.
        2    1    3    3  502    0  0.67154222814E+03 -0.31952118147E+03  0.24385189683E+03  0.78264072037E+03  0.25500000920E-02 0.  1.
       -2    1    3    3    0  502 -0.67154222814E+03  0.31952118147E+03  0.94919051799E+03  0.12058297513E+04  0.25500000920E-02 0. -1.
</event>
<event>
 5   0  0.4015204E-04  0.1507755E+04  0.7818609E-02  0.8879313E-01
        1   -1    0    0  501    0  0.00000000000E+00  0.00000000000E+00  0.69456960935E+03  0.69456960936E+03  0.50400001928E-02 0. -1.
       -1   -1    0    0    0  501  0.00000000000E+00  0.00000000000E+00 -0.81824911578E+03  0.81824911579E+03  0.50400001928E-02 0.  1.
    10030    2    1    2    0    0  0.00000000000E+00  0.00000000000E+00 -0.12367950643E+03  0.15128187252E+04  0.15077545805E+04 0.  0.
        2    1    3    3  502    0  0.30490816065E+02  0.15309287750E+02  0.69379456770E+03  0.69463297239E+03  0.25500000920E-02 0. -1.
       -2    1    3    3    0  502 -0.30490816065E+02 -0.15309287750E+02 -0.81747407413E+03  0.81818575277E+03  0.25500000920E-02 0.  1.
</event>
<event>
 5   0  0.7634227E-04  0.1464215E+04  0.7818609E-02  0.8908604E-01
        2   -1    0    0  501    0  0.00000000000E+00  0.00000000000E+00  0.12590362475E+04  0.12590362475E+04  0.25500000920E-02 0. -1.
       -2   -1    0    0    0  501  0.00000000000E+00  0.00000000000E+00 -0.42570771770E+03  0.42570771771E+03  0.25500000920E-02 0.  1.
    10030    2    1    2    0    0  0.00000000000E+00  0.00000000000E+00  0.83332852976E+03  0.16847439652E+04  0.14642150763E+04 0.  0.
        2    1    3    3  502    0  0.13831158648E+03 -0.24907157967E+03  0.11926366783E+04  0.12261928858E+04  0.25500000920E-02 0. -1.
       -2    1    3    3    0  502 -0.13831158648E+03  0.24907157967E+03 -0.35930814856E+03  0.45855107936E+03  0.25500000920E-02 0.  1.
</event>
<event>
 5   0  0.4084462E-04  0.1469491E+04  0.7818609E-02  0.8904998E-01
       -1   -1    0    0    0  501  0.00000000000E+00  0.00000000000E+00  0.40475078179E+03  0.40475078182E+03  0.50400001928E-02 0. -1.
        1   -1    0    0  501    0  0.00000000000E+00  0.00000000000E+00 -0.13337866473E+04  0.13337866473E+04  0.50400001928E-02 0.  1.
    10030    2    1    2    0    0  0.00000000000E+00  0.00000000000E+00 -0.92903586547E+03  0.17385374291E+04  0.14694913246E+04 0.  0.
        1    1    3    3  502    0 -0.29956788350E+03  0.40243790796E+03  0.17056339802E+03  0.52989532869E+03  0.50400001928E-02 0. -1.
       -1    1    3    3    0  502  0.29956788350E+03 -0.40243790796E+03 -0.10995992635E+04  0.12086421004E+04  0.50400001928E-02 0.  1.
</event>
<event>
 5   0  0.4015204E-04  0.1498584E+04  0.7818609E-02  0.8885395E-01
        1   -1    0    0  501    0  0.00000000000E+00  0.00000000000E+00  0.27546957959E+03  0.27546957964E+03  0.50400001928E-02 0. -1.
       -1   -1    0    0    0  501  0.00000000000E+00  0.00000000000E+00 -0.20381137423E+04  0.20381137423E+04  0.50400001928E-02 0.  1.
    10030    2    1    2    0    0  0.00000000000E+00  0.00000000000E+00 -0.17626441627E+04  0.23135833219E+04  0.14985837792E+04 0.  0.
        2    1    3    3  502    0 -0.35228527691E+03 -0.52125445742E+03 -0.25301788446E+03  0.67810705318E+03  0.25500000920E-02 0. -1.
       -2    1    3    3    0  502  0.35228527691E+03  0.52125445742E+03 -0.15096262782E+04  0.16354762687E+04  0.25500000920E-02 0.  1.
</event>
<event>
 5   0  0.4086710E-04  0.1504015E+04  0.7818609E-02  0.8881787E-01
        1   -1    0    0  501    0  0.00000000000E+00  0.00000000000E+00  0.62055404705E+03  0.62055404707E+03  0.50400001928E-02 0. -1.
       -1   -1    0    0    0  501  0.00000000000E+00  0.00000000000E+00 -0.91130759782E+03  0.91130759783E+03  0.50400001928E-02 0.  1.
    10030    2    1    2    0    0  0.00000000000E+00  0.00000000000E+00 -0.29075355076E+03  0.15318616449E+04  0.15040154493E+04 0.  0.
        3    1    3    3  502    0 -0.30027563257E+03 -0.31991836076E+02  0.55608824528E+03  0.63278991761E+03  0.10100000352E+00 0. -1.
       -3    1    3    3    0  502  0.30027563257E+03  0.31991836076E+02 -0.84684179604E+03  0.89907172729E+03  0.10100000352E+00 0.  1.
</event>
<event>
 5   0  0.4058874E-04  0.1526010E+04  0.7818609E-02  0.8867339E-01
       -1   -1    0    0    0  501  0.00000000000E+00  0.00000000000E+00  0.49841583421E+03  0.49841583423E+03  0.50400001928E-02 0. -1.
        1   -1    0    0  501    0  0.00000000000E+00  0.00000000000E+00 -0.11680537698E+04  0.11680537698E+04  0.50400001928E-02 0.  1.
    10030    2    1    2    0    0  0.00000000000E+00  0.00000000000E+00 -0.66963793558E+03  0.16664696040E+04  0.15260098219E+04 0.  0.
        4    1    3    3  502    0  0.19189557070E+03  0.44581552202E+03 -0.97773466336E+03  0.10915777913E+04  0.12699999809E+01 0.  1.
       -4    1    3    3    0  502 -0.19189557070E+03 -0.44581552202E+03  0.30809672778E+03  0.57489181269E+03  0.12699999809E+01 0. -1.
</event>
<event>
 5   0  0.7547580E-04  0.1488758E+04  0.7818609E-02  0.8891964E-01
       -2   -1    0    0    0  501  0.00000000000E+00  0.00000000000E+00  0.46064629853E+03  0.46064629853E+03  0.25500000920E-02 0.  1.
        2   -1    0    0  501    0  0.00000000000E+00  0.00000000000E+00 -0.12028747113E+04  0.12028747113E+04  0.25500000920E-02 0. -1.
    10030    2    1    2    0    0  0.00000000000E+00  0.00000000000E+00 -0.74222841281E+03  0.16635210099E+04  0.14887575805E+04 0.  0.
        4    1    3    3  502    0 -0.29041996889E+03 -0.68074832412E+03 -0.46005815184E+03  0.87144544012E+03  0.12699999809E+01 0.  1.
       -4    1    3    3    0  502  0.29041996889E+03  0.68074832412E+03 -0.28217026097E+03  0.79207556975E+03  0.12699999809E+01 0. -1.
</event>
<event>
 5   0  0.7634227E-04  0.1500913E+04  0.7818609E-02  0.8883846E-01
       -2   -1    0    0    0  501  0.00000000000E+00  0.00000000000E+00  0.81362850496E+03  0.81362850496E+03  0.25500000920E-02 0.  1.
        2   -1    0    0  501    0  0.00000000000E+00  0.00000000000E+00 -0.69218904762E+03  0.69218904762E+03  0.25500000920E-02 0. -1.
    10030    2    1    2    0    0  0.00000000000E+00  0.00000000000E+00  0.12143945734E+03  0.15058175526E+04  0.15009127089E+04 0.  0.
        2    1    3    3  502    0  0.31819105279E+03  0.50612502828E+03 -0.39438879158E+03  0.71620570318E+03  0.25500000920E-02 0. -1.
       -2    1    3    3    0  502 -0.31819105279E+03 -0.50612502828E+03  0.51582824892E+03  0.78961184941E+03  0.25500000920E-02 0.  1.
</event>
<event>
 5   0  0.7672251E-04  0.1504690E+04  0.7818609E-02  0.8881340E-01
       -2   -1    0    0    0  501  0.00000000000E+00  0.00000000000E+00  0.61988137840E+03  0.61988137841E+03  0.25500000920E-02 0. -1.
        2   -1    0    0  501    0  0.00000000000E+00  0.00000000000E+00 -0.91311444986E+03  0.91311444986E+03  0.25500000920E-02 0.  1.
    10030    2    1    2    0    0  0.00000000000E+00  0.00000000000E+00 -0.29323307146E+03  0.15329958283E+04  0.15046895279E+04 0.  0.
        5    1    3    3  502    0 -0.38744395002E+03  0.16870459820E+03  0.48752870151E+03  0.64519793912E+03  0.46999998093E+01 0. -1.
       -5    1    3    3    0  502  0.38744395002E+03 -0.16870459820E+03 -0.78076177296E+03  0.88779788915E+03  0.46999998093E+01 0.  1.
</event>
<event>
 5   0  0.7454828E-04  0.1491188E+04  0.7818609E-02  0.8890334E-01
       -2   -1    0    0    0  501  0.00000000000E+00  0.00000000000E+00  0.92475200131E+03  0.92475200131E+03  0.25500000920E-02 0. -1.
        2   -1    0    0  501    0  0.00000000000E+00  0.00000000000E+00 -0.60114552263E+03  0.60114552263E+03  0.25500000920E-02 0.  1.
    10030    2    1    2    0    0  0.00000000000E+00  0.00000000000E+00  0.32360647868E+03  0.15258975239E+04  0.14911881506E+04 0.  0.
        3    1    3    3  502    0  0.85958145973E+01  0.59644668243E+03  0.61952696715E+03  0.86002104988E+03  0.10100000352E+00 0.  1.
       -3    1    3    3    0  502 -0.85958145973E+01 -0.59644668243E+03 -0.29592048847E+03  0.66587647406E+03  0.10100000352E+00 0. -1.
</event>
<event>
 5   0  0.7359897E-04  0.1500214E+04  0.7818609E-02  0.8884311E-01
       -2   -1    0    0    0  501  0.00000000000E+00  0.00000000000E+00  0.50550644463E+03  0.50550644464E+03  0.25500000920E-02 0.  1.
        2   -1    0    0  501    0  0.00000000000E+00  0.00000000000E+00 -0.11130628372E+04  0.11130628372E+04  0.25500000920E-02 0. -1.
    10030    2    1    2    0    0  0.00000000000E+00  0.00000000000E+00 -0.60755639258E+03  0.16185692819E+04  0.15002139014E+04 0.  0.
        1    1    3    3  502    0  0.59889182418E+03 -0.17097863595E+03 -0.75479561935E+03  0.97858139060E+03  0.50400001928E-02 0. -1.
       -1    1    3    3    0  502 -0.59889182418E+03  0.17097863595E+03  0.14723922677E+03  0.63998789125E+03  0.50400001928E-02 0.  1.
</event>
<event>
 5   0  0.4086710E-04  0.1496576E+04  0.7818609E-02  0.8886733E-01
        1   -1    0    0  501    0  0.00000000000E+00  0.00000000000E+00  0.73972243606E+03  0.73972243608E+03  0.50400001928E-02 0.  1.
       -1   -1    0    0    0  501  0.00000000000E+00  0.00000000000E+00 -0.75695240344E+03  0.75695240346E+03  0.50400001928E-02 0. -1.
    10030    2    1    2    0    0  0.00000000000E+00  0.00000000000E+00 -0.17229967383E+02  0.14966748395E+04  0.14965756591E+04 0.  0.
        3    1    3    3  502    0  0.72748310415E+02 -0.53843888811E+03  0.50593433517E+03  0.74241384322E+03  0.10100000352E+00 0.  1.
       -3    1    3    3    0  502 -0.72748310415E+02  0.53843888811E+03 -0.52316430255E+03  0.75426099632E+03  0.10100000352E+00 0. -1.
</event>
<event>
 5   0  0.4086710E-04  0.1505807E+04  0.7818609E-02  0.8880601E-01
        1   -1    0    0  501    0  0.00000000000E+00  0.00000000000E+00  0.67271033392E+03  0.67271033394E+03  0.50400001928E-02 0. -1.
       -1   -1    0    0    0  501  0.00000000000E+00  0.00000000000E+00 -0.84265613395E+03  0.84265613396E+03  0.50400001928E-02 0.  1.
    10030    2    1    2    0    0  0.00000000000E+00  0.00000000000E+00 -0.16994580003E+03  0.15153664679E+04  0.15058067463E+04 0.  0.
        3    1    3    3  502    0  0.47559672717E+03  0.50422450962E+03  0.21088138729E+03  0.72450367335E+03  0.10100000352E+00 0. -1.
       -3    1    3    3    0  502 -0.47559672717E+03 -0.50422450962E+03 -0.38082718732E+03  0.79086279455E+03  0.10100000352E+00 0.  1.
</event>
<event>
 5   0  0.7672251E-04  0.1513272E+04  0.7818609E-02  0.8875675E-01
       -2   -1    0    0    0  501  0.00000000000E+00  0.00000000000E+00  0.49352202158E+03  0.49352202159E+03  0.25500000920E-02 0. -1.
        2   -1    0    0  501    0  0.00000000000E+00  0.00000000000E+00 -0.11600258707E+04  0.11600258707E+04  0.25500000920E-02 0.  1.
    10030    2    1    2    0    0  0.00000000000E+00  0.00000000000E+00 -0.66650384916E+03  0.16535478923E+04  0.15132723652E+04 0.  0.
        5    1    3    3  502    0 -0.70020101171E+03 -0.25288979808E+03 -0.48083282020E+03  0.88626011856E+03  0.46999998093E+01 0.  1.
       -5    1    3    3    0  502  0.70020101171E+03  0.25288979808E+03 -0.18567102896E+03  0.76728777376E+03  0.46999998093E+01 0. -1.
</event>
<event>
 5   0  0.4058874E-04  0.1493766E+04  0.7818609E-02  0.8888609E-01
       -1   -1    0    0    0  501  0.00000000000E+00  0.00000000000E+00  0.86682386410E+03  0.86682386412E+03  0.50400001928E-02 0.  1.
        1   -1    0    0  501    0  0.00000000000E+00  0.00000000000E+00 -0.64353783281E+03  0.64353783283E+03  0.50400001928E-02 0. -1.
    10030    2    1    2    0    0  0.00000000000E+00  0.00000000000E+00  0.22328603129E+03  0.15103616969E+04  0.14937656456E+04 0.  0.
        4    1    3    3  502    0  0.39073602917E+03 -0.62971911914E+03  0.17813706580E+02  0.74130948635E+03  0.12699999809E+01 0. -1.
       -4    1    3    3    0  502 -0.39073602917E+03  0.62971911914E+03  0.20547232471E+03  0.76905221060E+03  0.12699999809E+01 0.  1.
</event>
<event>
 5   0  0.7359897E-04  0.1509744E+04  0.7818609E-02  0.8877999E-01
        2   -1    0    0  501    0  0.00000000000E+00  0.00000000000E+00  0.10056392498E+04  0.10056392498E+04  0.25500000920E-02 0.  1.
       -2   -1    0    0    0  501  0.00000000000E+00  0.00000000000E+00 -0.56663608594E+03  0.56663608594E+03  0.25500000920E-02 0. -1.
    10030    2    1    2    0    0  0.00000000000E+00  0.00000000000E+00  0.43900316383E+03  0.15722753357E+04  0.15097436714E+04 0.  0.
        1    1    3    3  502    0 -0.22471024862E+03 -0.41290090479E+03 -0.39559670934E+03  0.61439287876E+03  0.50400001928E-02 0. -1.
       -1    1    3    3    0  502  0.22471024862E+03  0.41290090479E+03  0.83459987317E+03  0.95788245695E+03  0.50400001928E-02 0.  1.
</event>
<event>
 5   0  0.7454828E-04  0.1502511E+04  0.7818609E-02  0.8882785E-01
        2   -1    0    0  501    0  0.00000000000E+00  0.00000000000E+00  0.97330510767E+03  0.97330510767E+03  0.25500000920E-02 0. -1.
       -2   -1    0    0    0  501  0.00000000000E+00  0.00000000000E+00 -0.57986397615E+03  0.57986397616E+03  0.25500000920E-02 0.  1.
    10030    2    1    2    0    0  0.00000000000E+00  0.00000000000E+00  0.39344113151E+03  0.15531690838E+04  0.15025106585E+04 0.  0.
        3    1    3    3  502    0  0.16677764780E+03 -0.54640384901E+03 -0.30759359001E+03  0.64883416744E+03  0.10100000352E+00 0.  1.
       -3    1    3    3    0  502 -0.16677764780E+03  0.54640384901E+03  0.70103472153E+03  0.90433491639E+03  0.10100000352E+00 0. -1.
</event>
<event>
 5   0  0.4084462E-04  0.1475930E+04  0.7818609E-02  0.8900619E-01
       -1   -1    0    0    0  501  0.00000000000E+00  0.00000000000E+00  0.29421412748E+03  0.29421412752E+03  0.50400001928E-02 0. -1.
        1   -1    0    0  501    0  0.00000000000E+00  0.00000000000E+00 -0.18510059212E+04  0.18510059212E+04  0.50400001928E-02 0.  1.
    10030    2    1    2    0    0  0.00000000000E+00  0.00000000000E+00 -0.15567917937E+04  0.21452200487E+04  0.14759296624E+04 0.  0.
        1    1    3    3  502    0 -0.30371226747E+03 -0.35049725034E+03  0.55929814779E+02  0.46713767576E+03  0.50400001928E-02 0. -1.
       -1    1    3    3    0  502  0.30371226747E+03  0.35049725034E+03 -0.16127216085E+04  0.16780823730E+04  0.50400001928E-02 0.  1.
</event>
<event>
 5   0  0.7454828E-04  0.1482716E+04  0.7818609E-02  0.8896029E-01
        2   -1    0    0  501    0  0.00000000000E+00  0.00000000000E+00  0.79519437400E+03  0.79519437401E+03  0.25500000920E-02 0.  1.
       -2   -1    0    0    0  501  0.00000000000E+00  0.00000000000E+00 -0.69116619494E+03  0.69116619494E+03  0.25500000920E-02 0. -1.
    10030    2    1    2    0    0  0.00000000000E+00  0.00000000000E+00  0.10402817907E+03  0.14863605689E+04  0.14827157107E+04 0.  0.
        3    1    3    3  502    0  0.47322731468E+03 -0.23167976554E+02 -0.51958985576E+03  0.70317456929E+03  0.10100000352E+00 0. -1.
       -3    1    3    3    0  502 -0.47322731468E+03  0.23167976554E+02  0.62361803482E+03  0.78318599965E+03  0.10100000352E+00 0.  1.
</event>
<event>
 5   0  0.7359897E-04  0.1507516E+04  0.7818609E-02  0.8879470E-01
       -2   -1    0    0    0  501  0.00000000000E+00  0.00000000000E+00  0.84973908379E+03  0.84973908379E+03  0.25500000920E-02 0.  1.
        2   -1    0    0  501    0  0.00000000000E+00  0.00000000000E+00 -0.66861823072E+03  0.66861823072E+03  0.25500000920E-02 0. -1.
    10030    2    1    2    0    0  0.00000000000E+00  0.00000000000E+00  0.18112085307E+03  0.15183573145E+04  0.15075158942E+04 0.  0.
        1    1    3    3  502    0 -0.56732264726E+03 -0.14733672738E+03  0.56787567347E+03  0.81611633845E+03  0.50400001928E-02 0.  1.
       -1    1    3    3    0  502  0.56732264726E+03  0.14733672738E+03 -0.38675482041E+03  0.70224097606E+03  0.50400001928E-02 0. -1.
</event>
<event>
 5   0  0.4015204E-04  0.1499306E+04  0.7818609E-02  0.8884915E-01
        1   -1    0    0  501    0  0.00000000000E+00  0.00000000000E+00  0.89640130589E+03  0.89640130590E+03  0.50400001928E-02 0. -1.
       -1   -1    0    0    0  501  0.00000000000E+00  0.00000000000E+00 -0.62692845426E+03  0.62692845428E+03  0.50400001928E-02 0.  1.
    10030    2    1    2    0    0  0.00000000000E+00  0.00000000000E+00  0.26947285163E+03  0.15233297602E+04  0.14993058195E+04 0.  0.
        2    1    3    3  502    0  0.61068384005E+03  0.20102377036E+03  0.52644496608E+03  0.83095704526E+03  0.25500000920E-02 0. -1.
       -2    1    3    3    0  502 -0.61068384005E+03 -0.20102377036E+03 -0.25697211445E+03  0.69237271492E+03  0.25500000920E-02 0.  1.
</event>
<event>
 5   0  0.7547580E-04  0.1477135E+04  0.7818609E-02  0.8899802E-01
        2   -1    0    0  501    0  0.00000000000E+00  0.00000000000E+00  0.17047437279E+04  0.17047437279E+04  0.25500000920E-02 0. -1.
       -2   -1    0    0    0  501  0.00000000000E+00  0.00000000000E+00 -0.31997871872E+03  0.31997871873E+03  0.25500000920E-02 0.  1.
    10030    2    1    2    0    0  0.00000000000E+00  0.00000000000E+00  0.13847650091E+04  0.20247224466E+04  0.14771346774E+04 0.  0.
        4    1    3    3  502    0 -0.11453408119E+03  0.32749816952E+03 -0.20132319763E+03  0.40113058921E+03  0.12699999809E+01 0.  1.
       -4    1    3    3    0  502  0.11453408119E+03 -0.32749816952E+03  0.15860882068E+04  0.16235918574E+04  0.12699999809E+01 0. -1.
</event>
<event>
 5   0  0.7634227E-04  0.1506082E+04  0.7818609E-02  0.8880419E-01
        2   -1    0    0  501    0  0.00000000000E+00  0.00000000000E+00  0.17563475076E+04  0.17563475076E+04  0.25500000920E-02 0. -1.
       -2   -1    0    0    0  501  0.00000000000E+00  0.00000000000E+00 -0.32286932161E+03  0.32286932162E+03  0.25500000920E-02 0.  1.
    10030    2    1    2    0    0  0.00000000000E+00  0.00000000000E+00  0.14334781860E+04  0.20792168292E+04  0.15060819743E+04 0.  0.
        2    1    3    3  502    0  0.13952014683E+03  0.13292238442E+03  0.17217322073E+04  0.17324826191E+04  0.25500000920E-02 0. -1.
       -2    1    3    3    0  502 -0.13952014683E+03 -0.13292238442E+03 -0.28825402135E+03  0.34673421014E+03  0.25500000920E-02 0.  1.
</event>
<event>
 5   0  0.4086710E-04  0.1445199E+04  0.7818609E-02  0.8921735E-01
        1   -1    0    0  501    0  0.00000000000E+00  0.00000000000E+00  0.16021100016E+04  0.16021100016E+04  0.50400001928E-02 0.  1.
       -1   -1    0    0    0  501  0.00000000000E+00  0.00000000000E+00 -0.32591410756E+03  0.32591410760E+03  0.50400001928E-02 0. -1.
    10030    2    1    2    0    0  0.00000000000E+00  0.00000000000E+00  0.12761958940E+04  0.19280241092E+04  0.14451992962E+04 0.  0.
        3    1    3    3  502    0  0.61854230810E+03  0.32043681865E+03  0.38191157078E+03  0.79443741085E+03  0.10100000352E+00 0. -1.
       -3    1    3    3    0  502 -0.61854230810E+03 -0.32043681865E+03  0.89428432323E+03  0.11335866983E+04  0.10100000352E+00 0.  1.
</event>
<event>
 5   0  0.4058874E-04  0.1510528E+04  0.7818609E-02  0.8877482E-01
        1   -1    0    0  501    0  0.00000000000E+00  0.00000000000E+00  0.23125416954E+04  0.23125416954E+04  0.50400001928E-02 0.  1.
       -1   -1    0    0    0  501  0.00000000000E+00  0.00000000000E+00 -0.24666530253E+03  0.24666530258E+03  0.50400001928E-02 0. -1.
    10030    2    1    2    0    0  0.00000000000E+00  0.00000000000E+00  0.20658763929E+04  0.25592069980E+04  0.15105281156E+04 0.  0.
        4    1    3    3  502    0  0.42652488910E+03  0.60298372294E+03  0.76554050722E+03  0.10637512549E+04  0.12699999809E+01 0. -1.
       -4    1    3    3    0  502 -0.42652488910E+03 -0.60298372294E+03  0.13003358856E+04  0.14954557431E+04  0.12699999809E+01 0.  1.
</event>
<event>
 5   0  0.3907345E-04  0.1501043E+04  0.7818609E-02  0.8883760E-01
       -1   -1    0    0    0  501  0.00000000000E+00  0.00000000000E+00  0.13151640341E+04  0.13151640341E+04  0.50400001928E-02 0. -1.
        1   -1    0    0  501    0  0.00000000000E+00  0.00000000000E+00 -0.42829803115E+03  0.42829803118E+03  0.50400001928E-02 0.  1.
    10030    2    1    2    0    0  0.00000000000E+00  0.00000000000E+00  0.88686600296E+03  0.17434620653E+04  0.15010425264E+04 0.  0.
        5    1    3    3  502    0  0.65030740297E+02  0.58250594152E+03 -0.10100976598E+03  0.59478334871E+03  0.46999998093E+01 0. -1.
       -5    1    3    3    0  502 -0.65030740297E+02 -0.58250594152E+03  0.98787576895E+03  0.11486787166E+04  0.46999998093E+01 0.  1.
</event>
<event>
 5   0  0.4058874E-04  0.1329154E+04  0.7818609E-02  0.9006760E-01
        1   -1    0    0  501    0  0.00000000000E+00  0.00000000000E+00  0.20000344718E+04  0.20000344718E+04  0.50400001928E-02 0. -1.
       -1   -1    0    0    0  501  0.00000000000E+00  0.00000000000E+00 -0.22082737563E+03  0.22082737569E+03  0.50400001928E-02 0.  1.
    10030    2    1    2    0    0  0.00000000000E+00  0.00000000000E+00  0.17792070962E+04  0.22208618475E+04  0.13291536610E+04 0.  0.
        4    1    3    3  502    0 -0.64490859604E+03 -0.60974460271E+02  0.11376371124E+04  0.13091389516E+04  0.12699999809E+01 0. -1.
       -4    1    3    3    0  502  0.64490859604E+03  0.60974460271E+02  0.64156998378E+03  0.91172289597E+03  0.12699999809E+01 0.  1.
</event>
<event>
 5   0  0.4084462E-04  0.1542986E+04  0.7818609E-02  0.8856360E-01
       -1   -1    0    0    0  501  0.00000000000E+00  0.00000000000E+00  0.60609377705E+03  0.60609377707E+03  0.50400001928E-02 0.  1.
        1   -1    0    0  501    0  0.00000000000E+00  0.00000000000E+00 -0.98202869498E+03  0.98202869499E+03  0.50400001928E-02 0. -1.
    10030    2    1    2    0    0  0.00000000000E+00  0.00000000000E+00 -0.37593491793E+03  0.15881224721E+04  0.15429860413E+04 0.  0.
        1    1    3    3  502    0  0.15771073547E+03 -0.66464397072E+03 -0.55703340198E+03  0.88142526333E+03  0.50400001928E-02 0. -1.
       -1    1    3    3    0  502 -0.15771073547E+03  0.66464397072E+03  0.18109848405E+03  0.70669720874E+03  0.50400001928E-02 0.  1.
</event>
<event>
 5   0  0.7672251E-04  0.1421764E+04  0.7818609E-02  0.8938214E-01
        2   -1    0    0  501    0  0.00000000000E+00  0.00000000000E+00  0.75256280987E+03  0.75256280987E+03  0.25500000920E-02 0.  1.
       -2   -1    0    0    0  501  0.00000000000E+00  0.00000000000E+00 -0.67150967580E+03  0.67150967580E+03  0.25500000920E-02 0. -1.
    10030    2    1    2    0    0  0.00000000000E+00  0.00000000000E+00  0.81053134069E+02  0.14240724857E+04  0.14217639867E+04 0.  0.
        5    1    3    3  502    0  0.65992048867E+03 -0.21092987482E+03 -0.11893197112E+03  0.70296043075E+03  0.46999998093E+01 0. -1.
       -5    1    3    3    0  502 -0.65992048867E+03  0.21092987482E+03  0.19998510519E+03  0.72111205492E+03  0.46999998093E+01 0.  1.
</event>
<event>
 5   0  0.4058874E-04  0.1513176E+04  0.7818609E-02  0.8875738E-01
        1   -1    0    0  501    0  0.00000000000E+00  0.00000000000E+00  0.10695454245E+04  0.10695454245E+04  0.50400001928E-02 0. -1.
       -1   -1    0    0    0  501  0.00000000000E+00  0.00000000000E+00 -0.53520439251E+03  0.53520439253E+03  0.50400001928E-02 0.  1.
    10030    2    1    2    0    0  0.00000000000E+00  0.00000000000E+00  0.53434103196E+03  0.16047498170E+04  0.15131760098E+04 0.  0.
        4    1    3    3  502    0 -0.18016588243E+03 -0.41090928872E+03  0.91323172744E+03  0.10174969237E+04  0.12699999809E+01 0. -1.
       -4    1    3    3    0  502  0.18016588243E+03  0.41090928872E+03 -0.37889069547E+03  0.58725289337E+03  0.12699999809E+01 0.  1.
</event>
<event>
 5   0  0.2800375E-04  0.1482430E+04  0.7818609E-02  0.8896222E-01
        4   -1    0    0  501    0  0.00000000000E+00  0.00000000000E+00  0.66855536394E+03  0.66855657020E+03  0.12699999809E+01 0.  1.
       -4   -1    0    0    0  501  0.00000000000E+00  0.00000000000E+00 -0.82176873417E+03  0.82176971552E+03  0.12699999809E+01 0. -1.
    10030    2    1    2    0    0  0.00000000000E+00  0.00000000000E+00 -0.15321337023E+03  0.14903262857E+04  0.14824297963E+04 0.  0.
        4    1    3    3  502    0  0.51216090281E+03 -0.52424994135E+03  0.34667683961E+02  0.73372355324E+03  0.12699999809E+01 0.  1.
       -4    1    3    3    0  502 -0.51216090281E+03  0.52424994135E+03 -0.18788105419E+03  0.75660273248E+03  0.12699999809E+01 0. -1.
</event>
<event>
 5   0  0.7454828E-04  0.1442388E+04  0.7818609E-02  0.8923695E-01
       -2   -1    0    0    0  501  0.00000000000E+00  0.00000000000E+00  0.55852520435E+03  0.55852520436E+03  0.25500000920E-02 0.  1.
        2   -1    0    0  501    0  0.00000000000E+00  0.00000000000E+00 -0.93123996763E+03  0.93123996763E+03  0.25500000920E-02 0. -1.
    10030    2    1    2    0    0  0.00000000000E+00  0.00000000000E+00 -0.37271476328E+03  0.14897651720E+04  0.14423882878E+04 0.  0.
        3    1    3    3  502    0  0.28058906540E+03 -0.60254673705E+03  0.10270706077E+03  0.67256341298E+03  0.10100000352E+00 0.  1.
       -3    1    3    3    0  502 -0.28058906540E+03  0.60254673705E+03 -0.47542182405E+03  0.81720175901E+03  0.10100000352E+00 0. -1.
</event>
<event>
 5   0  0.7454828E-04  0.1483073E+04  0.7818609E-02  0.8895788E-01
       -2   -1    0    0    0  501  0.00000000000E+00  0.00000000000E+00  0.45499299374E+03  0.45499299375E+03  0.25500000920E-02 0. -1.
        2   -1    0    0  501    0  0.00000000000E+00  0.00000000000E+00 -0.12085389340E+04  0.12085389340E+04  0.25500000920E-02 0.  1.
    10030    2    1    2    0    0  0.00000000000E+00  0.00000000000E+00 -0.75354594029E+03  0.16635319278E+04  0.14830734947E+04 0.  0.
        3    1    3    3  502    0  0.22572045185E+03  0.46656671673E+02  0.41379184096E+03  0.47365627330E+03  0.10100000352E+00 0. -1.
       -3    1    3    3    0  502 -0.22572045185E+03 -0.46656671673E+02 -0.11673377812E+04  0.11898756545E+04  0.10100000352E+00 0.  1.
</event>
<event>
 5   0  0.3907345E-04  0.1472228E+04  0.7818609E-02  0.8903134E-01
        1   -1    0    0  501    0  0.00000000000E+00  0.00000000000E+00  0.62087993157E+03  0.62087993159E+03  0.50400001928E-02 0.  1.
       -1   -1    0    0    0  501  0.00000000000E+00  0.00000000000E+00 -0.87273585235E+03  0.87273585236E+03  0.50400001928E-02 0. -1.
    10030    2    1    2    0    0  0.00000000000E+00  0.00000000000E+00 -0.25185592078E+03  0.14936157840E+04  0.14722284827E+04 0.  0.
        5    1    3    3  502    0  0.17155775350E+03 -0.61434658476E+03  0.24681696405E+03  0.68395503707E+03  0.46999998093E+01 0.  1.
       -5    1    3    3    0  502 -0.17155775350E+03  0.61434658476E+03 -0.49867288483E+03  0.80966074689E+03  0.46999998093E+01 0. -1.
</event>
<event>
 5   0  0.7672251E-04  0.1502458E+04  0.7818609E-02  0.8882820E-01
        2   -1    0    0  501    0  0.00000000000E+00  0.00000000000E+00  0.88859731434E+03  0.88859731435E+03  0.25500000920E-02 0.  1.
       -2   -1    0    0    0  501  0.00000000000E+00  0.00000000000E+00 -0.63509674373E+03  0.63509674373E+03  0.25500000920E-02 0. -1.
    10030    2    1    2    0    0  0.00000000000E+00  0.00000000000E+00  0.25350057061E+03  0.15236940581E+04  0.15024583333E+04 0.  0.
        5    1    3    3  502    0 -0.35469244285E+03 -0.17990226281E+03 -0.51955756455E+03  0.65431926921E+03  0.46999998093E+01 0. -1.
       -5    1    3    3    0  502  0.35469244285E+03  0.17990226281E+03  0.77305813516E+03  0.86937478887E+03  0.46999998093E+01 0.  1.
</event>
<event>
 5   0  0.7454828E-04  0.1496588E+04  0.7818609E-02  0.8886725E-01
        2   -1    0    0  501    0  0.00000000000E+00  0.00000000000E+00  0.18882369567E+04  0.18882369567E+04  0.25500000920E-02 0. -1.
       -2   -1    0    0    0  501  0.00000000000E+00  0.00000000000E+00 -0.29654338830E+03  0.29654338831E+03  0.25500000920E-02 0.  1.
    10030    2    1    2    0    0  0.00000000000E+00  0.00000000000E+00  0.15916935684E+04  0.21847803450E+04  0.14965883670E+04 0.  0.
        3    1    3    3  502    0 -0.14844477826E+03  0.10819386242E+03 -0.26311876515E+03  0.32089446682E+03  0.10100000352E+00 0.  1.
       -3    1    3    3    0  502  0.14844477826E+03 -0.10819386242E+03  0.18548123336E+04  0.18638858782E+04  0.10100000352E+00 0. -1.
</event>
<event>
 5   0  0.4086710E-04  0.1476511E+04  0.7818609E-02  0.8900225E-01
        1   -1    0    0  501    0  0.00000000000E+00  0.00000000000E+00  0.15184102117E+04  0.15184102117E+04  0.50400001928E-02 0. -1.
       -1   -1    0    0    0  501  0.00000000000E+00  0.00000000000E+00 -0.35894203162E+03  0.35894203166E+03  0.50400001928E-02 0.  1.
    10030    2    1    2    0    0  0.00000000000E+00  0.00000000000E+00  0.11594681801E+04  0.18773522434E+04  0.14765110853E+04 0.  0.
        3    1    3    3  502    0 -0.52315174131E+03 -0.49612058338E+03  0.37790169700E+03  0.81402277639E+03  0.10100000352E+00 0.  1.
       -3    1    3    3    0  502  0.52315174131E+03  0.49612058338E+03  0.78156648310E+03  0.10633294670E+04  0.10100000352E+00 0. -1.
</event>
<event>
 5   0  0.4086710E-04  0.1507276E+04  0.7818609E-02  0.8879629E-01
        1   -1    0    0  501    0  0.00000000000E+00  0.00000000000E+00  0.18756861284E+04  0.18756861284E+04  0.50400001928E-02 0.  1.
       -1   -1    0    0    0  501  0.00000000000E+00  0.00000000000E+00 -0.30280654599E+03  0.30280654603E+03  0.50400001928E-02 0. -1.
    10030    2    1    2    0    0  0.00000000000E+00  0.00000000000E+00  0.15728795824E+04  0.21784926745E+04  0.15072757385E+04 0.  0.
        3    1    3    3  502    0  0.71063209774E+03  0.60403511502E+02  0.43441224306E+03  0.83508117549E+03  0.10100000352E+00 0. -1.
       -3    1    3    3    0  502 -0.71063209774E+03 -0.60403511502E+02  0.11384673394E+04  0.13434114990E+04  0.10100000352E+00 0.  1.
</event>
<event>
 5   0  0.4058874E-04  0.1426819E+04  0.7818609E-02  0.8934631E-01
        1   -1    0    0  501    0  0.00000000000E+00  0.00000000000E+00  0.75445200749E+03  0.75445200751E+03  0.50400001928E-02 0. -1.
       -1   -1    0    0    0  501  0.00000000000E+00  0.00000000000E+00 -0.67460015401E+03  0.67460015403E+03  0.50400001928E-02 0.  1.
    10030    2    1    2    0    0  0.00000000000E+00  0.00000000000E+00  0.79851853480E+02  0.14290521615E+04  0.14268194567E+04 0.  0.
        4    1    3    3  502    0 -0.73786500297E+01  0.21189853855E+03 -0.64231278757E+03  0.67640429115E+03  0.12699999809E+01 0.  1.
       -4    1    3    3    0  502  0.73786500297E+01 -0.21189853855E+03  0.72216464105E+03  0.75264787039E+03  0.12699999809E+01 0. -1.
</event>
<event>
 5   0  0.7359897E-04  0.1499045E+04  0.7818609E-02  0.8885088E-01
        2   -1    0    0  501    0  0.00000000000E+00  0.00000000000E+00  0.46738438196E+03  0.46738438196E+03  0.25500000920E-02 0.  1.
       -2   -1    0    0    0  501  0.00000000000E+00  0.00000000000E+00 -0.12019742675E+04  0.12019742675E+04  0.25500000920E-02 0. -1.
    10030    2    1    2    0    0  0.00000000000E+00  0.00000000000E+00 -0.73458988557E+03  0.16693586495E+04  0.14990450296E+04 0.  0.
        1    1    3    3  502    0 -0.50767733192E+03  0.24473221600E+03  0.18296358077E+03  0.59254181524E+03  0.50400001928E-02 0.  1.
       -1    1    3    3    0  502  0.50767733192E+03 -0.24473221600E+03 -0.91755346634E+03  0.10768168342E+04  0.50400001928E-02 0. -1.
</event>
<event>
 5   0  0.2800375E-04  0.1496929E+04  0.7818609E-02  0.8886498E-01
       -4   -1    0    0    0  501  0.00000000000E+00  0.00000000000E+00  0.93081171828E+03  0.93081258467E+03  0.12699999809E+01 0. -1.
        4   -1    0    0  501    0  0.00000000000E+00  0.00000000000E+00 -0.60183744500E+03  0.60183878498E+03  0.12699999809E+01 0.  1.
    10030    2    1    2    0    0  0.00000000000E+00  0.00000000000E+00  0.32897427328E+03  0.15326513697E+04  0.14969289056E+04 0.  0.
        4    1    3    3  502    0 -0.41956320485E+03  0.32732392966E+03 -0.37440303528E+03  0.65065619456E+03  0.12699999809E+01 0.  1.
       -4    1    3    3    0  502  0.41956320485E+03 -0.32732392966E+03  0.70337730855E+03  0.88199517509E+03  0.12699999809E+01 0. -1.
</event>
<event>
 5   0  0.7634227E-04  0.1499229E+04  0.7818609E-02  0.8884965E-01
       -2   -1    0    0    0  501  0.00000000000E+00  0.00000000000E+00  0.90703821459E+03  0.90703821459E+03  0.25500000920E-02 0. -1.
        2   -1    0    0  501    0  0.00000000000E+00  0.00000000000E+00 -0.61951333348E+03  0.61951333348E+03  0.25500000920E-02 0.  1.
    10030    2    1    2    0    0  0.00000000000E+00  0.00000000000E+00  0.28752488111E+03  0.15265515481E+04  0.14992294927E+04 0.  0.
        2    1    3    3  502    0 -0.34909109147E+03  0.15755615714E+03  0.79989210312E+03  0.88685732191E+03  0.25500000920E-02 0. -1.
       -2    1    3    3    0  502  0.34909109147E+03 -0.15755615714E+03 -0.51236722200E+03  0.63969422616E+03  0.25500000920E-02 0.  1.
</event>
<event>
 5   0  0.7454828E-04  0.1485884E+04  0.7818609E-02  0.8893895E-01
        2   -1    0    0  501    0  0.00000000000E+00  0.00000000000E+00  0.56321603819E+03  0.56321603819E+03  0.25500000920E-02 0. -1.
       -2   -1    0    0    0  501  0.00000000000E+00  0.00000000000E+00 -0.98001928146E+03  0.98001928146E+03  0.25500000920E-02 0.  1.
    10030    2    1    2    0    0  0.00000000000E+00  0.00000000000E+00 -0.41680324327E+03  0.15432353197E+04  0.14858836792E+04 0.  0.
        3    1    3    3  502    0  0.22579181766E+03 -0.46053852566E+03 -0.76662722784E+03  0.92238549166E+03  0.10100000352E+00 0.  1.
       -3    1    3    3    0  502 -0.22579181766E+03  0.46053852566E+03  0.34982398457E+03  0.62084982800E+03  0.10100000352E+00 0. -1.
</event>
<event>
 5   0  0.4015204E-04  0.1523202E+04  0.7818609E-02  0.8869169E-01
       -1   -1    0    0    0  501  0.00000000000E+00  0.00000000000E+00  0.10133512579E+04  0.10133512579E+04  0.50400001928E-02 0.  1.
        1   -1    0    0  501    0  0.00000000000E+00  0.00000000000E+00 -0.57239375137E+03  0.57239375139E+03  0.50400001928E-02 0. -1.
    10030    2    1    2    0    0  0.00000000000E+00  0.00000000000E+00  0.44095750653E+03  0.15857450093E+04  0.15232017962E+04 0.  0.
        2    1    3    3  502    0 -0.35471993006E+03 -0.27775544602E+03  0.85974543480E+03  0.97063717693E+03  0.25500000920E-02 0.  1.
       -2    1    3    3    0  502  0.35471993006E+03  0.27775544602E+03 -0.41878792827E+03  0.61510783237E+03  0.25500000920E-02 0. -1.
</event>
<event>
 5   0  0.4084462E-04  0.1683043E+04  0.7818609E-02  0.8771095E-01
       -1   -1    0    0    0  501  0.00000000000E+00  0.00000000000E+00  0.60736111779E+03  0.60736111781E+03  0.50400001928E-02 0. -1.
        1   -1    0    0  501    0  0.00000000000E+00  0.00000000000E+00 -0.11659592798E+04  0.11659592798E+04  0.50400001928E-02 0.  1.
    10030    2    1    2    0    0  0.00000000000E+00  0.00000000000E+00 -0.55859816203E+03  0.17733203976E+04  0.16830428771E+04 0.  0.
        1    1    3    3  502    0  0.72472197223E+03 -0.42414565306E+03 -0.22123542534E+03  0.86837007405E+03  0.50400001928E-02 0. -1.
       -1    1    3    3    0  502 -0.72472197223E+03  0.42414565306E+03 -0.33736273668E+03  0.90495032360E+03  0.50400001928E-02 0.  1.
</event>
<event>
 5   0  0.7454828E-04  0.1503887E+04  0.7818609E-02  0.8881872E-01
        2   -1    0    0  501    0  0.00000000000E+00  0.00000000000E+00  0.64964693284E+03  0.64964693285E+03  0.25500000920E-02 0.  1.
       -2   -1    0    0    0  501  0.00000000000E+00  0.00000000000E+00 -0.87034806364E+03  0.87034806364E+03  0.25500000920E-02 0. -1.
    10030    2    1    2    0    0  0.00000000000E+00  0.00000000000E+00 -0.22070113080E+03  0.15199949965E+04  0.15038868974E+04 0.  0.
        3    1    3    3  502    0 -0.66384295531E+03  0.30632340225E+03 -0.28800999281E+03  0.78579339666E+03  0.10100000352E+00 0. -1.
       -3    1    3    3    0  502  0.66384295531E+03 -0.30632340225E+03  0.67308862013E+02  0.73420159982E+03  0.10100000352E+00 0.  1.
</event>
<event>
 5   0  0.7672251E-04  0.1507695E+04  0.7818609E-02  0.8879352E-01
        2   -1    0    0  501    0  0.00000000000E+00  0.00000000000E+00  0.17586481903E+04  0.17586481903E+04  0.25500000920E-02 0. -1.
       -2   -1    0    0    0  501  0.00000000000E+00  0.00000000000E+00 -0.32313799053E+03  0.32313799054E+03  0.25500000920E-02 0.  1.
    10030    2    1    2    0    0  0.00000000000E+00  0.00000000000E+00  0.14355101998E+04  0.20817861809E+04  0.15076949854E+04 0.  0.
        5    1    3    3  502    0  0.25525677847E+03  0.88466856398E+02  0.16894920202E+04  0.17109610702E+04  0.46999998093E+01 0. -1.
       -5    1    3    3    0  502 -0.25525677847E+03 -0.88466856398E+02 -0.25398182034E+03  0.37082511066E+03  0.46999998093E+01 0.  1.
</event>
<event>
 5   0  0.4086710E-04  0.1510114E+04  0.7818609E-02  0.8877755E-01
        1   -1    0    0  501    0  0.00000000000E+00  0.00000000000E+00  0.27791980390E+04  0.27791980390E+04  0.50400001928E-02 0.  1.
       -1   -1    0    0    0  501  0.00000000000E+00  0.00000000000E+00 -0.20513497330E+03  0.20513497336E+03  0.50400001928E-02 0. -1.
    10030    2    1    2    0    0  0.00000000000E+00  0.00000000000E+00  0.25740630657E+04  0.29843330124E+04  0.15101135264E+04 0.  0.
        3    1    3    3  502    0  0.39435522058E+03  0.28008144587E+03  0.24328178429E+04  0.24804363172E+04  0.10100000352E+00 0.  1.
       -3    1    3    3    0  502 -0.39435522058E+03 -0.28008144587E+03  0.14124522279E+03  0.50389669524E+03  0.10100000352E+00 0. -1.
</event>
<event>
 5   0  0.4015204E-04  0.1499958E+04  0.7818609E-02  0.8884481E-01
       -1   -1    0    0    0  501  0.00000000000E+00  0.00000000000E+00  0.31564963572E+03  0.31564963576E+03  0.50400001928E-02 0. -1.
        1   -1    0    0  501    0  0.00000000000E+00  0.00000000000E+00 -0.17819396489E+04  0.17819396489E+04  0.50400001928E-02 0.  1.
    10030    2    1    2    0    0  0.00000000000E+00  0.00000000000E+00 -0.14662900132E+04  0.20975892846E+04  0.14999581342E+04 0.  0.
        2    1    3    3  502    0  0.57188803260E+03  0.37683633915E+03 -0.30574831813E+03  0.75002905436E+03  0.25500000920E-02 0. -1.
       -2    1    3    3    0  502 -0.57188803260E+03 -0.37683633915E+03 -0.11605416950E+04  0.13475602303E+04  0.25500000920E-02 0.  1.
</event>
<event>
 5   0  0.4015204E-04  0.1346050E+04  0.7818609E-02  0.8993823E-01
       -1   -1    0    0    0  501  0.00000000000E+00  0.00000000000E+00  0.12663500143E+04  0.12663500143E+04  0.50400001928E-02 0.  1.
        1   -1    0    0  501    0  0.00000000000E+00  0.00000000000E+00 -0.35769161622E+03  0.35769161626E+03  0.50400001928E-02 0. -1.
    10030    2    1    2    0    0  0.00000000000E+00  0.00000000000E+00  0.90865839806E+03  0.16240416305E+04  0.13460501972E+04 0.  0.
        2    1    3    3  502    0  0.58577749784E+03 -0.33131735732E+03  0.46338336289E+03  0.81708665957E+03  0.25500000920E-02 0. -1.
       -2    1    3    3    0  502 -0.58577749784E+03  0.33131735732E+03  0.44527503518E+03  0.80695497098E+03  0.25500000920E-02 0.  1.
</event>
<event>
 5   0  0.7547580E-04  0.1495941E+04  0.7818609E-02  0.8887157E-01
       -2   -1    0    0    0  501  0.00000000000E+00  0.00000000000E+00  0.46363527269E+03  0.46363527270E+03  0.25500000920E-02 0.  1.
        2   -1    0    0  501    0  0.00000000000E+00  0.00000000000E+00 -0.12066811372E+04  0.12066811372E+04  0.25500000920E-02 0. -1.
    10030    2    1    2    0    0  0.00000000000E+00  0.00000000000E+00 -0.74304586450E+03  0.16703164099E+04  0.14959410926E+04 0.  0.
        4    1    3    3  502    0  0.22854512818E+03  0.50652690436E+03 -0.93053767330E+03  0.10838377899E+04  0.12699999809E+01 0. -1.
       -4    1    3    3    0  502 -0.22854512818E+03 -0.50652690436E+03  0.18749180880E+03  0.58647862000E+03  0.12699999809E+01 0.  1.
</event>
<event>
 5   0  0.3907345E-04  0.1506118E+04  0.7818609E-02  0.8880394E-01
       -1   -1    0    0    0  501  0.00000000000E+00  0.00000000000E+00  0.30080798184E+03  0.30080798188E+03  0.50400001928E-02 0. -1.
        1   -1    0    0  501    0  0.00000000000E+00  0.00000000000E+00 -0.18852496075E+04  0.18852496075E+04  0.50400001928E-02 0.  1.
    10030    2    1    2    0    0  0.00000000000E+00  0.00000000000E+00 -0.15844416257E+04  0.21860575894E+04  0.15061183616E+04 0.  0.
        5    1    3    3  502    0  0.51687981715E+03 -0.38066973516E+03 -0.22078042429E+03  0.67885217713E+03  0.46999998093E+01 0. -1.
       -5    1    3    3    0  502 -0.51687981715E+03  0.38066973516E+03 -0.13636612014E+04  0.15072054123E+04  0.46999998093E+01 0.  1.
</event>
<event>
 5   0  0.7672251E-04  0.1516853E+04  0.7818609E-02  0.8873322E-01
        2   -1    0    0  501    0  0.00000000000E+00  0.00000000000E+00  0.19648218358E+04  0.19648218358E+04  0.25500000920E-02 0. -1.
       -2   -1    0    0    0  501  0.00000000000E+00  0.00000000000E+00 -0.29275483183E+03  0.29275483184E+03  0.25500000920E-02 0.  1.
    10030    2    1    2    0    0  0.00000000000E+00  0.00000000000E+00  0.16720670040E+04  0.22575766676E+04  0.15168534354E+04 0.  0.
        5    1    3    3  502    0  0.12437942487E+03 -0.26304980229E+03  0.18784201085E+04  0.19008286703E+04  0.46999998093E+01 0. -1.
       -5    1    3    3    0  502 -0.12437942487E+03  0.26304980229E+03 -0.20635310457E+03  0.35674799730E+03  0.46999998093E+01 0.  1.
</event>
<event>
 5   0  0.4015204E-04  0.1387281E+04  0.7818609E-02  0.8963077E-01
        1   -1    0    0  501    0  0.00000000000E+00  0.00000000000E+00  0.75367321220E+03  0.75367321222E+03  0.50400001928E-02 0. -1.
       -1   -1    0    0    0  501  0.00000000000E+00  0.00000000000E+00 -0.63838993223E+03  0.63838993225E+03  0.50400001928E-02 0.  1.
    10030    2    1    2    0    0  0.00000000000E+00  0.00000000000E+00  0.11528327998E+03  0.13920631445E+04  0.13872813570E+04 0.  0.
        2    1    3    3  502    0  0.13640522981E+03 -0.20734457952E+03 -0.59230944572E+03  0.64220607352E+03  0.25500000920E-02 0.  1.
       -2    1    3    3    0  502 -0.13640522981E+03  0.20734457952E+03  0.70759272570E+03  0.74985707094E+03  0.25500000920E-02 0. -1.
</event>
<event>
 5   0  0.7359897E-04  0.1494058E+04  0.7818609E-02  0.8888414E-01
       -2   -1    0    0    0  501  0.00000000000E+00  0.00000000000E+00  0.14168831152E+04  0.14168831152E+04  0.25500000920E-02 0. -1.
        2   -1    0    0  501    0  0.00000000000E+00  0.00000000000E+00 -0.39385888195E+03  0.39385888196E+03  0.25500000920E-02 0.  1.
    10030    2    1    2    0    0  0.00000000000E+00  0.00000000000E+00  0.10230242332E+04  0.18107419971E+04  0.14940575620E+04 0.  0.
        1    1    3    3  502    0  0.71412391453E+03 -0.17647776664E+03  0.35379561750E+03  0.81626509567E+03  0.50400001928E-02 0. -1.
       -1    1    3    3    0  502 -0.71412391453E+03  0.17647776664E+03  0.66922861573E+03  0.99447690147E+03  0.50400001928E-02 0.  1.
</event>
<event>
 5   0  0.3907345E-04  0.1493218E+04  0.7818609E-02  0.8888975E-01
        1   -1    0    0  501    0  0.00000000000E+00  0.00000000000E+00  0.36829223462E+03  0.36829223465E+03  0.50400001928E-02 0. -1.
       -1   -1    0    0    0  501  0.00000000000E+00  0.00000000000E+00 -0.15135404079E+04  0.15135404079E+04  0.50400001928E-02 0.  1.
    10030    2    1    2    0    0  0.00000000000E+00  0.00000000000E+00 -0.11452481733E+04  0.18818326426E+04  0.14932182413E+04 0.  0.
        5    1    3    3  502    0 -0.26102737585E+03 -0.61081100083E+03 -0.14306873477E+03  0.67949696287E+03  0.46999998093E+01 0. -1.
       -5    1    3    3    0  502  0.26102737585E+03  0.61081100083E+03 -0.10021794385E+04  0.12023356797E+04  0.46999998093E+01 0.  1.
</event>
<event>
 5   0  0.4015204E-04  0.1399265E+04  0.7818609E-02  0.8954351E-01
       -1   -1    0    0    0  501  0.00000000000E+00  0.00000000000E+00  0.77395988847E+03  0.77395988849E+03  0.50400001928E-02 0.  1.
        1   -1    0    0  501    0  0.00000000000E+00  0.00000000000E+00 -0.63244311582E+03  0.63244311584E+03  0.50400001928E-02 0. -1.
    10030    2    1    2    0    0  0.00000000000E+00  0.00000000000E+00  0.14151677265E+03  0.14064030043E+04  0.13992649548E+04 0.  0.
        2    1    3    3  502    0 -0.46072536993E+03  0.15680152540E+03 -0.43442977517E+03  0.65236785208E+03  0.25500000920E-02 0. -1.
       -2    1    3    3    0  502  0.46072536993E+03 -0.15680152540E+03  0.57594654782E+03  0.75403515225E+03  0.25500000920E-02 0.  1.
</event>
<event>
 5   0  0.7634227E-04  0.1516841E+04  0.7818609E-02  0.8873330E-01
        2   -1    0    0  501    0  0.00000000000E+00  0.00000000000E+00  0.16138920546E+04  0.16138920546E+04  0.25500000920E-02 0.  1.
       -2   -1    0    0    0  501  0.00000000000E+00  0.00000000000E+00 -0.35640671411E+03  0.35640671412E+03  0.25500000920E-02 0. -1.
    10030    2    1    2    0    0  0.00000000000E+00  0.00000000000E+00  0.12574853405E+04  0.19702987687E+04  0.15168414078E+04 0.  0.
        2    1    3    3  502    0  0.96483385128E+02  0.71313868352E+03  0.31773703755E+03  0.78665917053E+03  0.25500000920E-02 0. -1.
       -2    1    3    3    0  502 -0.96483385128E+02 -0.71313868352E+03  0.93974830292E+03  0.11836395982E+04  0.25500000920E-02 0.  1.
</event>
<event>
 5   0  0.7634227E-04  0.1519596E+04  0.7818609E-02  0.8871525E-01
        2   -1    0    0  501    0  0.00000000000E+00  0.00000000000E+00  0.47385205844E+03  0.47385205845E+03  0.25500000920E-02 0.  1.
       -2   -1    0    0    0  501  0.00000000000E+00  0.00000000000E+00 -0.12182983825E+04  0.12182983825E+04  0.25500000920E-02 0. -1.
    10030    2    1    2    0    0  0.00000000000E+00  0.00000000000E+00 -0.74444632404E+03  0.16921504409E+04  0.15195962574E+04 0.  0.
        2    1    3    3  502    0 -0.59570863174E+03 -0.46551001816E+03 -0.28796875283E+03  0.80900825308E+03  0.25500000920E-02 0. -1.
       -2    1    3    3    0  502  0.59570863174E+03  0.46551001816E+03 -0.45647757121E+03  0.88314218786E+03  0.25500000920E-02 0.  1.
</event>
<event>
 5   0  0.7547580E-04  0.1403961E+04  0.7818609E-02  0.8950956E-01
       -2   -1    0    0    0  501  0.00000000000E+00  0.00000000000E+00  0.39957451253E+03  0.39957451254E+03  0.25500000920E-02 0.  1.
        2   -1    0    0  501    0  0.00000000000E+00  0.00000000000E+00 -0.12332532149E+04  0.12332532149E+04  0.25500000920E-02 0. -1.
    10030    2    1    2    0    0  0.00000000000E+00  0.00000000000E+00 -0.83367870233E+03  0.16328277274E+04  0.14039609000E+04 0.  0.
        4    1    3    3  502    0 -0.51941599611E+03  0.47140422204E+03 -0.44890192230E+03  0.83278416550E+03  0.12699999809E+01 0. -1.
       -4    1    3    3    0  502  0.51941599611E+03 -0.47140422204E+03 -0.38477678004E+03  0.80004356190E+03  0.12699999809E+01 0.  1.
</event>
<event>
 5   0  0.7634227E-04  0.1516664E+04  0.7818609E-02  0.8873446E-01
       -2   -1    0    0    0  501  0.00000000000E+00  0.00000000000E+00  0.20363764288E+03  0.20363764290E+03  0.25500000920E-02 0.  1.
        2   -1    0    0  501    0  0.00000000000E+00  0.00000000000E+00 -0.28239757150E+04  0.28239757150E+04  0.25500000920E-02 0. -1.
    10030    2    1    2    0    0  0.00000000000E+00  0.00000000000E+00 -0.26203380721E+04  0.30276133579E+04  0.15166644430E+04 0.  0.
        2    1    3    3  502    0  0.13429816199E+03 -0.21755407404E+03  0.11500883601E+03  0.28034408110E+03  0.25500000920E-02 0.  1.
       -2    1    3    3    0  502 -0.13429816199E+03  0.21755407404E+03 -0.27353469081E+04  0.27472692767E+04  0.25500000920E-02 0. -1.
</event>
<event>
 5   0  0.7634227E-04  0.1512406E+04  0.7818609E-02  0.8876244E-01
       -2   -1    0    0    0  501  0.00000000000E+00  0.00000000000E+00  0.53476812608E+03  0.53476812609E+03  0.25500000920E-02 0.  1.
        2   -1    0    0  501    0  0.00000000000E+00  0.00000000000E+00 -0.10693294598E+04  0.10693294598E+04  0.25500000920E-02 0. -1.
    10030    2    1    2    0    0  0.00000000000E+00  0.00000000000E+00 -0.53456133368E+03  0.16040975859E+04  0.15124064419E+04 0.  0.
        2    1    3    3  502    0  0.45954311528E+03 -0.12603062244E+03  0.35549713209E+03  0.59450971693E+03  0.25500000920E-02 0.  1.
       -2    1    3    3    0  502 -0.45954311528E+03  0.12603062244E+03 -0.89005846577E+03  0.10095878689E+04  0.25500000920E-02 0. -1.
</event>
<event>
 5   0  0.7454828E-04  0.1533651E+04  0.7818609E-02  0.8862379E-01
        2   -1    0    0  501    0  0.00000000000E+00  0.00000000000E+00  0.11294782034E+04  0.11294782035E+04  0.25500000920E-02 0. -1.
       -2   -1    0    0    0  501  0.00000000000E+00  0.00000000000E+00 -0.52061297435E+03  0.52061297435E+03  0.25500000920E-02 0.  1.
    10030    2    1    2    0    0  0.00000000000E+00  0.00000000000E+00  0.60886522910E+03  0.16500911778E+04  0.15336505560E+04 0.  0.
        3    1    3    3  502    0 -0.49599677451E+03  0.79478361906E+02  0.92781083496E+03  0.10550651951E+04  0.10100000352E+00 0. -1.
       -3    1    3    3    0  502  0.49599677451E+03 -0.79478361906E+02 -0.31894560586E+03  0.59502598265E+03  0.10100000352E+00 0.  1.
</event>
<event>
 5   0  0.4058874E-04  0.1505025E+04  0.7818609E-02  0.8881118E-01
        1   -1    0    0  501    0  0.00000000000E+00  0.00000000000E+00  0.21835562617E+04  0.21835562617E+04  0.50400001928E-02 0.  1.
       -1   -1    0    0    0  501  0.00000000000E+00  0.00000000000E+00 -0.25933615827E+03  0.25933615832E+03  0.50400001928E-02 0. -1.
    10030    2    1    2    0    0  0.00000000000E+00  0.00000000000E+00  0.19242201034E+04  0.24428924201E+04  0.15050250395E+04 0.  0.
        4    1    3    3  502    0 -0.50721048548E+03  0.63179161127E+01  0.18643447739E+04  0.19321194170E+04  0.12699999809E+01 0.  1.
       -4    1    3    3    0  502  0.50721048548E+03 -0.63179161127E+01  0.59875329515E+02  0.51077300303E+03  0.12699999809E+01 0. -1.
</event>
<event>
 5   0  0.4084462E-04  0.1495007E+04  0.7818609E-02  0.8887780E-01
        1   -1    0    0  501    0  0.00000000000E+00  0.00000000000E+00  0.45381624665E+03  0.45381624667E+03  0.50400001928E-02 0. -1.
       -1   -1    0    0    0  501  0.00000000000E+00  0.00000000000E+00 -0.12312500453E+04  0.12312500453E+04  0.50400001928E-02 0.  1.
    10030    2    1    2    0    0  0.00000000000E+00  0.00000000000E+00 -0.77743379866E+03  0.16850662920E+04  0.14950067214E+04 0.  0.
        1    1    3    3  502    0 -0.63545940173E+03 -0.15757783874E+03  0.17865857890E+02  0.65494932278E+03  0.50400001928E-02 0. -1.
       -1    1    3    3    0  502  0.63545940173E+03  0.15757783874E+03 -0.79529965655E+03  0.10301169692E+04  0.50400001928E-02 0.  1.
</event>
<event>
 5   0  0.4086710E-04  0.1483007E+04  0.7818609E-02  0.8895832E-01
       -1   -1    0    0    0  501  0.00000000000E+00  0.00000000000E+00  0.41537665230E+03  0.41537665233E+03  0.50400001928E-02 0.  1.
        1   -1    0    0  501    0  0.00000000000E+00  0.00000000000E+00 -0.13236836437E+04  0.13236836437E+04  0.50400001928E-02 0. -1.
    10030    2    1    2    0    0  0.00000000000E+00  0.00000000000E+00 -0.90830699139E+03  0.17390602960E+04  0.14830067844E+04 0.  0.
        3    1    3    3  502    0  0.11835229885E+03  0.63035563682E+03 -0.17786262841E+02  0.64161659647E+03  0.10100000352E+00 0.  1.
       -3    1    3    3    0  502 -0.11835229885E+03 -0.63035563682E+03 -0.89052072855E+03  0.10974436996E+04  0.10100000352E+00 0. -1.
</event>
<event>
 5   0  0.4015204E-04  0.1490391E+04  0.7818609E-02  0.8890868E-01
       -1   -1    0    0    0  501  0.00000000000E+00  0.00000000000E+00  0.81840522452E+03  0.81840522453E+03  0.50400001928E-02 0. -1.
        1   -1    0    0  501    0  0.00000000000E+00  0.00000000000E+00 -0.67853424007E+03  0.67853424009E+03  0.50400001928E-02 0.  1.
    10030    2    1    2    0    0  0.00000000000E+00  0.00000000000E+00  0.13987098445E+03  0.14969394646E+04  0.14903905087E+04 0.  0.
        2    1    3    3  502    0  0.92642514820E+02  0.12412521281E+02 -0.67262311487E+03  0.67908656362E+03  0.25500000920E-02 0.  1.
       -2    1    3    3    0  502 -0.92642514820E+02 -0.12412521281E+02  0.81249409932E+03  0.81785290100E+03  0.25500000920E-02 0. -1.
</event>
<event>
 5   0  0.4084462E-04  0.1484775E+04  0.7818609E-02  0.8894641E-01
       -1   -1    0    0    0  501  0.00000000000E+00  0.00000000000E+00  0.11996054134E+04  0.11996054135E+04  0.50400001928E-02 0. -1.
        1   -1    0    0  501    0  0.00000000000E+00  0.00000000000E+00 -0.45943374818E+03  0.45943374821E+03  0.50400001928E-02 0.  1.
    10030    2    1    2    0    0  0.00000000000E+00  0.00000000000E+00  0.74017166526E+03  0.16590391617E+04  0.14847750152E+04 0.  0.
        1    1    3    3  502    0  0.35120674976E+03 -0.61152540450E+03  0.11084285150E+03  0.71385967751E+03  0.50400001928E-02 0.  1.
       -1    1    3    3    0  502 -0.35120674976E+03  0.61152540450E+03  0.62932881376E+03  0.94517948416E+03  0.50400001928E-02 0. -1.
</event>
<event>
 5   0  0.7547580E-04  0.1488286E+04  0.7818609E-02  0.8892280E-01
       -2   -1    0    0    0  501  0.00000000000E+00  0.00000000000E+00  0.10189458277E+04  0.10189458277E+04  0.25500000920E-02 0. -1.
        2   -1    0    0  501    0  0.00000000000E+00  0.00000000000E+00 -0.54345253447E+03  0.54345253447E+03  0.25500000920E-02 0.  1.
    10030    2    1    2    0    0  0.00000000000E+00  0.00000000000E+00  0.47549329327E+03  0.15623983622E+04  0.14882858497E+04 0.  0.
        4    1    3    3  502    0 -0.68330994309E+03 -0.13461073850E+03 -0.37441534113E+02  0.69744964738E+03  0.12699999809E+01 0.  1.
       -4    1    3    3    0  502  0.68330994309E+03  0.13461073850E+03  0.51293482738E+03  0.86494871483E+03  0.12699999809E+01 0. -1.
</event>
<event>
 5   0  0.7547580E-04  0.1503546E+04  0.7818609E-02  0.8882099E-01
        2   -1    0    0  501    0  0.00000000000E+00  0.00000000000E+00  0.91497055960E+03  0.91497055960E+03  0.25500000920E-02 0. -1.
       -2   -1    0    0    0  501  0.00000000000E+00  0.00000000000E+00 -0.61768362835E+03  0.61768362836E+03  0.25500000920E-02 0.  1.
    10030    2    1    2    0    0  0.00000000000E+00  0.00000000000E+00  0.29728693125E+03  0.15326541880E+04  0.15035455897E+04 0.  0.
        4    1    3    3  502    0  0.48168560147E+03  0.41990893872E+03 -0.25502332300E+03  0.68802837417E+03  0.12699999809E+01 0.  1.
       -4    1    3    3    0  502 -0.48168560147E+03 -0.41990893872E+03  0.55231025425E+03  0.84462581380E+03  0.12699999809E+01 0. -1.
</event>
<event>
 5   0  0.7634227E-04  0.1520550E+04  0.7818609E-02  0.8870901E-01
        2   -1    0    0  501    0  0.00000000000E+00  0.00000000000E+00  0.20083672042E+04  0.20083672042E+04  0.25500000920E-02 0. -1.
       -2   -1    0    0    0  501  0.00000000000E+00  0.00000000000E+00 -0.28780501418E+03  0.28780501419E+03  0.25500000920E-02 0.  1.
    10030    2    1    2    0    0  0.00000000000E+00  0.00000000000E+00  0.17205621901E+04  0.22961722184E+04  0.15205501001E+04 0.  0.
        2    1    3    3  502    0 -0.52809308067E+03 -0.43347424117E+03  0.13639281202E+04  0.15254776749E+04  0.25500000920E-02 0. -1.
       -2    1    3    3    0  502  0.52809308067E+03  0.43347424117E+03  0.35663406988E+03  0.77069454352E+03  0.25500000920E-02 0.  1.
</event>
<event>
 5   0  0.2800375E-04  0.1470174E+04  0.7818609E-02  0.8904533E-01
       -3   -1    0    0    0  501  0.00000000000E+00  0.00000000000E+00  0.59001289656E+03  0.59001290521E+03  0.10100000352E+00 0.  1.
        3   -1    0    0  501    0  0.00000000000E+00  0.00000000000E+00 -0.91583267598E+03  0.91583268155E+03  0.10100000352E+00 0. -1.
    10030    2    1    2    0    0  0.00000000000E+00  0.00000000000E+00 -0.32581977942E+03  0.15058455868E+04  0.14701742762E+04 0.  0.
        2    1    3    3  502    0  0.19509673236E+03  0.59941610593E+03  0.22440617746E+03  0.66911922369E+03  0.25500000920E-02 0.  1.
       -2    1    3    3    0  502 -0.19509673236E+03 -0.59941610593E+03 -0.55022595688E+03  0.83672636307E+03  0.25500000920E-02 0. -1.
</event>
<event>
 5   0  0.4058874E-04  0.1508970E+04  0.7818609E-02  0.8878510E-01
       -1   -1    0    0    0  501  0.00000000000E+00  0.00000000000E+00  0.32406348301E+03  0.32406348305E+03  0.50400001928E-02 0. -1.
        1   -1    0    0  501    0  0.00000000000E+00  0.00000000000E+00 -0.17565924872E+04  0.17565924872E+04  0.50400001928E-02 0.  1.
    10030    2    1    2    0    0  0.00000000000E+00  0.00000000000E+00 -0.14325290042E+04  0.20806559703E+04  0.15089698204E+04 0.  0.
        4    1    3    3  502    0 -0.13314171104E+03 -0.71709694984E+03 -0.98253460978E+03  0.12236546175E+04  0.12699999809E+01 0.  1.
       -4    1    3    3    0  502  0.13314171104E+03  0.71709694984E+03 -0.44999439444E+03  0.85700135275E+03  0.12699999809E+01 0. -1.
</event>
<event>
 5   0  0.4086710E-04  0.1536072E+04  0.7818609E-02  0.8860813E-01
        1   -1    0    0  501    0  0.00000000000E+00  0.00000000000E+00  0.17338007618E+04  0.17338007618E+04  0.50400001928E-02 0. -1.
       -1   -1    0    0    0  501  0.00000000000E+00  0.00000000000E+00 -0.34022329148E+03  0.34022329152E+03  0.50400001928E-02 0.  1.
    10030    2    1    2    0    0  0.00000000000E+00  0.00000000000E+00  0.13935774703E+04  0.20740240533E+04  0.15360721363E+04 0.  0.
        3    1    3    3  502    0 -0.43178945203E+03 -0.21146425146E+03 -0.11189750267E+03  0.49363987059E+03  0.10100000352E+00 0.  1.
       -3    1    3    3    0  502  0.43178945203E+03  0.21146425146E+03  0.15054749730E+04  0.15803841827E+04  0.10100000352E+00 0. -1.
</event>
<event>
 5   0  0.4058874E-04  0.1498427E+04  0.7818609E-02  0.8885499E-01
        1   -1    0    0  501    0  0.00000000000E+00  0.00000000000E+00  0.10731839265E+04  0.10731839265E+04  0.50400001928E-02 0. -1.
       -1   -1    0    0    0  501  0.00000000000E+00  0.00000000000E+00 -0.52304278412E+03  0.52304278415E+03  0.50400001928E-02 0.  1.
    10030    2    1    2    0    0  0.00000000000E+00  0.00000000000E+00  0.55014114241E+03  0.15962267107E+04  0.14984273207E+04 0.  0.
        4    1    3    3  502    0 -0.31880978451E+03 -0.52715826014E+03 -0.17911852308E+03  0.64157662686E+03  0.12699999809E+01 0.  1.
       -4    1    3    3    0  502  0.31880978451E+03  0.52715826014E+03  0.72925966549E+03  0.95465008382E+03  0.12699999809E+01 0. -1.
</event>
<event>
 5   0  0.4058874E-04  0.1471135E+04  0.7818609E-02  0.8903878E-01
        1   -1    0    0  501    0  0.00000000000E+00  0.00000000000E+00  0.15509598202E+04  0.15509598202E+04  0.50400001928E-02 0.  1.
       -1   -1    0    0    0  501  0.00000000000E+00  0.00000000000E+00 -0.34885467609E+03  0.34885467613E+03  0.50400001928E-02 0. -1.
    10030    2    1    2    0    0  0.00000000000E+00  0.00000000000E+00  0.12021051441E+04  0.18998144964E+04  0.14711350526E+04 0.  0.
        4    1    3    3  502    0 -0.11021381825E+03 -0.29370178255E+03  0.14602420733E+04  0.14935582842E+04  0.12699999809E+01 0.  1.
       -4    1    3    3    0  502  0.11021381825E+03  0.29370178255E+03 -0.25813692917E+03  0.40625621214E+03  0.12699999809E+01 0. -1.
</event>
<event>
 5   0  0.7359897E-04  0.1503819E+04  0.7818609E-02  0.8881917E-01
        2   -1    0    0  501    0  0.00000000000E+00  0.00000000000E+00  0.52890819195E+03  0.52890819196E+03  0.25500000920E-02 0.  1.
       -2   -1    0    0    0  501  0.00000000000E+00  0.00000000000E+00 -0.10689341468E+04  0.10689341468E+04  0.25500000920E-02 0. -1.
    10030    2    1    2    0    0  0.00000000000E+00  0.00000000000E+00 -0.54002595486E+03  0.15978423388E+04  0.15038191739E+04 0.  0.
        1    1    3    3  502    0  0.72796291375E+03  0.13829490338E+03 -0.13430694955E+03  0.75305633310E+03  0.50400001928E-02 0.  1.
       -1    1    3    3    0  502 -0.72796291375E+03 -0.13829490338E+03 -0.40571900532E+03  0.84478600568E+03  0.50400001928E-02 0. -1.
</event>
<event>
 5   0  0.7634227E-04  0.1516086E+04  0.7818609E-02  0.8873826E-01
       -2   -1    0    0    0  501  0.00000000000E+00  0.00000000000E+00  0.81157205569E+03  0.81157205569E+03  0.25500000920E-02 0. -1.
        2   -1    0    0  501    0  0.00000000000E+00  0.00000000000E+00 -0.70804484304E+03  0.70804484304E+03  0.25500000920E-02 0.  1.
    10030    2    1    2    0    0  0.00000000000E+00  0.00000000000E+00  0.10352721265E+03  0.15196168987E+04  0.15160862888E+04 0.  0.
        2    1    3    3  502    0 -0.50918942080E+03 -0.55039845105E+03  0.16345509178E+03  0.76741767520E+03  0.25500000920E-02 0. -1.
       -2    1    3    3    0  502  0.50918942080E+03  0.55039845105E+03 -0.59927879128E+02  0.75219922353E+03  0.25500000920E-02 0.  1.
</event>
<event>
 5   0  0.7454828E-04  0.1465347E+04  0.7818609E-02  0.8907829E-01
       -2   -1    0    0    0  501  0.00000000000E+00  0.00000000000E+00  0.68581402605E+03  0.68581402606E+03  0.25500000920E-02 0. -1.
        2   -1    0    0  501    0  0.00000000000E+00  0.00000000000E+00 -0.78273499721E+03  0.78273499721E+03  0.25500000920E-02 0.  1.
    10030    2    1    2    0    0  0.00000000000E+00  0.00000000000E+00 -0.96920971154E+02  0.14685490233E+04  0.14653472486E+04 0.  0.
        3    1    3    3  502    0  0.45637728146E+03  0.27359246368E+03 -0.55322513300E+03  0.76758785634E+03  0.10100000352E+00 0.  1.
       -3    1    3    3    0  502 -0.45637728146E+03 -0.27359246368E+03  0.45630416185E+03  0.70096116693E+03  0.10100000352E+00 0. -1.
</event>
<event>
 5   0  0.7672251E-04  0.1516053E+04  0.7818609E-02  0.8873847E-01
        2   -1    0    0  501    0  0.00000000000E+00  0.00000000000E+00  0.75468376031E+03  0.75468376032E+03  0.25500000920E-02 0. -1.
       -2   -1    0    0    0  501  0.00000000000E+00  0.00000000000E+00 -0.76138445066E+03  0.76138445067E+03  0.25500000920E-02 0.  1.
    10030    2    1    2    0    0  0.00000000000E+00  0.00000000000E+00 -0.67006903479E+01  0.15160682110E+04  0.15160534031E+04 0.  0.
        5    1    3    3  502    0  0.26577467457E+03  0.62592009421E+02  0.70378346181E+03  0.75490872852E+03  0.46999998093E+01 0. -1.
       -5    1    3    3    0  502 -0.26577467457E+03 -0.62592009421E+02 -0.71048415215E+03  0.76115948247E+03  0.46999998093E+01 0.  1.
</event>
<event>
 5   0  0.3907345E-04  0.1544660E+04  0.7818609E-02  0.8855286E-01
        1   -1    0    0  501    0  0.00000000000E+00  0.00000000000E+00  0.54256328035E+03  0.54256328037E+03  0.50400001928E-02 0.  1.
       -1   -1    0    0    0  501  0.00000000000E+00  0.00000000000E+00 -0.10993994170E+04  0.10993994170E+04  0.50400001928E-02 0. -1.
    10030    2    1    2    0    0  0.00000000000E+00  0.00000000000E+00 -0.55683613669E+03  0.16419626974E+04  0.15446601622E+04 0.  0.
        5    1    3    3  502    0 -0.53168353120E+03 -0.30117129707E+03 -0.78048404470E+03  0.99124616598E+03  0.46999998093E+01 0. -1.
       -5    1    3    3    0  502  0.53168353120E+03  0.30117129707E+03  0.22364790802E+03  0.65071653144E+03  0.46999998093E+01 0.  1.
</event>
<event>
 5   0  0.4015204E-04  0.1504472E+04  0.7818609E-02  0.8881484E-01
       -1   -1    0    0    0  501  0.00000000000E+00  0.00000000000E+00  0.30165758981E+03  0.30165758985E+03  0.50400001928E-02 0. -1.
        1   -1    0    0  501    0  0.00000000000E+00  0.00000000000E+00 -0.18758326976E+04  0.18758326976E+04  0.50400001928E-02 0.  1.
    10030    2    1    2    0    0  0.00000000000E+00  0.00000000000E+00 -0.15741751077E+04  0.21774902874E+04  0.15044722270E+04 0.  0.
        2    1    3    3  502    0 -0.39527479836E+03 -0.30541804423E+03 -0.16011297656E+04  0.16772414478E+04  0.25500000920E-02 0.  1.
       -2    1    3    3    0  502  0.39527479836E+03  0.30541804423E+03  0.26954657827E+02  0.50024883962E+03  0.25500000920E-02 0. -1.
</event>
<event>
 5   0  0.3907345E-04  0.1540649E+04  0.7818609E-02  0.8857863E-01
        1   -1    0    0  501    0  0.00000000000E+00  0.00000000000E+00  0.55589443442E+03  0.55589443444E+03  0.50400001928E-02 0. -1.
       -1   -1    0    0    0  501  0.00000000000E+00  0.00000000000E+00 -0.10674687275E+04  0.10674687275E+04  0.50400001928E-02 0.  1.
    10030    2    1    2    0    0  0.00000000000E+00  0.00000000000E+00 -0.51157429305E+03  0.16233631619E+04  0.15406491158E+04 0.  0.
        5    1    3    3  502    0  0.68902870698E+03 -0.11645121828E+03 -0.59731268332E+03  0.91930733541E+03  0.46999998093E+01 0. -1.
       -5    1    3    3    0  502 -0.68902870698E+03  0.11645121828E+03  0.85738390278E+02  0.70405582651E+03  0.46999998093E+01 0.  1.
</event>
<event>
 5   0  0.7634227E-04  0.1489671E+04  0.7818609E-02  0.8891351E-01
        2   -1    0    0  501    0  0.00000000000E+00  0.00000000000E+00  0.13339976364E+04  0.13339976364E+04  0.25500000920E-02 0. -1.
       -2   -1    0    0    0  501  0.00000000000E+00  0.00000000000E+00 -0.41587783246E+03  0.41587783247E+03  0.25500000920E-02 0.  1.
    10030    2    1    2    0    0  0.00000000000E+00  0.00000000000E+00  0.91811980399E+03  0.17498754689E+04  0.14896711658E+04 0.  0.
        2    1    3    3  502    0 -0.73297539472E+02  0.18311462762E+03  0.13027629624E+04  0.13176095144E+04  0.25500000920E-02 0. -1.
       -2    1    3    3    0  502  0.73297539472E+02 -0.18311462762E+03 -0.38464315841E+03  0.43226595455E+03  0.25500000920E-02 0.  1.
</event>
<event>
 5   0  0.7359897E-04  0.1488996E+04  0.7818609E-02  0.8891803E-01
       -2   -1    0    0    0  501  0.00000000000E+00  0.00000000000E+00  0.47557070261E+03  0.47557070262E+03  0.25500000920E-02 0. -1.
        2   -1    0    0  501    0  0.00000000000E+00  0.00000000000E+00 -0.11654997151E+04  0.11654997151E+04  0.25500000920E-02 0.  1.
    10030    2    1    2    0    0  0.00000000000E+00  0.00000000000E+00 -0.68992901252E+03  0.16410704177E+04  0.14889963310E+04 0.  0.
        1    1    3    3  502    0  0.35869261046E+03  0.64629532327E+03 -0.44304486639E+03  0.86176956742E+03  0.50400001928E-02 0.  1.
       -1    1    3    3    0  502 -0.35869261046E+03 -0.64629532327E+03 -0.24688414613E+03  0.77930085032E+03  0.50400001928E-02 0. -1.
</event>
<event>
 5   0  0.7359897E-04  0.1508058E+04  0.7818609E-02  0.8879112E-01
        2   -1    0    0  501    0  0.00000000000E+00  0.00000000000E+00  0.72473247826E+03  0.72473247826E+03  0.25500000920E-02 0.  1.
       -2   -1    0    0    0  501  0.00000000000E+00  0.00000000000E+00 -0.78450988617E+03  0.78450988617E+03  0.25500000920E-02 0. -1.
    10030    2    1    2    0    0  0.00000000000E+00  0.00000000000E+00 -0.59777407912E+02  0.15092423644E+04  0.15080580811E+04 0.  0.
        1    1    3    3  502    0  0.52445888737E+02  0.69842676870E+03  0.24963203148E+03  0.74355004784E+03  0.50400001928E-02 0. -1.
       -1    1    3    3    0  502 -0.52445888737E+02 -0.69842676870E+03 -0.30940943940E+03  0.76569231659E+03  0.50400001928E-02 0.  1.
</event>
<event>
 5   0  0.7454828E-04  0.1488909E+04  0.7818609E-02  0.8891862E-01
       -2   -1    0    0    0  501  0.00000000000E+00  0.00000000000E+00  0.40167933447E+03  0.40167933448E+03  0.25500000920E-02 0.  1.
        2   -1    0    0  501    0  0.00000000000E+00  0.00000000000E+00 -0.13797390419E+04  0.13797390419E+04  0.25500000920E-02 0. -1.
    10030    2    1    2    0    0  0.00000000000E+00  0.00000000000E+00 -0.97805970741E+03  0.17814183764E+04  0.14889092116E+04 0.  0.
        3    1    3    3  502    0 -0.61121406242E+03 -0.31781496373E+02  0.18048421411E+02  0.61230584623E+03  0.10100000352E+00 0.  1.
       -3    1    3    3    0  502  0.61121406242E+03  0.31781496373E+02 -0.99610812883E+03  0.11691125301E+04  0.10100000352E+00 0. -1.
</event>
<event>
 5   0  0.4058874E-04  0.1497666E+04  0.7818609E-02  0.8886007E-01
        1   -1    0    0  501    0  0.00000000000E+00  0.00000000000E+00  0.55304036775E+03  0.55304036778E+03  0.50400001928E-02 0. -1.
       -1   -1    0    0    0  501  0.00000000000E+00  0.00000000000E+00 -0.10139419623E+04  0.10139419623E+04  0.50400001928E-02 0.  1.
    10030    2    1    2    0    0  0.00000000000E+00  0.00000000000E+00 -0.46090159456E+03  0.15669823301E+04  0.14976659651E+04 0.  0.
        4    1    3    3  502    0 -0.42142997441E+03 -0.61898511428E+03 -0.23238792448E+03  0.78406093856E+03  0.12699999809E+01 0. -1.
       -4    1    3    3    0  502  0.42142997441E+03  0.61898511428E+03 -0.22851367008E+03  0.78292139155E+03  0.12699999809E+01 0.  1.
</event>
<event>
 5   0  0.7454828E-04  0.1527730E+04  0.7818609E-02  0.8866219E-01
       -2   -1    0    0    0  501  0.00000000000E+00  0.00000000000E+00  0.40148958498E+03  0.40148958499E+03  0.25500000920E-02 0. -1.
        2   -1    0    0  501    0  0.00000000000E+00  0.00000000000E+00 -0.14533119605E+04  0.14533119605E+04  0.25500000920E-02 0.  1.
    10030    2    1    2    0    0  0.00000000000E+00  0.00000000000E+00 -0.10518223755E+04  0.18548015455E+04  0.15277298398E+04 0.  0.
        3    1    3    3  502    0  0.34631753291E+03 -0.56825114188E+03 -0.98122636625E+03  0.11856012761E+04  0.10100000352E+00 0. -1.
       -3    1    3    3    0  502 -0.34631753291E+03  0.56825114188E+03 -0.70596009272E+02  0.66920026941E+03  0.10100000352E+00 0.  1.
</event>
<event>
 5   0  0.4015204E-04  0.1243434E+04  0.7818609E-02  0.9075666E-01
       -1   -1    0    0    0  501  0.00000000000E+00  0.00000000000E+00  0.76303312219E+03  0.76303312220E+03  0.50400001928E-02 0.  1.
        1   -1    0    0  501    0  0.00000000000E+00  0.00000000000E+00 -0.50657297777E+03  0.50657297780E+03  0.50400001928E-02 0. -1.
    10030    2    1    2    0    0  0.00000000000E+00  0.00000000000E+00  0.25646014441E+03  0.12696061000E+04  0.12434338919E+04 0.  0.
        2    1    3    3  502    0 -0.22393398473E+03 -0.50636570620E+03  0.41698879160E+03  0.69313224586E+03  0.25500000920E-02 0.  1.
       -2    1    3    3    0  502  0.22393398473E+03  0.50636570620E+03 -0.16052864718E+03  0.57647385414E+03  0.25500000920E-02 0. -1.
</event>
<event>
 5   0  0.2800375E-04  0.1508296E+04  0.7818609E-02  0.8878955E-01
       -4   -1    0    0    0  501  0.00000000000E+00  0.00000000000E+00  0.57269741658E+03  0.57269882474E+03  0.12699999809E+01 0. -1.
        4   -1    0    0  501    0  0.00000000000E+00  0.00000000000E+00 -0.99308558992E+03  0.99308640198E+03  0.12699999809E+01 0.  1.
    10030    2    1    2    0    0  0.00000000000E+00  0.00000000000E+00 -0.42038817334E+03  0.15657852267E+04  0.15082961115E+04 0.  0.
        2    1    3    3  502    0 -0.28810568996E+03 -0.27287587646E+02  0.51276193140E+03  0.58879053943E+03  0.25500000920E-02 0. -1.
       -2    1    3    3    0  502  0.28810568996E+03  0.27287587646E+02 -0.93315010474E+03  0.97699468729E+03  0.25500000920E-02 0.  1.
</event>
<event>
 5   0  0.7454828E-04  0.1498717E+04  0.7818609E-02  0.8885307E-01
       -2   -1    0    0    0  501  0.00000000000E+00  0.00000000000E+00  0.44220796651E+03  0.44220796651E+03  0.25500000920E-02 0. -1.
        2   -1    0    0  501    0  0.00000000000E+00  0.00000000000E+00 -0.12698501420E+04  0.12698501420E+04  0.25500000920E-02 0.  1.
    10030    2    1    2    0    0  0.00000000000E+00  0.00000000000E+00 -0.82764217545E+03  0.17120581085E+04  0.14987165830E+04 0.  0.
        3    1    3    3  502    0  0.74893789821E+03 -0.22462009802E+02 -0.42660936210E+03  0.86221115470E+03  0.10100000352E+00 0.  1.
       -3    1    3    3    0  502 -0.74893789821E+03  0.22462009802E+02 -0.40103281335E+03  0.84984695378E+03  0.10100000352E+00 0. -1.
</event>
<event>
 5   0  0.4015204E-04  0.1496612E+04  0.7818609E-02  0.8886709E-01
       -1   -1    0    0    0  501  0.00000000000E+00  0.00000000000E+00  0.77070187823E+03  0.77070187825E+03  0.50400001928E-02 0.  1.
        1   -1    0    0  501    0  0.00000000000E+00  0.00000000000E+00 -0.72656055602E+03  0.72656055603E+03  0.50400001928E-02 0. -1.
    10030    2    1    2    0    0  0.00000000000E+00  0.00000000000E+00  0.44141322216E+02  0.14972624343E+04  0.14966116199E+04 0.  0.
        2    1    3    3  502    0  0.62214287761E+02  0.36620861818E+03 -0.62781340588E+03  0.72947175562E+03  0.25500000920E-02 0. -1.
       -2    1    3    3    0  502 -0.62214287761E+02 -0.36620861818E+03  0.67195472809E+03  0.76779067867E+03  0.25500000920E-02 0.  1.
</event>
<event>
 5   0  0.4015204E-04  0.1469969E+04  0.7818609E-02  0.8904672E-01
       -1   -1    0    0    0  501  0.00000000000E+00  0.00000000000E+00  0.48595478090E+03  0.48595478093E+03  0.50400001928E-02 0.  1.
        1   -1    0    0  501    0  0.00000000000E+00  0.00000000000E+00 -0.11116307276E+04  0.11116307276E+04  0.50400001928E-02 0. -1.
    10030    2    1    2    0    0  0.00000000000E+00  0.00000000000E+00 -0.62567594672E+03  0.15975855086E+04  0.14699690700E+04 0.  0.
        2    1    3    3  502    0  0.69264556447E+03 -0.19596428334E+03 -0.15148192816E+03  0.73559951937E+03  0.25500000920E-02 0. -1.
       -2    1    3    3    0  502 -0.69264556447E+03  0.19596428334E+03 -0.47419401855E+03  0.86198598919E+03  0.25500000920E-02 0.  1.
</event>
<event>
 5   0  0.3907345E-04  0.1513543E+04  0.7818609E-02  0.8875497E-01
       -1   -1    0    0    0  501  0.00000000000E+00  0.00000000000E+00  0.82925401754E+03  0.82925401756E+03  0.50400001928E-02 0. -1.
        1   -1    0    0  501    0  0.00000000000E+00  0.00000000000E+00 -0.69062432021E+03  0.69062432023E+03  0.50400001928E-02 0.  1.
    10030    2    1    2    0    0  0.00000000000E+00  0.00000000000E+00  0.13862969733E+03  0.15198783378E+04  0.15135428533E+04 0.  0.
        5    1    3    3  502    0  0.15332011135E+03 -0.65738077109E+03 -0.27420533129E+03  0.72860633298E+03  0.46999998093E+01 0. -1.
       -5    1    3    3    0  502 -0.15332011135E+03  0.65738077109E+03  0.41283502862E+03  0.79127200481E+03  0.46999998093E+01 0.  1.
</event>
<event>
 5   0  0.7634227E-04  0.1500197E+04  0.7818609E-02  0.8884322E-01
        2   -1    0    0  501    0  0.00000000000E+00  0.00000000000E+00  0.18864510981E+04  0.18864510981E+04  0.25500000920E-02 0.  1.
       -2   -1    0    0    0  501  0.00000000000E+00  0.00000000000E+00 -0.29825740557E+03  0.29825740558E+03  0.25500000920E-02 0. -1.
    10030    2    1    2    0    0  0.00000000000E+00  0.00000000000E+00  0.15881936925E+04  0.21847085037E+04  0.15001973340E+04 0.  0.
        2    1    3    3  502    0  0.52509488639E+03  0.77919624492E+02  0.22334128365E+02  0.53131433341E+03  0.25500000920E-02 0. -1.
       -2    1    3    3    0  502 -0.52509488639E+03 -0.77919624492E+02  0.15658595642E+04  0.16533941703E+04  0.25500000920E-02 0.  1.
</event>
<event>
 5   0  0.7634227E-04  0.1470684E+04  0.7818609E-02  0.8904185E-01
       -2   -1    0    0    0  501  0.00000000000E+00  0.00000000000E+00  0.31144118916E+03  0.31144118917E+03  0.25500000920E-02 0.  1.
        2   -1    0    0  501    0  0.00000000000E+00  0.00000000000E+00 -0.17362117809E+04  0.17362117809E+04  0.25500000920E-02 0. -1.
    10030    2    1    2    0    0  0.00000000000E+00  0.00000000000E+00 -0.14247705917E+04  0.20476529700E+04  0.14706840064E+04 0.  0.
        2    1    3    3  502    0  0.20335412412E+03  0.15872435418E+03  0.24637338257E+03  0.35671580292E+03  0.25500000920E-02 0.  1.
       -2    1    3    3    0  502 -0.20335412412E+03 -0.15872435418E+03 -0.16711439743E+04  0.16909371671E+04  0.25500000920E-02 0. -1.
</event>
<event>
 5   0  0.4086710E-04  0.1481361E+04  0.7818609E-02  0.8896943E-01
       -1   -1    0    0    0  501  0.00000000000E+00  0.00000000000E+00  0.42909911360E+03  0.42909911363E+03  0.50400001928E-02 0. -1.
        1   -1    0    0  501    0  0.00000000000E+00  0.00000000000E+00 -0.12785102890E+04  0.12785102890E+04  0.50400001928E-02 0.  1.
    10030    2    1    2    0    0  0.00000000000E+00  0.00000000000E+00 -0.84941117538E+03  0.17076094026E+04  0.14813610387E+04 0.  0.
        3    1    3    3  502    0 -0.47392743230E+03  0.11955674423E+02  0.23129553159E+03  0.52749197375E+03  0.10100000352E+00 0. -1.
       -3    1    3    3    0  502  0.47392743230E+03 -0.11955674423E+02 -0.10807067070E+04  0.11801174289E+04  0.10100000352E+00 0.  1.
</event>
<event>
 5   0  0.7547580E-04  0.1494358E+04  0.7818609E-02  0.8888214E-01
       -2   -1    0    0    0  501  0.00000000000E+00  0.00000000000E+00  0.36249871749E+03  0.36249871750E+03  0.25500000920E-02 0.  1.
        2   -1    0    0  501    0  0.00000000000E+00  0.00000000000E+00 -0.15400779072E+04  0.15400779072E+04  0.25500000920E-02 0. -1.
    10030    2    1    2    0    0  0.00000000000E+00  0.00000000000E+00 -0.11775791897E+04  0.19025766247E+04  0.14943577432E+04 0.  0.
        4    1    3    3  502    0  0.65627371793E+02  0.27333047987E+03 -0.14701881452E+04  0.14968203962E+04  0.12699999809E+01 0. -1.
       -4    1    3    3    0  502 -0.65627371793E+02 -0.27333047987E+03  0.29260895558E+03  0.40575622846E+03  0.12699999809E+01 0.  1.
</event>
<event>
 5   0  0.4084462E-04  0.1498798E+04  0.7818609E-02  0.8885253E-01
        1   -1    0    0  501    0  0.00000000000E+00  0.00000000000E+00  0.88770014657E+03  0.88770014658E+03  0.50400001928E-02 0.  1.
       -1   -1    0    0    0  501  0.00000000000E+00  0.00000000000E+00 -0.63264485735E+03  0.63264485737E+03  0.50400001928E-02 0. -1.
    10030    2    1    2    0    0  0.00000000000E+00  0.00000000000E+00  0.25505528922E+03  0.15203450039E+04  0.14987980953E+04 0.  0.
        1    1    3    3  502    0 -0.54631569584E+03  0.42415571305E+03 -0.16511595435E+03  0.71107818616E+03  0.50400001928E-02 0. -1.
       -1    1    3    3    0  502  0.54631569584E+03 -0.42415571305E+03  0.42017124357E+03  0.80926681779E+03  0.50400001928E-02 0.  1.
</event>
<event>
 5   0  0.7634227E-04  0.1499291E+04  0.7818609E-02  0.8884924E-01
        2   -1    0    0  501    0  0.00000000000E+00  0.00000000000E+00  0.60662156071E+03  0.60662156071E+03  0.25500000920E-02 0. -1.
       -2   -1    0    0    0  501  0.00000000000E+00  0.00000000000E+00 -0.92639096203E+03  0.92639096203E+03  0.25500000920E-02 0.  1.
    10030    2    1    2    0    0  0.00000000000E+00  0.00000000000E+00 -0.31976940132E+03  0.15330125227E+04  0.14992914743E+04 0.  0.
        2    1    3    3  502    0  0.72889303728E+02 -0.42256536056E+03  0.46883888373E+03  0.63536149824E+03  0.25500000920E-02 0. -1.
       -2    1    3    3    0  502 -0.72889303728E+02  0.42256536056E+03 -0.78860828505E+03  0.89765102451E+03  0.25500000920E-02 0.  1.
</event>
<event>
 5   0  0.4086710E-04  0.1492397E+04  0.7818609E-02  0.8889525E-01
       -1   -1    0    0    0  501  0.00000000000E+00  0.00000000000E+00  0.72948875481E+03  0.72948875482E+03  0.50400001928E-02 0. -1.
        1   -1    0    0  501    0  0.00000000000E+00  0.00000000000E+00 -0.76329100792E+03  0.76329100794E+03  0.50400001928E-02 0.  1.
    10030    2    1    2    0    0  0.00000000000E+00  0.00000000000E+00 -0.33802253116E+02  0.14927797628E+04  0.14923970074E+04 0.  0.
        3    1    3    3  502    0 -0.18193599891E+03  0.59597744469E+02 -0.73830700605E+03  0.76272527442E+03  0.10100000352E+00 0.  1.
       -3    1    3    3    0  502  0.18193599891E+03 -0.59597744469E+02  0.70450475294E+03  0.73005448835E+03  0.10100000352E+00 0. -1.
</event>
<event>
 5   0  0.7359897E-04  0.1527385E+04  0.7818609E-02  0.8866444E-01
        2   -1    0    0  501    0  0.00000000000E+00  0.00000000000E+00  0.83741907393E+03  0.83741907393E+03  0.25500000920E-02 0. -1.
       -2   -1    0    0    0  501  0.00000000000E+00  0.00000000000E+00 -0.69645661805E+03  0.69645661805E+03  0.25500000920E-02 0.  1.
    10030    2    1    2    0    0  0.00000000000E+00  0.00000000000E+00  0.14096245588E+03  0.15338756920E+04  0.15273847664E+04 0.  0.
        1    1    3    3  502    0  0.26729631089E+03 -0.37491508937E+03 -0.54138415171E+03  0.71070770489E+03  0.50400001928E-02 0.  1.
       -1    1    3    3    0  502 -0.26729631089E+03  0.37491508937E+03  0.68234660759E+03  0.82316798709E+03  0.50400001928E-02 0. -1.
</event>
<event>
 5   0  0.2800375E-04  0.1520472E+04  0.7818609E-02  0.8870952E-01
        4   -1    0    0  501    0  0.00000000000E+00  0.00000000000E+00  0.31470822620E+03  0.31471078873E+03  0.12699999809E+01 0. -1.
       -4   -1    0    0    0  501  0.00000000000E+00  0.00000000000E+00 -0.18364817082E+04  0.18364821473E+04  0.12699999809E+01 0.  1.
    10030    2    1    2    0    0  0.00000000000E+00  0.00000000000E+00 -0.15217734820E+04  0.21511929360E+04  0.15204724653E+04 0.  0.
        2    1    3    3  502    0  0.45050836536E+03 -0.60315148917E+03 -0.91068139400E+03  0.11815625703E+04  0.25500000920E-02 0.  1.
       -2    1    3    3    0  502 -0.45050836536E+03  0.60315148917E+03 -0.61109208797E+03  0.96963036573E+03  0.25500000920E-02 0. -1.
</event>
<event>
 5   0  0.4084462E-04  0.1640799E+04  0.7818609E-02  0.8795868E-01
        1   -1    0    0  501    0  0.00000000000E+00  0.00000000000E+00  0.11037609381E+04  0.11037609381E+04  0.50400001928E-02 0.  1.
       -1   -1    0    0    0  501  0.00000000000E+00  0.00000000000E+00 -0.60978370594E+03  0.60978370596E+03  0.50400001928E-02 0. -1.
    10030    2    1    2    0    0  0.00000000000E+00  0.00000000000E+00  0.49397723213E+03  0.17135446440E+04  0.16407991167E+04 0.  0.
        1    1    3    3  502    0  0.10370032525E+03  0.26674038124E+03 -0.55596288675E+03  0.62529906437E+03  0.50400001928E-02 0. -1.
       -1    1    3    3    0  502 -0.10370032525E+03 -0.26674038124E+03  0.10499401189E+04  0.10882455797E+04  0.50400001928E-02 0.  1.
</event>
<event>
 5   0  0.4058874E-04  0.1590262E+04  0.7818609E-02  0.8826553E-01
       -1   -1    0    0    0  501  0.00000000000E+00  0.00000000000E+00  0.56512333214E+03  0.56512333216E+03  0.50400001928E-02 0. -1.
        1   -1    0    0  501    0  0.00000000000E+00  0.00000000000E+00 -0.11187524814E+04  0.11187524814E+04  0.50400001928E-02 0.  1.
    10030    2    1    2    0    0  0.00000000000E+00  0.00000000000E+00 -0.55362914927E+03  0.16838758136E+04  0.15902617774E+04 0.  0.
        4    1    3    3  502    0 -0.34425166027E+02 -0.18122816710E+03  0.54215100779E+03  0.57267623380E+03  0.12699999809E+01 0. -1.
       -4    1    3    3    0  502  0.34425166027E+02  0.18122816710E+03 -0.10957801571E+04  0.11111995798E+04  0.12699999809E+01 0.  1.
</event>
<event>
 5   0  0.4058874E-04  0.1497921E+04  0.7818609E-02  0.8885836E-01
        1   -1    0    0  501    0  0.00000000000E+00  0.00000000000E+00  0.13051532543E+04  0.13051532543E+04  0.50400001928E-02 0. -1.
       -1   -1    0    0    0  501  0.00000000000E+00  0.00000000000E+00 -0.42979023091E+03  0.42979023094E+03  0.50400001928E-02 0.  1.
    10030    2    1    2    0    0  0.00000000000E+00  0.00000000000E+00  0.87536302335E+03  0.17349434852E+04  0.14979213845E+04 0.  0.
        4    1    3    3  502    0 -0.95798545052E+02  0.67440171029E+03  0.77052975678E+02  0.68551717851E+03  0.12699999809E+01 0.  1.
       -4    1    3    3    0  502  0.95798545052E+02 -0.67440171029E+03  0.79831004767E+03  0.10494263067E+04  0.12699999809E+01 0. -1.
</event>
<event>
 5   0  0.7634227E-04  0.1493167E+04  0.7818609E-02  0.8889009E-01
        2   -1    0    0  501    0  0.00000000000E+00  0.00000000000E+00  0.12163713952E+04  0.12163713952E+04  0.25500000920E-02 0.  1.
       -2   -1    0    0    0  501  0.00000000000E+00  0.00000000000E+00 -0.45823757176E+03  0.45823757176E+03  0.25500000920E-02 0. -1.
    10030    2    1    2    0    0  0.00000000000E+00  0.00000000000E+00  0.75813382347E+03  0.16746089670E+04  0.14931672036E+04 0.  0.
        2    1    3    3  502    0  0.73293395920E+02 -0.71880226682E+03  0.16823869182E+03  0.74185772093E+03  0.25500000920E-02 0. -1.
       -2    1    3    3    0  502 -0.73293395920E+02  0.71880226682E+03  0.58989513165E+03  0.93275124606E+03  0.25500000920E-02 0.  1.
</event>
<event>
 5   0  0.7634227E-04  0.1497902E+04  0.7818609E-02  0.8885849E-01
       -2   -1    0    0    0  501  0.00000000000E+00  0.00000000000E+00  0.48328265455E+03  0.48328265456E+03  0.25500000920E-02 0. -1.
        2   -1    0    0  501    0  0.00000000000E+00  0.00000000000E+00 -0.11606615019E+04  0.11606615019E+04  0.25500000920E-02 0.  1.
    10030    2    1    2    0    0  0.00000000000E+00  0.00000000000E+00 -0.67737884731E+03  0.16439441564E+04  0.14979019616E+04 0.  0.
        2    1    3    3  502    0  0.15375864234E+03  0.62814654724E+03 -0.75330221059E+03  0.99281117308E+03  0.25500000920E-02 0.  1.
       -2    1    3    3    0  502 -0.15375864234E+03 -0.62814654724E+03  0.75923363279E+02  0.65113298335E+03  0.25500000920E-02 0. -1.
</event>
<event>
 5   0  0.7547580E-04  0.1484177E+04  0.7818609E-02  0.8895043E-01
       -2   -1    0    0    0  501  0.00000000000E+00  0.00000000000E+00  0.12795507251E+04  0.12795507251E+04  0.25500000920E-02 0. -1.
        2   -1    0    0  501    0  0.00000000000E+00  0.00000000000E+00 -0.43038205438E+03  0.43038205439E+03  0.25500000920E-02 0.  1.
    10030    2    1    2    0    0  0.00000000000E+00  0.00000000000E+00  0.84916867073E+03  0.17099327795E+04  0.14841774419E+04 0.  0.
        4    1    3    3  502    0 -0.65906420547E+03  0.63548914447E+02  0.81065222837E+03  0.10466913297E+04  0.12699999809E+01 0.  1.
       -4    1    3    3    0  502  0.65906420547E+03 -0.63548914447E+02  0.38516442353E+02  0.66324144977E+03  0.12699999809E+01 0. -1.
</event>
<event>
 5   0  0.7672251E-04  0.1487922E+04  0.7818609E-02  0.8892525E-01
        2   -1    0    0  501    0  0.00000000000E+00  0.00000000000E+00  0.20466978582E+04  0.20466978582E+04  0.25500000920E-02 0. -1.
       -2   -1    0    0    0  501  0.00000000000E+00  0.00000000000E+00 -0.27042469379E+03  0.27042469381E+03  0.25500000920E-02 0.  1.
    10030    2    1    2    0    0  0.00000000000E+00  0.00000000000E+00  0.17762731644E+04  0.23171225520E+04  0.14879215592E+04 0.  0.
        5    1    3    3  502    0  0.32938344499E+03 -0.21255373853E+03  0.18727848749E+04  0.19133786408E+04  0.46999998093E+01 0. -1.
       -5    1    3    3    0  502 -0.32938344499E+03  0.21255373853E+03 -0.96511710432E+02  0.40374391122E+03  0.46999998093E+01 0.  1.
</event>
<event>
 5   0  0.7634227E-04  0.1500194E+04  0.7818609E-02  0.8884324E-01
        2   -1    0    0  501    0  0.00000000000E+00  0.00000000000E+00  0.94432997537E+03  0.94432997537E+03  0.25500000920E-02 0. -1.
       -2   -1    0    0    0  501  0.00000000000E+00  0.00000000000E+00 -0.59581414361E+03  0.59581414361E+03  0.25500000920E-02 0.  1.
    10030    2    1    2    0    0  0.00000000000E+00  0.00000000000E+00  0.34851583176E+03  0.15401441190E+04  0.15001935283E+04 0.  0.
        2    1    3    3  502    0 -0.73220882125E+03 -0.15356779017E+03  0.22985097903E+03  0.78265209172E+03  0.25500000920E-02 0.  1.
       -2    1    3    3    0  502  0.73220882125E+03  0.15356779017E+03  0.11866485273E+03  0.75749202727E+03  0.25500000920E-02 0. -1.
</event>
<event>
 5   0  0.7359897E-04  0.1492900E+04  0.7818609E-02  0.8889188E-01
       -2   -1    0    0    0  501  0.00000000000E+00  0.00000000000E+00  0.30933254083E+03  0.30933254085E+03  0.25500000920E-02 0.  1.
        2   -1    0    0  501    0  0.00000000000E+00  0.00000000000E+00 -0.18012568133E+04  0.18012568133E+04  0.25500000920E-02 0. -1.
    10030    2    1    2    0    0  0.00000000000E+00  0.00000000000E+00 -0.14919242725E+04  0.21105893542E+04  0.14928996574E+04 0.  0.
        1    1    3    3  502    0  0.16756657502E+03  0.23663906991E+03  0.22645931013E+03  0.36791361166E+03  0.50400001928E-02 0.  1.
       -1    1    3    3    0  502 -0.16756657502E+03 -0.23663906991E+03 -0.17183835826E+04  0.17426757425E+04  0.50400001928E-02 0. -1.
</event>
<event>
 5   0  0.7547580E-04  0.1513290E+04  0.7818609E-02  0.8875663E-01
        2   -1    0    0  501    0  0.00000000000E+00  0.00000000000E+00  0.41126203793E+03  0.41126203793E+03  0.25500000920E-02 0.  1.
       -2   -1    0    0    0  501  0.00000000000E+00  0.00000000000E+00 -0.13920848048E+04  0.13920848048E+04  0.25500000920E-02 0. -1.
    10030    2    1    2    0    0  0.00000000000E+00  0.00000000000E+00 -0.98082276683E+03  0.18033468427E+04  0.15132899706E+04 0.  0.
        4    1    3    3  502    0  0.38845884567E+03  0.25034238283E+03  0.22353745936E+03  0.51336360608E+03  0.12699999809E+01 0.  1.
       -4    1    3    3    0  502 -0.38845884567E+03 -0.25034238283E+03 -0.12043602262E+04  0.12899832366E+04  0.12699999809E+01 0. -1.
</event>
<event>
 5   0  0.7547580E-04  0.1495147E+04  0.7818609E-02  0.8887686E-01
        2   -1    0    0  501    0  0.00000000000E+00  0.00000000000E+00  0.11827401872E+04  0.11827401872E+04  0.25500000920E-02 0.  1.
       -2   -1    0    0    0  501  0.00000000000E+00  0.00000000000E+00 -0.47251819469E+03  0.47251819470E+03  0.25500000920E-02 0. -1.
    10030    2    1    2    0    0  0.00000000000E+00  0.00000000000E+00  0.71022199252E+03  0.16552583819E+04  0.14951471607E+04 0.  0.
        4    1    3    3  502    0 -0.12898584538E+03 -0.57926423051E+03 -0.14819411679E+03  0.61167598139E+03  0.12699999809E+01 0. -1.
       -4    1    3    3    0  502  0.12898584538E+03  0.57926423051E+03  0.85841610931E+03  0.10435824005E+04  0.12699999809E+01 0.  1.
</event>
<event>
 5   0  0.7672251E-04  0.1507801E+04  0.7818609E-02  0.8879282E-01
        2   -1    0    0  501    0  0.00000000000E+00  0.00000000000E+00  0.10650877240E+04  0.10650877240E+04  0.25500000920E-02 0. -1.
       -2   -1    0    0    0  501  0.00000000000E+00  0.00000000000E+00 -0.53363324075E+03  0.53363324076E+03  0.25500000920E-02 0.  1.
    10030    2    1    2    0    0  0.00000000000E+00  0.00000000000E+00  0.53145448321E+03  0.15987209647E+04  0.15078013315E+04 0.  0.
        5    1    3    3  502    0  0.21958669767E+03 -0.71705746488E+02  0.10266235104E+04  0.10523012658E+04  0.46999998093E+01 0. -1.
       -5    1    3    3    0  502 -0.21958669767E+03  0.71705746488E+02 -0.49516902720E+03  0.54641969892E+03  0.46999998093E+01 0.  1.
</event>
<event>
 5   0  0.4058874E-04  0.1500435E+04  0.7818609E-02  0.8884164E-01
       -1   -1    0    0    0  501  0.00000000000E+00  0.00000000000E+00  0.41667289560E+03  0.41667289563E+03  0.50400001928E-02 0. -1.
        1   -1    0    0  501    0  0.00000000000E+00  0.00000000000E+00 -0.13507632582E+04  0.13507632582E+04  0.50400001928E-02 0.  1.
    10030    2    1    2    0    0  0.00000000000E+00  0.00000000000E+00 -0.93409036262E+03  0.17674361539E+04  0.15004351877E+04 0.  0.
        4    1    3    3  502    0  0.26626694190E+03 -0.65419811051E+03 -0.76493256476E+03  0.10411516190E+04  0.12699999809E+01 0.  1.
       -4    1    3    3    0  502 -0.26626694190E+03  0.65419811051E+03 -0.16915779787E+03  0.72628453490E+03  0.12699999809E+01 0. -1.
</event>
<event>
 5   0  0.7672251E-04  0.1550114E+04  0.7818609E-02  0.8851795E-01
        2   -1    0    0  501    0  0.00000000000E+00  0.00000000000E+00  0.84033087083E+03  0.84033087084E+03  0.25500000920E-02 0. -1.
       -2   -1    0    0    0  501  0.00000000000E+00  0.00000000000E+00 -0.71485317461E+03  0.71485317462E+03  0.25500000920E-02 0.  1.
    10030    2    1    2    0    0  0.00000000000E+00  0.00000000000E+00  0.12547769622E+03  0.15551840455E+04  0.15501137903E+04 0.  0.
        5    1    3    3  502    0 -0.21371666172E+03  0.20791353795E+01  0.81016688679E+03  0.83789713495E+03  0.46999998093E+01 0. -1.
       -5    1    3    3    0  502  0.21371666172E+03 -0.20791353795E+01 -0.68468919057E+03  0.71728691051E+03  0.46999998093E+01 0.  1.
</event>
<event>
 5   0  0.7454828E-04  0.1488351E+04  0.7818609E-02  0.8892237E-01
        2   -1    0    0  501    0  0.00000000000E+00  0.00000000000E+00  0.10181006400E+04  0.10181006400E+04  0.25500000920E-02 0. -1.
       -2   -1    0    0    0  501  0.00000000000E+00  0.00000000000E+00 -0.54395124680E+03  0.54395124681E+03  0.25500000920E-02 0.  1.
    10030    2    1    2    0    0  0.00000000000E+00  0.00000000000E+00  0.47414939321E+03  0.15620518868E+04  0.14883509163E+04 0.  0.
        3    1    3    3  502    0 -0.22287245221E+02  0.57295651654E+03  0.73492851865E+03  0.93214581953E+03  0.10100000352E+00 0. -1.
       -3    1    3    3    0  502  0.22287245221E+02 -0.57295651654E+03 -0.26077912544E+03  0.62990606729E+03  0.10100000352E+00 0.  1.
</event>
<event>
 5   0  0.2800375E-04  0.1494549E+04  0.7818609E-02  0.8888086E-01
        4   -1    0    0  501    0  0.00000000000E+00  0.00000000000E+00  0.52369334208E+03  0.52369488200E+03  0.12699999809E+01 0.  1.
       -4   -1    0    0    0  501  0.00000000000E+00  0.00000000000E+00 -0.10663064680E+04  0.10663072243E+04  0.12699999809E+01 0. -1.
    10030    2    1    2    0    0  0.00000000000E+00  0.00000000000E+00 -0.54261312592E+03  0.15900021063E+04  0.14945493279E+04 0.  0.
        1    1    3    3  502    0  0.29088443820E+03 -0.40176390424E+03  0.32331000126E+03  0.59207883603E+03  0.50400001928E-02 0.  1.
       -1    1    3    3    0  502 -0.29088443820E+03  0.40176390424E+03 -0.86592312718E+03  0.99792327027E+03  0.50400001928E-02 0. -1.
</event>
<event>
 5   0  0.4084462E-04  0.1488550E+04  0.7818609E-02  0.8892103E-01
        1   -1    0    0  501    0  0.00000000000E+00  0.00000000000E+00  0.10408659148E+04  0.10408659148E+04  0.50400001928E-02 0. -1.
       -1   -1    0    0    0  501  0.00000000000E+00  0.00000000000E+00 -0.53219667226E+03  0.53219667229E+03  0.50400001928E-02 0.  1.
    10030    2    1    2    0    0  0.00000000000E+00  0.00000000000E+00  0.50866924256E+03  0.15730625871E+04  0.14885501351E+04 0.  0.
        1    1    3    3  502    0 -0.53994578357E+03 -0.47887996472E+03  0.44653380651E+03  0.84868127715E+03  0.50400001928E-02 0. -1.
       -1    1    3    3    0  502  0.53994578357E+03  0.47887996472E+03  0.62135436051E+02  0.72438130997E+03  0.50400001928E-02 0.  1.
</event>
<event>
 5   0  0.3907345E-04  0.1484594E+04  0.7818609E-02  0.8894763E-01
       -1   -1    0    0    0  501  0.00000000000E+00  0.00000000000E+00  0.80075055418E+03  0.80075055419E+03  0.50400001928E-02 0.  1.
        1   -1    0    0  501    0  0.00000000000E+00  0.00000000000E+00 -0.68811042518E+03  0.68811042520E+03  0.50400001928E-02 0. -1.
    10030    2    1    2    0    0  0.00000000000E+00  0.00000000000E+00  0.11264012900E+03  0.14888609794E+04  0.14845939570E+04 0.  0.
        5    1    3    3  502    0 -0.44682353827E+03 -0.26219773587E+03 -0.47679392637E+03  0.70409762482E+03  0.46999998093E+01 0. -1.
       -5    1    3    3    0  502  0.44682353827E+03  0.26219773587E+03  0.58943405537E+03  0.78476335457E+03  0.46999998093E+01 0.  1.
</event>
<event>
 5   0  0.3907345E-04  0.1496262E+04  0.7818609E-02  0.8886943E-01
        1   -1    0    0  501    0  0.00000000000E+00  0.00000000000E+00  0.13549371818E+04  0.13549371818E+04  0.50400001928E-02 0. -1.
       -1   -1    0    0    0  501  0.00000000000E+00  0.00000000000E+00 -0.41308168383E+03  0.41308168387E+03  0.50400001928E-02 0.  1.
    10030    2    1    2    0    0  0.00000000000E+00  0.00000000000E+00  0.94185549798E+03  0.17680188657E+04  0.14962616517E+04 0.  0.
        5    1    3    3  502    0  0.57445016826E+03 -0.13696754257E+03 -0.71751110791E+02  0.59491462869E+03  0.46999998093E+01 0.  1.
       -5    1    3    3    0  502 -0.57445016826E+03  0.13696754257E+03  0.10136066088E+04  0.11731042370E+04  0.46999998093E+01 0. -1.
</event>
<event>
 5   0  0.7359897E-04  0.1456069E+04  0.7818609E-02  0.8914204E-01
        2   -1    0    0  501    0  0.00000000000E+00  0.00000000000E+00  0.91113436065E+03  0.91113436066E+03  0.25500000920E-02 0. -1.
       -2   -1    0    0    0  501  0.00000000000E+00  0.00000000000E+00 -0.58173020306E+03  0.58173020307E+03  0.25500000920E-02 0.  1.
    10030    2    1    2    0    0  0.00000000000E+00  0.00000000000E+00  0.32940415759E+03  0.14928645637E+04  0.14560691970E+04 0.  0.
        1    1    3    3  502    0 -0.37994449637E+03 -0.55753530572E+03  0.44516728579E+03  0.80831760454E+03  0.50400001928E-02 0.  1.
       -1    1    3    3    0  502  0.37994449637E+03  0.55753530572E+03 -0.11576312820E+03  0.68454695918E+03  0.50400001928E-02 0. -1.
</event>
<event>
 5   0  0.7359897E-04  0.1499219E+04  0.7818609E-02  0.8884972E-01
       -2   -1    0    0    0  501  0.00000000000E+00  0.00000000000E+00  0.92797536248E+03  0.92797536248E+03  0.25500000920E-02 0.  1.
        2   -1    0    0  501    0  0.00000000000E+00  0.00000000000E+00 -0.60552732426E+03  0.60552732426E+03  0.25500000920E-02 0. -1.
    10030    2    1    2    0    0  0.00000000000E+00  0.00000000000E+00  0.32244803822E+03  0.15335026867E+04  0.14992190477E+04 0.  0.
        1    1    3    3  502    0  0.57425406800E+03 -0.11861375779E+03  0.63889060249E+03  0.86718980629E+03  0.50400001928E-02 0. -1.
       -1    1    3    3    0  502 -0.57425406800E+03  0.11861375779E+03 -0.31644256427E+03  0.66631288046E+03  0.50400001928E-02 0.  1.
</event>
<event>
 5   0  0.4058874E-04  0.1495886E+04  0.7818609E-02  0.8887193E-01
        1   -1    0    0  501    0  0.00000000000E+00  0.00000000000E+00  0.19877824515E+04  0.19877824515E+04  0.50400001928E-02 0.  1.
       -1   -1    0    0    0  501  0.00000000000E+00  0.00000000000E+00 -0.28142863254E+03  0.28142863258E+03  0.50400001928E-02 0. -1.
    10030    2    1    2    0    0  0.00000000000E+00  0.00000000000E+00  0.17063538189E+04  0.22692110840E+04  0.14958862218E+04 0.  0.
        4    1    3    3  502    0 -0.44962645440E+03  0.31761552098E+03  0.16212686301E+04  0.17121790653E+04  0.12699999809E+01 0.  1.
       -4    1    3    3    0  502  0.44962645440E+03 -0.31761552098E+03  0.85085188781E+02  0.55703201875E+03  0.12699999809E+01 0. -1.
</event>
<event>
 5   0  0.7634227E-04  0.1502616E+04  0.7818609E-02  0.8882715E-01
       -2   -1    0    0    0  501  0.00000000000E+00  0.00000000000E+00  0.68719484611E+03  0.68719484611E+03  0.25500000920E-02 0. -1.
        2   -1    0    0  501    0  0.00000000000E+00  0.00000000000E+00 -0.82140310608E+03  0.82140310608E+03  0.25500000920E-02 0.  1.
    10030    2    1    2    0    0  0.00000000000E+00  0.00000000000E+00 -0.13420825997E+03  0.15085979522E+04  0.15026163597E+04 0.  0.
        2    1    3    3  502    0  0.44658821948E+03 -0.27988094139E+02  0.53882103119E+03  0.70039451372E+03  0.25500000920E-02 0. -1.
       -2    1    3    3    0  502 -0.44658821948E+03  0.27988094139E+02 -0.67302929116E+03  0.80820343847E+03  0.25500000920E-02 0.  1.
</event>
<event>
 5   0  0.2800375E-04  0.1487805E+04  0.7818609E-02  0.8892603E-01
       -3   -1    0    0    0  501  0.00000000000E+00  0.00000000000E+00  0.14048703829E+04  0.14048703865E+04  0.10100000352E+00 0. -1.
        3   -1    0    0  501    0  0.00000000000E+00  0.00000000000E+00 -0.39390892637E+03  0.39390893931E+03  0.10100000352E+00 0.  1.
    10030    2    1    2    0    0  0.00000000000E+00  0.00000000000E+00  0.10109614565E+04  0.17987793258E+04  0.14878050936E+04 0.  0.
        1    1    3    3  502    0 -0.26437361547E+03  0.69522893350E+02  0.13419448173E+04  0.13695045579E+04  0.50400001928E-02 0. -1.
       -1    1    3    3    0  502  0.26437361547E+03 -0.69522893350E+02 -0.33098336080E+03  0.42927476796E+03  0.50400001928E-02 0.  1.
</event>
<event>
 5   0  0.7672251E-04  0.1506870E+04  0.7818609E-02  0.8879898E-01
       -2   -1    0    0    0  501  0.00000000000E+00  0.00000000000E+00  0.38444000722E+03  0.38444000723E+03  0.25500000920E-02 0.  1.
        2   -1    0    0  501    0  0.00000000000E+00  0.00000000000E+00 -0.14765996037E+04  0.14765996037E+04  0.25500000920E-02 0. -1.
    10030    2    1    2    0    0  0.00000000000E+00  0.00000000000E+00 -0.10921595965E+04  0.18610396109E+04  0.15068695528E+04 0.  0.
        5    1    3    3  502    0  0.20578318674E+02  0.62276136860E+03 -0.22991434995E+02  0.62354301015E+03  0.46999998093E+01 0.  1.
       -5    1    3    3    0  502 -0.20578318674E+02 -0.62276136860E+03 -0.10691681615E+04  0.12374966008E+04  0.46999998093E+01 0. -1.
</event>
<event>
 5   0  0.7672251E-04  0.1302330E+04  0.7818609E-02  0.9027720E-01
        2   -1    0    0  501    0  0.00000000000E+00  0.00000000000E+00  0.53208754448E+03  0.53208754449E+03  0.25500000920E-02 0. -1.
       -2   -1    0    0    0  501  0.00000000000E+00  0.00000000000E+00 -0.79689098605E+03  0.79689098605E+03  0.25500000920E-02 0.  1.
    10030    2    1    2    0    0  0.00000000000E+00  0.00000000000E+00 -0.26480344156E+03  0.13289785305E+04  0.13023298630E+04 0.  0.
        5    1    3    3  502    0  0.17581659702E+03  0.60844383447E+03 -0.28675251370E+03  0.69524417984E+03  0.46999998093E+01 0.  1.
       -5    1    3    3    0  502 -0.17581659702E+03 -0.60844383447E+03  0.21949072135E+02  0.63373435070E+03  0.46999998093E+01 0. -1.
</event>
<event>
 5   0  0.4084462E-04  0.1495375E+04  0.7818609E-02  0.8887534E-01
       -1   -1    0    0    0  501  0.00000000000E+00  0.00000000000E+00  0.38866133668E+03  0.38866133671E+03  0.50400001928E-02 0. -1.
        1   -1    0    0  501    0  0.00000000000E+00  0.00000000000E+00 -0.14383639821E+04  0.14383639821E+04  0.50400001928E-02 0.  1.
    10030    2    1    2    0    0  0.00000000000E+00  0.00000000000E+00 -0.10497026454E+04  0.18270253188E+04  0.14953748265E+04 0.  0.
        1    1    3    3  502    0  0.22559562395E+03  0.10329321619E+03  0.33689515516E+03  0.41840317835E+03  0.50400001928E-02 0. -1.
       -1    1    3    3    0  502 -0.22559562395E+03 -0.10329321619E+03 -0.13865978006E+04  0.14086221405E+04  0.50400001928E-02 0.  1.
</event>
<event>
 5   0  0.4058874E-04  0.1513866E+04  0.7818609E-02  0.8875284E-01
       -1   -1    0    0    0  501  0.00000000000E+00  0.00000000000E+00  0.65241948427E+03  0.65241948429E+03  0.50400001928E-02 0.  1.
        1   -1    0    0  501    0  0.00000000000E+00  0.00000000000E+00 -0.87818860153E+03  0.87818860155E+03  0.50400001928E-02 0. -1.
    10030    2    1    2    0    0  0.00000000000E+00  0.00000000000E+00 -0.22576911726E+03  0.15306080858E+04  0.15138657200E+04 0.  0.
        4    1    3    3  502    0 -0.44864833413E+03  0.29594356363E+03 -0.65176858753E+03  0.84479099496E+03  0.12699999809E+01 0. -1.
       -4    1    3    3    0  502  0.44864833413E+03 -0.29594356363E+03  0.42599947027E+03  0.68581709088E+03  0.12699999809E+01 0.  1.
</event>
<event>
 5   0  0.7454828E-04  0.1495742E+04  0.7818609E-02  0.8887289E-01
       -2   -1    0    0    0  501  0.00000000000E+00  0.00000000000E+00  0.36773427424E+03  0.36773427425E+03  0.25500000920E-02 0.  1.
        2   -1    0    0  501    0  0.00000000000E+00  0.00000000000E+00 -0.15209661741E+04  0.15209661742E+04  0.25500000920E-02 0. -1.
    10030    2    1    2    0    0  0.00000000000E+00  0.00000000000E+00 -0.11532318999E+04  0.18887004484E+04  0.14957424808E+04 0.  0.
        3    1    3    3  502    0  0.37483453708E+03  0.58250656907E+03 -0.22059103395E+03  0.72696303046E+03  0.10100000352E+00 0.  1.
       -3    1    3    3    0  502 -0.37483453708E+03 -0.58250656907E+03 -0.93264086596E+03  0.11617374179E+04  0.10100000352E+00 0. -1.
</event>
<event>
 5   0  0.7359897E-04  0.1527153E+04  0.7818609E-02  0.8866595E-01
        2   -1    0    0  501    0  0.00000000000E+00  0.00000000000E+00  0.69152192319E+03  0.69152192319E+03  0.25500000920E-02 0. -1.
       -2   -1    0    0    0  501  0.00000000000E+00  0.00000000000E+00 -0.84313883765E+03  0.84313883765E+03  0.25500000920E-02 0.  1.
    10030    2    1    2    0    0  0.00000000000E+00  0.00000000000E+00 -0.15161691446E+03  0.15346607608E+04  0.15271528942E+04 0.  0.
        1    1    3    3  502    0 -0.24278283784E+03  0.46915050143E+02  0.65017274288E+03  0.69560701828E+03  0.50400001928E-02 0. -1.
       -1    1    3    3    0  502  0.24278283784E+03 -0.46915050143E+02 -0.80178965734E+03  0.83905374257E+03  0.50400001928E-02 0.  1.
</event>
<event>
 5   0  0.7672251E-04  0.1510190E+04  0.7818609E-02  0.8877705E-01
       -2   -1    0    0    0  501  0.00000000000E+00  0.00000000000E+00  0.57582746510E+03  0.57582746510E+03  0.25500000920E-02 0.  1.
        2   -1    0    0  501    0  0.00000000000E+00  0.00000000000E+00 -0.99017275997E+03  0.99017275997E+03  0.25500000920E-02 0. -1.
    10030    2    1    2    0    0  0.00000000000E+00  0.00000000000E+00 -0.41434529487E+03  0.15660002251E+04  0.15101902799E+04 0.  0.
        5    1    3    3  502    0  0.11645845256E+03  0.16493926665E+03  0.54730004176E+03  0.58337548677E+03  0.46999998093E+01 0.  1.
       -5    1    3    3    0  502 -0.11645845256E+03 -0.16493926665E+03 -0.96164533663E+03  0.98262473830E+03  0.46999998093E+01 0. -1.
</event>
<event>
 5   0  0.2800375E-04  0.1494256E+04  0.7818609E-02  0.8888282E-01
        4   -1    0    0  501    0  0.00000000000E+00  0.00000000000E+00  0.55509089281E+03  0.55509234564E+03  0.12699999809E+01 0. -1.
       -4   -1    0    0    0  501  0.00000000000E+00  0.00000000000E+00 -0.10055984626E+04  0.10055992646E+04  0.12699999809E+01 0.  1.
    10030    2    1    2    0    0  0.00000000000E+00  0.00000000000E+00 -0.45050756982E+03  0.15606916102E+04  0.14942560797E+04 0.  0.
        3    1    3    3  502    0  0.15114324908E+03 -0.41185086014E+03  0.40639440742E+03  0.59801491396E+03  0.10100000352E+00 0. -1.
       -3    1    3    3    0  502 -0.15114324908E+03  0.41185086014E+03 -0.85690197723E+03  0.96267669626E+03  0.10100000352E+00 0.  1.
</event>
<event>
 5   0  0.7454828E-04  0.1495331E+04  0.7818609E-02  0.8887563E-01
        2   -1    0    0  501    0  0.00000000000E+00  0.00000000000E+00  0.53744981948E+03  0.53744981948E+03  0.25500000920E-02 0. -1.
       -2   -1    0    0    0  501  0.00000000000E+00  0.00000000000E+00 -0.10401045953E+04  0.10401045953E+04  0.25500000920E-02 0.  1.
    10030    2    1    2    0    0  0.00000000000E+00  0.00000000000E+00 -0.50265477585E+03  0.15775544148E+04  0.14953314375E+04 0.  0.
        3    1    3    3  502    0 -0.66239262562E+03 -0.60794121804E+02 -0.61148453102E+03  0.90353376118E+03  0.10100000352E+00 0.  1.
       -3    1    3    3    0  502  0.66239262562E+03  0.60794121804E+02  0.10882975517E+03  0.67402065364E+03  0.10100000352E+00 0. -1.
</event>
<event>
 5   0  0.7547580E-04  0.1540700E+04  0.7818609E-02  0.8857830E-01
        2   -1    0    0  501    0  0.00000000000E+00  0.00000000000E+00  0.92379882556E+03  0.92379882556E+03  0.25500000920E-02 0.  1.
       -2   -1    0    0    0  501  0.00000000000E+00  0.00000000000E+00 -0.64239005971E+03  0.64239005971E+03  0.25500000920E-02 0. -1.
    10030    2    1    2    0    0  0.00000000000E+00  0.00000000000E+00  0.28140876585E+03  0.15661888853E+04  0.15407000782E+04 0.  0.
        4    1    3    3  502    0  0.54148144138E+03  0.17683315281E+03  0.66790302718E+03  0.87782013073E+03  0.12699999809E+01 0.  1.
       -4    1    3    3    0  502 -0.54148144138E+03 -0.17683315281E+03 -0.38649426133E+03  0.68836875455E+03  0.12699999809E+01 0. -1.
</event>
<event>
 5   0  0.2800375E-04  0.1492548E+04  0.7818609E-02  0.8889424E-01
        3   -1    0    0  501    0  0.00000000000E+00  0.00000000000E+00  0.58667408929E+03  0.58667409799E+03  0.10100000352E+00 0. -1.
       -3   -1    0    0    0  501  0.00000000000E+00  0.00000000000E+00 -0.94929135643E+03  0.94929136181E+03  0.10100000352E+00 0.  1.
    10030    2    1    2    0    0  0.00000000000E+00  0.00000000000E+00 -0.36261726714E+03  0.15359654598E+04  0.14925476914E+04 0.  0.
        2    1    3    3  502    0 -0.14342886560E+03 -0.41135615949E+03 -0.80485456164E+03  0.91519210816E+03  0.25500000920E-02 0.  1.
       -2    1    3    3    0  502  0.14342886560E+03  0.41135615949E+03  0.44223729450E+03  0.62077335163E+03  0.25500000920E-02 0. -1.
</event>
<event>
 5   0  0.7454828E-04  0.1500726E+04  0.7818609E-02  0.8883971E-01
        2   -1    0    0  501    0  0.00000000000E+00  0.00000000000E+00  0.19049218107E+04  0.19049218107E+04  0.25500000920E-02 0. -1.
       -2   -1    0    0    0  501  0.00000000000E+00  0.00000000000E+00 -0.29557344928E+03  0.29557344929E+03  0.25500000920E-02 0.  1.
    10030    2    1    2    0    0  0.00000000000E+00  0.00000000000E+00  0.16093483614E+04  0.22004952600E+04  0.15007255714E+04 0.  0.
        3    1    3    3  502    0 -0.37882169905E+03  0.63282579459E+03  0.10071595973E+04  0.12483368258E+04  0.10100000352E+00 0.  1.
       -3    1    3    3    0  502  0.37882169905E+03 -0.63282579459E+03  0.60218876411E+03  0.95215843419E+03  0.10100000352E+00 0. -1.
</event>
<event>
 5   0  0.7547580E-04  0.1487958E+04  0.7818609E-02  0.8892500E-01
       -2   -1    0    0    0  501  0.00000000000E+00  0.00000000000E+00  0.33629030830E+03  0.33629030831E+03  0.25500000920E-02 0. -1.
        2   -1    0    0  501    0  0.00000000000E+00  0.00000000000E+00 -0.16459145294E+04  0.16459145294E+04  0.25500000920E-02 0.  1.
    10030    2    1    2    0    0  0.00000000000E+00  0.00000000000E+00 -0.13096242211E+04  0.19822048378E+04  0.14879584733E+04 0.  0.
        4    1    3    3  502    0  0.21740358789E+03 -0.71033732940E+03 -0.70908942073E+03  0.10269629307E+04  0.12699999809E+01 0. -1.
       -4    1    3    3    0  502 -0.21740358789E+03  0.71033732940E+03 -0.60053480040E+03  0.95524190704E+03  0.12699999809E+01 0.  1.
</event>
<event>
 5   0  0.7359897E-04  0.1509605E+04  0.7818609E-02  0.8878091E-01
       -2   -1    0    0    0  501  0.00000000000E+00  0.00000000000E+00  0.61771003460E+03  0.61771003460E+03  0.25500000920E-02 0. -1.
        2   -1    0    0  501    0  0.00000000000E+00  0.00000000000E+00 -0.92232048332E+03  0.92232048332E+03  0.25500000920E-02 0.  1.
    10030    2    1    2    0    0  0.00000000000E+00  0.00000000000E+00 -0.30461044872E+03  0.15400305179E+04  0.15096047399E+04 0.  0.
        1    1    3    3  502    0 -0.43885282311E+03  0.26526768837E+03  0.41272413195E+03  0.65825523618E+03  0.50400001928E-02 0. -1.
       -1    1    3    3    0  502  0.43885282311E+03 -0.26526768837E+03 -0.71733458067E+03  0.88177528174E+03  0.50400001928E-02 0.  1.
</event>
<event>
 5   0  0.4058874E-04  0.1483337E+04  0.7818609E-02  0.8895610E-01
       -1   -1    0    0    0  501  0.00000000000E+00  0.00000000000E+00  0.51237522674E+03  0.51237522677E+03  0.50400001928E-02 0.  1.
        1   -1    0    0  501    0  0.00000000000E+00  0.00000000000E+00 -0.10735732217E+04  0.10735732217E+04  0.50400001928E-02 0. -1.
    10030    2    1    2    0    0  0.00000000000E+00  0.00000000000E+00 -0.56119799496E+03  0.15859484485E+04  0.14833372144E+04 0.  0.
        4    1    3    3  502    0 -0.33165291375E+03  0.62244069824E+03 -0.52591519307E+03  0.87978092797E+03  0.12699999809E+01 0. -1.
       -4    1    3    3    0  502  0.33165291375E+03 -0.62244069824E+03 -0.35282801885E+02  0.70616752051E+03  0.12699999809E+01 0.  1.
</event>
<event>
 5   0  0.7454828E-04  0.1467866E+04  0.7818609E-02  0.8906108E-01
        2   -1    0    0  501    0  0.00000000000E+00  0.00000000000E+00  0.11066602274E+04  0.11066602274E+04  0.25500000920E-02 0. -1.
       -2   -1    0    0    0  501  0.00000000000E+00  0.00000000000E+00 -0.48674137293E+03  0.48674137294E+03  0.25500000920E-02 0.  1.
    10030    2    1    2    0    0  0.00000000000E+00  0.00000000000E+00  0.61991885443E+03  0.15934016003E+04  0.14678655503E+04 0.  0.
        3    1    3    3  502    0  0.71408976489E+03 -0.40949440073E+02  0.48851476884E+03  0.86616842389E+03  0.10100000352E+00 0. -1.
       -3    1    3    3    0  502 -0.71408976489E+03  0.40949440073E+02  0.13140408558E+03  0.72723317641E+03  0.10100000352E+00 0.  1.
</event>
<event>
 5   0  0.7672251E-04  0.1424263E+04  0.7818609E-02  0.8936440E-01
       -2   -1    0    0    0  501  0.00000000000E+00  0.00000000000E+00  0.65333527401E+03  0.65333527401E+03  0.25500000920E-02 0. -1.
        2   -1    0    0  501    0  0.00000000000E+00  0.00000000000E+00 -0.77621943121E+03  0.77621943121E+03  0.25500000920E-02 0.  1.
    10030    2    1    2    0    0  0.00000000000E+00  0.00000000000E+00 -0.12288415720E+03  0.14295547052E+04  0.14242633672E+04 0.  0.
        5    1    3    3  502    0  0.52033995977E+03  0.33011833250E+03 -0.41966807906E+03  0.74557036808E+03  0.46999998093E+01 0.  1.
       -5    1    3    3    0  502 -0.52033995977E+03 -0.33011833250E+03  0.29678392186E+03  0.68398433714E+03  0.46999998093E+01 0. -1.
</event>
<event>
 5   0  0.4086710E-04  0.1546927E+04  0.7818609E-02  0.8853833E-01
       -1   -1    0    0    0  501  0.00000000000E+00  0.00000000000E+00  0.33337983150E+03  0.33337983154E+03  0.50400001928E-02 0.  1.
        1   -1    0    0  501    0  0.00000000000E+00  0.00000000000E+00 -0.17944880873E+04  0.17944880873E+04  0.50400001928E-02 0. -1.
    10030    2    1    2    0    0  0.00000000000E+00  0.00000000000E+00 -0.14611082558E+04  0.21278679188E+04  0.15469274530E+04 0.  0.
        3    1    3    3  502    0  0.33773310162E+03 -0.52382403212E+03 -0.13605939543E+04  0.14965531007E+04  0.10100000352E+00 0. -1.
       -3    1    3    3    0  502 -0.33773310162E+03  0.52382403212E+03 -0.10051430146E+03  0.63131481810E+03  0.10100000352E+00 0.  1.
</event>
<event>
 5   0  0.4058874E-04  0.1496770E+04  0.7818609E-02  0.8886604E-01
       -1   -1    0    0    0  501  0.00000000000E+00  0.00000000000E+00  0.36000700009E+03  0.36000700012E+03  0.50400001928E-02 0. -1.
        1   -1    0    0  501    0  0.00000000000E+00  0.00000000000E+00 -0.15557473220E+04  0.15557473220E+04  0.50400001928E-02 0.  1.
    10030    2    1    2    0    0  0.00000000000E+00  0.00000000000E+00 -0.11957403219E+04  0.19157543221E+04  0.14967697569E+04 0.  0.
        4    1    3    3  502    0 -0.59542574464E+03 -0.34878625255E+03 -0.22714510641E+03  0.72648481031E+03  0.12699999809E+01 0. -1.
       -4    1    3    3    0  502  0.59542574464E+03  0.34878625255E+03 -0.96859521551E+03  0.11892695118E+04  0.12699999809E+01 0.  1.
</event>
<event>
 5   0  0.7547580E-04  0.1497041E+04  0.7818609E-02  0.8886423E-01
       -2   -1    0    0    0  501  0.00000000000E+00  0.00000000000E+00  0.36737078809E+03  0.36737078810E+03  0.25500000920E-02 0. -1.
        2   -1    0    0  501    0  0.00000000000E+00  0.00000000000E+00 -0.15251153456E+04  0.15251153456E+04  0.25500000920E-02 0.  1.
    10030    2    1    2    0    0  0.00000000000E+00  0.00000000000E+00 -0.11577445575E+04  0.18924861337E+04  0.14970408497E+04 0.  0.
        4    1    3    3  502    0  0.70470228807E+03  0.74212540594E+01 -0.89773129281E+03  0.11413077923E+04  0.12699999809E+01 0. -1.
       -4    1    3    3    0  502 -0.70470228807E+03 -0.74212540594E+01 -0.26001326468E+03  0.75117834136E+03  0.12699999809E+01 0.  1.
</event>
<event>
 5   0  0.4086710E-04  0.1497619E+04  0.7818609E-02  0.8886038E-01
       -1   -1    0    0    0  501  0.00000000000E+00  0.00000000000E+00  0.45039669945E+03  0.45039669948E+03  0.50400001928E-02 0.  1.
        1   -1    0    0  501    0  0.00000000000E+00  0.00000000000E+00 -0.12449373766E+04  0.12449373766E+04  0.50400001928E-02 0. -1.
    10030    2    1    2    0    0  0.00000000000E+00  0.00000000000E+00 -0.79454067710E+03  0.16953340760E+04  0.14976190243E+04 0.  0.
        3    1    3    3  502    0  0.39439565423E+03  0.43678131341E+03  0.12688019288E+03  0.60201697764E+03  0.10100000352E+00 0.  1.
       -3    1    3    3    0  502 -0.39439565423E+03 -0.43678131341E+03 -0.92142086998E+03  0.10933170984E+04  0.10100000352E+00 0. -1.
</event>
<event>
 5   0  0.7672251E-04  0.1514491E+04  0.7818609E-02  0.8874873E-01
       -2   -1    0    0    0  501  0.00000000000E+00  0.00000000000E+00  0.39754206740E+03  0.39754206740E+03  0.25500000920E-02 0.  1.
        2   -1    0    0  501    0  0.00000000000E+00  0.00000000000E+00 -0.14424150241E+04  0.14424150241E+04  0.25500000920E-02 0. -1.
    10030    2    1    2    0    0  0.00000000000E+00  0.00000000000E+00 -0.10448729567E+04  0.18399570915E+04  0.15144908725E+04 0.  0.
        5    1    3    3  502    0  0.88494275096E+02 -0.55653470535E+03  0.92064022794E+02  0.57101662784E+03  0.46999998093E+01 0.  1.
       -5    1    3    3    0  502 -0.88494275096E+02  0.55653470535E+03 -0.11369369795E+04  0.12689404637E+04  0.46999998093E+01 0. -1.
</event>
<event>
 5   0  0.7634227E-04  0.1505638E+04  0.7818609E-02  0.8880713E-01
       -2   -1    0    0    0  501  0.00000000000E+00  0.00000000000E+00  0.28755744282E+03  0.28755744283E+03  0.25500000920E-02 0. -1.
        2   -1    0    0  501    0  0.00000000000E+00  0.00000000000E+00 -0.19708625805E+04  0.19708625805E+04  0.25500000920E-02 0.  1.
    10030    2    1    2    0    0  0.00000000000E+00  0.00000000000E+00 -0.16833051377E+04  0.22584200234E+04  0.15056376773E+04 0.  0.
        2    1    3    3  502    0  0.69307207640E+03  0.63875307476E+02 -0.12719842066E+04  0.14499561303E+04  0.25500000920E-02 0.  1.
       -2    1    3    3    0  502 -0.69307207640E+03 -0.63875307476E+02 -0.41132093113E+03  0.80846389306E+03  0.25500000920E-02 0. -1.
</event>
<event>
 5   0  0.7672251E-04  0.1483695E+04  0.7818609E-02  0.8895368E-01
       -2   -1    0    0    0  501  0.00000000000E+00  0.00000000000E+00  0.48156480022E+03  0.48156480023E+03  0.25500000920E-02 0. -1.
        2   -1    0    0  501    0  0.00000000000E+00  0.00000000000E+00 -0.11428115870E+04  0.11428115870E+04  0.25500000920E-02 0.  1.
    10030    2    1    2    0    0  0.00000000000E+00  0.00000000000E+00 -0.66124678679E+03  0.16243763872E+04  0.14836951622E+04 0.  0.
        5    1    3    3  502    0 -0.20987501428E+02 -0.58720464962E+03  0.16515635550E+03  0.61036750201E+03  0.46999998093E+01 0. -1.
       -5    1    3    3    0  502  0.20987501428E+02  0.58720464962E+03 -0.82640314228E+03  0.10140088852E+04  0.46999998093E+01 0.  1.
</event>
<event>
 5   0  0.3907345E-04  0.1507343E+04  0.7818609E-02  0.8879584E-01
       -1   -1    0    0    0  501  0.00000000000E+00  0.00000000000E+00  0.86083721325E+03  0.86083721326E+03  0.50400001928E-02 0.  1.
        1   -1    0    0  501    0  0.00000000000E+00  0.00000000000E+00 -0.65984725851E+03  0.65984725852E+03  0.50400001928E-02 0. -1.
    10030    2    1    2    0    0  0.00000000000E+00  0.00000000000E+00  0.20098995474E+03  0.15206844718E+04  0.15073434581E+04 0.  0.
        5    1    3    3  502    0 -0.26054017688E+03  0.29223527724E+03  0.75017941890E+03  0.84621149340E+03  0.46999998093E+01 0.  1.
       -5    1    3    3    0  502  0.26054017688E+03 -0.29223527724E+03 -0.54918946415E+03  0.67447297838E+03  0.46999998093E+01 0. -1.
</event>
<event>
 5   0  0.4058874E-04  0.1489231E+04  0.7818609E-02  0.8891646E-01
       -1   -1    0    0    0  501  0.00000000000E+00  0.00000000000E+00  0.71841702115E+03  0.71841702117E+03  0.50400001928E-02 0.  1.
        1   -1    0    0  501    0  0.00000000000E+00  0.00000000000E+00 -0.77176893707E+03  0.77176893709E+03  0.50400001928E-02 0. -1.
    10030    2    1    2    0    0  0.00000000000E+00  0.00000000000E+00 -0.53351915919E+02  0.14901859583E+04  0.14892305944E+04 0.  0.
        4    1    3    3  502    0 -0.48897411982E+03  0.47082867883E+03  0.27958409436E+03  0.73412819955E+03  0.12699999809E+01 0.  1.
       -4    1    3    3    0  502  0.48897411982E+03 -0.47082867883E+03 -0.33293601028E+03  0.75605775870E+03  0.12699999809E+01 0. -1.
</event>
<event>
 5   0  0.7454828E-04  0.1482351E+04  0.7818609E-02  0.8896275E-01
        2   -1    0    0  501    0  0.00000000000E+00  0.00000000000E+00  0.88738280683E+03  0.88738280683E+03  0.25500000920E-02 0. -1.
       -2   -1    0    0    0  501  0.00000000000E+00  0.00000000000E+00 -0.61905795505E+03  0.61905795506E+03  0.25500000920E-02 0.  1.
    10030    2    1    2    0    0  0.00000000000E+00  0.00000000000E+00  0.26832485178E+03  0.15064407619E+04  0.14823513561E+04 0.  0.
        3    1    3    3  502    0  0.53109615463E+03  0.26021744741E+03 -0.31982438214E+03  0.67235696696E+03  0.10100000352E+00 0.  1.
       -3    1    3    3    0  502 -0.53109615463E+03 -0.26021744741E+03  0.58814923392E+03  0.83408379493E+03  0.10100000352E+00 0. -1.
</event>
<event>
 5   0  0.4015204E-04  0.1492819E+04  0.7818609E-02  0.8889242E-01
       -1   -1    0    0    0  501  0.00000000000E+00  0.00000000000E+00  0.31716650771E+03  0.31716650775E+03  0.50400001928E-02 0.  1.
        1   -1    0    0  501    0  0.00000000000E+00  0.00000000000E+00 -0.17565755367E+04  0.17565755367E+04  0.50400001928E-02 0. -1.
    10030    2    1    2    0    0  0.00000000000E+00  0.00000000000E+00 -0.14394090289E+04  0.20737420444E+04  0.14928187144E+04 0.  0.
        2    1    3    3  502    0  0.39607335119E+03  0.62811556246E+03 -0.61460881978E+03  0.96392284997E+03  0.25500000920E-02 0. -1.
       -2    1    3    3    0  502 -0.39607335119E+03 -0.62811556246E+03 -0.82480020916E+03  0.11098191945E+04  0.25500000920E-02 0.  1.
</event>
<event>
 5   0  0.7547580E-04  0.1498706E+04  0.7818609E-02  0.8885314E-01
        2   -1    0    0  501    0  0.00000000000E+00  0.00000000000E+00  0.12489021675E+04  0.12489021675E+04  0.25500000920E-02 0. -1.
       -2   -1    0    0    0  501  0.00000000000E+00  0.00000000000E+00 -0.44961893514E+03  0.44961893514E+03  0.25500000920E-02 0.  1.
    10030    2    1    2    0    0  0.00000000000E+00  0.00000000000E+00  0.79928323239E+03  0.16985211027E+04  0.14987061922E+04 0.  0.
        4    1    3    3  502    0  0.72898428006E+03  0.12275436934E+03  0.53863796661E+03  0.91466889514E+03  0.12699999809E+01 0. -1.
       -4    1    3    3    0  502 -0.72898428006E+03 -0.12275436934E+03  0.26064526577E+03  0.78385220752E+03  0.12699999809E+01 0.  1.
</event>
<event>
 5   0  0.4058874E-04  0.1522362E+04  0.7818609E-02  0.8869717E-01
        1   -1    0    0  501    0  0.00000000000E+00  0.00000000000E+00  0.17978971217E+04  0.17978971218E+04  0.50400001928E-02 0.  1.
       -1   -1    0    0    0  501  0.00000000000E+00  0.00000000000E+00 -0.32226326172E+03  0.32226326176E+03  0.50400001928E-02 0. -1.
    10030    2    1    2    0    0  0.00000000000E+00  0.00000000000E+00  0.14756338600E+04  0.21201603835E+04  0.15223615743E+04 0.  0.
        4    1    3    3  502    0  0.53911103704E+03 -0.41097656511E+03  0.12199576155E+04  0.13956506167E+04  0.12699999809E+01 0.  1.
       -4    1    3    3    0  502 -0.53911103704E+03  0.41097656511E+03  0.25567624454E+03  0.72450976685E+03  0.12699999809E+01 0. -1.
</event>
<event>
 5   0  0.4084462E-04  0.1497658E+04  0.7818609E-02  0.8886012E-01
       -1   -1    0    0    0  501  0.00000000000E+00  0.00000000000E+00  0.15473797899E+04  0.15473797899E+04  0.50400001928E-02 0. -1.
        1   -1    0    0  501    0  0.00000000000E+00  0.00000000000E+00 -0.36238357187E+03  0.36238357191E+03  0.50400001928E-02 0.  1.
    10030    2    1    2    0    0  0.00000000000E+00  0.00000000000E+00  0.11849962180E+04  0.19097633618E+04  0.14976581924E+04 0.  0.
        1    1    3    3  502    0 -0.37760350482E+03  0.19661706849E+03 -0.19305233426E+03  0.46745254547E+03  0.50400001928E-02 0.  1.
       -1    1    3    3    0  502  0.37760350482E+03 -0.19661706849E+03  0.13780485523E+04  0.14423108163E+04  0.50400001928E-02 0. -1.
</event>
<event>
 5   0  0.3907345E-04  0.1502301E+04  0.7818609E-02  0.8882924E-01
        1   -1    0    0  501    0  0.00000000000E+00  0.00000000000E+00  0.22318132237E+04  0.22318132237E+04  0.50400001928E-02 0. -1.
       -1   -1    0    0    0  501  0.00000000000E+00  0.00000000000E+00 -0.25281106287E+03  0.25281106292E+03  0.50400001928E-02 0.  1.
    10030    2    1    2    0    0  0.00000000000E+00  0.00000000000E+00  0.19790021608E+04  0.24846242866E+04  0.15023009995E+04 0.  0.
        5    1    3    3  502    0  0.56396387117E+02 -0.70623601201E+03  0.14021600872E+04  0.15709948622E+04  0.46999998093E+01 0. -1.
       -5    1    3    3    0  502 -0.56396387117E+02  0.70623601201E+03  0.57684207366E+03  0.91362942438E+03  0.46999998093E+01 0.  1.
</event>
<event>
 5   0  0.4086710E-04  0.1464432E+04  0.7818609E-02  0.8908456E-01
        1   -1    0    0  501    0  0.00000000000E+00  0.00000000000E+00  0.39112773246E+03  0.39112773250E+03  0.50400001928E-02 0. -1.
       -1   -1    0    0    0  501  0.00000000000E+00  0.00000000000E+00 -0.13707557713E+04  0.13707557713E+04  0.50400001928E-02 0.  1.
    10030    2    1    2    0    0  0.00000000000E+00  0.00000000000E+00 -0.97962803880E+03  0.17618835038E+04  0.14644324452E+04 0.  0.
        3    1    3    3  502    0 -0.80256437692E+02  0.62197433077E+03 -0.35094024617E+02  0.62811206380E+03  0.10100000352E+00 0.  1.
       -3    1    3    3    0  502  0.80256437692E+02 -0.62197433077E+03 -0.94453401418E+03  0.11337714400E+04  0.10100000352E+00 0. -1.
</event>
<event>
 5   0  0.7634227E-04  0.1434165E+04  0.7818609E-02  0.8929453E-01
        2   -1    0    0  501    0  0.00000000000E+00  0.00000000000E+00  0.48538766094E+03  0.48538766095E+03  0.25500000920E-02 0.  1.
       -2   -1    0    0    0  501  0.00000000000E+00  0.00000000000E+00 -0.10593750087E+04  0.10593750087E+04  0.25500000920E-02 0. -1.
    10030    2    1    2    0    0  0.00000000000E+00  0.00000000000E+00 -0.57398734773E+03  0.15447626696E+04  0.14341653427E+04 0.  0.
        2    1    3    3  502    0  0.45891431908E+03  0.51765693486E+03 -0.49032771074E+03  0.84793414744E+03  0.25500000920E-02 0. -1.
       -2    1    3    3    0  502 -0.45891431908E+03 -0.51765693486E+03 -0.83659636987E+02  0.69682852219E+03  0.25500000920E-02 0.  1.
</event>
<event>
 5   0  0.4058874E-04  0.1497612E+04  0.7818609E-02  0.8886042E-01
        1   -1    0    0  501    0  0.00000000000E+00  0.00000000000E+00  0.10563592615E+04  0.10563592615E+04  0.50400001928E-02 0. -1.
       -1   -1    0    0    0  501  0.00000000000E+00  0.00000000000E+00 -0.53079524209E+03  0.53079524212E+03  0.50400001928E-02 0.  1.
    10030    2    1    2    0    0  0.00000000000E+00  0.00000000000E+00  0.52556401936E+03  0.15871545036E+04  0.14976120592E+04 0.  0.
        4    1    3    3  502    0  0.17782777173E+03 -0.72499525220E+03  0.32519298689E+03  0.81424377415E+03  0.12699999809E+01 0. -1.
       -4    1    3    3    0  502 -0.17782777173E+03  0.72499525220E+03  0.20037103247E+03  0.77291072943E+03  0.12699999809E+01 0.  1.
</event>
<event>
 5   0  0.7672251E-04  0.1511289E+04  0.7818609E-02  0.8876980E-01
        2   -1    0    0  501    0  0.00000000000E+00  0.00000000000E+00  0.21031837459E+04  0.21031837459E+04  0.25500000920E-02 0.  1.
       -2   -1    0    0    0  501  0.00000000000E+00  0.00000000000E+00 -0.27149263498E+03  0.27149263499E+03  0.25500000920E-02 0. -1.
    10030    2    1    2    0    0  0.00000000000E+00  0.00000000000E+00  0.18316911109E+04  0.23746763809E+04  0.15112893793E+04 0.  0.
        5    1    3    3  502    0  0.65163253520E+03 -0.24566755014E+03  0.45505426396E+03  0.83190983843E+03  0.46999998093E+01 0. -1.
       -5    1    3    3    0  502 -0.65163253520E+03  0.24566755014E+03  0.13766368469E+04  0.15427665425E+04  0.46999998093E+01 0.  1.
</event>
<event>
 5   0  0.7547580E-04  0.1663945E+04  0.7818609E-02  0.8782199E-01
       -2   -1    0    0    0  501  0.00000000000E+00  0.00000000000E+00  0.74061307874E+03  0.74061307875E+03  0.25500000920E-02 0.  1.
        2   -1    0    0  501    0  0.00000000000E+00  0.00000000000E+00 -0.93460207006E+03  0.93460207006E+03  0.25500000920E-02 0. -1.
    10030    2    1    2    0    0  0.00000000000E+00  0.00000000000E+00 -0.19398899131E+03  0.16752151488E+04  0.16639453314E+04 0.  0.
        4    1    3    3  502    0  0.29360231474E+03  0.15040145464E+03 -0.86594364930E+03  0.92665146276E+03  0.12699999809E+01 0. -1.
       -4    1    3    3    0  502 -0.29360231474E+03 -0.15040145464E+03  0.67195465798E+03  0.74856368605E+03  0.12699999809E+01 0.  1.
</event>
<event>
 5   0  0.4084462E-04  0.1498773E+04  0.7818609E-02  0.8885270E-01
       -1   -1    0    0    0  501  0.00000000000E+00  0.00000000000E+00  0.79973578447E+03  0.79973578449E+03  0.50400001928E-02 0. -1.
        1   -1    0    0  501    0  0.00000000000E+00  0.00000000000E+00 -0.70220661978E+03  0.70220661980E+03  0.50400001928E-02 0.  1.
    10030    2    1    2    0    0  0.00000000000E+00  0.00000000000E+00  0.97529164691E+02  0.15019424043E+04  0.14987725137E+04 0.  0.
        1    1    3    3  502    0 -0.22033186186E+03 -0.71541594129E+03  0.13853227060E+02  0.74870422086E+03  0.50400001928E-02 0.  1.
       -1    1    3    3    0  502  0.22033186186E+03  0.71541594129E+03  0.83675937631E+02  0.75323818342E+03  0.50400001928E-02 0. -1.
</event>
<event>
 5   0  0.7672251E-04  0.1507042E+04  0.7818609E-02  0.8879783E-01
       -2   -1    0    0    0  501  0.00000000000E+00  0.00000000000E+00  0.43833447004E+03  0.43833447005E+03  0.25500000920E-02 0. -1.
        2   -1    0    0  501    0  0.00000000000E+00  0.00000000000E+00 -0.12953444471E+04  0.12953444471E+04  0.25500000920E-02 0.  1.
    10030    2    1    2    0    0  0.00000000000E+00  0.00000000000E+00 -0.85700997702E+03  0.17336789171E+04  0.15070422977E+04 0.  0.
        5    1    3    3  502    0  0.59018605548E+03 -0.24814468463E+03  0.28585517629E+02  0.64088578265E+03  0.46999998093E+01 0. -1.
       -5    1    3    3    0  502 -0.59018605548E+03  0.24814468463E+03 -0.88559549465E+03  0.10927931345E+04  0.46999998093E+01 0.  1.
</event>
<event>
 5   0  0.2800375E-04  0.1412712E+04  0.7818609E-02  0.8944668E-01
       -3   -1    0    0    0  501  0.00000000000E+00  0.00000000000E+00  0.29719014635E+03  0.29719016352E+03  0.10100000352E+00 0.  1.
        3   -1    0    0  501    0  0.00000000000E+00  0.00000000000E+00 -0.16788538600E+04  0.16788538631E+04  0.10100000352E+00 0. -1.
    10030    2    1    2    0    0  0.00000000000E+00  0.00000000000E+00 -0.13816637137E+04  0.19760440266E+04  0.14127120645E+04 0.  0.
        5    1    3    3  502    0 -0.81220232229E+02 -0.34154484658E+03  0.16649133106E+03  0.38857568331E+03  0.46999998093E+01 0.  1.
       -5    1    3    3    0  502  0.81220232229E+02  0.34154484658E+03 -0.15481550447E+04  0.15874683433E+04  0.46999998093E+01 0. -1.
</event>
<event>
 5   0  0.7359897E-04  0.1512489E+04  0.7818609E-02  0.8876190E-01
       -2   -1    0    0    0  501  0.00000000000E+00  0.00000000000E+00  0.65709597526E+03  0.65709597527E+03  0.25500000920E-02 0.  1.
        2   -1    0    0  501    0  0.00000000000E+00  0.00000000000E+00 -0.87035327413E+03  0.87035327413E+03  0.25500000920E-02 0. -1.
    10030    2    1    2    0    0  0.00000000000E+00  0.00000000000E+00 -0.21325729887E+03  0.15274492494E+04  0.15124888542E+04 0.  0.
        1    1    3    3  502    0  0.53626093929E+03  0.48201255293E+03  0.12364811791E+03  0.73157416116E+03  0.50400001928E-02 0.  1.
       -1    1    3    3    0  502 -0.53626093929E+03 -0.48201255293E+03 -0.33690541678E+03  0.79587508823E+03  0.50400001928E-02 0. -1.
</event>
<event>
 5   0  0.7454828E-04  0.1510125E+04  0.7818609E-02  0.8877748E-01
       -2   -1    0    0    0  501  0.00000000000E+00  0.00000000000E+00  0.40259887238E+03  0.40259887238E+03  0.25500000920E-02 0.  1.
        2   -1    0    0  501    0  0.00000000000E+00  0.00000000000E+00 -0.14160969232E+04  0.14160969232E+04  0.25500000920E-02 0. -1.
    10030    2    1    2    0    0  0.00000000000E+00  0.00000000000E+00 -0.10134980509E+04  0.18186957956E+04  0.15101245306E+04 0.  0.
        3    1    3    3  502    0 -0.72211893460E+03  0.70831804232E+02 -0.25514354757E+03  0.76913662003E+03  0.10100000352E+00 0. -1.
       -3    1    3    3    0  502  0.72211893460E+03 -0.70831804232E+02 -0.75835450329E+03  0.10495591756E+04  0.10100000352E+00 0.  1.
</event>
<event>
 5   0  0.4084462E-04  0.1504325E+04  0.7818609E-02  0.8881582E-01
       -1   -1    0    0    0  501  0.00000000000E+00  0.00000000000E+00  0.36940140051E+03  0.36940140054E+03  0.50400001928E-02 0.  1.
        1   -1    0    0  501    0  0.00000000000E+00  0.00000000000E+00 -0.15315284095E+04  0.15315284095E+04  0.50400001928E-02 0. -1.
    10030    2    1    2    0    0  0.00000000000E+00  0.00000000000E+00 -0.11621270090E+04  0.19009298101E+04  0.15043254162E+04 0.  0.
        1    1    3    3  502    0  0.13843173478E+03 -0.59771945613E+03 -0.31245549249E+02  0.61433555799E+03  0.50400001928E-02 0.  1.
       -1    1    3    3    0  502 -0.13843173478E+03  0.59771945613E+03 -0.11308814597E+04  0.12865942521E+04  0.50400001928E-02 0. -1.
</event>
<event>
 5   0  0.4015204E-04  0.1505930E+04  0.7818609E-02  0.8880519E-01
        1   -1    0    0  501    0  0.00000000000E+00  0.00000000000E+00  0.10886396977E+04  0.10886396977E+04  0.50400001928E-02 0.  1.
       -1   -1    0    0    0  501  0.00000000000E+00  0.00000000000E+00 -0.52079316295E+03  0.52079316297E+03  0.50400001928E-02 0. -1.
    10030    2    1    2    0    0  0.00000000000E+00  0.00000000000E+00  0.56784653476E+03  0.16094328607E+04  0.15059297613E+04 0.  0.
        2    1    3    3  502    0 -0.33217940998E+02 -0.65891741809E+03  0.67174211182E+03  0.94154822514E+03  0.25500000920E-02 0.  1.
       -2    1    3    3    0  502  0.33217940998E+02  0.65891741809E+03 -0.10389557706E+03  0.66788463555E+03  0.25500000920E-02 0. -1.
</event>
<event>
 5   0  0.7359897E-04  0.1236110E+04  0.7818609E-02  0.9081824E-01
       -2   -1    0    0    0  501  0.00000000000E+00  0.00000000000E+00  0.49589276521E+03  0.49589276522E+03  0.25500000920E-02 0.  1.
        2   -1    0    0  501    0  0.00000000000E+00  0.00000000000E+00 -0.77031163808E+03  0.77031163808E+03  0.25500000920E-02 0. -1.
    10030    2    1    2    0    0  0.00000000000E+00  0.00000000000E+00 -0.27441887286E+03  0.12662044033E+04  0.12361099762E+04 0.  0.
        1    1    3    3  502    0 -0.15997750777E+02 -0.58242247442E+03 -0.34843372422E+03  0.67887990612E+03  0.50400001928E-02 0.  1.
       -1    1    3    3    0  502  0.15997750777E+02  0.58242247442E+03  0.74014851358E+02  0.58732449718E+03  0.50400001928E-02 0. -1.
</event>
<event>
 5   0  0.7454828E-04  0.1499553E+04  0.7818609E-02  0.8884750E-01
        2   -1    0    0  501    0  0.00000000000E+00  0.00000000000E+00  0.44456407325E+03  0.44456407326E+03  0.25500000920E-02 0. -1.
       -2   -1    0    0    0  501  0.00000000000E+00  0.00000000000E+00 -0.12645308845E+04  0.12645308845E+04  0.25500000920E-02 0.  1.
    10030    2    1    2    0    0  0.00000000000E+00  0.00000000000E+00 -0.81996681128E+03  0.17090949578E+04  0.14995532679E+04 0.  0.
        3    1    3    3  502    0 -0.10303983829E+03 -0.59324434721E+03 -0.91919030007E+03  0.10988479793E+04  0.10100000352E+00 0.  1.
       -3    1    3    3    0  502  0.10303983829E+03  0.59324434721E+03  0.99223488794E+02  0.61024697844E+03  0.10100000352E+00 0. -1.
</event>
<event>
 5   0  0.3907345E-04  0.1529702E+04  0.7818609E-02  0.8864938E-01
        1   -1    0    0  501    0  0.00000000000E+00  0.00000000000E+00  0.10941908089E+04  0.10941908089E+04  0.50400001928E-02 0. -1.
       -1   -1    0    0    0  501  0.00000000000E+00  0.00000000000E+00 -0.53463917368E+03  0.53463917371E+03  0.50400001928E-02 0.  1.
    10030    2    1    2    0    0  0.00000000000E+00  0.00000000000E+00  0.55955163522E+03  0.16288299826E+04  0.15297022847E+04 0.  0.
        5    1    3    3  502    0 -0.58665156223E+03 -0.10518397439E+02 -0.24263352295E+03  0.63495181597E+03  0.46999998093E+01 0.  1.
       -5    1    3    3    0  502  0.58665156223E+03  0.10518397439E+02  0.80218515817E+03  0.99387816664E+03  0.46999998093E+01 0. -1.
</event>
<event>
 5   0  0.7454828E-04  0.1500315E+04  0.7818609E-02  0.8884244E-01
       -2   -1    0    0    0  501  0.00000000000E+00  0.00000000000E+00  0.14474827237E+04  0.14474827237E+04  0.25500000920E-02 0.  1.
        2   -1    0    0  501    0  0.00000000000E+00  0.00000000000E+00 -0.38876869590E+03  0.38876869591E+03  0.25500000920E-02 0. -1.
    10030    2    1    2    0    0  0.00000000000E+00  0.00000000000E+00  0.10587140278E+04  0.18362514196E+04  0.15003145948E+04 0.  0.
        3    1    3    3  502    0 -0.45051238201E+03  0.19771130478E+03 -0.16373196720E+03  0.51851647386E+03  0.10100000352E+00 0. -1.
       -3    1    3    3    0  502  0.45051238201E+03 -0.19771130478E+03  0.12224459950E+04  0.13177349457E+04  0.10100000352E+00 0.  1.
</event>
<event>
 5   0  0.4058874E-04  0.1509015E+04  0.7818609E-02  0.8878480E-01
        1   -1    0    0  501    0  0.00000000000E+00  0.00000000000E+00  0.60278160521E+03  0.60278160523E+03  0.50400001928E-02 0.  1.
       -1   -1    0    0    0  501  0.00000000000E+00  0.00000000000E+00 -0.94442377363E+03  0.94442377364E+03  0.50400001928E-02 0. -1.
    10030    2    1    2    0    0  0.00000000000E+00  0.00000000000E+00 -0.34164216842E+03  0.15472053789E+04  0.15090146166E+04 0.  0.
        4    1    3    3  502    0  0.45466300784E+03  0.48644961148E+03  0.19302328325E+03  0.69326133310E+03  0.12699999809E+01 0.  1.
       -4    1    3    3    0  502 -0.45466300784E+03 -0.48644961148E+03 -0.53466545167E+03  0.85394404577E+03  0.12699999809E+01 0. -1.
</event>
<event>
 5   0  0.4058874E-04  0.1538306E+04  0.7818609E-02  0.8859372E-01
        1   -1    0    0  501    0  0.00000000000E+00  0.00000000000E+00  0.59688281149E+03  0.59688281152E+03  0.50400001928E-02 0. -1.
       -1   -1    0    0    0  501  0.00000000000E+00  0.00000000000E+00 -0.99114324829E+03  0.99114324830E+03  0.50400001928E-02 0.  1.
    10030    2    1    2    0    0  0.00000000000E+00  0.00000000000E+00 -0.39426043680E+03  0.15880260598E+04  0.15383060406E+04 0.  0.
        4    1    3    3  502    0  0.54081695255E+03  0.37306346060E+03 -0.60997540558E+03  0.89651041830E+03  0.12699999809E+01 0.  1.
       -4    1    3    3    0  502 -0.54081695255E+03 -0.37306346060E+03  0.21571496879E+03  0.69151564152E+03  0.12699999809E+01 0. -1.
</event>
<event>
 5   0  0.7454828E-04  0.1490563E+04  0.7818609E-02  0.8890753E-01
        2   -1    0    0  501    0  0.00000000000E+00  0.00000000000E+00  0.27618125578E+04  0.27618125578E+04  0.25500000920E-02 0.  1.
       -2   -1    0    0    0  501  0.00000000000E+00  0.00000000000E+00 -0.20111593136E+03  0.20111593137E+03  0.25500000920E-02 0. -1.
    10030    2    1    2    0    0  0.00000000000E+00  0.00000000000E+00  0.25606966265E+04  0.29629284892E+04  0.14905629874E+04 0.  0.
        3    1    3    3  502    0  0.34084093607E+03  0.59135515476E+03  0.18752629110E+04  0.19956163104E+04  0.10100000352E+00 0.  1.
       -3    1    3    3    0  502 -0.34084093607E+03 -0.59135515476E+03  0.68543371548E+03  0.96731217881E+03  0.10100000352E+00 0. -1.
</event>
<event>
 5   0  0.4086710E-04  0.1512817E+04  0.7818609E-02  0.8875974E-01
        1   -1    0    0  501    0  0.00000000000E+00  0.00000000000E+00  0.91107375358E+03  0.91107375359E+03  0.50400001928E-02 0. -1.
       -1   -1    0    0    0  501  0.00000000000E+00  0.00000000000E+00 -0.62799932256E+03  0.62799932258E+03  0.50400001928E-02 0.  1.
    10030    2    1    2    0    0  0.00000000000E+00  0.00000000000E+00  0.28307443102E+03  0.15390730762E+04  0.15128168429E+04 0.  0.
        3    1    3    3  502    0  0.26379039205E+02 -0.44542303778E+03 -0.47984668067E+03  0.65524833723E+03  0.10100000352E+00 0.  1.
       -3    1    3    3    0  502 -0.26379039205E+02  0.44542303778E+03  0.76292111169E+03  0.88382473894E+03  0.10100000352E+00 0. -1.
</event>
<event>
 5   0  0.4084462E-04  0.1497463E+04  0.7818609E-02  0.8886142E-01
       -1   -1    0    0    0  501  0.00000000000E+00  0.00000000000E+00  0.34199784099E+03  0.34199784102E+03  0.50400001928E-02 0. -1.
        1   -1    0    0  501    0  0.00000000000E+00  0.00000000000E+00 -0.16391873878E+04  0.16391873879E+04  0.50400001928E-02 0.  1.
    10030    2    1    2    0    0  0.00000000000E+00  0.00000000000E+00 -0.12971895469E+04  0.19811852289E+04  0.14974625841E+04 0.  0.
        1    1    3    3  502    0 -0.43895921368E+03 -0.80661136597E+02  0.14677203627E+03  0.46982277605E+03  0.50400001928E-02 0. -1.
       -1    1    3    3    0  502  0.43895921368E+03  0.80661136597E+02 -0.14439615831E+04  0.15113624528E+04  0.50400001928E-02 0.  1.
</event>
<event>
 5   0  0.4058874E-04  0.1507946E+04  0.7818609E-02  0.8879186E-01
        1   -1    0    0  501    0  0.00000000000E+00  0.00000000000E+00  0.45763336590E+03  0.45763336593E+03  0.50400001928E-02 0. -1.
       -1   -1    0    0    0  501  0.00000000000E+00  0.00000000000E+00 -0.12422073731E+04  0.12422073731E+04  0.50400001928E-02 0.  1.
    10030    2    1    2    0    0  0.00000000000E+00  0.00000000000E+00 -0.78457400716E+03  0.16998407390E+04  0.15079463403E+04 0.  0.
        4    1    3    3  502    0  0.23242355499E+03  0.62608564048E+03 -0.78677808353E+03  0.10320006317E+04  0.12699999809E+01 0.  1.
       -4    1    3    3    0  502 -0.23242355499E+03 -0.62608564048E+03  0.22040763703E+01  0.66784010734E+03  0.12699999809E+01 0. -1.
</event>
<event>
 5   0  0.7634227E-04  0.1514943E+04  0.7818609E-02  0.8874576E-01
        2   -1    0    0  501    0  0.00000000000E+00  0.00000000000E+00  0.94231253218E+03  0.94231253218E+03  0.25500000920E-02 0.  1.
       -2   -1    0    0    0  501  0.00000000000E+00  0.00000000000E+00 -0.60888845166E+03  0.60888845166E+03  0.25500000920E-02 0. -1.
    10030    2    1    2    0    0  0.00000000000E+00  0.00000000000E+00  0.33342408052E+03  0.15512009838E+04  0.15149431919E+04 0.  0.
        2    1    3    3  502    0  0.49173343799E+03  0.89578249907E+02 -0.41606458410E+03  0.65033512518E+03  0.25500000920E-02 0. -1.
       -2    1    3    3    0  502 -0.49173343799E+03 -0.89578249907E+02  0.74948866463E+03  0.90086585866E+03  0.25500000920E-02 0.  1.
</event>
<event>
 5   0  0.7634227E-04  0.1533758E+04  0.7818609E-02  0.8862309E-01
       -2   -1    0    0    0  501  0.00000000000E+00  0.00000000000E+00  0.48029186864E+03  0.48029186864E+03  0.25500000920E-02 0. -1.
        2   -1    0    0  501    0  0.00000000000E+00  0.00000000000E+00 -0.12244714494E+04  0.12244714494E+04  0.25500000920E-02 0.  1.
    10030    2    1    2    0    0  0.00000000000E+00  0.00000000000E+00 -0.74417958073E+03  0.17047633180E+04  0.15337583650E+04 0.  0.
        2    1    3    3  502    0 -0.12704406210E+03 -0.16686881008E+03  0.44779684776E+03  0.49447690580E+03  0.25500000920E-02 0. -1.
       -2    1    3    3    0  502  0.12704406210E+03  0.16686881008E+03 -0.11919764285E+04  0.12102864122E+04  0.25500000920E-02 0.  1.
</event>
<event>
 5   0  0.7634227E-04  0.1507404E+04  0.7818609E-02  0.8879544E-01
        2   -1    0    0  501    0  0.00000000000E+00  0.00000000000E+00  0.15210416895E+04  0.15210416895E+04  0.25500000920E-02 0. -1.
       -2   -1    0    0    0  501  0.00000000000E+00  0.00000000000E+00 -0.37347212949E+03  0.37347212950E+03  0.25500000920E-02 0.  1.
    10030    2    1    2    0    0  0.00000000000E+00  0.00000000000E+00  0.11475695600E+04  0.18945138190E+04  0.15074039656E+04 0.  0.
        2    1    3    3  502    0 -0.64242700222E+03  0.26581307819E+03  0.20801841941E+03  0.72570015057E+03  0.25500000920E-02 0.  1.
       -2    1    3    3    0  502  0.64242700222E+03 -0.26581307819E+03  0.93955114062E+03  0.11688136685E+04  0.25500000920E-02 0. -1.
</event>
<event>
 5   0  0.4015204E-04  0.1506202E+04  0.7818609E-02  0.8880339E-01
        1   -1    0    0  501    0  0.00000000000E+00  0.00000000000E+00  0.16492318968E+04  0.16492318968E+04  0.50400001928E-02 0.  1.
       -1   -1    0    0    0  501  0.00000000000E+00  0.00000000000E+00 -0.34389420110E+03  0.34389420113E+03  0.50400001928E-02 0. -1.
    10030    2    1    2    0    0  0.00000000000E+00  0.00000000000E+00  0.13053376957E+04  0.19931260980E+04  0.15062022250E+04 0.  0.
        2    1    3    3  502    0 -0.44004074253E+03  0.51893220376E+03  0.10798950264E+04  0.12763619217E+04  0.25500000920E-02 0.  1.
       -2    1    3    3    0  502  0.44004074253E+03 -0.51893220376E+03  0.22544266932E+03  0.71676417624E+03  0.25500000920E-02 0. -1.
</event>
<event>
 5   0  0.4058874E-04  0.1501477E+04  0.7818609E-02  0.8883472E-01
        1   -1    0    0  501    0  0.00000000000E+00  0.00000000000E+00  0.15708902134E+04  0.15708902134E+04  0.50400001928E-02 0.  1.
       -1   -1    0    0    0  501  0.00000000000E+00  0.00000000000E+00 -0.35878253450E+03  0.35878253454E+03  0.50400001928E-02 0. -1.
    10030    2    1    2    0    0  0.00000000000E+00  0.00000000000E+00  0.12121076789E+04  0.19296727480E+04  0.15014765696E+04 0.  0.
        4    1    3    3  502    0  0.97792653177E+02 -0.70037067022E+03  0.28213693418E+03  0.76137069897E+03  0.12699999809E+01 0.  1.
       -4    1    3    3    0  502 -0.97792653177E+02  0.70037067022E+03  0.92997074475E+03  0.11683020490E+04  0.12699999809E+01 0. -1.
</event>
<event>
 5   0  0.4086710E-04  0.1496751E+04  0.7818609E-02  0.8886616E-01
       -1   -1    0    0    0  501  0.00000000000E+00  0.00000000000E+00  0.91712534772E+03  0.91712534773E+03  0.50400001928E-02 0. -1.
        1   -1    0    0  501    0  0.00000000000E+00  0.00000000000E+00 -0.61067565222E+03  0.61067565224E+03  0.50400001928E-02 0.  1.
    10030    2    1    2    0    0  0.00000000000E+00  0.00000000000E+00  0.30644969550E+03  0.15278010000E+04  0.14967513085E+04 0.  0.
        3    1    3    3  502    0 -0.53209940823E+03  0.50800705747E+03  0.29342464278E+03  0.79202208421E+03  0.10100000352E+00 0. -1.
       -3    1    3    3    0  502  0.53209940823E+03 -0.50800705747E+03  0.13025052713E+02  0.73577891576E+03  0.10100000352E+00 0.  1.
</event>
<event>
 5   0  0.7672251E-04  0.1587110E+04  0.7818609E-02  0.8828506E-01
       -2   -1    0    0    0  501  0.00000000000E+00  0.00000000000E+00  0.63802871935E+03  0.63802871936E+03  0.25500000920E-02 0.  1.
        2   -1    0    0  501    0  0.00000000000E+00  0.00000000000E+00 -0.98699216802E+03  0.98699216802E+03  0.25500000920E-02 0. -1.
    10030    2    1    2    0    0  0.00000000000E+00  0.00000000000E+00 -0.34896344867E+03  0.16250208874E+04  0.15871097618E+04 0.  0.
        5    1    3    3  502    0 -0.17415381384E+03 -0.75585715991E+03 -0.34598709471E+03  0.84934018907E+03  0.46999998093E+01 0. -1.
       -5    1    3    3    0  502  0.17415381384E+03  0.75585715991E+03 -0.29763539593E+01  0.77568069831E+03  0.46999998093E+01 0.  1.
</event>
<event>
 5   0  0.4058874E-04  0.1499842E+04  0.7818609E-02  0.8884558E-01
       -1   -1    0    0    0  501  0.00000000000E+00  0.00000000000E+00  0.33579176313E+03  0.33579176316E+03  0.50400001928E-02 0. -1.
        1   -1    0    0  501    0  0.00000000000E+00  0.00000000000E+00 -0.16747916235E+04  0.16747916235E+04  0.50400001928E-02 0.  1.
    10030    2    1    2    0    0  0.00000000000E+00  0.00000000000E+00 -0.13389998604E+04  0.20105833867E+04  0.14998416345E+04 0.  0.
        4    1    3    3  502    0  0.66828678357E+03  0.25610482986E+03 -0.96979883007E+03  0.12052834906E+04  0.12699999809E+01 0.  1.
       -4    1    3    3    0  502 -0.66828678357E+03 -0.25610482986E+03 -0.36920103031E+03  0.80529989609E+03  0.12699999809E+01 0. -1.
</event>
<event>
 5   0  0.7672251E-04  0.1501037E+04  0.7818609E-02  0.8883764E-01
        2   -1    0    0  501    0  0.00000000000E+00  0.00000000000E+00  0.49408012891E+03  0.49408012891E+03  0.25500000920E-02 0. -1.
       -2   -1    0    0    0  501  0.00000000000E+00  0.00000000000E+00 -0.11400534243E+04  0.11400534243E+04  0.25500000920E-02 0.  1.
    10030    2    1    2    0    0  0.00000000000E+00  0.00000000000E+00 -0.64597329537E+03  0.16341335532E+04  0.15010366322E+04 0.  0.
        5    1    3    3  502    0  0.68531353792E+03 -0.30550946432E+03 -0.34070806849E+03  0.82407205751E+03  0.46999998093E+01 0. -1.
       -5    1    3    3    0  502 -0.68531353792E+03  0.30550946432E+03 -0.30526522688E+03  0.81006149568E+03  0.46999998093E+01 0.  1.
</event>
<event>
 5   0  0.4058874E-04  0.1510801E+04  0.7818609E-02  0.8877302E-01
        1   -1    0    0  501    0  0.00000000000E+00  0.00000000000E+00  0.97284244576E+03  0.97284244578E+03  0.50400001928E-02 0. -1.
       -1   -1    0    0    0  501  0.00000000000E+00  0.00000000000E+00 -0.58655972737E+03  0.58655972739E+03  0.50400001928E-02 0.  1.
    10030    2    1    2    0    0  0.00000000000E+00  0.00000000000E+00  0.38628271839E+03  0.15594021732E+04  0.15108013765E+04 0.  0.
        4    1    3    3  502    0 -0.11159551332E+03 -0.62191791936E+02  0.96160978241E+03  0.97005997964E+03  0.12699999809E+01 0. -1.
       -4    1    3    3    0  502  0.11159551332E+03  0.62191791936E+02 -0.57532706402E+03  0.58934219353E+03  0.12699999809E+01 0.  1.
</event>
<event>
 5   0  0.3907345E-04  0.1632215E+04  0.7818609E-02  0.8800998E-01
        1   -1    0    0  501    0  0.00000000000E+00  0.00000000000E+00  0.14184590276E+04  0.14184590276E+04  0.50400001928E-02 0. -1.
       -1   -1    0    0    0  501  0.00000000000E+00  0.00000000000E+00 -0.46954589698E+03  0.46954589701E+03  0.50400001928E-02 0.  1.
    10030    2    1    2    0    0  0.00000000000E+00  0.00000000000E+00  0.94891313066E+03  0.18880049247E+04  0.16322152021E+04 0.  0.
        5    1    3    3  502    0  0.31847571771E+03 -0.35153235928E+03 -0.29369834698E+03  0.55792704847E+03  0.46999998093E+01 0.  1.
       -5    1    3    3    0  502 -0.31847571771E+03  0.35153235928E+03  0.12426114776E+04  0.13300778762E+04  0.46999998093E+01 0. -1.
</event>
<event>
 5   0  0.4086710E-04  0.1515921E+04  0.7818609E-02  0.8873934E-01
        1   -1    0    0  501    0  0.00000000000E+00  0.00000000000E+00  0.12069052844E+04  0.12069052844E+04  0.50400001928E-02 0. -1.
       -1   -1    0    0    0  501  0.00000000000E+00  0.00000000000E+00 -0.47601406802E+03  0.47601406805E+03  0.50400001928E-02 0.  1.
    10030    2    1    2    0    0  0.00000000000E+00  0.00000000000E+00  0.73089121636E+03  0.16829193524E+04  0.15159207026E+04 0.  0.
        3    1    3    3  502    0 -0.21624863266E+03  0.57741054979E+03 -0.12395566242E+03  0.62891289587E+03  0.10100000352E+00 0.  1.
       -3    1    3    3    0  502  0.21624863266E+03 -0.57741054979E+03  0.85484687877E+03  0.10540064566E+04  0.10100000352E+00 0. -1.
</event>
<event>
 5   0  0.4084462E-04  0.1490414E+04  0.7818609E-02  0.8890853E-01
       -1   -1    0    0    0  501  0.00000000000E+00  0.00000000000E+00  0.13571787054E+04  0.13571787054E+04  0.50400001928E-02 0. -1.
        1   -1    0    0  501    0  0.00000000000E+00  0.00000000000E+00 -0.40918217007E+03  0.40918217010E+03  0.50400001928E-02 0.  1.
    10030    2    1    2    0    0  0.00000000000E+00  0.00000000000E+00  0.94799653530E+03  0.17663608755E+04  0.14904138055E+04 0.  0.
        1    1    3    3  502    0  0.26941846305E+03  0.66794576829E+03  0.70071639092E+03  0.10048588548E+04  0.50400001928E-02 0. -1.
       -1    1    3    3    0  502 -0.26941846305E+03 -0.66794576829E+03  0.24728014438E+03  0.76150202064E+03  0.50400001928E-02 0.  1.
</event>
<event>
 5   0  0.7547580E-04  0.1492933E+04  0.7818609E-02  0.8889166E-01
       -2   -1    0    0    0  501  0.00000000000E+00  0.00000000000E+00  0.27178336864E+03  0.27178336865E+03  0.25500000920E-02 0. -1.
        2   -1    0    0  501    0  0.00000000000E+00  0.00000000000E+00 -0.20502067806E+04  0.20502067806E+04  0.25500000920E-02 0.  1.
    10030    2    1    2    0    0  0.00000000000E+00  0.00000000000E+00 -0.17784234120E+04  0.23219901493E+04  0.14929328254E+04 0.  0.
        4    1    3    3  502    0  0.45269493537E+02 -0.73576459039E+03 -0.70642583676E+03  0.10209984992E+04  0.12699999809E+01 0. -1.
       -4    1    3    3    0  502 -0.45269493537E+02  0.73576459039E+03 -0.10719975752E+04  0.13009916501E+04  0.12699999809E+01 0.  1.
</event>
<event>
 5   0  0.7634227E-04  0.1498658E+04  0.7818609E-02  0.8885346E-01
       -2   -1    0    0    0  501  0.00000000000E+00  0.00000000000E+00  0.28648627733E+03  0.28648627735E+03  0.25500000920E-02 0. -1.
        2   -1    0    0  501    0  0.00000000000E+00  0.00000000000E+00 -0.19599337104E+04  0.19599337104E+04  0.25500000920E-02 0.  1.
    10030    2    1    2    0    0  0.00000000000E+00  0.00000000000E+00 -0.16734474331E+04  0.22464199878E+04  0.14986582166E+04 0.  0.
        2    1    3    3  502    0 -0.26492735944E+03  0.17810070421E+03 -0.18529082388E+04  0.18802061877E+04  0.25500000920E-02 0.  1.
       -2    1    3    3    0  502  0.26492735944E+03 -0.17810070421E+03  0.17946080570E+03  0.36621380014E+03  0.25500000920E-02 0. -1.
</event>
<event>
 5   0  0.4086710E-04  0.1480711E+04  0.7818609E-02  0.8897382E-01
        1   -1    0    0  501    0  0.00000000000E+00  0.00000000000E+00  0.45904727747E+03  0.45904727750E+03  0.50400001928E-02 0. -1.
       -1   -1    0    0    0  501  0.00000000000E+00  0.00000000000E+00 -0.11940513282E+04  0.11940513282E+04  0.50400001928E-02 0.  1.
    10030    2    1    2    0    0  0.00000000000E+00  0.00000000000E+00 -0.73500405069E+03  0.16530986057E+04  0.14807106556E+04 0.  0.
        3    1    3    3  502    0  0.70973150440E+03  0.15204988499E+03 -0.20461134138E+03  0.75412451697E+03  0.10100000352E+00 0.  1.
       -3    1    3    3    0  502 -0.70973150440E+03 -0.15204988499E+03 -0.53039270930E+03  0.89897408870E+03  0.10100000352E+00 0. -1.
</event>
<event>
 5   0  0.7454828E-04  0.1494796E+04  0.7818609E-02  0.8887921E-01
       -2   -1    0    0    0  501  0.00000000000E+00  0.00000000000E+00  0.42942416736E+03  0.42942416737E+03  0.25500000920E-02 0.  1.
        2   -1    0    0  501    0  0.00000000000E+00  0.00000000000E+00 -0.13008202356E+04  0.13008202356E+04  0.25500000920E-02 0. -1.
    10030    2    1    2    0    0  0.00000000000E+00  0.00000000000E+00 -0.87139606828E+03  0.17302444030E+04  0.14947958343E+04 0.  0.
        3    1    3    3  502    0  0.39196507367E+03  0.63144378618E+03 -0.52717637936E+03  0.91119307463E+03  0.10100000352E+00 0. -1.
       -3    1    3    3    0  502 -0.39196507367E+03 -0.63144378618E+03 -0.34421968892E+03  0.81905132838E+03  0.10100000352E+00 0.  1.
</event>
<event>
 5   0  0.4084462E-04  0.1512773E+04  0.7818609E-02  0.8876003E-01
        1   -1    0    0  501    0  0.00000000000E+00  0.00000000000E+00  0.46989220422E+03  0.46989220425E+03  0.50400001928E-02 0.  1.
       -1   -1    0    0    0  501  0.00000000000E+00  0.00000000000E+00 -0.12175576630E+04  0.12175576630E+04  0.50400001928E-02 0. -1.
    10030    2    1    2    0    0  0.00000000000E+00  0.00000000000E+00 -0.74766545880E+03  0.16874498673E+04  0.15127734187E+04 0.  0.
        1    1    3    3  502    0  0.59298425852E+03  0.46544844627E+03 -0.44303010075E+03  0.87438450191E+03  0.50400001928E-02 0. -1.
       -1    1    3    3    0  502 -0.59298425852E+03 -0.46544844627E+03 -0.30463535806E+03  0.81306536538E+03  0.50400001928E-02 0.  1.
</event>
<event>
 5   0  0.4058874E-04  0.1507800E+04  0.7818609E-02  0.8879282E-01
        1   -1    0    0  501    0  0.00000000000E+00  0.00000000000E+00  0.43482928556E+03  0.43482928559E+03  0.50400001928E-02 0.  1.
       -1   -1    0    0    0  501  0.00000000000E+00  0.00000000000E+00 -0.13071004329E+04  0.13071004329E+04  0.50400001928E-02 0. -1.
    10030    2    1    2    0    0  0.00000000000E+00  0.00000000000E+00 -0.87227114731E+03  0.17419297185E+04  0.15078004476E+04 0.  0.
        4    1    3    3  502    0  0.37934661682E+03  0.50852732488E+03 -0.90663342218E+03  0.11065666139E+04  0.12699999809E+01 0. -1.
       -4    1    3    3    0  502 -0.37934661682E+03 -0.50852732488E+03  0.34362274866E+02  0.63536310459E+03  0.12699999809E+01 0.  1.
</event>
<event>
 5   0  0.3907345E-04  0.1426641E+04  0.7818609E-02  0.8934757E-01
        1   -1    0    0  501    0  0.00000000000E+00  0.00000000000E+00  0.72850907368E+03  0.72850907370E+03  0.50400001928E-02 0.  1.
       -1   -1    0    0    0  501  0.00000000000E+00  0.00000000000E+00 -0.69844865656E+03  0.69844865658E+03  0.50400001928E-02 0. -1.
    10030    2    1    2    0    0  0.00000000000E+00  0.00000000000E+00  0.30060417120E+02  0.14269577303E+04  0.14266410674E+04 0.  0.
        5    1    3    3  502    0 -0.26186443601E+03 -0.29799023785E+03  0.60797958018E+03  0.72596998878E+03  0.46999998093E+01 0.  1.
       -5    1    3    3    0  502  0.26186443601E+03  0.29799023785E+03 -0.57791916305E+03  0.70098774149E+03  0.46999998093E+01 0. -1.
</event>
<event>
 5   0  0.7454828E-04  0.1483628E+04  0.7818609E-02  0.8895413E-01
        2   -1    0    0  501    0  0.00000000000E+00  0.00000000000E+00  0.93304190575E+03  0.93304190575E+03  0.25500000920E-02 0. -1.
       -2   -1    0    0    0  501  0.00000000000E+00  0.00000000000E+00 -0.58977880650E+03  0.58977880650E+03  0.25500000920E-02 0.  1.
    10030    2    1    2    0    0  0.00000000000E+00  0.00000000000E+00  0.34326309925E+03  0.15228207123E+04  0.14836284462E+04 0.  0.
        3    1    3    3  502    0 -0.49757289203E+03  0.73304630006E+02  0.73132130295E+03  0.88757152388E+03  0.10100000352E+00 0. -1.
       -3    1    3    3    0  502  0.49757289203E+03 -0.73304630006E+02 -0.38805820370E+03  0.63524918837E+03  0.10100000352E+00 0.  1.
</event>
<event>
 5   0  0.4084462E-04  0.1493381E+04  0.7818609E-02  0.8888866E-01
       -1   -1    0    0    0  501  0.00000000000E+00  0.00000000000E+00  0.67023031890E+03  0.67023031892E+03  0.50400001928E-02 0. -1.
        1   -1    0    0  501    0  0.00000000000E+00  0.00000000000E+00 -0.83187323627E+03  0.83187323628E+03  0.50400001928E-02 0.  1.
    10030    2    1    2    0    0  0.00000000000E+00  0.00000000000E+00 -0.16164291737E+03  0.15021035552E+04  0.14933809487E+04 0.  0.
        1    1    3    3  502    0 -0.45312314374E+03  0.49551168436E+03 -0.40937017773E+03  0.78640724511E+03  0.50400001928E-02 0.  1.
       -1    1    3    3    0  502  0.45312314374E+03 -0.49551168436E+03  0.24772726036E+03  0.71569631009E+03  0.50400001928E-02 0. -1.
</event>
<event>
 5   0  0.7359897E-04  0.1484122E+04  0.7818609E-02  0.8895081E-01
       -2   -1    0    0    0  501  0.00000000000E+00  0.00000000000E+00  0.65025281607E+03  0.65025281607E+03  0.25500000920E-02 0. -1.
        2   -1    0    0  501    0  0.00000000000E+00  0.00000000000E+00 -0.84683113996E+03  0.84683113996E+03  0.25500000920E-02 0.  1.
    10030    2    1    2    0    0  0.00000000000E+00  0.00000000000E+00 -0.19657832389E+03  0.14970839560E+04  0.14841217383E+04 0.  0.
        1    1    3    3  502    0 -0.31045021348E+03  0.45818832076E+03 -0.59691243705E+03  0.81401494450E+03  0.50400001928E-02 0. -1.
       -1    1    3    3    0  502  0.31045021348E+03 -0.45818832076E+03  0.40033411316E+03  0.68306901154E+03  0.50400001928E-02 0.  1.
</event>
<event>
 5   0  0.4058874E-04  0.1421278E+04  0.7818609E-02  0.8938559E-01
        1   -1    0    0  501    0  0.00000000000E+00  0.00000000000E+00  0.12230219883E+04  0.12230219883E+04  0.50400001928E-02 0.  1.
       -1   -1    0    0    0  501  0.00000000000E+00  0.00000000000E+00 -0.41291809839E+03  0.41291809843E+03  0.50400001928E-02 0. -1.
    10030    2    1    2    0    0  0.00000000000E+00  0.00000000000E+00  0.81010388988E+03  0.16359400867E+04  0.14212781765E+04 0.  0.
        4    1    3    3  502    0 -0.58551929151E+03  0.38380190036E+03  0.26469387556E+03  0.74846589775E+03  0.12699999809E+01 0.  1.
       -4    1    3    3    0  502  0.58551929151E+03 -0.38380190036E+03  0.54541001432E+03  0.88747418896E+03  0.12699999809E+01 0. -1.
</event>
<event>
 5   0  0.3907345E-04  0.1512377E+04  0.7818609E-02  0.8876264E-01
       -1   -1    0    0    0  501  0.00000000000E+00  0.00000000000E+00  0.36674200054E+03  0.36674200057E+03  0.50400001928E-02 0. -1.
        1   -1    0    0  501    0  0.00000000000E+00  0.00000000000E+00 -0.15591908649E+04  0.15591908650E+04  0.50400001928E-02 0.  1.
    10030    2    1    2    0    0  0.00000000000E+00  0.00000000000E+00 -0.11924488644E+04  0.19259328655E+04  0.15123766423E+04 0.  0.
        5    1    3    3  502    0  0.35859365567E+03 -0.14215118942E+03 -0.14244574806E+04  0.14757701632E+04  0.46999998093E+01 0.  1.
       -5    1    3    3    0  502 -0.35859365567E+03  0.14215118942E+03  0.23200861622E+03  0.45016270230E+03  0.46999998093E+01 0. -1.
</event>
<event>
 5   0  0.4015204E-04  0.1519739E+04  0.7818609E-02  0.8871432E-01
        1   -1    0    0  501    0  0.00000000000E+00  0.00000000000E+00  0.74226771313E+03  0.74226771314E+03  0.50400001928E-02 0. -1.
       -1   -1    0    0    0  501  0.00000000000E+00  0.00000000000E+00 -0.77788843541E+03  0.77788843543E+03  0.50400001928E-02 0.  1.
    10030    2    1    2    0    0  0.00000000000E+00  0.00000000000E+00 -0.35620722283E+02  0.15201561486E+04  0.15197387539E+04 0.  0.
        2    1    3    3  502    0  0.42978742820E+03 -0.46964857889E+03 -0.43279108845E+03  0.76980201827E+03  0.25500000920E-02 0.  1.
       -2    1    3    3    0  502 -0.42978742820E+03  0.46964857889E+03  0.39717036616E+03  0.75035413030E+03  0.25500000920E-02 0. -1.
</event>
<event>
 5   0  0.4015204E-04  0.1481749E+04  0.7818609E-02  0.8896681E-01
        1   -1    0    0  501    0  0.00000000000E+00  0.00000000000E+00  0.43888560983E+03  0.43888560986E+03  0.50400001928E-02 0. -1.
       -1   -1    0    0    0  501  0.00000000000E+00  0.00000000000E+00 -0.12506565035E+04  0.12506565035E+04  0.50400001928E-02 0.  1.
    10030    2    1    2    0    0  0.00000000000E+00  0.00000000000E+00 -0.81177089371E+03  0.16895421134E+04  0.14817491586E+04 0.  0.
        2    1    3    3  502    0 -0.61076994707E+03  0.32449732541E+03 -0.10301042273E+03  0.69924930435E+03  0.25500000920E-02 0. -1.
       -2    1    3    3    0  502  0.61076994707E+03 -0.32449732541E+03 -0.70876047098E+03  0.99029280906E+03  0.25500000920E-02 0.  1.
</event>
<event>
 5   0  0.3907345E-04  0.1534982E+04  0.7818609E-02  0.8861518E-01
       -1   -1    0    0    0  501  0.00000000000E+00  0.00000000000E+00  0.11249443112E+04  0.11249443112E+04  0.50400001928E-02 0.  1.
        1   -1    0    0  501    0  0.00000000000E+00  0.00000000000E+00 -0.52361925679E+03  0.52361925682E+03  0.50400001928E-02 0. -1.
    10030    2    1    2    0    0  0.00000000000E+00  0.00000000000E+00  0.60132505440E+03  0.16485635680E+04  0.15349820900E+04 0.  0.
        5    1    3    3  502    0  0.63196908506E+03  0.43278813008E+03  0.24882153800E+03  0.80537242179E+03  0.46999998093E+01 0. -1.
       -5    1    3    3    0  502 -0.63196908506E+03 -0.43278813008E+03  0.35250351640E+03  0.84319114623E+03  0.46999998093E+01 0.  1.
</event>
<event>
 5   0  0.7634227E-04  0.1506225E+04  0.7818609E-02  0.8880324E-01
       -2   -1    0    0    0  501  0.00000000000E+00  0.00000000000E+00  0.37009658087E+03  0.37009658088E+03  0.25500000920E-02 0. -1.
        2   -1    0    0  501    0  0.00000000000E+00  0.00000000000E+00 -0.15325150024E+04  0.15325150024E+04  0.25500000920E-02 0.  1.
    10030    2    1    2    0    0  0.00000000000E+00  0.00000000000E+00 -0.11624184216E+04  0.19026115833E+04  0.15062251658E+04 0.  0.
        2    1    3    3  502    0 -0.57585324715E+02 -0.72585319962E+03 -0.82418270608E+03  0.10997527313E+04  0.25500000920E-02 0.  1.
       -2    1    3    3    0  502  0.57585324715E+02  0.72585319962E+03 -0.33823571548E+03  0.80285885201E+03  0.25500000920E-02 0. -1.
</event>
<event>
 5   0  0.4084462E-04  0.1494828E+04  0.7818609E-02  0.8887899E-01
       -1   -1    0    0    0  501  0.00000000000E+00  0.00000000000E+00  0.46657579055E+03  0.46657579057E+03  0.50400001928E-02 0.  1.
        1   -1    0    0  501    0  0.00000000000E+00  0.00000000000E+00 -0.11972930274E+04  0.11972930274E+04  0.50400001928E-02 0. -1.
    10030    2    1    2    0    0  0.00000000000E+00  0.00000000000E+00 -0.73071723686E+03  0.16638688180E+04  0.14948283390E+04 0.  0.
        1    1    3    3  502    0 -0.14133426935E+03  0.39335668280E+02 -0.11811093410E+04  0.11901856771E+04  0.50400001928E-02 0. -1.
       -1    1    3    3    0  502  0.14133426935E+03 -0.39335668280E+02  0.45039210414E+03  0.47368314092E+03  0.50400001928E-02 0.  1.
</event>
<event>
 5   0  0.4084462E-04  0.1500434E+04  0.7818609E-02  0.8884164E-01
        1   -1    0    0  501    0  0.00000000000E+00  0.00000000000E+00  0.17808513589E+04  0.17808513589E+04  0.50400001928E-02 0.  1.
       -1   -1    0    0    0  501  0.00000000000E+00  0.00000000000E+00 -0.31604293581E+03  0.31604293585E+03  0.50400001928E-02 0. -1.
    10030    2    1    2    0    0  0.00000000000E+00  0.00000000000E+00  0.14648084231E+04  0.20968942947E+04  0.15004339262E+04 0.  0.
        1    1    3    3  502    0 -0.34568442687E+03  0.32683056315E+03  0.15431008285E+04  0.16147681279E+04  0.50400001928E-02 0.  1.
       -1    1    3    3    0  502  0.34568442687E+03 -0.32683056315E+03 -0.78292405405E+02  0.48212616685E+03  0.50400001928E-02 0. -1.
</event>
<event>
 5   0  0.4084462E-04  0.1496680E+04  0.7818609E-02  0.8886664E-01
       -1   -1    0    0    0  501  0.00000000000E+00  0.00000000000E+00  0.29945618102E+03  0.29945618106E+03  0.50400001928E-02 0. -1.
        1   -1    0    0  501    0  0.00000000000E+00  0.00000000000E+00 -0.18700991702E+04  0.18700991702E+04  0.50400001928E-02 0.  1.
    10030    2    1    2    0    0  0.00000000000E+00  0.00000000000E+00 -0.15706429892E+04  0.21695553513E+04  0.14966800001E+04 0.  0.
        1    1    3    3  502    0 -0.31059638003E+03 -0.65212751029E+03 -0.50173576626E+03  0.87947665128E+03  0.50400001928E-02 0. -1.
       -1    1    3    3    0  502  0.31059638003E+03  0.65212751029E+03 -0.10689072229E+04  0.12900787000E+04  0.50400001928E-02 0.  1.
</event>
<event>
 5   0  0.7547580E-04  0.1490818E+04  0.7818609E-02  0.8890582E-01
        2   -1    0    0  501    0  0.00000000000E+00  0.00000000000E+00  0.77734642940E+03  0.77734642941E+03  0.25500000920E-02 0.  1.
       -2   -1    0    0    0  501  0.00000000000E+00  0.00000000000E+00 -0.71478339634E+03  0.71478339635E+03  0.25500000920E-02 0. -1.
    10030    2    1    2    0    0  0.00000000000E+00  0.00000000000E+00  0.62563033058E+02  0.14921298258E+04  0.14908176561E+04 0.  0.
        4    1    3    3  502    0  0.22814395948E+03 -0.21907072979E+01  0.74153858224E+03  0.77584505366E+03  0.12699999809E+01 0.  1.
       -4    1    3    3    0  502 -0.22814395948E+03  0.21907072979E+01 -0.67897554918E+03  0.71628477209E+03  0.12699999809E+01 0. -1.
</event>
<event>
 5   0  0.4086710E-04  0.1457275E+04  0.7818609E-02  0.8913373E-01
        1   -1    0    0  501    0  0.00000000000E+00  0.00000000000E+00  0.57474677151E+03  0.57474677153E+03  0.50400001928E-02 0.  1.
       -1   -1    0    0    0  501  0.00000000000E+00  0.00000000000E+00 -0.92373269976E+03  0.92373269977E+03  0.50400001928E-02 0. -1.
    10030    2    1    2    0    0  0.00000000000E+00  0.00000000000E+00 -0.34898592825E+03  0.14984794713E+04  0.14572746988E+04 0.  0.
        3    1    3    3  502    0  0.64197916357E+03  0.22147051018E+03  0.97030003986E+02  0.68600383761E+03  0.10100000352E+00 0.  1.
       -3    1    3    3    0  502 -0.64197916357E+03 -0.22147051018E+03 -0.44601593223E+03  0.81247563369E+03  0.10100000352E+00 0. -1.
</event>
<event>
 5   0  0.7547580E-04  0.1501297E+04  0.7818609E-02  0.8883591E-01
       -2   -1    0    0    0  501  0.00000000000E+00  0.00000000000E+00  0.71248038229E+03  0.71248038229E+03  0.25500000920E-02 0. -1.
        2   -1    0    0  501    0  0.00000000000E+00  0.00000000000E+00 -0.79086107423E+03  0.79086107424E+03  0.25500000920E-02 0.  1.
    10030    2    1    2    0    0  0.00000000000E+00  0.00000000000E+00 -0.78380691945E+02  0.15033414565E+04  0.15012967735E+04 0.  0.
        4    1    3    3  502    0 -0.41994971002E+03 -0.17842911414E+03  0.55767234612E+03  0.72055170963E+03  0.12699999809E+01 0. -1.
       -4    1    3    3    0  502  0.41994971002E+03  0.17842911414E+03 -0.63605303807E+03  0.78278974690E+03  0.12699999809E+01 0.  1.
</event>
<event>
 5   0  0.7454828E-04  0.1496660E+04  0.7818609E-02  0.8886677E-01
       -2   -1    0    0    0  501  0.00000000000E+00  0.00000000000E+00  0.31027541677E+03  0.31027541678E+03  0.25500000920E-02 0. -1.
        2   -1    0    0  501    0  0.00000000000E+00  0.00000000000E+00 -0.18048409816E+04  0.18048409816E+04  0.25500000920E-02 0.  1.
    10030    2    1    2    0    0  0.00000000000E+00  0.00000000000E+00 -0.14945655648E+04  0.21151163984E+04  0.14966599985E+04 0.  0.
        3    1    3    3  502    0  0.48935865428E+03  0.55678694986E+03 -0.60237264322E+03  0.95516302879E+03  0.10100000352E+00 0.  1.
       -3    1    3    3    0  502 -0.48935865428E+03 -0.55678694986E+03 -0.89219292162E+03  0.11599533696E+04  0.10100000352E+00 0. -1.
</event>
<event>
 5   0  0.7359897E-04  0.1494586E+04  0.7818609E-02  0.8888061E-01
        2   -1    0    0  501    0  0.00000000000E+00  0.00000000000E+00  0.11261350593E+04  0.11261350593E+04  0.25500000920E-02 0.  1.
       -2   -1    0    0    0  501  0.00000000000E+00  0.00000000000E+00 -0.49589658436E+03  0.49589658437E+03  0.25500000920E-02 0. -1.
    10030    2    1    2    0    0  0.00000000000E+00  0.00000000000E+00  0.63023847496E+03  0.16220316437E+04  0.14945856007E+04 0.  0.
        1    1    3    3  502    0 -0.31964954165E+03  0.34281886020E+02  0.10472518900E+04  0.10954850973E+04  0.50400001928E-02 0.  1.
       -1    1    3    3    0  502  0.31964954165E+03 -0.34281886020E+02 -0.41701341506E+03  0.52654654642E+03  0.50400001928E-02 0. -1.
</event>
<event>
 5   0  0.7547580E-04  0.1468424E+04  0.7818609E-02  0.8905726E-01
       -2   -1    0    0    0  501  0.00000000000E+00  0.00000000000E+00  0.10037260539E+04  0.10037260539E+04  0.25500000920E-02 0. -1.
        2   -1    0    0  501    0  0.00000000000E+00  0.00000000000E+00 -0.53706646020E+03  0.53706646020E+03  0.25500000920E-02 0.  1.
    10030    2    1    2    0    0  0.00000000000E+00  0.00000000000E+00  0.46665959367E+03  0.15407925141E+04  0.14684244601E+04 0.  0.
        4    1    3    3  502    0 -0.78508188285E+02  0.49107307017E+03  0.80008791717E+03  0.94205020247E+03  0.12699999809E+01 0. -1.
       -4    1    3    3    0  502  0.78508188285E+02 -0.49107307017E+03 -0.33342832350E+03  0.59874231159E+03  0.12699999809E+01 0.  1.
</event>
<event>
 5   0  0.4086710E-04  0.1487355E+04  0.7818609E-02  0.8892905E-01
        1   -1    0    0  501    0  0.00000000000E+00  0.00000000000E+00  0.45752724461E+03  0.45752724464E+03  0.50400001928E-02 0.  1.
       -1   -1    0    0    0  501  0.00000000000E+00  0.00000000000E+00 -0.12087940923E+04  0.12087940923E+04  0.50400001928E-02 0. -1.
    10030    2    1    2    0    0  0.00000000000E+00  0.00000000000E+00 -0.75126684770E+03  0.16663213370E+04  0.14873550086E+04 0.  0.
        3    1    3    3  502    0 -0.52739853615E+03  0.50959843143E+03 -0.51383108273E+03  0.89546757006E+03  0.10100000352E+00 0. -1.
       -3    1    3    3    0  502  0.52739853615E+03 -0.50959843143E+03 -0.23743576496E+03  0.77085376690E+03  0.10100000352E+00 0.  1.
</event>
<event>
 5   0  0.7454828E-04  0.1486100E+04  0.7818609E-02  0.8893749E-01
        2   -1    0    0  501    0  0.00000000000E+00  0.00000000000E+00  0.24068697934E+04  0.24068697934E+04  0.25500000920E-02 0. -1.
       -2   -1    0    0    0  501  0.00000000000E+00  0.00000000000E+00 -0.22939475088E+03  0.22939475089E+03  0.25500000920E-02 0.  1.
    10030    2    1    2    0    0  0.00000000000E+00  0.00000000000E+00  0.21774750425E+04  0.26362645443E+04  0.14860999922E+04 0.  0.
        3    1    3    3  502    0  0.54701969214E+03 -0.11612751010E+03  0.22075793749E+03  0.60120730148E+03  0.10100000352E+00 0.  1.
       -3    1    3    3    0  502 -0.54701969214E+03  0.11612751010E+03  0.19567171050E+04  0.20350572428E+04  0.10100000352E+00 0. -1.
</event>
<event>
 5   0  0.4086710E-04  0.1481775E+04  0.7818609E-02  0.8896664E-01
        1   -1    0    0  501    0  0.00000000000E+00  0.00000000000E+00  0.95610839016E+03  0.95610839017E+03  0.50400001928E-02 0.  1.
       -1   -1    0    0    0  501  0.00000000000E+00  0.00000000000E+00 -0.57411298281E+03  0.57411298283E+03  0.50400001928E-02 0. -1.
    10030    2    1    2    0    0  0.00000000000E+00  0.00000000000E+00  0.38199540735E+03  0.15302213730E+04  0.14817749354E+04 0.  0.
        3    1    3    3  502    0  0.43272364830E+03 -0.18075849081E+03 -0.40133256152E+03  0.61724486465E+03  0.10100000352E+00 0. -1.
       -3    1    3    3    0  502 -0.43272364830E+03  0.18075849081E+03  0.78332796887E+03  0.91297650836E+03  0.10100000352E+00 0.  1.
</event>
<event>
 5   0  0.7547580E-04  0.1508099E+04  0.7818609E-02  0.8879085E-01
       -2   -1    0    0    0  501  0.00000000000E+00  0.00000000000E+00  0.63235941686E+03  0.63235941687E+03  0.25500000920E-02 0. -1.
        2   -1    0    0  501    0  0.00000000000E+00  0.00000000000E+00 -0.89915689188E+03  0.89915689188E+03  0.25500000920E-02 0.  1.
    10030    2    1    2    0    0  0.00000000000E+00  0.00000000000E+00 -0.26679747501E+03  0.15315163087E+04  0.15080985748E+04 0.  0.
        4    1    3    3  502    0 -0.67079917290E+03  0.25922695220E+03 -0.36367644706E+03  0.80587363412E+03  0.12699999809E+01 0.  1.
       -4    1    3    3    0  502  0.67079917290E+03 -0.25922695220E+03  0.96878972052E+02  0.72564267463E+03  0.12699999809E+01 0. -1.
</event>
<event>
 5   0  0.7634227E-04  0.1559232E+04  0.7818609E-02  0.8845992E-01
        2   -1    0    0  501    0  0.00000000000E+00  0.00000000000E+00  0.14322211785E+04  0.14322211785E+04  0.25500000920E-02 0. -1.
       -2   -1    0    0    0  501  0.00000000000E+00  0.00000000000E+00 -0.42437677226E+03  0.42437677226E+03  0.25500000920E-02 0.  1.
    10030    2    1    2    0    0  0.00000000000E+00  0.00000000000E+00  0.10078444062E+04  0.18565979507E+04  0.15592323764E+04 0.  0.
        2    1    3    3  502    0  0.44106519799E+03  0.58333839182E+03  0.18225512848E+03  0.75368370031E+03  0.25500000920E-02 0.  1.
       -2    1    3    3    0  502 -0.44106519799E+03 -0.58333839182E+03  0.82558927773E+03  0.11029142504E+04  0.25500000920E-02 0. -1.
</event>
<event>
 5   0  0.7359897E-04  0.1512687E+04  0.7818609E-02  0.8876060E-01
        2   -1    0    0  501    0  0.00000000000E+00  0.00000000000E+00  0.74394044963E+03  0.74394044964E+03  0.25500000920E-02 0.  1.
       -2   -1    0    0    0  501  0.00000000000E+00  0.00000000000E+00 -0.76895361495E+03  0.76895361496E+03  0.25500000920E-02 0. -1.
    10030    2    1    2    0    0  0.00000000000E+00  0.00000000000E+00 -0.25013165320E+02  0.15128940646E+04  0.15126872751E+04 0.  0.
        1    1    3    3  502    0  0.71904343062E+03  0.45182612699E+02  0.21772213720E+03  0.75264058665E+03  0.50400001928E-02 0.  1.
       -1    1    3    3    0  502 -0.71904343062E+03 -0.45182612699E+02 -0.24273530252E+03  0.76025347795E+03  0.50400001928E-02 0. -1.
</event>
<event>
 5   0  0.7454828E-04  0.1519802E+04  0.7818609E-02  0.8871390E-01
        2   -1    0    0  501    0  0.00000000000E+00  0.00000000000E+00  0.16441453198E+04  0.16441453198E+04  0.25500000920E-02 0. -1.
       -2   -1    0    0    0  501  0.00000000000E+00  0.00000000000E+00 -0.35121572291E+03  0.35121572292E+03  0.25500000920E-02 0.  1.
    10030    2    1    2    0    0  0.00000000000E+00  0.00000000000E+00  0.12929295969E+04  0.19953610427E+04  0.15198022069E+04 0.  0.
        3    1    3    3  502    0 -0.40288297691E+03  0.23676960621E+03  0.14331972882E+04  0.15074577993E+04  0.10100000352E+00 0. -1.
       -3    1    3    3    0  502  0.40288297691E+03 -0.23676960621E+03 -0.14026769133E+03  0.48790324342E+03  0.10100000352E+00 0.  1.
</event>
<event>
 5   0  0.7634227E-04  0.1515248E+04  0.7818609E-02  0.8874376E-01
       -2   -1    0    0    0  501  0.00000000000E+00  0.00000000000E+00  0.10062682022E+04  0.10062682022E+04  0.25500000920E-02 0. -1.
        2   -1    0    0  501    0  0.00000000000E+00  0.00000000000E+00 -0.57041853690E+03  0.57041853691E+03  0.25500000920E-02 0.  1.
    10030    2    1    2    0    0  0.00000000000E+00  0.00000000000E+00  0.43584966530E+03  0.15766867391E+04  0.15152478816E+04 0.  0.
        2    1    3    3  502    0  0.64459890400E+03  0.22868138860E+03  0.55700767265E+03  0.88207736164E+03  0.25500000920E-02 0. -1.
       -2    1    3    3    0  502 -0.64459890400E+03 -0.22868138860E+03 -0.12115800735E+03  0.69460937748E+03  0.25500000920E-02 0.  1.
</event>
<event>
 5   0  0.4015204E-04  0.1499903E+04  0.7818609E-02  0.8884518E-01
        1   -1    0    0  501    0  0.00000000000E+00  0.00000000000E+00  0.13292271929E+04  0.13292271929E+04  0.50400001928E-02 0. -1.
       -1   -1    0    0    0  501  0.00000000000E+00  0.00000000000E+00 -0.42312321575E+03  0.42312321578E+03  0.50400001928E-02 0.  1.
    10030    2    1    2    0    0  0.00000000000E+00  0.00000000000E+00  0.90610397714E+03  0.17523504087E+04  0.14999025093E+04 0.  0.
        2    1    3    3  502    0  0.31317959333E+03 -0.26892574064E+03  0.11845522013E+04  0.12544187615E+04  0.25500000920E-02 0. -1.
       -2    1    3    3    0  502 -0.31317959333E+03  0.26892574064E+03 -0.27844822418E+03  0.49793164713E+03  0.25500000920E-02 0.  1.
</event>
<event>
 5   0  0.4015204E-04  0.1504155E+04  0.7818609E-02  0.8881695E-01
       -1   -1    0    0    0  501  0.00000000000E+00  0.00000000000E+00  0.26612376355E+03  0.26612376359E+03  0.50400001928E-02 0.  1.
        1   -1    0    0  501    0  0.00000000000E+00  0.00000000000E+00 -0.21254040634E+04  0.21254040634E+04  0.50400001928E-02 0. -1.
    10030    2    1    2    0    0  0.00000000000E+00  0.00000000000E+00 -0.18592802998E+04  0.23915278270E+04  0.15041549501E+04 0.  0.
        2    1    3    3  502    0  0.20206611448E+03 -0.71491291526E+03 -0.74361396663E+03  0.10511388692E+04  0.25500000920E-02 0.  1.
       -2    1    3    3    0  502 -0.20206611448E+03  0.71491291526E+03 -0.11156663332E+04  0.13403889577E+04  0.25500000920E-02 0. -1.
</event>
<event>
 5   0  0.4058874E-04  0.1499894E+04  0.7818609E-02  0.8884524E-01
        1   -1    0    0  501    0  0.00000000000E+00  0.00000000000E+00  0.53516200106E+03  0.53516200108E+03  0.50400001928E-02 0.  1.
       -1   -1    0    0    0  501  0.00000000000E+00  0.00000000000E+00 -0.10509343592E+04  0.10509343592E+04  0.50400001928E-02 0. -1.
    10030    2    1    2    0    0  0.00000000000E+00  0.00000000000E+00 -0.51577235809E+03  0.15860963602E+04  0.14998935091E+04 0.  0.
        4    1    3    3  502    0 -0.11857049187E+03 -0.59715605477E+03 -0.72096286509E+03  0.94363307542E+03  0.12699999809E+01 0.  1.
       -4    1    3    3    0  502  0.11857049187E+03  0.59715605477E+03  0.20519050700E+03  0.64246328483E+03  0.12699999809E+01 0. -1.
</event>
<event>
 5   0  0.3907345E-04  0.1536611E+04  0.7818609E-02  0.8860466E-01
        1   -1    0    0  501    0  0.00000000000E+00  0.00000000000E+00  0.24737001304E+04  0.24737001304E+04  0.50400001928E-02 0. -1.
       -1   -1    0    0    0  501  0.00000000000E+00  0.00000000000E+00 -0.23862763534E+03  0.23862763539E+03  0.50400001928E-02 0.  1.
    10030    2    1    2    0    0  0.00000000000E+00  0.00000000000E+00  0.22350724951E+04  0.27123277658E+04  0.15366108326E+04 0.  0.
        5    1    3    3  502    0  0.72071502881E+03 -0.17191954274E+03  0.75888484414E+03  0.10606199973E+04  0.46999998093E+01 0.  1.
       -5    1    3    3    0  502 -0.72071502881E+03  0.17191954274E+03  0.14761876510E+04  0.16517077686E+04  0.46999998093E+01 0. -1.
</event>
<event>
 5   0  0.3907345E-04  0.1502637E+04  0.7818609E-02  0.8882701E-01
       -1   -1    0    0    0  501  0.00000000000E+00  0.00000000000E+00  0.13007695059E+04  0.13007695059E+04  0.50400001928E-02 0.  1.
        1   -1    0    0  501    0  0.00000000000E+00  0.00000000000E+00 -0.43395797289E+03  0.43395797292E+03  0.50400001928E-02 0. -1.
    10030    2    1    2    0    0  0.00000000000E+00  0.00000000000E+00  0.86681153302E+03  0.17347274788E+04  0.15026367466E+04 0.  0.
        5    1    3    3  502    0 -0.87845042972E+02 -0.13213344144E+03 -0.41437761100E+03  0.44374192096E+03  0.46999998093E+01 0. -1.
       -5    1    3    3    0  502  0.87845042972E+02  0.13213344144E+03  0.12811891440E+04  0.12909855579E+04  0.46999998093E+01 0.  1.
</event>
<event>
 5   0  0.7454828E-04  0.1527277E+04  0.7818609E-02  0.8866514E-01
       -2   -1    0    0    0  501  0.00000000000E+00  0.00000000000E+00  0.13586808584E+04  0.13586808584E+04  0.25500000920E-02 0.  1.
        2   -1    0    0  501    0  0.00000000000E+00  0.00000000000E+00 -0.42919861070E+03  0.42919861071E+03  0.25500000920E-02 0. -1.
    10030    2    1    2    0    0  0.00000000000E+00  0.00000000000E+00  0.92948224774E+03  0.17878794692E+04  0.15272772333E+04 0.  0.
        3    1    3    3  502    0  0.55945188022E+03 -0.47052326393E+03  0.20623183149E+03  0.75954600039E+03  0.10100000352E+00 0. -1.
       -3    1    3    3    0  502 -0.55945188022E+03  0.47052326393E+03  0.72325041626E+03  0.10283334688E+04  0.10100000352E+00 0.  1.
</event>
<event>
 5   0  0.7454828E-04  0.1510719E+04  0.7818609E-02  0.8877356E-01
       -2   -1    0    0    0  501  0.00000000000E+00  0.00000000000E+00  0.10321053823E+04  0.10321053823E+04  0.25500000920E-02 0.  1.
        2   -1    0    0  501    0  0.00000000000E+00  0.00000000000E+00 -0.55281957467E+03  0.55281957467E+03  0.25500000920E-02 0. -1.
    10030    2    1    2    0    0  0.00000000000E+00  0.00000000000E+00  0.47928580763E+03  0.15849249570E+04  0.15107191115E+04 0.  0.
        3    1    3    3  502    0 -0.31338528347E+03  0.63582509407E+03 -0.34103252111E+02  0.70968086359E+03  0.10100000352E+00 0. -1.
       -3    1    3    3    0  502  0.31338528347E+03 -0.63582509407E+03  0.51338905974E+03  0.87524409338E+03  0.10100000352E+00 0.  1.
</event>
<event>
 5   0  0.3907345E-04  0.1510920E+04  0.7818609E-02  0.8877224E-01
        1   -1    0    0  501    0  0.00000000000E+00  0.00000000000E+00  0.19730676441E+04  0.19730676441E+04  0.50400001928E-02 0.  1.
       -1   -1    0    0    0  501  0.00000000000E+00  0.00000000000E+00 -0.28925495635E+03  0.28925495639E+03  0.50400001928E-02 0. -1.
    10030    2    1    2    0    0  0.00000000000E+00  0.00000000000E+00  0.16838126878E+04  0.22623226005E+04  0.15109197137E+04 0.  0.
        5    1    3    3  502    0 -0.65007959106E+03 -0.38047107483E+03  0.75542695402E+03  0.10667959910E+04  0.46999998093E+01 0.  1.
       -5    1    3    3    0  502  0.65007959106E+03  0.38047107483E+03  0.92838573376E+03  0.11955266096E+04  0.46999998093E+01 0. -1.
</event>
<event>
 5   0  0.7359897E-04  0.1502046E+04  0.7818609E-02  0.8883093E-01
       -2   -1    0    0    0  501  0.00000000000E+00  0.00000000000E+00  0.52065716730E+03  0.52065716731E+03  0.25500000920E-02 0. -1.
        2   -1    0    0  501    0  0.00000000000E+00  0.00000000000E+00 -0.10833153069E+04  0.10833153069E+04  0.25500000920E-02 0.  1.
    10030    2    1    2    0    0  0.00000000000E+00  0.00000000000E+00 -0.56265813961E+03  0.16039724742E+04  0.15020464427E+04 0.  0.
        1    1    3    3  502    0 -0.41222533640E+03  0.80958430049E+02  0.38345174276E+03  0.56878751254E+03  0.50400001928E-02 0. -1.
       -1    1    3    3    0  502  0.41222533640E+03 -0.80958430049E+02 -0.94610988237E+03  0.10351849617E+04  0.50400001928E-02 0.  1.
</event>
<event>
 5   0  0.4015204E-04  0.1497253E+04  0.7818609E-02  0.8886282E-01
        1   -1    0    0  501    0  0.00000000000E+00  0.00000000000E+00  0.13421610478E+04  0.13421610479E+04  0.50400001928E-02 0. -1.
       -1   -1    0    0    0  501  0.00000000000E+00  0.00000000000E+00 -0.41756669563E+03  0.41756669566E+03  0.50400001928E-02 0.  1.
    10030    2    1    2    0    0  0.00000000000E+00  0.00000000000E+00  0.92459435222E+03  0.17597277435E+04  0.14972531567E+04 0.  0.
        2    1    3    3  502    0  0.40571548168E+03  0.50200945665E+03  0.16574501201E+02  0.64567271952E+03  0.25500000920E-02 0.  1.
       -2    1    3    3    0  502 -0.40571548168E+03 -0.50200945665E+03  0.90801985102E+03  0.11140550240E+04  0.25500000920E-02 0. -1.
</event>
<event>
 5   0  0.7454828E-04  0.1380835E+04  0.7818609E-02  0.8967809E-01
        2   -1    0    0  501    0  0.00000000000E+00  0.00000000000E+00  0.17678584181E+04  0.17678584181E+04  0.25500000920E-02 0.  1.
       -2   -1    0    0    0  501  0.00000000000E+00  0.00000000000E+00 -0.26963490479E+03  0.26963490480E+03  0.25500000920E-02 0. -1.
    10030    2    1    2    0    0  0.00000000000E+00  0.00000000000E+00  0.14982235133E+04  0.20374933229E+04  0.13808350173E+04 0.  0.
        3    1    3    3  502    0 -0.20804189351E+03  0.57999454549E+03  0.28955092264E+03  0.68081924859E+03  0.10100000352E+00 0. -1.
       -3    1    3    3    0  502  0.20804189351E+03 -0.57999454549E+03  0.12086725907E+04  0.13566740743E+04  0.10100000352E+00 0.  1.
</event>
<event>
 5   0  0.7547580E-04  0.1465841E+04  0.7818609E-02  0.8907491E-01
        2   -1    0    0  501    0  0.00000000000E+00  0.00000000000E+00  0.11171029666E+04  0.11171029666E+04  0.25500000920E-02 0.  1.
       -2   -1    0    0    0  501  0.00000000000E+00  0.00000000000E+00 -0.48086211688E+03  0.48086211689E+03  0.25500000920E-02 0. -1.
    10030    2    1    2    0    0  0.00000000000E+00  0.00000000000E+00  0.63624084974E+03  0.15979650835E+04  0.14658410518E+04 0.  0.
        4    1    3    3  502    0 -0.43311820343E+03 -0.58953493269E+03  0.26902717156E+03  0.77943572342E+03  0.12699999809E+01 0. -1.
       -4    1    3    3    0  502  0.43311820343E+03  0.58953493269E+03  0.36721367818E+03  0.81852936010E+03  0.12699999809E+01 0.  1.
</event>
<event>
 5   0  0.7672251E-04  0.1503148E+04  0.7818609E-02  0.8882362E-01
       -2   -1    0    0    0  501  0.00000000000E+00  0.00000000000E+00  0.70811130701E+03  0.70811130701E+03  0.25500000920E-02 0. -1.
        2   -1    0    0  501    0  0.00000000000E+00  0.00000000000E+00 -0.79770399917E+03  0.79770399918E+03  0.25500000920E-02 0.  1.
    10030    2    1    2    0    0  0.00000000000E+00  0.00000000000E+00 -0.89592692164E+02  0.15058153062E+04  0.15031476594E+04 0.  0.
        5    1    3    3  502    0 -0.48450965438E+03  0.27862651468E+03  0.45854813592E+03  0.72295976570E+03  0.46999998093E+01 0. -1.
       -5    1    3    3    0  502  0.48450965438E+03 -0.27862651468E+03 -0.54814082808E+03  0.78285554049E+03  0.46999998093E+01 0.  1.
</event>
<event>
 5   0  0.4084462E-04  0.1400262E+04  0.7818609E-02  0.8953629E-01
       -1   -1    0    0    0  501  0.00000000000E+00  0.00000000000E+00  0.71200063699E+03  0.71200063701E+03  0.50400001928E-02 0.  1.
        1   -1    0    0  501    0  0.00000000000E+00  0.00000000000E+00 -0.68845968782E+03  0.68845968783E+03  0.50400001928E-02 0. -1.
    10030    2    1    2    0    0  0.00000000000E+00  0.00000000000E+00  0.23540949177E+02  0.14004603248E+04  0.14002624558E+04 0.  0.
        1    1    3    3  502    0 -0.43573904532E+03 -0.20099792927E+03 -0.49812021438E+03  0.69165918716E+03  0.50400001928E-02 0. -1.
       -1    1    3    3    0  502  0.43573904532E+03  0.20099792927E+03  0.52166116356E+03  0.70880113768E+03  0.50400001928E-02 0.  1.
</event>
<event>
 5   0  0.4086710E-04  0.1496363E+04  0.7818609E-02  0.8886875E-01
       -1   -1    0    0    0  501  0.00000000000E+00  0.00000000000E+00  0.44200022084E+03  0.44200022087E+03  0.50400001928E-02 0. -1.
        1   -1    0    0  501    0  0.00000000000E+00  0.00000000000E+00 -0.12664594863E+04  0.12664594863E+04  0.50400001928E-02 0.  1.
    10030    2    1    2    0    0  0.00000000000E+00  0.00000000000E+00 -0.82445926548E+03  0.17084597072E+04  0.14963627537E+04 0.  0.
        3    1    3    3  502    0  0.60253370137E+03  0.32705176049E+03 -0.70153373549E+02  0.68915253852E+03  0.10100000352E+00 0. -1.
       -3    1    3    3    0  502 -0.60253370137E+03 -0.32705176049E+03 -0.75430589193E+03  0.10193071687E+04  0.10100000352E+00 0.  1.
</event>
<event>
 5   0  0.4058874E-04  0.1534575E+04  0.7818609E-02  0.8861781E-01
       -1   -1    0    0    0  501  0.00000000000E+00  0.00000000000E+00  0.69882670386E+03  0.69882670388E+03  0.50400001928E-02 0.  1.
        1   -1    0    0  501    0  0.00000000000E+00  0.00000000000E+00 -0.84245477816E+03  0.84245477817E+03  0.50400001928E-02 0. -1.
    10030    2    1    2    0    0  0.00000000000E+00  0.00000000000E+00 -0.14362807430E+03  0.15412814820E+04  0.15345747239E+04 0.  0.
        4    1    3    3  502    0  0.19930251759E+03  0.54222102969E+03 -0.57899937222E+03  0.81790404357E+03  0.12699999809E+01 0. -1.
       -4    1    3    3    0  502 -0.19930251759E+03 -0.54222102969E+03  0.43537129792E+03  0.72337743848E+03  0.12699999809E+01 0.  1.
</event>
<event>
 5   0  0.3907345E-04  0.1503592E+04  0.7818609E-02  0.8882068E-01
       -1   -1    0    0    0  501  0.00000000000E+00  0.00000000000E+00  0.50281977301E+03  0.50281977303E+03  0.50400001928E-02 0.  1.
        1   -1    0    0  501    0  0.00000000000E+00  0.00000000000E+00 -0.11240555939E+04  0.11240555940E+04  0.50400001928E-02 0. -1.
    10030    2    1    2    0    0  0.00000000000E+00  0.00000000000E+00 -0.62123582094E+03  0.16268753670E+04  0.15035922035E+04 0.  0.
        5    1    3    3  502    0 -0.43846686810E+03  0.56643947674E+03 -0.55751239628E+03  0.90771638590E+03  0.46999998093E+01 0. -1.
       -5    1    3    3    0  502  0.43846686810E+03 -0.56643947674E+03 -0.63723424660E+02  0.71915898109E+03  0.46999998093E+01 0.  1.
</event>
<event>
 5   0  0.7454828E-04  0.1509384E+04  0.7818609E-02  0.8878236E-01
        2   -1    0    0  501    0  0.00000000000E+00  0.00000000000E+00  0.89683581416E+03  0.89683581417E+03  0.25500000920E-02 0.  1.
       -2   -1    0    0    0  501  0.00000000000E+00  0.00000000000E+00 -0.63507764227E+03  0.63507764227E+03  0.25500000920E-02 0. -1.
    10030    2    1    2    0    0  0.00000000000E+00  0.00000000000E+00  0.26175817189E+03  0.15319134564E+04  0.15093844764E+04 0.  0.
        3    1    3    3  502    0  0.44078295561E+03  0.58804773959E+03  0.30511147292E+03  0.79572782978E+03  0.10100000352E+00 0.  1.
       -3    1    3    3    0  502 -0.44078295561E+03 -0.58804773959E+03 -0.43353301023E+02  0.73618562666E+03  0.10100000352E+00 0. -1.
</event>
<event>
 5   0  0.4015204E-04  0.1437934E+04  0.7818609E-02  0.8926809E-01
       -1   -1    0    0    0  501  0.00000000000E+00  0.00000000000E+00  0.59101444505E+03  0.59101444507E+03  0.50400001928E-02 0.  1.
        1   -1    0    0  501    0  0.00000000000E+00  0.00000000000E+00 -0.87462078351E+03  0.87462078352E+03  0.50400001928E-02 0. -1.
    10030    2    1    2    0    0  0.00000000000E+00  0.00000000000E+00 -0.28360633846E+03  0.14656352286E+04  0.14379339582E+04 0.  0.
        2    1    3    3  502    0 -0.37273467640E+03 -0.45498480078E+03 -0.56325548712E+03  0.81437034063E+03  0.25500000920E-02 0. -1.
       -2    1    3    3    0  502  0.37273467640E+03  0.45498480078E+03  0.27964914866E+03  0.65126488795E+03  0.25500000920E-02 0.  1.
</event>
<event>
 5   0  0.4058874E-04  0.1496305E+04  0.7818609E-02  0.8886913E-01
       -1   -1    0    0    0  501  0.00000000000E+00  0.00000000000E+00  0.66837254072E+03  0.66837254073E+03  0.50400001928E-02 0. -1.
        1   -1    0    0  501    0  0.00000000000E+00  0.00000000000E+00 -0.83745589108E+03  0.83745589109E+03  0.50400001928E-02 0.  1.
    10030    2    1    2    0    0  0.00000000000E+00  0.00000000000E+00 -0.16908335036E+03  0.15058284318E+04  0.14963054791E+04 0.  0.
        4    1    3    3  502    0  0.58637253111E+03  0.34541093433E+02 -0.55085345123E+03  0.80527446874E+03  0.12699999809E+01 0.  1.
       -4    1    3    3    0  502 -0.58637253111E+03 -0.34541093433E+02  0.38177010087E+03  0.70055396308E+03  0.12699999809E+01 0. -1.
</event>
<event>
 5   0  0.4086710E-04  0.1471020E+04  0.7818609E-02  0.8903957E-01
       -1   -1    0    0    0  501  0.00000000000E+00  0.00000000000E+00  0.62004102826E+03  0.62004102828E+03  0.50400001928E-02 0. -1.
        1   -1    0    0  501    0  0.00000000000E+00  0.00000000000E+00 -0.87248197217E+03  0.87248197218E+03  0.50400001928E-02 0.  1.
    10030    2    1    2    0    0  0.00000000000E+00  0.00000000000E+00 -0.25244094391E+03  0.14925230005E+04  0.14710195365E+04 0.  0.
        3    1    3    3  502    0 -0.39643850357E+03  0.49468793318E+03 -0.50462672600E+03  0.81026401940E+03  0.10100000352E+00 0.  1.
       -3    1    3    3    0  502  0.39643850357E+03 -0.49468793318E+03  0.25218578209E+03  0.68225898106E+03  0.10100000352E+00 0. -1.
</event>
<event>
 5   0  0.4058874E-04  0.1497580E+04  0.7818609E-02  0.8886064E-01
        1   -1    0    0  501    0  0.00000000000E+00  0.00000000000E+00  0.46031045750E+03  0.46031045753E+03  0.50400001928E-02 0. -1.
       -1   -1    0    0    0  501  0.00000000000E+00  0.00000000000E+00 -0.12180620829E+04  0.12180620830E+04  0.50400001928E-02 0.  1.
    10030    2    1    2    0    0  0.00000000000E+00  0.00000000000E+00 -0.75775162544E+03  0.16783725405E+04  0.14975803347E+04 0.  0.
        4    1    3    3  502    0 -0.24222775063E+01 -0.10583315781E+03  0.45188044140E+03  0.46411644115E+03  0.12699999809E+01 0. -1.
       -4    1    3    3    0  502  0.24222775063E+01  0.10583315781E+03 -0.12096320668E+04  0.12142560993E+04  0.12699999809E+01 0.  1.
</event>
<event>
 5   0  0.7634227E-04  0.1505805E+04  0.7818609E-02  0.8880602E-01
       -2   -1    0    0    0  501  0.00000000000E+00  0.00000000000E+00  0.57438261118E+03  0.57438261118E+03  0.25500000920E-02 0.  1.
        2   -1    0    0  501    0  0.00000000000E+00  0.00000000000E+00 -0.98690640333E+03  0.98690640334E+03  0.25500000920E-02 0. -1.
    10030    2    1    2    0    0  0.00000000000E+00  0.00000000000E+00 -0.41252379215E+03  0.15612890145E+04  0.15058046048E+04 0.  0.
        2    1    3    3  502    0  0.38066128676E+03 -0.31482621059E+03  0.38286735239E+03  0.62498477393E+03  0.25500000920E-02 0.  1.
       -2    1    3    3    0  502 -0.38066128676E+03  0.31482621059E+03 -0.79539114455E+03  0.93630424059E+03  0.25500000920E-02 0. -1.
</event>
<event>
 5   0  0.7672251E-04  0.1506110E+04  0.7818609E-02  0.8880400E-01
        2   -1    0    0  501    0  0.00000000000E+00  0.00000000000E+00  0.23020791698E+04  0.23020791698E+04  0.25500000920E-02 0.  1.
       -2   -1    0    0    0  501  0.00000000000E+00  0.00000000000E+00 -0.24633907457E+03  0.24633907459E+03  0.25500000920E-02 0. -1.
    10030    2    1    2    0    0  0.00000000000E+00  0.00000000000E+00  0.20557400952E+04  0.25484182443E+04  0.15061102912E+04 0.  0.
        5    1    3    3  502    0 -0.49286095320E+03 -0.56192658432E+03  0.87282262612E+03  0.11491365593E+04  0.46999998093E+01 0. -1.
       -5    1    3    3    0  502  0.49286095320E+03  0.56192658432E+03  0.11829174691E+04  0.13992816850E+04  0.46999998093E+01 0.  1.
</event>
<event>
 5   0  0.7454828E-04  0.1529266E+04  0.7818609E-02  0.8865221E-01
       -2   -1    0    0    0  501  0.00000000000E+00  0.00000000000E+00  0.77009395947E+03  0.77009395947E+03  0.25500000920E-02 0. -1.
        2   -1    0    0  501    0  0.00000000000E+00  0.00000000000E+00 -0.75921095405E+03  0.75921095406E+03  0.25500000920E-02 0.  1.
    10030    2    1    2    0    0  0.00000000000E+00  0.00000000000E+00  0.10883005413E+02  0.15293049135E+04  0.15292661896E+04 0.  0.
        3    1    3    3  502    0  0.68511661443E+03  0.33490406709E+03 -0.50401203967E+02  0.76425506284E+03  0.10100000352E+00 0.  1.
       -3    1    3    3    0  502 -0.68511661443E+03 -0.33490406709E+03  0.61284209380E+02  0.76504985069E+03  0.10100000352E+00 0. -1.
</event>
<event>
 5   0  0.7672251E-04  0.1506047E+04  0.7818609E-02  0.8880441E-01
        2   -1    0    0  501    0  0.00000000000E+00  0.00000000000E+00  0.19897225570E+04  0.19897225570E+04  0.25500000920E-02 0.  1.
       -2   -1    0    0    0  501  0.00000000000E+00  0.00000000000E+00 -0.28498681715E+03  0.28498681716E+03  0.25500000920E-02 0. -1.
    10030    2    1    2    0    0  0.00000000000E+00  0.00000000000E+00  0.17047357399E+04  0.22747093742E+04  0.15060474077E+04 0.  0.
        5    1    3    3  502    0  0.27160962375E+03 -0.24464981084E+02 -0.20775822662E+03  0.34286424973E+03  0.46999998093E+01 0. -1.
       -5    1    3    3    0  502 -0.27160962375E+03  0.24464981084E+02  0.19124939665E+04  0.19318451245E+04  0.46999998093E+01 0.  1.
</event>
<event>
 5   0  0.4058874E-04  0.1343189E+04  0.7818609E-02  0.8996000E-01
        1   -1    0    0  501    0  0.00000000000E+00  0.00000000000E+00  0.18803703198E+04  0.18803703198E+04  0.50400001928E-02 0.  1.
       -1   -1    0    0    0  501  0.00000000000E+00  0.00000000000E+00 -0.23986729305E+03  0.23986729311E+03  0.50400001928E-02 0. -1.
    10030    2    1    2    0    0  0.00000000000E+00  0.00000000000E+00  0.16405030268E+04  0.21202376129E+04  0.13431892474E+04 0.  0.
        4    1    3    3  502    0  0.25374128999E+03 -0.10027065378E+03  0.17889460265E+04  0.18096321021E+04  0.12699999809E+01 0.  1.
       -4    1    3    3    0  502 -0.25374128999E+03  0.10027065378E+03 -0.14844299978E+03  0.31060551080E+03  0.12699999809E+01 0. -1.
</event>
<event>
 5   0  0.3907345E-04  0.1503304E+04  0.7818609E-02  0.8882259E-01
        1   -1    0    0  501    0  0.00000000000E+00  0.00000000000E+00  0.12021560188E+04  0.12021560188E+04  0.50400001928E-02 0.  1.
       -1   -1    0    0    0  501  0.00000000000E+00  0.00000000000E+00 -0.46997295811E+03  0.46997295814E+03  0.50400001928E-02 0. -1.
    10030    2    1    2    0    0  0.00000000000E+00  0.00000000000E+00  0.73218306067E+03  0.16721289769E+04  0.15033041213E+04 0.  0.
        5    1    3    3  502    0  0.42742410976E+03  0.43902431966E+03 -0.11814348025E+03  0.62403020342E+03  0.46999998093E+01 0. -1.
       -5    1    3    3    0  502 -0.42742410976E+03 -0.43902431966E+03  0.85032654092E+03  0.10480987735E+04  0.46999998093E+01 0.  1.
</event>
<event>
 5   0  0.4086710E-04  0.1495325E+04  0.7818609E-02  0.8887568E-01
       -1   -1    0    0    0  501  0.00000000000E+00  0.00000000000E+00  0.61118351257E+03  0.61118351259E+03  0.50400001928E-02 0. -1.
        1   -1    0    0  501    0  0.00000000000E+00  0.00000000000E+00 -0.91461719291E+03  0.91461719292E+03  0.50400001928E-02 0.  1.
    10030    2    1    2    0    0  0.00000000000E+00  0.00000000000E+00 -0.30343368034E+03  0.15258007055E+04  0.14953246452E+04 0.  0.
        3    1    3    3  502    0 -0.29486236378E+03  0.49818692404E+03 -0.63450358309E+03  0.85891142268E+03  0.10100000352E+00 0.  1.
       -3    1    3    3    0  502  0.29486236378E+03 -0.49818692404E+03  0.33106990274E+03  0.66688928283E+03  0.10100000352E+00 0. -1.
</event>
<event>
 5   0  0.3907345E-04  0.1491470E+04  0.7818609E-02  0.8890145E-01
        1   -1    0    0  501    0  0.00000000000E+00  0.00000000000E+00  0.18230610975E+04  0.18230610975E+04  0.50400001928E-02 0. -1.
       -1   -1    0    0    0  501  0.00000000000E+00  0.00000000000E+00 -0.30504792262E+03  0.30504792267E+03  0.50400001928E-02 0.  1.
    10030    2    1    2    0    0  0.00000000000E+00  0.00000000000E+00  0.15180131749E+04  0.21281090202E+04  0.14914704163E+04 0.  0.
        5    1    3    3  502    0  0.21396853222E+03 -0.12340836263E+03 -0.24496144030E+03  0.34790854255E+03  0.46999998093E+01 0.  1.
       -5    1    3    3    0  502 -0.21396853222E+03  0.12340836263E+03  0.17629746152E+04  0.17802004776E+04  0.46999998093E+01 0. -1.
</event>
<event>
 5   0  0.7634227E-04  0.1280604E+04  0.7818609E-02  0.9045090E-01
       -2   -1    0    0    0  501  0.00000000000E+00  0.00000000000E+00  0.53252120295E+03  0.53252120296E+03  0.25500000920E-02 0.  1.
        2   -1    0    0  501    0  0.00000000000E+00  0.00000000000E+00 -0.76989708757E+03  0.76989708758E+03  0.25500000920E-02 0. -1.
    10030    2    1    2    0    0  0.00000000000E+00  0.00000000000E+00 -0.23737588462E+03  0.13024182905E+04  0.12806038001E+04 0.  0.
        2    1    3    3  502    0  0.51918359025E+03  0.17223562533E+03 -0.45717838441E+03  0.71290166657E+03  0.25500000920E-02 0. -1.
       -2    1    3    3    0  502 -0.51918359025E+03 -0.17223562533E+03  0.21980249979E+03  0.58951662397E+03  0.25500000920E-02 0.  1.
</event>
<event>
 5   0  0.7454828E-04  0.1498784E+04  0.7818609E-02  0.8885262E-01
       -2   -1    0    0    0  501  0.00000000000E+00  0.00000000000E+00  0.57969601389E+03  0.57969601390E+03  0.25500000920E-02 0. -1.
        2   -1    0    0  501    0  0.00000000000E+00  0.00000000000E+00 -0.96876392872E+03  0.96876392872E+03  0.25500000920E-02 0.  1.
    10030    2    1    2    0    0  0.00000000000E+00  0.00000000000E+00 -0.38906791482E+03  0.15484599426E+04  0.14987842912E+04 0.  0.
        3    1    3    3  502    0 -0.43056934917E+03  0.31621799039E+02  0.43830249963E+03  0.61522271902E+03  0.10100000352E+00 0. -1.
       -3    1    3    3    0  502  0.43056934917E+03 -0.31621799039E+02 -0.82737041445E+03  0.93323722360E+03  0.10100000352E+00 0.  1.
</event>
<event>
 5   0  0.7454828E-04  0.1490061E+04  0.7818609E-02  0.8891089E-01
       -2   -1    0    0    0  501  0.00000000000E+00  0.00000000000E+00  0.84533539393E+03  0.84533539393E+03  0.25500000920E-02 0. -1.
        2   -1    0    0  501    0  0.00000000000E+00  0.00000000000E+00 -0.65662781782E+03  0.65662781782E+03  0.25500000920E-02 0.  1.
    10030    2    1    2    0    0  0.00000000000E+00  0.00000000000E+00  0.18870757611E+03  0.15019632118E+04  0.14900613881E+04 0.  0.
        3    1    3    3  502    0  0.29572786053E+03 -0.15448051754E+02 -0.59475669428E+03  0.66440134361E+03  0.10100000352E+00 0.  1.
       -3    1    3    3    0  502 -0.29572786053E+03  0.15448051754E+02  0.78346427039E+03  0.83756186815E+03  0.10100000352E+00 0. -1.
</event>
<event>
 5   0  0.4015204E-04  0.1532703E+04  0.7818609E-02  0.8862993E-01
        1   -1    0    0  501    0  0.00000000000E+00  0.00000000000E+00  0.12491771411E+04  0.12491771411E+04  0.50400001928E-02 0. -1.
       -1   -1    0    0    0  501  0.00000000000E+00  0.00000000000E+00 -0.47014493006E+03  0.47014493009E+03  0.50400001928E-02 0.  1.
    10030    2    1    2    0    0  0.00000000000E+00  0.00000000000E+00  0.77903221103E+03  0.17193220712E+04  0.15327025800E+04 0.  0.
        2    1    3    3  502    0 -0.47503042956E+03  0.14552620321E+03  0.10440528036E+04  0.11562344232E+04  0.25500000920E-02 0. -1.
       -2    1    3    3    0  502  0.47503042956E+03 -0.14552620321E+03 -0.26502059252E+03  0.56308764797E+03  0.25500000920E-02 0.  1.
</event>
<event>
 5   0  0.7547580E-04  0.1507807E+04  0.7818609E-02  0.8879278E-01
        2   -1    0    0  501    0  0.00000000000E+00  0.00000000000E+00  0.53321073969E+03  0.53321073969E+03  0.25500000920E-02 0. -1.
       -2   -1    0    0    0  501  0.00000000000E+00  0.00000000000E+00 -0.10659400143E+04  0.10659400143E+04  0.25500000920E-02 0.  1.
    10030    2    1    2    0    0  0.00000000000E+00  0.00000000000E+00 -0.53272927459E+03  0.15991507540E+04  0.15078072337E+04 0.  0.
        4    1    3    3  502    0 -0.34837193362E+02 -0.22780810312E+03  0.49493624116E+03  0.54596122353E+03  0.12699999809E+01 0. -1.
       -4    1    3    3    0  502  0.34837193362E+02  0.22780810312E+03 -0.10276655157E+04  0.10531895304E+04  0.12699999809E+01 0.  1.
</event>
<event>
 5   0  0.7454828E-04  0.1498923E+04  0.7818609E-02  0.8885169E-01
       -2   -1    0    0    0  501  0.00000000000E+00  0.00000000000E+00  0.14798967082E+04  0.14798967082E+04  0.25500000920E-02 0.  1.
        2   -1    0    0  501    0  0.00000000000E+00  0.00000000000E+00 -0.37954844921E+03  0.37954844922E+03  0.25500000920E-02 0. -1.
    10030    2    1    2    0    0  0.00000000000E+00  0.00000000000E+00  0.11003482590E+04  0.18594451574E+04  0.14989229474E+04 0.  0.
        3    1    3    3  502    0 -0.47880024690E+03  0.68640391660E+02 -0.15999703229E+03  0.50947054904E+03  0.10100000352E+00 0. -1.
       -3    1    3    3    0  502  0.47880024690E+03 -0.68640391660E+02  0.12603452913E+04  0.13499746084E+04  0.10100000352E+00 0.  1.
</event>
<event>
 5   0  0.7454828E-04  0.1493607E+04  0.7818609E-02  0.8888715E-01
       -2   -1    0    0    0  501  0.00000000000E+00  0.00000000000E+00  0.56616906480E+03  0.56616906481E+03  0.25500000920E-02 0. -1.
        2   -1    0    0  501    0  0.00000000000E+00  0.00000000000E+00 -0.98506935418E+03  0.98506935418E+03  0.25500000920E-02 0.  1.
    10030    2    1    2    0    0  0.00000000000E+00  0.00000000000E+00 -0.41890028938E+03  0.15512384190E+04  0.14936074384E+04 0.  0.
        3    1    3    3  502    0  0.28401429792E+03 -0.17862218467E+03 -0.90238628710E+03  0.96274141265E+03  0.10100000352E+00 0.  1.
       -3    1    3    3    0  502 -0.28401429792E+03  0.17862218467E+03  0.48348599772E+03  0.58849700634E+03  0.10100000352E+00 0. -1.
</event>
<event>
 5   0  0.7454828E-04  0.1487818E+04  0.7818609E-02  0.8892594E-01
       -2   -1    0    0    0  501  0.00000000000E+00  0.00000000000E+00  0.16569523229E+04  0.16569523229E+04  0.25500000920E-02 0.  1.
        2   -1    0    0  501    0  0.00000000000E+00  0.00000000000E+00 -0.33398714424E+03  0.33398714425E+03  0.25500000920E-02 0. -1.
    10030    2    1    2    0    0  0.00000000000E+00  0.00000000000E+00  0.13229651787E+04  0.19909394672E+04  0.14878182342E+04 0.  0.
        3    1    3    3  502    0 -0.55147328844E+03  0.48695581613E+03  0.51396893220E+03  0.89744795291E+03  0.10100000352E+00 0.  1.
       -3    1    3    3    0  502  0.55147328844E+03 -0.48695581613E+03  0.80899624648E+03  0.10934915142E+04  0.10100000352E+00 0. -1.
</event>
<event>
 5   0  0.7672251E-04  0.1494230E+04  0.7818609E-02  0.8888299E-01
        2   -1    0    0  501    0  0.00000000000E+00  0.00000000000E+00  0.12200065847E+04  0.12200065847E+04  0.25500000920E-02 0. -1.
       -2   -1    0    0    0  501  0.00000000000E+00  0.00000000000E+00 -0.45752284135E+03  0.45752284136E+03  0.25500000920E-02 0.  1.
    10030    2    1    2    0    0  0.00000000000E+00  0.00000000000E+00  0.76248374335E+03  0.16775294261E+04  0.14942300748E+04 0.  0.
        5    1    3    3  502    0  0.15199687495E+03 -0.43588346660E+02 -0.43850494858E+03  0.46616700214E+03  0.46999998093E+01 0.  1.
       -5    1    3    3    0  502 -0.15199687495E+03  0.43588346660E+02  0.12009886919E+04  0.12113624239E+04  0.46999998093E+01 0. -1.
</event>
<event>
 5   0  0.4086710E-04  0.1496270E+04  0.7818609E-02  0.8886937E-01
        1   -1    0    0  501    0  0.00000000000E+00  0.00000000000E+00  0.11326834983E+04  0.11326834983E+04  0.50400001928E-02 0. -1.
       -1   -1    0    0    0  501  0.00000000000E+00  0.00000000000E+00 -0.49414127775E+03  0.49414127777E+03  0.50400001928E-02 0.  1.
    10030    2    1    2    0    0  0.00000000000E+00  0.00000000000E+00  0.63854222059E+03  0.16268247761E+04  0.14962695896E+04 0.  0.
        3    1    3    3  502    0 -0.61065022177E+03 -0.28979865578E+03  0.66791986272E+03  0.95025991574E+03  0.10100000352E+00 0. -1.
       -3    1    3    3    0  502  0.61065022177E+03  0.28979865578E+03 -0.29377642137E+02  0.67656486038E+03  0.10100000352E+00 0.  1.
</event>
<event>
 5   0  0.4015204E-04  0.1493629E+04  0.7818609E-02  0.8888700E-01
        1   -1    0    0  501    0  0.00000000000E+00  0.00000000000E+00  0.19348931424E+04  0.19348931424E+04  0.50400001928E-02 0.  1.
       -1   -1    0    0    0  501  0.00000000000E+00  0.00000000000E+00 -0.28824954257E+03  0.28824954262E+03  0.50400001928E-02 0. -1.
    10030    2    1    2    0    0  0.00000000000E+00  0.00000000000E+00  0.16466435998E+04  0.22231426850E+04  0.14936292221E+04 0.  0.
        2    1    3    3  502    0  0.59221958345E+03  0.33476414964E+03  0.12819401409E+04  0.14512620700E+04  0.25500000920E-02 0.  1.
       -2    1    3    3    0  502 -0.59221958345E+03 -0.33476414964E+03  0.36470345892E+03  0.77188061503E+03  0.25500000920E-02 0. -1.
</event>
<event>
 5   0  0.4058874E-04  0.1503669E+04  0.7818609E-02  0.8882016E-01
        1   -1    0    0  501    0  0.00000000000E+00  0.00000000000E+00  0.22441908356E+04  0.22441908356E+04  0.50400001928E-02 0.  1.
       -1   -1    0    0    0  501  0.00000000000E+00  0.00000000000E+00 -0.25187495808E+03  0.25187495813E+03  0.50400001928E-02 0. -1.
    10030    2    1    2    0    0  0.00000000000E+00  0.00000000000E+00  0.19923158775E+04  0.24960657937E+04  0.15036694752E+04 0.  0.
        4    1    3    3  502    0 -0.22694712575E+03  0.53912279950E+03  0.21209844085E+03  0.62221037627E+03  0.12699999809E+01 0. -1.
       -4    1    3    3    0  502  0.22694712575E+03 -0.53912279950E+03  0.17802174366E+04  0.18738554174E+04  0.12699999809E+01 0.  1.
</event>
<event>
 5   0  0.7454828E-04  0.1507025E+04  0.7818609E-02  0.8879795E-01
        2   -1    0    0  501    0  0.00000000000E+00  0.00000000000E+00  0.70762172583E+03  0.70762172584E+03  0.25500000920E-02 0. -1.
       -2   -1    0    0    0  501  0.00000000000E+00  0.00000000000E+00 -0.80237927297E+03  0.80237927297E+03  0.25500000920E-02 0.  1.
    10030    2    1    2    0    0  0.00000000000E+00  0.00000000000E+00 -0.94757547134E+02  0.15100009988E+04  0.15070248915E+04 0.  0.
        3    1    3    3  502    0 -0.26540097803E+03 -0.56067694989E+03  0.38123307031E+03  0.72810369137E+03  0.10100000352E+00 0. -1.
       -3    1    3    3    0  502  0.26540097803E+03  0.56067694989E+03 -0.47599061744E+03  0.78189730744E+03  0.10100000352E+00 0.  1.
</event>
<event>
 5   0  0.7454828E-04  0.1492602E+04  0.7818609E-02  0.8889387E-01
       -2   -1    0    0    0  501  0.00000000000E+00  0.00000000000E+00  0.26507181648E+03  0.26507181649E+03  0.25500000920E-02 0.  1.
        2   -1    0    0  501    0  0.00000000000E+00  0.00000000000E+00 -0.21011869781E+04  0.21011869781E+04  0.25500000920E-02 0. -1.
    10030    2    1    2    0    0  0.00000000000E+00  0.00000000000E+00 -0.18361151616E+04  0.23662587945E+04  0.14926023570E+04 0.  0.
        3    1    3    3  502    0  0.23304037057E+03 -0.22027376564E+03  0.15028762557E+03  0.35413941710E+03  0.10100000352E+00 0.  1.
       -3    1    3    3    0  502 -0.23304037057E+03  0.22027376564E+03 -0.19864027871E+04  0.20121193774E+04  0.10100000352E+00 0. -1.
</event>
<event>
 5   0  0.7359897E-04  0.1509231E+04  0.7818609E-02  0.8878337E-01
       -2   -1    0    0    0  501  0.00000000000E+00  0.00000000000E+00  0.47450506396E+03  0.47450506396E+03  0.25500000920E-02 0. -1.
        2   -1    0    0  501    0  0.00000000000E+00  0.00000000000E+00 -0.12000817473E+04  0.12000817473E+04  0.25500000920E-02 0.  1.
    10030    2    1    2    0    0  0.00000000000E+00  0.00000000000E+00 -0.72557668335E+03  0.16745868113E+04  0.15092314153E+04 0.  0.
        1    1    3    3  502    0  0.38413413392E+03 -0.13033952021E+03  0.34324359567E+03  0.53137895081E+03  0.50400001928E-02 0. -1.
       -1    1    3    3    0  502 -0.38413413392E+03  0.13033952021E+03 -0.10688202790E+04  0.11432078605E+04  0.50400001928E-02 0.  1.
</event>
<event>
 5   0  0.4084462E-04  0.1468350E+04  0.7818609E-02  0.8905777E-01
       -1   -1    0    0    0  501  0.00000000000E+00  0.00000000000E+00  0.61917046160E+03  0.61917046162E+03  0.50400001928E-02 0.  1.
        1   -1    0    0  501    0  0.00000000000E+00  0.00000000000E+00 -0.87054055636E+03  0.87054055637E+03  0.50400001928E-02 0. -1.
    10030    2    1    2    0    0  0.00000000000E+00  0.00000000000E+00 -0.25137009476E+03  0.14897110180E+04  0.14683500920E+04 0.  0.
        1    1    3    3  502    0 -0.25338029006E+03  0.36256928252E+03  0.46880428572E+03  0.64454287239E+03  0.50400001928E-02 0.  1.
       -1    1    3    3    0  502  0.25338029006E+03 -0.36256928252E+03 -0.72017438048E+03  0.84516814560E+03  0.50400001928E-02 0. -1.
</event>
<event>
 5   0  0.7634227E-04  0.1469743E+04  0.7818609E-02  0.8904827E-01
       -2   -1    0    0    0  501  0.00000000000E+00  0.00000000000E+00  0.59610390473E+03  0.59610390473E+03  0.25500000920E-02 0.  1.
        2   -1    0    0  501    0  0.00000000000E+00  0.00000000000E+00 -0.90594269766E+03  0.90594269767E+03  0.25500000920E-02 0. -1.
    10030    2    1    2    0    0  0.00000000000E+00  0.00000000000E+00 -0.30983879293E+03  0.15020466024E+04  0.14697428068E+04 0.  0.
        2    1    3    3  502    0 -0.49398590497E+02 -0.71474531990E+03 -0.32202123801E+03  0.78549269303E+03  0.25500000920E-02 0. -1.
       -2    1    3    3    0  502  0.49398590497E+02  0.71474531990E+03  0.12182445074E+02  0.71655390937E+03  0.25500000920E-02 0.  1.
</event>
<event>
 5   0  0.7454828E-04  0.1468246E+04  0.7818609E-02  0.8905848E-01
        2   -1    0    0  501    0  0.00000000000E+00  0.00000000000E+00  0.16791752662E+04  0.16791752662E+04  0.25500000920E-02 0. -1.
       -2   -1    0    0    0  501  0.00000000000E+00  0.00000000000E+00 -0.32095314532E+03  0.32095314533E+03  0.25500000920E-02 0.  1.
    10030    2    1    2    0    0  0.00000000000E+00  0.00000000000E+00  0.13582221209E+04  0.20001284116E+04  0.14682460056E+04 0.  0.
        3    1    3    3  502    0  0.35215502694E+03  0.43364047641E+03  0.30242797112E+02  0.55943888206E+03  0.10100000352E+00 0.  1.
       -3    1    3    3    0  502 -0.35215502694E+03 -0.43364047641E+03  0.13279793238E+04  0.14406895295E+04  0.10100000352E+00 0. -1.
</event>
<event>
 5   0  0.4084462E-04  0.1438812E+04  0.7818609E-02  0.8926194E-01
        1   -1    0    0  501    0  0.00000000000E+00  0.00000000000E+00  0.92433046729E+03  0.92433046730E+03  0.50400001928E-02 0. -1.
       -1   -1    0    0    0  501  0.00000000000E+00  0.00000000000E+00 -0.55991357320E+03  0.55991357323E+03  0.50400001928E-02 0.  1.
    10030    2    1    2    0    0  0.00000000000E+00  0.00000000000E+00  0.36441689409E+03  0.14842440405E+04  0.14388122529E+04 0.  0.
        1    1    3    3  502    0  0.88115772773E+02 -0.59039299118E+03  0.59640499114E+03  0.84381703404E+03  0.50400001928E-02 0. -1.
       -1    1    3    3    0  502 -0.88115772773E+02  0.59039299118E+03 -0.23198809705E+03  0.64042700650E+03  0.50400001928E-02 0.  1.
</event>
<event>
 5   0  0.7547580E-04  0.1495773E+04  0.7818609E-02  0.8887269E-01
        2   -1    0    0  501    0  0.00000000000E+00  0.00000000000E+00  0.15029503650E+04  0.15029503650E+04  0.25500000920E-02 0.  1.
       -2   -1    0    0    0  501  0.00000000000E+00  0.00000000000E+00 -0.37215756429E+03  0.37215756430E+03  0.25500000920E-02 0. -1.
    10030    2    1    2    0    0  0.00000000000E+00  0.00000000000E+00  0.11307928007E+04  0.18751079293E+04  0.14957731741E+04 0.  0.
        4    1    3    3  502    0 -0.52958519388E+02 -0.71808095024E+03  0.81888464145E+03  0.10904212602E+04  0.12699999809E+01 0.  1.
       -4    1    3    3    0  502  0.52958519388E+02  0.71808095024E+03  0.31190815924E+03  0.78468666904E+03  0.12699999809E+01 0. -1.
</event>
<event>
 5   0  0.3907345E-04  0.1691942E+04  0.7818609E-02  0.8765973E-01
        1   -1    0    0  501    0  0.00000000000E+00  0.00000000000E+00  0.15252404664E+04  0.15252404664E+04  0.50400001928E-02 0. -1.
       -1   -1    0    0    0  501  0.00000000000E+00  0.00000000000E+00 -0.46921599061E+03  0.46921599063E+03  0.50400001928E-02 0.  1.
    10030    2    1    2    0    0  0.00000000000E+00  0.00000000000E+00  0.10560244758E+04  0.19944564571E+04  0.16919423352E+04 0.  0.
        5    1    3    3  502    0  0.53074653853E+03  0.63801085054E+03  0.33469172093E+03  0.89486891310E+03  0.46999998093E+01 0. -1.
       -5    1    3    3    0  502 -0.53074653853E+03 -0.63801085054E+03  0.72133275490E+03  0.10995875440E+04  0.46999998093E+01 0.  1.
</event>
<event>
 5   0  0.7672251E-04  0.1533078E+04  0.7818609E-02  0.8862750E-01
        2   -1    0    0  501    0  0.00000000000E+00  0.00000000000E+00  0.19594641146E+04  0.19594641146E+04  0.25500000920E-02 0. -1.
       -2   -1    0    0    0  501  0.00000000000E+00  0.00000000000E+00 -0.29986872475E+03  0.29986872476E+03  0.25500000920E-02 0.  1.
    10030    2    1    2    0    0  0.00000000000E+00  0.00000000000E+00  0.16595953899E+04  0.22593328394E+04  0.15330779566E+04 0.  0.
        5    1    3    3  502    0  0.47348186686E+03 -0.12944253680E+03  0.16974434583E+04  0.17669965571E+04  0.46999998093E+01 0. -1.
       -5    1    3    3    0  502 -0.47348186686E+03  0.12944253680E+03 -0.37848068453E+02  0.49233628229E+03  0.46999998093E+01 0.  1.
</event>
<event>
 5   0  0.7547580E-04  0.1334055E+04  0.7818609E-02  0.9002987E-01
        2   -1    0    0  501    0  0.00000000000E+00  0.00000000000E+00  0.14888248320E+04  0.14888248320E+04  0.25500000920E-02 0.  1.
       -2   -1    0    0    0  501  0.00000000000E+00  0.00000000000E+00 -0.29884361256E+03  0.29884361257E+03  0.25500000920E-02 0. -1.
    10030    2    1    2    0    0  0.00000000000E+00  0.00000000000E+00  0.11899812195E+04  0.17876684446E+04  0.13340551582E+04 0.  0.
        4    1    3    3  502    0 -0.36233490035E+03  0.51980257665E+03  0.31568960985E+03  0.70791443082E+03  0.12699999809E+01 0.  1.
       -4    1    3    3    0  502  0.36233490035E+03 -0.51980257665E+03  0.87429160961E+03  0.10797540138E+04  0.12699999809E+01 0. -1.
</event>
<event>
 5   0  0.7454828E-04  0.1438548E+04  0.7818609E-02  0.8926378E-01
        2   -1    0    0  501    0  0.00000000000E+00  0.00000000000E+00  0.64069248809E+03  0.64069248810E+03  0.25500000920E-02 0. -1.
       -2   -1    0    0    0  501  0.00000000000E+00  0.00000000000E+00 -0.80749416489E+03  0.80749416489E+03  0.25500000920E-02 0.  1.
    10030    2    1    2    0    0  0.00000000000E+00  0.00000000000E+00 -0.16680167680E+03  0.14481866530E+04  0.14385484985E+04 0.  0.
        3    1    3    3  502    0 -0.62742105930E+03 -0.34944648171E+03 -0.12348476957E+03  0.72871018090E+03  0.10100000352E+00 0.  1.
       -3    1    3    3    0  502  0.62742105930E+03  0.34944648171E+03 -0.43316907225E+02  0.71947647209E+03  0.10100000352E+00 0. -1.
</event>
<event>
 5   0  0.7454828E-04  0.1531382E+04  0.7818609E-02  0.8863848E-01
       -2   -1    0    0    0  501  0.00000000000E+00  0.00000000000E+00  0.44993819540E+03  0.44993819541E+03  0.25500000920E-02 0.  1.
        2   -1    0    0  501    0  0.00000000000E+00  0.00000000000E+00 -0.13030299972E+04  0.13030299972E+04  0.25500000920E-02 0. -1.
    10030    2    1    2    0    0  0.00000000000E+00  0.00000000000E+00 -0.85309180177E+03  0.17529681926E+04  0.15313823370E+04 0.  0.
        3    1    3    3  502    0 -0.53943337333E+03 -0.12940378201E+03  0.17759939854E+03  0.58247339821E+03  0.10100000352E+00 0.  1.
       -3    1    3    3    0  502  0.53943337333E+03  0.12940378201E+03 -0.10306912003E+04  0.11704947944E+04  0.10100000352E+00 0. -1.
</event>
<event>
 5   0  0.7547580E-04  0.1512678E+04  0.7818609E-02  0.8876066E-01
        2   -1    0    0  501    0  0.00000000000E+00  0.00000000000E+00  0.79755752441E+03  0.79755752441E+03  0.25500000920E-02 0. -1.
       -2   -1    0    0    0  501  0.00000000000E+00  0.00000000000E+00 -0.71725076267E+03  0.71725076268E+03  0.25500000920E-02 0.  1.
    10030    2    1    2    0    0  0.00000000000E+00  0.00000000000E+00  0.80306761732E+02  0.15148082871E+04  0.15126780790E+04 0.  0.
        4    1    3    3  502    0  0.42244688377E+02 -0.91806866137E+02  0.79076481139E+03  0.79719741232E+03  0.12699999809E+01 0. -1.
       -4    1    3    3    0  502 -0.42244688377E+02  0.91806866137E+02 -0.71045804966E+03  0.71761087477E+03  0.12699999809E+01 0.  1.
</event>
<event>
 5   0  0.7454828E-04  0.1485186E+04  0.7818609E-02  0.8894364E-01
       -2   -1    0    0    0  501  0.00000000000E+00  0.00000000000E+00  0.43826544725E+03  0.43826544726E+03  0.25500000920E-02 0. -1.
        2   -1    0    0  501    0  0.00000000000E+00  0.00000000000E+00 -0.12582432788E+04  0.12582432788E+04  0.25500000920E-02 0.  1.
    10030    2    1    2    0    0  0.00000000000E+00  0.00000000000E+00 -0.81997783151E+03  0.16965087260E+04  0.14851862554E+04 0.  0.
        3    1    3    3  502    0  0.56319877178E+03  0.22701925304E+03  0.78282189025E+02  0.61225706129E+03  0.10100000352E+00 0. -1.
       -3    1    3    3    0  502 -0.56319877178E+03 -0.22701925304E+03 -0.89826002053E+03  0.10842516647E+04  0.10100000352E+00 0.  1.
</event>
<event>
 5   0  0.3907345E-04  0.1402028E+04  0.7818609E-02  0.8952352E-01
        1   -1    0    0  501    0  0.00000000000E+00  0.00000000000E+00  0.82207049089E+03  0.82207049091E+03  0.50400001928E-02 0.  1.
       -1   -1    0    0    0  501  0.00000000000E+00  0.00000000000E+00 -0.59778421996E+03  0.59778421998E+03  0.50400001928E-02 0. -1.
    10030    2    1    2    0    0  0.00000000000E+00  0.00000000000E+00  0.22428627093E+03  0.14198547109E+04  0.14020281983E+04 0.  0.
        5    1    3    3  502    0  0.45813845602E+03  0.33931287711E+02  0.64836247457E+03  0.79463083605E+03  0.46999998093E+01 0.  1.
       -5    1    3    3    0  502 -0.45813845602E+03 -0.33931287711E+02 -0.42407620364E+03  0.62522387484E+03  0.46999998093E+01 0. -1.
</event>
<event>
 5   0  0.7359897E-04  0.1490467E+04  0.7818609E-02  0.8890817E-01
       -2   -1    0    0    0  501  0.00000000000E+00  0.00000000000E+00  0.80317635765E+03  0.80317635765E+03  0.25500000920E-02 0. -1.
        2   -1    0    0  501    0  0.00000000000E+00  0.00000000000E+00 -0.69147074025E+03  0.69147074025E+03  0.25500000920E-02 0.  1.
    10030    2    1    2    0    0  0.00000000000E+00  0.00000000000E+00  0.11170561741E+03  0.14946470979E+04  0.14904669746E+04 0.  0.
        1    1    3    3  502    0 -0.26403046564E+03 -0.78687154127E+02  0.75023194111E+03  0.79921944452E+03  0.50400001928E-02 0. -1.
       -1    1    3    3    0  502  0.26403046564E+03  0.78687154127E+02 -0.63852632370E+03  0.69542765339E+03  0.50400001928E-02 0.  1.
</event>
<event>
 5   0  0.4086710E-04  0.1491056E+04  0.7818609E-02  0.8890422E-01
        1   -1    0    0  501    0  0.00000000000E+00  0.00000000000E+00  0.14093762261E+04  0.14093762261E+04  0.50400001928E-02 0.  1.
       -1   -1    0    0    0  501  0.00000000000E+00  0.00000000000E+00 -0.39436743364E+03  0.39436743367E+03  0.50400001928E-02 0. -1.
    10030    2    1    2    0    0  0.00000000000E+00  0.00000000000E+00  0.10150087924E+04  0.18037436597E+04  0.14910561161E+04 0.  0.
        3    1    3    3  502    0 -0.49021829766E+02 -0.63358181595E+03  0.35899439578E+02  0.63648867803E+03  0.10100000352E+00 0. -1.
       -3    1    3    3    0  502  0.49021829766E+02  0.63358181595E+03  0.97910935284E+03  0.11672549817E+04  0.10100000352E+00 0.  1.
</event>
<event>
 5   0  0.7547580E-04  0.1516209E+04  0.7818609E-02  0.8873745E-01
        2   -1    0    0  501    0  0.00000000000E+00  0.00000000000E+00  0.18689294616E+04  0.18689294616E+04  0.25500000920E-02 0. -1.
       -2   -1    0    0    0  501  0.00000000000E+00  0.00000000000E+00 -0.30751413739E+03  0.30751413740E+03  0.25500000920E-02 0.  1.
    10030    2    1    2    0    0  0.00000000000E+00  0.00000000000E+00  0.15614153242E+04  0.21764435990E+04  0.15162087340E+04 0.  0.
        4    1    3    3  502    0 -0.59067454721E+03 -0.74636862446E+02  0.14543817891E+04  0.15715263547E+04  0.12699999809E+01 0. -1.
       -4    1    3    3    0  502  0.59067454721E+03  0.74636862446E+02  0.10703353508E+03  0.60491724433E+03  0.12699999809E+01 0.  1.
</event>
<event>
 5   0  0.7547580E-04  0.1500643E+04  0.7818609E-02  0.8884025E-01
       -2   -1    0    0    0  501  0.00000000000E+00  0.00000000000E+00  0.57645093364E+03  0.57645093364E+03  0.25500000920E-02 0. -1.
        2   -1    0    0  501    0  0.00000000000E+00  0.00000000000E+00 -0.97663554934E+03  0.97663554935E+03  0.25500000920E-02 0.  1.
    10030    2    1    2    0    0  0.00000000000E+00  0.00000000000E+00 -0.40018461571E+03  0.15530864830E+04  0.15006431611E+04 0.  0.
        4    1    3    3  502    0 -0.64663035226E+03  0.25996987666E+02  0.19288003854E+03  0.67528584910E+03  0.12699999809E+01 0. -1.
       -4    1    3    3    0  502  0.64663035226E+03 -0.25996987666E+02 -0.59306465425E+03  0.87780063389E+03  0.12699999809E+01 0.  1.
</event>
<event>
 5   0  0.2800375E-04  0.1484060E+04  0.7818609E-02  0.8895122E-01
       -3   -1    0    0    0  501  0.00000000000E+00  0.00000000000E+00  0.94971932745E+03  0.94971933282E+03  0.10100000352E+00 0.  1.
        3   -1    0    0  501    0  0.00000000000E+00  0.00000000000E+00 -0.57975934963E+03  0.57975935842E+03  0.10100000352E+00 0. -1.
    10030    2    1    2    0    0  0.00000000000E+00  0.00000000000E+00  0.36995997783E+03  0.15294786912E+04  0.14840602015E+04 0.  0.
        1    1    3    3  502    0 -0.39797038865E+03  0.10818593416E+02 -0.46037182461E+03  0.60863756795E+03  0.50400001928E-02 0. -1.
       -1    1    3    3    0  502  0.39797038865E+03 -0.10818593416E+02  0.83033180243E+03  0.92084112330E+03  0.50400001928E-02 0.  1.
</event>
<event>
 5   0  0.7547580E-04  0.1493274E+04  0.7818609E-02  0.8888938E-01
        2   -1    0    0  501    0  0.00000000000E+00  0.00000000000E+00  0.20762423084E+04  0.20762423084E+04  0.25500000920E-02 0.  1.
       -2   -1    0    0    0  501  0.00000000000E+00  0.00000000000E+00 -0.26849792605E+03  0.26849792606E+03  0.25500000920E-02 0. -1.
    10030    2    1    2    0    0  0.00000000000E+00  0.00000000000E+00  0.18077443823E+04  0.23447402344E+04  0.14932739250E+04 0.  0.
        4    1    3    3  502    0  0.51043424633E+02  0.74484617512E+03  0.89132186397E+03  0.11626940844E+04  0.12699999809E+01 0. -1.
       -4    1    3    3    0  502 -0.51043424633E+02 -0.74484617512E+03  0.91642251836E+03  0.11820461500E+04  0.12699999809E+01 0.  1.
</event>
<event>
 5   0  0.7359897E-04  0.1475658E+04  0.7818609E-02  0.8900804E-01
        2   -1    0    0  501    0  0.00000000000E+00  0.00000000000E+00  0.44202728709E+03  0.44202728709E+03  0.25500000920E-02 0. -1.
       -2   -1    0    0    0  501  0.00000000000E+00  0.00000000000E+00 -0.12315788322E+04  0.12315788322E+04  0.25500000920E-02 0.  1.
    10030    2    1    2    0    0  0.00000000000E+00  0.00000000000E+00 -0.78955154510E+03  0.16736061193E+04  0.14756577517E+04 0.  0.
        1    1    3    3  502    0  0.30736888017E+03  0.46025557749E+03  0.15861210139E+03  0.57573311859E+03  0.50400001928E-02 0. -1.
       -1    1    3    3    0  502 -0.30736888017E+03 -0.46025557749E+03 -0.94816364649E+03  0.10978730007E+04  0.50400001928E-02 0.  1.
</event>
<event>
 5   0  0.4058874E-04  0.1496938E+04  0.7818609E-02  0.8886492E-01
        1   -1    0    0  501    0  0.00000000000E+00  0.00000000000E+00  0.11198757610E+04  0.11198757610E+04  0.50400001928E-02 0.  1.
       -1   -1    0    0    0  501  0.00000000000E+00  0.00000000000E+00 -0.50023920137E+03  0.50023920140E+03  0.50400001928E-02 0. -1.
    10030    2    1    2    0    0  0.00000000000E+00  0.00000000000E+00  0.61963655960E+03  0.16201149624E+04  0.14969378829E+04 0.  0.
        4    1    3    3  502    0 -0.59426961717E+03 -0.41842310762E+03  0.50333231945E+03  0.88406974362E+03  0.12699999809E+01 0. -1.
       -4    1    3    3    0  502  0.59426961717E+03  0.41842310762E+03  0.11630424015E+03  0.73604521876E+03  0.12699999809E+01 0.  1.
</event>
<event>
 5   0  0.2800375E-04  0.1464905E+04  0.7818609E-02  0.8908132E-01
       -3   -1    0    0    0  501  0.00000000000E+00  0.00000000000E+00  0.38152310088E+03  0.38152311425E+03  0.10100000352E+00 0. -1.
        3   -1    0    0  501    0  0.00000000000E+00  0.00000000000E+00 -0.14061700595E+04  0.14061700631E+04  0.10100000352E+00 0.  1.
    10030    2    1    2    0    0  0.00000000000E+00  0.00000000000E+00 -0.10246469586E+04  0.17876931773E+04  0.14649046066E+04 0.  0.
        3    1    3    3  502    0  0.18110175687E+03  0.37319733079E+03  0.22435865074E+03  0.47160461026E+03  0.10100000352E+00 0. -1.
       -3    1    3    3    0  502 -0.18110175687E+03 -0.37319733079E+03 -0.12490056093E+04  0.13160885671E+04  0.10100000352E+00 0.  1.
</event>
<event>
 5   0  0.3907345E-04  0.1493137E+04  0.7818609E-02  0.8889030E-01
        1   -1    0    0  501    0  0.00000000000E+00  0.00000000000E+00  0.13195996562E+04  0.13195996562E+04  0.50400001928E-02 0. -1.
       -1   -1    0    0    0  501  0.00000000000E+00  0.00000000000E+00 -0.42237373295E+03  0.42237373298E+03  0.50400001928E-02 0.  1.
    10030    2    1    2    0    0  0.00000000000E+00  0.00000000000E+00  0.89722592326E+03  0.17419733892E+04  0.14931366084E+04 0.  0.
        5    1    3    3  502    0 -0.50009731490E+03  0.24374352014E+03  0.10294072562E+04  0.11701323075E+04  0.46999998093E+01 0. -1.
       -5    1    3    3    0  502  0.50009731490E+03 -0.24374352014E+03 -0.13218133289E+03  0.57184108172E+03  0.46999998093E+01 0.  1.
</event>
<event>
 5   0  0.7547580E-04  0.1435274E+04  0.7818609E-02  0.8928674E-01
       -2   -1    0    0    0  501  0.00000000000E+00  0.00000000000E+00  0.13507555572E+04  0.13507555572E+04  0.25500000920E-02 0. -1.
        2   -1    0    0  501    0  0.00000000000E+00  0.00000000000E+00 -0.38127038073E+03  0.38127038074E+03  0.25500000920E-02 0.  1.
    10030    2    1    2    0    0  0.00000000000E+00  0.00000000000E+00  0.96948517646E+03  0.17320259379E+04  0.14352743091E+04 0.  0.
        4    1    3    3  502    0  0.90510172928E+02 -0.60942048854E+03  0.92881577395E+03  0.11145787447E+04  0.12699999809E+01 0. -1.
       -4    1    3    3    0  502 -0.90510172928E+02  0.60942048854E+03  0.40669402509E+02  0.61744719325E+03  0.12699999809E+01 0.  1.
</event>
<event>
 5   0  0.7359897E-04  0.1498731E+04  0.7818609E-02  0.8885298E-01
        2   -1    0    0  501    0  0.00000000000E+00  0.00000000000E+00  0.15526022307E+04  0.15526022307E+04  0.25500000920E-02 0.  1.
       -2   -1    0    0    0  501  0.00000000000E+00  0.00000000000E+00 -0.36168203624E+03  0.36168203625E+03  0.25500000920E-02 0. -1.
    10030    2    1    2    0    0  0.00000000000E+00  0.00000000000E+00  0.11909201945E+04  0.19142842670E+04  0.14987305779E+04 0.  0.
        1    1    3    3  502    0  0.61489662029E+03 -0.20391659665E+03  0.10765495734E+04  0.12564389424E+04  0.50400001928E-02 0. -1.
       -1    1    3    3    0  502 -0.61489662029E+03  0.20391659665E+03  0.11437062109E+03  0.65784532455E+03  0.50400001928E-02 0.  1.
</event>
<event>
 5   0  0.7634227E-04  0.1503046E+04  0.7818609E-02  0.8882430E-01
       -2   -1    0    0    0  501  0.00000000000E+00  0.00000000000E+00  0.42462415909E+03  0.42462415909E+03  0.25500000920E-02 0.  1.
        2   -1    0    0  501    0  0.00000000000E+00  0.00000000000E+00 -0.13300867588E+04  0.13300867588E+04  0.25500000920E-02 0. -1.
    10030    2    1    2    0    0  0.00000000000E+00  0.00000000000E+00 -0.90546259974E+03  0.17547109179E+04  0.15030462022E+04 0.  0.
        2    1    3    3  502    0 -0.66868954358E+03 -0.27585627844E+03 -0.21477871269E+03  0.75456761625E+03  0.25500000920E-02 0.  1.
       -2    1    3    3    0  502  0.66868954358E+03  0.27585627844E+03 -0.69068388704E+03  0.10001433017E+04  0.25500000920E-02 0. -1.
</event>
<event>
 5   0  0.7672251E-04  0.1408077E+04  0.7818609E-02  0.8947993E-01
        2   -1    0    0  501    0  0.00000000000E+00  0.00000000000E+00  0.46169438251E+03  0.46169438251E+03  0.25500000920E-02 0.  1.
       -2   -1    0    0    0  501  0.00000000000E+00  0.00000000000E+00 -0.10735893737E+04  0.10735893737E+04  0.25500000920E-02 0. -1.
    10030    2    1    2    0    0  0.00000000000E+00  0.00000000000E+00 -0.61189499123E+03  0.15352837563E+04  0.14080769624E+04 0.  0.
        5    1    3    3  502    0 -0.25538880124E+03  0.63393314644E+03 -0.49019063341E+03  0.84107289876E+03  0.46999998093E+01 0. -1.
       -5    1    3    3    0  502  0.25538880124E+03 -0.63393314644E+03 -0.12170435782E+03  0.69421085749E+03  0.46999998093E+01 0.  1.
</event>
<event>
 5   0  0.7634227E-04  0.1485485E+04  0.7818609E-02  0.8894163E-01
       -2   -1    0    0    0  501  0.00000000000E+00  0.00000000000E+00  0.37925947953E+03  0.37925947954E+03  0.25500000920E-02 0. -1.
        2   -1    0    0  501    0  0.00000000000E+00  0.00000000000E+00 -0.14545874712E+04  0.14545874712E+04  0.25500000920E-02 0.  1.
    10030    2    1    2    0    0  0.00000000000E+00  0.00000000000E+00 -0.10753279917E+04  0.18338469507E+04  0.14854845503E+04 0.  0.
        2    1    3    3  502    0  0.43605443558E+03  0.55525656315E+03 -0.25288833819E+03  0.74993721958E+03  0.25500000920E-02 0. -1.
       -2    1    3    3    0  502 -0.43605443558E+03 -0.55525656315E+03 -0.82243965348E+03  0.10839097312E+04  0.25500000920E-02 0.  1.
</event>
<event>
 5   0  0.4086710E-04  0.1500119E+04  0.7818609E-02  0.8884374E-01
       -1   -1    0    0    0  501  0.00000000000E+00  0.00000000000E+00  0.60504894326E+03  0.60504894328E+03  0.50400001928E-02 0. -1.
        1   -1    0    0  501    0  0.00000000000E+00  0.00000000000E+00 -0.92982420515E+03  0.92982420516E+03  0.50400001928E-02 0.  1.
    10030    2    1    2    0    0  0.00000000000E+00  0.00000000000E+00 -0.32477526189E+03  0.15348731484E+04  0.15001188657E+04 0.  0.
        3    1    3    3  502    0  0.61828005344E+03  0.21568025268E+03  0.21187495050E+03  0.68824356207E+03  0.10100000352E+00 0. -1.
       -3    1    3    3    0  502 -0.61828005344E+03 -0.21568025268E+03 -0.53665021238E+03  0.84662958638E+03  0.10100000352E+00 0.  1.
</event>
<event>
 5   0  0.7359897E-04  0.1481637E+04  0.7818609E-02  0.8896757E-01
       -2   -1    0    0    0  501  0.00000000000E+00  0.00000000000E+00  0.10187875330E+04  0.10187875330E+04  0.25500000920E-02 0. -1.
        2   -1    0    0  501    0  0.00000000000E+00  0.00000000000E+00 -0.53869147408E+03  0.53869147408E+03  0.25500000920E-02 0.  1.
    10030    2    1    2    0    0  0.00000000000E+00  0.00000000000E+00  0.48009605893E+03  0.15574790071E+04  0.14816371458E+04 0.  0.
        1    1    3    3  502    0  0.23106953405E+03 -0.23725097841E+03  0.93663828228E+03  0.99346486006E+03  0.50400001928E-02 0. -1.
       -1    1    3    3    0  502 -0.23106953405E+03  0.23725097841E+03 -0.45654222335E+03  0.56401414703E+03  0.50400001928E-02 0.  1.
</event>
<event>
 5   0  0.4015204E-04  0.1585123E+04  0.7818609E-02  0.8829740E-01
        1   -1    0    0  501    0  0.00000000000E+00  0.00000000000E+00  0.22616056185E+04  0.22616056185E+04  0.50400001928E-02 0.  1.
       -1   -1    0    0    0  501  0.00000000000E+00  0.00000000000E+00 -0.27774676626E+03  0.27774676631E+03  0.50400001928E-02 0. -1.
    10030    2    1    2    0    0  0.00000000000E+00  0.00000000000E+00  0.19838588522E+04  0.25393523848E+04  0.15851228939E+04 0.  0.
        2    1    3    3  502    0  0.20749679464E+03 -0.26425691728E+03  0.21418721292E+04  0.21680643109E+04  0.25500000920E-02 0.  1.
       -2    1    3    3    0  502 -0.20749679464E+03  0.26425691728E+03 -0.15801327701E+03  0.37128807392E+03  0.25500000920E-02 0. -1.
</event>
<event>
 5   0  0.4058874E-04  0.1448572E+04  0.7818609E-02  0.8919391E-01
        1   -1    0    0  501    0  0.00000000000E+00  0.00000000000E+00  0.89869922938E+03  0.89869922939E+03  0.50400001928E-02 0.  1.
       -1   -1    0    0    0  501  0.00000000000E+00  0.00000000000E+00 -0.58372142382E+03  0.58372142384E+03  0.50400001928E-02 0. -1.
    10030    2    1    2    0    0  0.00000000000E+00  0.00000000000E+00  0.31497780556E+03  0.14824206532E+04  0.14485717018E+04 0.  0.
        4    1    3    3  502    0 -0.49267533657E+03 -0.22730921860E+03  0.64848111563E+03  0.84553405512E+03  0.12699999809E+01 0.  1.
       -4    1    3    3    0  502  0.49267533657E+03  0.22730921860E+03 -0.33350331007E+03  0.63688659811E+03  0.12699999809E+01 0. -1.
</event>
<event>
 5   0  0.7454828E-04  0.1490350E+04  0.7818609E-02  0.8890895E-01
        2   -1    0    0  501    0  0.00000000000E+00  0.00000000000E+00  0.15110524141E+04  0.15110524141E+04  0.25500000920E-02 0.  1.
       -2   -1    0    0    0  501  0.00000000000E+00  0.00000000000E+00 -0.36748305086E+03  0.36748305087E+03  0.25500000920E-02 0. -1.
    10030    2    1    2    0    0  0.00000000000E+00  0.00000000000E+00  0.11435693632E+04  0.18785354649E+04  0.14903504972E+04 0.  0.
        3    1    3    3  502    0 -0.62071615339E+03  0.40076844283E+03  0.69387593545E+03  0.10135914916E+04  0.10100000352E+00 0.  1.
       -3    1    3    3    0  502  0.62071615339E+03 -0.40076844283E+03  0.44969342776E+03  0.86494397334E+03  0.10100000352E+00 0. -1.
</event>
<event>
 5   0  0.7672251E-04  0.1502199E+04  0.7818609E-02  0.8882992E-01
        2   -1    0    0  501    0  0.00000000000E+00  0.00000000000E+00  0.75867923304E+03  0.75867923305E+03  0.25500000920E-02 0. -1.
       -2   -1    0    0    0  501  0.00000000000E+00  0.00000000000E+00 -0.74359556150E+03  0.74359556150E+03  0.25500000920E-02 0.  1.
    10030    2    1    2    0    0  0.00000000000E+00  0.00000000000E+00  0.15083671547E+02  0.15022747946E+04  0.15021990684E+04 0.  0.
        5    1    3    3  502    0 -0.71675130335E+03  0.19969228337E+03  0.11010909155E+03  0.75216722937E+03  0.46999998093E+01 0.  1.
       -5    1    3    3    0  502  0.71675130335E+03 -0.19969228337E+03 -0.95025420004E+02  0.75010756518E+03  0.46999998093E+01 0. -1.
</event>
<event>
 5   0  0.2800375E-04  0.1544801E+04  0.7818609E-02  0.8855196E-01
        3   -1    0    0  501    0  0.00000000000E+00  0.00000000000E+00  0.18531171583E+04  0.18531171611E+04  0.10100000352E+00 0.  1.
       -3   -1    0    0    0  501  0.00000000000E+00  0.00000000000E+00 -0.32194519857E+03  0.32194521442E+03  0.10100000352E+00 0. -1.
    10030    2    1    2    0    0  0.00000000000E+00  0.00000000000E+00  0.15311719598E+04  0.21750623755E+04  0.15448005590E+04 0.  0.
        1    1    3    3  502    0  0.68610363517E+03  0.25118102708E+03  0.11183486130E+04  0.13358644119E+04  0.50400001928E-02 0. -1.
       -1    1    3    3    0  502 -0.68610363517E+03 -0.25118102708E+03  0.41282334672E+03  0.83919796364E+03  0.50400001928E-02 0.  1.
</event>
<event>
 5   0  0.7672251E-04  0.1511038E+04  0.7818609E-02  0.8877146E-01
       -2   -1    0    0    0  501  0.00000000000E+00  0.00000000000E+00  0.70733522410E+03  0.70733522411E+03  0.25500000920E-02 0.  1.
        2   -1    0    0  501    0  0.00000000000E+00  0.00000000000E+00 -0.80698473862E+03  0.80698473862E+03  0.25500000920E-02 0. -1.
    10030    2    1    2    0    0  0.00000000000E+00  0.00000000000E+00 -0.99649514512E+02  0.15143199627E+04  0.15110376977E+04 0.  0.
        5    1    3    3  502    0  0.60269174466E+03  0.40587152101E+03  0.15754888747E+03  0.74351380121E+03  0.46999998093E+01 0.  1.
       -5    1    3    3    0  502 -0.60269174466E+03 -0.40587152101E+03 -0.25719840198E+03  0.77080616152E+03  0.46999998093E+01 0. -1.
</event>
<event>
 5   0  0.7359897E-04  0.1449472E+04  0.7818609E-02  0.8918767E-01
       -2   -1    0    0    0  501  0.00000000000E+00  0.00000000000E+00  0.27401179330E+03  0.27401179332E+03  0.25500000920E-02 0. -1.
        2   -1    0    0  501    0  0.00000000000E+00  0.00000000000E+00 -0.19168600075E+04  0.19168600076E+04  0.25500000920E-02 0.  1.
    10030    2    1    2    0    0  0.00000000000E+00  0.00000000000E+00 -0.16428482142E+04  0.21908718009E+04  0.14494719703E+04 0.  0.
        1    1    3    3  502    0 -0.84379778386E+01 -0.97252182699E+02  0.26402935853E+03  0.28149722681E+03  0.50400001928E-02 0. -1.
       -1    1    3    3    0  502  0.84379778386E+01  0.97252182699E+02 -0.19068775728E+04  0.19093745741E+04  0.50400001928E-02 0.  1.
</event>
<event>
 5   0  0.4058874E-04  0.1487229E+04  0.7818609E-02  0.8892990E-01
       -1   -1    0    0    0  501  0.00000000000E+00  0.00000000000E+00  0.44842663577E+03  0.44842663580E+03  0.50400001928E-02 0. -1.
        1   -1    0    0  501    0  0.00000000000E+00  0.00000000000E+00 -0.12331176557E+04  0.12331176557E+04  0.50400001928E-02 0.  1.
    10030    2    1    2    0    0  0.00000000000E+00  0.00000000000E+00 -0.78469101995E+03  0.16815442915E+04  0.14872293729E+04 0.  0.
        4    1    3    3  502    0 -0.41191416599E+03 -0.27630760432E+03  0.23406426752E+03  0.54845862795E+03  0.12699999809E+01 0. -1.
       -4    1    3    3    0  502  0.41191416599E+03  0.27630760432E+03 -0.10187552875E+04  0.11330856636E+04  0.12699999809E+01 0.  1.
</event>
<event>
 5   0  0.3907345E-04  0.1503490E+04  0.7818609E-02  0.8882136E-01
        1   -1    0    0  501    0  0.00000000000E+00  0.00000000000E+00  0.15610898842E+04  0.15610898842E+04  0.50400001928E-02 0. -1.
       -1   -1    0    0    0  501  0.00000000000E+00  0.00000000000E+00 -0.36200374802E+03  0.36200374806E+03  0.50400001928E-02 0.  1.
    10030    2    1    2    0    0  0.00000000000E+00  0.00000000000E+00  0.11990861362E+04  0.19230936323E+04  0.15034897926E+04 0.  0.
        5    1    3    3  502    0 -0.57879279909E+03 -0.47663880496E+03  0.66857399150E+03  0.10045889342E+04  0.46999998093E+01 0. -1.
       -5    1    3    3    0  502  0.57879279909E+03  0.47663880496E+03  0.53051214469E+03  0.91850469804E+03  0.46999998093E+01 0.  1.
</event>
<event>
 5   0  0.7672251E-04  0.1412323E+04  0.7818609E-02  0.8944946E-01
       -2   -1    0    0    0  501  0.00000000000E+00  0.00000000000E+00  0.25994000886E+03  0.25994000887E+03  0.25500000920E-02 0. -1.
        2   -1    0    0  501    0  0.00000000000E+00  0.00000000000E+00 -0.19183823921E+04  0.19183823921E+04  0.25500000920E-02 0.  1.
    10030    2    1    2    0    0  0.00000000000E+00  0.00000000000E+00 -0.16584423833E+04  0.21783224010E+04  0.14123233851E+04 0.  0.
        5    1    3    3  502    0 -0.29130464260E+02 -0.49770600364E+03 -0.57910114951E+02  0.50193178961E+03  0.46999998093E+01 0. -1.
       -5    1    3    3    0  502  0.29130464260E+02  0.49770600364E+03 -0.16005322683E+04  0.16763906114E+04  0.46999998093E+01 0.  1.
</event>
<event>
 5   0  0.7634227E-04  0.1405040E+04  0.7818609E-02  0.8950178E-01
        2   -1    0    0  501    0  0.00000000000E+00  0.00000000000E+00  0.61686283900E+03  0.61686283901E+03  0.25500000920E-02 0.  1.
       -2   -1    0    0    0  501  0.00000000000E+00  0.00000000000E+00 -0.80007149238E+03  0.80007149239E+03  0.25500000920E-02 0. -1.
    10030    2    1    2    0    0  0.00000000000E+00  0.00000000000E+00 -0.18320865338E+03  0.14169343314E+04  0.14050400310E+04 0.  0.
        2    1    3    3  502    0  0.21213766834E+03  0.61798493141E+03 -0.35191074220E+03  0.74212460966E+03  0.25500000920E-02 0. -1.
       -2    1    3    3    0  502 -0.21213766834E+03 -0.61798493141E+03  0.16870208882E+03  0.67480972174E+03  0.25500000920E-02 0.  1.
</event>
<event>
 5   0  0.7454828E-04  0.1428602E+04  0.7818609E-02  0.8933371E-01
        2   -1    0    0  501    0  0.00000000000E+00  0.00000000000E+00  0.10250914837E+04  0.10250914837E+04  0.25500000920E-02 0.  1.
       -2   -1    0    0    0  501  0.00000000000E+00  0.00000000000E+00 -0.49773718752E+03  0.49773718753E+03  0.25500000920E-02 0. -1.
    10030    2    1    2    0    0  0.00000000000E+00  0.00000000000E+00  0.52735429619E+03  0.15228286712E+04  0.14286023268E+04 0.  0.
        3    1    3    3  502    0  0.70760609414E+03  0.25028216498E+02  0.36420173121E+03  0.79622591474E+03  0.10100000352E+00 0.  1.
       -3    1    3    3    0  502 -0.70760609414E+03 -0.25028216498E+02  0.16315256498E+03  0.72660275650E+03  0.10100000352E+00 0. -1.
</event>
<event>
 5   0  0.4084462E-04  0.1429603E+04  0.7818609E-02  0.8932665E-01
       -1   -1    0    0    0  501  0.00000000000E+00  0.00000000000E+00  0.46944565647E+03  0.46944565650E+03  0.50400001928E-02 0.  1.
        1   -1    0    0  501    0  0.00000000000E+00  0.00000000000E+00 -0.10883921849E+04  0.10883921849E+04  0.50400001928E-02 0. -1.
    10030    2    1    2    0    0  0.00000000000E+00  0.00000000000E+00 -0.61894652844E+03  0.15578378414E+04  0.14296027193E+04 0.  0.
        1    1    3    3  502    0 -0.12475921132E+03  0.68024384502E+03 -0.50635773231E+03  0.85714333842E+03  0.50400001928E-02 0. -1.
       -1    1    3    3    0  502  0.12475921132E+03 -0.68024384502E+03 -0.11258879613E+03  0.70069450300E+03  0.50400001928E-02 0.  1.
</event>
<event>
 5   0  0.7454828E-04  0.1478778E+04  0.7818609E-02  0.8898689E-01
        2   -1    0    0  501    0  0.00000000000E+00  0.00000000000E+00  0.74472633094E+03  0.74472633095E+03  0.25500000920E-02 0. -1.
       -2   -1    0    0    0  501  0.00000000000E+00  0.00000000000E+00 -0.73409019263E+03  0.73409019263E+03  0.25500000920E-02 0.  1.
    10030    2    1    2    0    0  0.00000000000E+00  0.00000000000E+00  0.10636138313E+02  0.14788165236E+04  0.14787782738E+04 0.  0.
        3    1    3    3  502    0 -0.14501382961E+03 -0.72373965137E+03  0.48541771455E+02  0.73971914098E+03  0.10100000352E+00 0.  1.
       -3    1    3    3    0  502  0.14501382961E+03  0.72373965137E+03 -0.37905633142E+02  0.73909738261E+03  0.10100000352E+00 0. -1.
</event>
<event>
 5   0  0.7672251E-04  0.1543968E+04  0.7818609E-02  0.8855730E-01
       -2   -1    0    0    0  501  0.00000000000E+00  0.00000000000E+00  0.49880418807E+03  0.49880418808E+03  0.25500000920E-02 0.  1.
        2   -1    0    0  501    0  0.00000000000E+00  0.00000000000E+00 -0.11947761994E+04  0.11947761994E+04  0.25500000920E-02 0. -1.
    10030    2    1    2    0    0  0.00000000000E+00  0.00000000000E+00 -0.69597201133E+03  0.16935803875E+04  0.15439680982E+04 0.  0.
        5    1    3    3  502    0 -0.40156165104E+03  0.22777853700E+03 -0.10266500696E+04  0.11256852477E+04  0.46999998093E+01 0. -1.
       -5    1    3    3    0  502  0.40156165104E+03 -0.22777853700E+03  0.33067805830E+03  0.56789513974E+03  0.46999998093E+01 0.  1.
</event>
<event>
 5   0  0.4084462E-04  0.1370523E+04  0.7818609E-02  0.8975436E-01
       -1   -1    0    0    0  501  0.00000000000E+00  0.00000000000E+00  0.45286116153E+03  0.45286116156E+03  0.50400001928E-02 0. -1.
        1   -1    0    0  501    0  0.00000000000E+00  0.00000000000E+00 -0.10369250923E+04  0.10369250924E+04  0.50400001928E-02 0.  1.
    10030    2    1    2    0    0  0.00000000000E+00  0.00000000000E+00 -0.58406393082E+03  0.14897862539E+04  0.13705226766E+04 0.  0.
        1    1    3    3  502    0  0.17631043952E+03  0.50012182608E+03  0.17975984217E+03  0.55992929276E+03  0.50400001928E-02 0. -1.
       -1    1    3    3    0  502 -0.17631043952E+03 -0.50012182608E+03 -0.76382377299E+03  0.92985696116E+03  0.50400001928E-02 0.  1.
</event>
<event>
 5   0  0.4015204E-04  0.1485670E+04  0.7818609E-02  0.8894039E-01
       -1   -1    0    0    0  501  0.00000000000E+00  0.00000000000E+00  0.52701525988E+03  0.52701525990E+03  0.50400001928E-02 0.  1.
        1   -1    0    0  501    0  0.00000000000E+00  0.00000000000E+00 -0.10470356680E+04  0.10470356680E+04  0.50400001928E-02 0. -1.
    10030    2    1    2    0    0  0.00000000000E+00  0.00000000000E+00 -0.52002040815E+03  0.15740509279E+04  0.14856699159E+04 0.  0.
        2    1    3    3  502    0  0.95847895782E+02  0.71029456089E+03 -0.46681038554E+03  0.85534619799E+03  0.25500000920E-02 0. -1.
       -2    1    3    3    0  502 -0.95847895782E+02 -0.71029456089E+03 -0.53210022618E+02  0.71870472996E+03  0.25500000920E-02 0.  1.
</event>
<event>
 5   0  0.7547580E-04  0.1514447E+04  0.7818609E-02  0.8874902E-01
        2   -1    0    0  501    0  0.00000000000E+00  0.00000000000E+00  0.18872741130E+04  0.18872741130E+04  0.25500000920E-02 0. -1.
       -2   -1    0    0    0  501  0.00000000000E+00  0.00000000000E+00 -0.30381784985E+03  0.30381784986E+03  0.25500000920E-02 0.  1.
    10030    2    1    2    0    0  0.00000000000E+00  0.00000000000E+00  0.15834562631E+04  0.21910919628E+04  0.15144471771E+04 0.  0.
        4    1    3    3  502    0  0.27642585036E+03  0.55559881455E+03  0.16393878550E+03  0.64185577178E+03  0.12699999809E+01 0.  1.
       -4    1    3    3    0  502 -0.27642585036E+03 -0.55559881455E+03  0.14195174776E+04  0.15492361911E+04  0.12699999809E+01 0. -1.
</event>
<event>
 5   0  0.7547580E-04  0.1525095E+04  0.7818609E-02  0.8867934E-01
       -2   -1    0    0    0  501  0.00000000000E+00  0.00000000000E+00  0.53775145029E+03  0.53775145030E+03  0.25500000920E-02 0. -1.
        2   -1    0    0  501    0  0.00000000000E+00  0.00000000000E+00 -0.10813148971E+04  0.10813148971E+04  0.25500000920E-02 0.  1.
    10030    2    1    2    0    0  0.00000000000E+00  0.00000000000E+00 -0.54356344680E+03  0.16190663474E+04  0.15250949533E+04 0.  0.
        4    1    3    3  502    0 -0.17584374993E+03 -0.61939803571E+03 -0.70549093858E+03  0.95514084215E+03  0.12699999809E+01 0.  1.
       -4    1    3    3    0  502  0.17584374993E+03  0.61939803571E+03  0.16192749178E+03  0.66392550525E+03  0.12699999809E+01 0. -1.
</event>
<event>
 5   0  0.7634227E-04  0.1499655E+04  0.7818609E-02  0.8884682E-01
       -2   -1    0    0    0  501  0.00000000000E+00  0.00000000000E+00  0.45122782012E+03  0.45122782012E+03  0.25500000920E-02 0. -1.
        2   -1    0    0  501    0  0.00000000000E+00  0.00000000000E+00 -0.12460255274E+04  0.12460255274E+04  0.25500000920E-02 0.  1.
    10030    2    1    2    0    0  0.00000000000E+00  0.00000000000E+00 -0.79479770730E+03  0.16972533475E+04  0.14996551371E+04 0.  0.
        2    1    3    3  502    0  0.55578661326E+02 -0.49201718009E+03  0.23988640210E+03  0.55019576427E+03  0.25500000920E-02 0. -1.
       -2    1    3    3    0  502 -0.55578661326E+02  0.49201718009E+03 -0.10346841094E+04  0.11470575833E+04  0.25500000920E-02 0.  1.
</event>
<event>
 5   0  0.7359897E-04  0.1504716E+04  0.7818609E-02  0.8881323E-01
       -2   -1    0    0    0  501  0.00000000000E+00  0.00000000000E+00  0.57475371597E+03  0.57475371598E+03  0.25500000920E-02 0.  1.
        2   -1    0    0  501    0  0.00000000000E+00  0.00000000000E+00 -0.98484404168E+03  0.98484404168E+03  0.25500000920E-02 0. -1.
    10030    2    1    2    0    0  0.00000000000E+00  0.00000000000E+00 -0.41009032571E+03  0.15595977577E+04  0.15047162824E+04 0.  0.
        1    1    3    3  502    0  0.10110196508E+03  0.44946690095E+03  0.41146083665E+03  0.61769096036E+03  0.50400001928E-02 0.  1.
       -1    1    3    3    0  502 -0.10110196508E+03 -0.44946690095E+03 -0.82155116236E+03  0.94190679730E+03  0.50400001928E-02 0. -1.
</event>
<event>
 5   0  0.7547580E-04  0.1486252E+04  0.7818609E-02  0.8893647E-01
        2   -1    0    0  501    0  0.00000000000E+00  0.00000000000E+00  0.98225994045E+03  0.98225994045E+03  0.25500000920E-02 0. -1.
       -2   -1    0    0    0  501  0.00000000000E+00  0.00000000000E+00 -0.56220991643E+03  0.56220991643E+03  0.25500000920E-02 0.  1.
    10030    2    1    2    0    0  0.00000000000E+00  0.00000000000E+00  0.42005002402E+03  0.15444698569E+04  0.14862520365E+04 0.  0.
        4    1    3    3  502    0  0.73999261812E+03 -0.60249832116E+02  0.17690904706E+03  0.76322836751E+03  0.12699999809E+01 0.  1.
       -4    1    3    3    0  502 -0.73999261812E+03  0.60249832116E+02  0.24314097696E+03  0.78124148937E+03  0.12699999809E+01 0. -1.
</event>
<event>
 5   0  0.7454828E-04  0.1504005E+04  0.7818609E-02  0.8881794E-01
       -2   -1    0    0    0  501  0.00000000000E+00  0.00000000000E+00  0.91044631130E+03  0.91044631131E+03  0.25500000920E-02 0. -1.
        2   -1    0    0  501    0  0.00000000000E+00  0.00000000000E+00 -0.62113219754E+03  0.62113219754E+03  0.25500000920E-02 0.  1.
    10030    2    1    2    0    0  0.00000000000E+00  0.00000000000E+00  0.28931411377E+03  0.15315785088E+04  0.15040046783E+04 0.  0.
        3    1    3    3  502    0 -0.15778490354E+03  0.27434976135E+03 -0.55001042267E+03  0.63456705129E+03  0.10100000352E+00 0.  1.
       -3    1    3    3    0  502  0.15778490354E+03 -0.27434976135E+03  0.83932453643E+03  0.89701145756E+03  0.10100000352E+00 0. -1.
</event>
<event>
 5   0  0.4086710E-04  0.1496682E+04  0.7818609E-02  0.8886663E-01
        1   -1    0    0  501    0  0.00000000000E+00  0.00000000000E+00  0.17255101543E+04  0.17255101543E+04  0.50400001928E-02 0. -1.
       -1   -1    0    0    0  501  0.00000000000E+00  0.00000000000E+00 -0.32454976521E+03  0.32454976525E+03  0.50400001928E-02 0.  1.
    10030    2    1    2    0    0  0.00000000000E+00  0.00000000000E+00  0.14009603891E+04  0.20500599196E+04  0.14966815500E+04 0.  0.
        3    1    3    3  502    0  0.12324351704E+03 -0.61574729297E+03  0.12580156242E+04  0.14060359221E+04  0.10100000352E+00 0. -1.
       -3    1    3    3    0  502 -0.12324351704E+03  0.61574729297E+03  0.14294476487E+03  0.64402399745E+03  0.10100000352E+00 0.  1.
</event>
<event>
 5   0  0.4086710E-04  0.1503403E+04  0.7818609E-02  0.8882193E-01
        1   -1    0    0  501    0  0.00000000000E+00  0.00000000000E+00  0.16431592861E+04  0.16431592861E+04  0.50400001928E-02 0.  1.
       -1   -1    0    0    0  501  0.00000000000E+00  0.00000000000E+00 -0.34388320159E+03  0.34388320162E+03  0.50400001928E-02 0. -1.
    10030    2    1    2    0    0  0.00000000000E+00  0.00000000000E+00  0.12992760845E+04  0.19870424877E+04  0.15034026421E+04 0.  0.
        3    1    3    3  502    0  0.25939150448E+03  0.69994203941E+03  0.53252008112E+03  0.91694081496E+03  0.10100000352E+00 0. -1.
       -3    1    3    3    0  502 -0.25939150448E+03 -0.69994203941E+03  0.76675600340E+03  0.10701016728E+04  0.10100000352E+00 0.  1.
</event>
<event>
 5   0  0.4058874E-04  0.1498141E+04  0.7818609E-02  0.8885690E-01
       -1   -1    0    0    0  501  0.00000000000E+00  0.00000000000E+00  0.12780420952E+04  0.12780420952E+04  0.50400001928E-02 0.  1.
        1   -1    0    0  501    0  0.00000000000E+00  0.00000000000E+00 -0.43903593623E+03  0.43903593625E+03  0.50400001928E-02 0. -1.
    10030    2    1    2    0    0  0.00000000000E+00  0.00000000000E+00  0.83900615901E+03  0.17170780315E+04  0.14981407248E+04 0.  0.
        4    1    3    3  502    0 -0.67496184343E+03 -0.26144795567E+03  0.19851424237E+03  0.75055848602E+03  0.12699999809E+01 0.  1.
       -4    1    3    3    0  502  0.67496184343E+03  0.26144795567E+03  0.64049191664E+03  0.96651954548E+03  0.12699999809E+01 0. -1.
</event>
<event>
 5   0  0.4084462E-04  0.1483380E+04  0.7818609E-02  0.8895581E-01
       -1   -1    0    0    0  501  0.00000000000E+00  0.00000000000E+00  0.52500900311E+03  0.52500900314E+03  0.50400001928E-02 0.  1.
        1   -1    0    0  501    0  0.00000000000E+00  0.00000000000E+00 -0.10477987207E+04  0.10477987207E+04  0.50400001928E-02 0. -1.
    10030    2    1    2    0    0  0.00000000000E+00  0.00000000000E+00 -0.52278971757E+03  0.15728077238E+04  0.14833796033E+04 0.  0.
        1    1    3    3  502    0 -0.95069841882E+02  0.32035865150E+03  0.44066856090E+03  0.55304314571E+03  0.50400001928E-02 0.  1.
       -1    1    3    3    0  502  0.95069841882E+02 -0.32035865150E+03 -0.96345827846E+03  0.10197645781E+04  0.50400001928E-02 0. -1.
</event>
<event>
 5   0  0.7359897E-04  0.1507489E+04  0.7818609E-02  0.8879488E-01
       -2   -1    0    0    0  501  0.00000000000E+00  0.00000000000E+00  0.52673963184E+03  0.52673963184E+03  0.25500000920E-02 0. -1.
        2   -1    0    0  501    0  0.00000000000E+00  0.00000000000E+00 -0.10785794584E+04  0.10785794584E+04  0.25500000920E-02 0.  1.
    10030    2    1    2    0    0  0.00000000000E+00  0.00000000000E+00 -0.55183982655E+03  0.16053190902E+04  0.15074887022E+04 0.  0.
        1    1    3    3  502    0  0.55787625035E+02 -0.15562589898E+03  0.50719445247E+03  0.53345842592E+03  0.50400001928E-02 0. -1.
       -1    1    3    3    0  502 -0.55787625035E+02  0.15562589898E+03 -0.10590342790E+04  0.10718606643E+04  0.50400001928E-02 0.  1.
</event>
<event>
 5   0  0.7547580E-04  0.1489516E+04  0.7818609E-02  0.8891455E-01
        2   -1    0    0  501    0  0.00000000000E+00  0.00000000000E+00  0.59322026603E+03  0.59322026603E+03  0.25500000920E-02 0. -1.
       -2   -1    0    0    0  501  0.00000000000E+00  0.00000000000E+00 -0.93500621243E+03  0.93500621243E+03  0.25500000920E-02 0.  1.
    10030    2    1    2    0    0  0.00000000000E+00  0.00000000000E+00 -0.34178594640E+03  0.15282264785E+04  0.14895162088E+04 0.  0.
        4    1    3    3  502    0  0.30430234587E+03  0.65720938036E+03  0.72244604817E+01  0.72427749728E+03  0.12699999809E+01 0. -1.
       -4    1    3    3    0  502 -0.30430234587E+03 -0.65720938036E+03 -0.34901040688E+03  0.80394898118E+03  0.12699999809E+01 0.  1.
</event>
<event>
 5   0  0.7634227E-04  0.1505103E+04  0.7818609E-02  0.8881067E-01
        2   -1    0    0  501    0  0.00000000000E+00  0.00000000000E+00  0.77214249311E+03  0.77214249311E+03  0.25500000920E-02 0.  1.
       -2   -1    0    0    0  501  0.00000000000E+00  0.00000000000E+00 -0.73345716945E+03  0.73345716945E+03  0.25500000920E-02 0. -1.
    10030    2    1    2    0    0  0.00000000000E+00  0.00000000000E+00  0.38685323656E+02  0.15055996626E+04  0.15051025844E+04 0.  0.
        2    1    3    3  502    0  0.23511012534E+03  0.42583687959E+02  0.73319119536E+03  0.77114166693E+03  0.25500000920E-02 0.  1.
       -2    1    3    3    0  502 -0.23511012534E+03 -0.42583687959E+02 -0.69450587170E+03  0.73445799563E+03  0.25500000920E-02 0. -1.
</event>
<event>
 5   0  0.3907345E-04  0.1530004E+04  0.7818609E-02  0.8864742E-01
        1   -1    0    0  501    0  0.00000000000E+00  0.00000000000E+00  0.43533694696E+03  0.43533694699E+03  0.50400001928E-02 0.  1.
       -1   -1    0    0    0  501  0.00000000000E+00  0.00000000000E+00 -0.13443104812E+04  0.13443104812E+04  0.50400001928E-02 0. -1.
    10030    2    1    2    0    0  0.00000000000E+00  0.00000000000E+00 -0.90897353423E+03  0.17796474282E+04  0.15300039486E+04 0.  0.
        5    1    3    3  502    0 -0.34332755142E+03  0.26045046377E+03 -0.11896750045E+04  0.12653287944E+04  0.46999998093E+01 0. -1.
       -5    1    3    3    0  502  0.34332755142E+03 -0.26045046377E+03  0.28070147027E+03  0.51431863378E+03  0.46999998093E+01 0.  1.
</event>
<event>
 5   0  0.4086710E-04  0.1490291E+04  0.7818609E-02  0.8890935E-01
       -1   -1    0    0    0  501  0.00000000000E+00  0.00000000000E+00  0.37610281485E+03  0.37610281488E+03  0.50400001928E-02 0.  1.
        1   -1    0    0  501    0  0.00000000000E+00  0.00000000000E+00 -0.14763041437E+04  0.14763041437E+04  0.50400001928E-02 0. -1.
    10030    2    1    2    0    0  0.00000000000E+00  0.00000000000E+00 -0.11002013289E+04  0.18524069586E+04  0.14902914400E+04 0.  0.
        3    1    3    3  502    0  0.11940139392E+03 -0.73501004126E+03 -0.51615834509E+03  0.90604409442E+03  0.10100000352E+00 0. -1.
       -3    1    3    3    0  502 -0.11940139392E+03  0.73501004126E+03 -0.58404298379E+03  0.94636286420E+03  0.10100000352E+00 0.  1.
</event>
<event>
 5   0  0.7359897E-04  0.1497985E+04  0.7818609E-02  0.8885794E-01
       -2   -1    0    0    0  501  0.00000000000E+00  0.00000000000E+00  0.91410989897E+03  0.91410989897E+03  0.25500000920E-02 0.  1.
        2   -1    0    0  501    0  0.00000000000E+00  0.00000000000E+00 -0.61370030398E+03  0.61370030399E+03  0.25500000920E-02 0. -1.
    10030    2    1    2    0    0  0.00000000000E+00  0.00000000000E+00  0.30040959498E+03  0.15278102030E+04  0.14979846767E+04 0.  0.
        1    1    3    3  502    0  0.64767402211E+03 -0.36859006528E+03  0.73546822190E+02  0.74883203071E+03  0.50400001928E-02 0. -1.
       -1    1    3    3    0  502 -0.64767402211E+03  0.36859006528E+03  0.22686277279E+03  0.77897817225E+03  0.50400001928E-02 0.  1.
</event>
<event>
 5   0  0.4058874E-04  0.1488957E+04  0.7818609E-02  0.8891830E-01
        1   -1    0    0  501    0  0.00000000000E+00  0.00000000000E+00  0.19129727958E+04  0.19129727958E+04  0.50400001928E-02 0.  1.
       -1   -1    0    0    0  501  0.00000000000E+00  0.00000000000E+00 -0.28973118985E+03  0.28973118990E+03  0.50400001928E-02 0. -1.
    10030    2    1    2    0    0  0.00000000000E+00  0.00000000000E+00  0.16232416060E+04  0.22027039857E+04  0.14889565264E+04 0.  0.
        4    1    3    3  502    0  0.66981676416E+03 -0.21668945572E+03  0.11698505706E+04  0.13653427366E+04  0.12699999809E+01 0.  1.
       -4    1    3    3    0  502 -0.66981676416E+03  0.21668945572E+03  0.45339103532E+03  0.83736124915E+03  0.12699999809E+01 0. -1.
</event>
<event>
 5   0  0.4086710E-04  0.1514315E+04  0.7818609E-02  0.8874989E-01
        1   -1    0    0  501    0  0.00000000000E+00  0.00000000000E+00  0.13293382494E+04  0.13293382494E+04  0.50400001928E-02 0. -1.
       -1   -1    0    0    0  501  0.00000000000E+00  0.00000000000E+00 -0.43125777680E+03  0.43125777683E+03  0.50400001928E-02 0.  1.
    10030    2    1    2    0    0  0.00000000000E+00  0.00000000000E+00  0.89808047263E+03  0.17605960263E+04  0.15143149713E+04 0.  0.
        3    1    3    3  502    0 -0.58004875167E+03 -0.37412485833E+02 -0.11508497462E+03  0.59253760218E+03  0.10100000352E+00 0.  1.
       -3    1    3    3    0  502  0.58004875167E+03  0.37412485833E+02  0.10131654472E+04  0.11680584241E+04  0.10100000352E+00 0. -1.
</event>
<event>
 5   0  0.4084462E-04  0.1503472E+04  0.7818609E-02  0.8882147E-01
        1   -1    0    0  501    0  0.00000000000E+00  0.00000000000E+00  0.89612244795E+03  0.89612244797E+03  0.50400001928E-02 0. -1.
       -1   -1    0    0    0  501  0.00000000000E+00  0.00000000000E+00 -0.63061396106E+03  0.63061396108E+03  0.50400001928E-02 0.  1.
    10030    2    1    2    0    0  0.00000000000E+00  0.00000000000E+00  0.26550848689E+03  0.15267364091E+04  0.15034724161E+04 0.  0.
        1    1    3    3  502    0 -0.36561369200E+03 -0.34844324021E+03 -0.43265686758E+03  0.66503986987E+03  0.50400001928E-02 0.  1.
       -1    1    3    3    0  502  0.36561369200E+03  0.34844324021E+03  0.69816535447E+03  0.86169653918E+03  0.50400001928E-02 0. -1.
</event>
<event>
 5   0  0.3907345E-04  0.1427652E+04  0.7818609E-02  0.8934043E-01
        1   -1    0    0  501    0  0.00000000000E+00  0.00000000000E+00  0.16512412559E+04  0.16512412560E+04  0.50400001928E-02 0.  1.
       -1   -1    0    0    0  501  0.00000000000E+00  0.00000000000E+00 -0.30858441412E+03  0.30858441416E+03  0.50400001928E-02 0. -1.
    10030    2    1    2    0    0  0.00000000000E+00  0.00000000000E+00  0.13426568418E+04  0.19598256701E+04  0.14276516600E+04 0.  0.
        5    1    3    3  502    0  0.39708357902E+03  0.22936369729E+03  0.14222707257E+04  0.14943758502E+04  0.46999998093E+01 0.  1.
       -5    1    3    3    0  502 -0.39708357902E+03 -0.22936369729E+03 -0.79613883909E+02  0.46544981993E+03  0.46999998093E+01 0. -1.
</event>
<event>
 5   0  0.4086710E-04  0.1609686E+04  0.7818609E-02  0.8814620E-01
        1   -1    0    0  501    0  0.00000000000E+00  0.00000000000E+00  0.16275271475E+04  0.16275271475E+04  0.50400001928E-02 0. -1.
       -1   -1    0    0    0  501  0.00000000000E+00  0.00000000000E+00 -0.39800995625E+03  0.39800995628E+03  0.50400001928E-02 0.  1.
    10030    2    1    2    0    0  0.00000000000E+00  0.00000000000E+00  0.12295171912E+04  0.20255371038E+04  0.16096856945E+04 0.  0.
        3    1    3    3  502    0  0.49163903923E+03  0.42759918367E+03  0.20237036462E+02  0.65188921959E+03  0.10100000352E+00 0.  1.
       -3    1    3    3    0  502 -0.49163903923E+03 -0.42759918367E+03  0.12092801548E+04  0.13736478842E+04  0.10100000352E+00 0. -1.
</event>
<event>
 5   0  0.7547580E-04  0.1579558E+04  0.7818609E-02  0.8833206E-01
        2   -1    0    0  501    0  0.00000000000E+00  0.00000000000E+00  0.12072044906E+04  0.12072044906E+04  0.25500000920E-02 0. -1.
       -2   -1    0    0    0  501  0.00000000000E+00  0.00000000000E+00 -0.51669034272E+03  0.51669034273E+03  0.25500000920E-02 0.  1.
    10030    2    1    2    0    0  0.00000000000E+00  0.00000000000E+00  0.69051414787E+03  0.17238948333E+04  0.15795580420E+04 0.  0.
        4    1    3    3  502    0  0.69252984464E+02 -0.67224925498E+03 -0.10078717880E+03  0.68328230256E+03  0.12699999809E+01 0.  1.
       -4    1    3    3    0  502 -0.69252984464E+02  0.67224925498E+03  0.79130132667E+03  0.10406125308E+04  0.12699999809E+01 0. -1.
</event>
<event>
 5   0  0.7359897E-04  0.1491310E+04  0.7818609E-02  0.8890252E-01
       -2   -1    0    0    0  501  0.00000000000E+00  0.00000000000E+00  0.21038237845E+04  0.21038237845E+04  0.25500000920E-02 0.  1.
        2   -1    0    0  501    0  0.00000000000E+00  0.00000000000E+00 -0.26428134570E+03  0.26428134571E+03  0.25500000920E-02 0. -1.
    10030    2    1    2    0    0  0.00000000000E+00  0.00000000000E+00  0.18395424388E+04  0.23681051302E+04  0.14913100025E+04 0.  0.
        1    1    3    3  502    0  0.41770823410E+03  0.40385396225E+03  0.16619053751E+04  0.17605418676E+04  0.50400001928E-02 0.  1.
       -1    1    3    3    0  502 -0.41770823410E+03 -0.40385396225E+03  0.17763706368E+03  0.60756326262E+03  0.50400001928E-02 0. -1.
</event>
<event>
 5   0  0.4058874E-04  0.1507863E+04  0.7818609E-02  0.8879241E-01
       -1   -1    0    0    0  501  0.00000000000E+00  0.00000000000E+00  0.57137686408E+03  0.57137686410E+03  0.50400001928E-02 0. -1.
        1   -1    0    0  501    0  0.00000000000E+00  0.00000000000E+00 -0.99481220724E+03  0.99481220726E+03  0.50400001928E-02 0.  1.
    10030    2    1    2    0    0  0.00000000000E+00  0.00000000000E+00 -0.42343534316E+03  0.15661890714E+04  0.15078629637E+04 0.  0.
        4    1    3    3  502    0 -0.29094047115E+03 -0.34853105353E+02  0.50981078061E+03  0.58802188874E+03  0.12699999809E+01 0. -1.
       -4    1    3    3    0  502  0.29094047115E+03  0.34853105353E+02 -0.93324612378E+03  0.97816718262E+03  0.12699999809E+01 0.  1.
</event>
<event>
 5   0  0.7672251E-04  0.1510557E+04  0.7818609E-02  0.8877463E-01
       -2   -1    0    0    0  501  0.00000000000E+00  0.00000000000E+00  0.35956662089E+03  0.35956662089E+03  0.25500000920E-02 0. -1.
        2   -1    0    0  501    0  0.00000000000E+00  0.00000000000E+00 -0.15864816358E+04  0.15864816358E+04  0.25500000920E-02 0.  1.
    10030    2    1    2    0    0  0.00000000000E+00  0.00000000000E+00 -0.12269150149E+04  0.19460482567E+04  0.15105573023E+04 0.  0.
        5    1    3    3  502    0  0.91828461114E+02 -0.30993918087E+03  0.26592184970E+03  0.41860635716E+03  0.46999998093E+01 0. -1.
       -5    1    3    3    0  502 -0.91828461114E+02  0.30993918087E+03 -0.14928368646E+04  0.15274418995E+04  0.46999998093E+01 0.  1.
</event>
<event>
 5   0  0.4058874E-04  0.1448644E+04  0.7818609E-02  0.8919341E-01
       -1   -1    0    0    0  501  0.00000000000E+00  0.00000000000E+00  0.38196826420E+03  0.38196826423E+03  0.50400001928E-02 0.  1.
        1   -1    0    0  501    0  0.00000000000E+00  0.00000000000E+00 -0.13735226609E+04  0.13735226609E+04  0.50400001928E-02 0. -1.
    10030    2    1    2    0    0  0.00000000000E+00  0.00000000000E+00 -0.99155439673E+03  0.17554909252E+04  0.14486435955E+04 0.  0.
        4    1    3    3  502    0  0.40171539630E+03 -0.56452242022E+03 -0.75163889404E+03  0.10222638908E+04  0.12699999809E+01 0.  1.
       -4    1    3    3    0  502 -0.40171539630E+03  0.56452242022E+03 -0.23991550269E+03  0.73322703434E+03  0.12699999809E+01 0. -1.
</event>
<event>
 5   0  0.4084462E-04  0.1509510E+04  0.7818609E-02  0.8878153E-01
       -1   -1    0    0    0  501  0.00000000000E+00  0.00000000000E+00  0.33237014392E+03  0.33237014395E+03  0.50400001928E-02 0.  1.
        1   -1    0    0  501    0  0.00000000000E+00  0.00000000000E+00 -0.17139182290E+04  0.17139182290E+04  0.50400001928E-02 0. -1.
    10030    2    1    2    0    0  0.00000000000E+00  0.00000000000E+00 -0.13815480851E+04  0.20462883729E+04  0.15095101834E+04 0.  0.
        1    1    3    3  502    0  0.68689836510E+02  0.71735953192E+03 -0.99490035151E+03  0.12284745423E+04  0.50400001928E-02 0.  1.
       -1    1    3    3    0  502 -0.68689836510E+02 -0.71735953192E+03 -0.38664773356E+03  0.81781383063E+03  0.50400001928E-02 0. -1.
</event>
<event>
 5   0  0.4084462E-04  0.1498871E+04  0.7818609E-02  0.8885204E-01
        1   -1    0    0  501    0  0.00000000000E+00  0.00000000000E+00  0.75120301083E+03  0.75120301085E+03  0.50400001928E-02 0. -1.
       -1   -1    0    0    0  501  0.00000000000E+00  0.00000000000E+00 -0.74767202589E+03  0.74767202591E+03  0.50400001928E-02 0.  1.
    10030    2    1    2    0    0  0.00000000000E+00  0.00000000000E+00  0.35309849359E+01  0.14988750368E+04  0.14988708777E+04 0.  0.
        1    1    3    3  502    0  0.19287689014E+03 -0.27082895904E+02 -0.72192049289E+03  0.74773269026E+03  0.50400001928E-02 0.  1.
       -1    1    3    3    0  502 -0.19287689014E+03  0.27082895904E+02  0.72545147782E+03  0.75114234650E+03  0.50400001928E-02 0. -1.
</event>
<event>
 5   0  0.4086710E-04  0.1500460E+04  0.7818609E-02  0.8884147E-01
        1   -1    0    0  501    0  0.00000000000E+00  0.00000000000E+00  0.55227933738E+03  0.55227933741E+03  0.50400001928E-02 0. -1.
       -1   -1    0    0    0  501  0.00000000000E+00  0.00000000000E+00 -0.10191314958E+04  0.10191314958E+04  0.50400001928E-02 0.  1.
    10030    2    1    2    0    0  0.00000000000E+00  0.00000000000E+00 -0.46685215841E+03  0.15714108332E+04  0.15004602857E+04 0.  0.
        3    1    3    3  502    0  0.51019875750E+03 -0.50092966953E+03  0.44990842104E+01  0.71501997030E+03  0.10100000352E+00 0.  1.
       -3    1    3    3    0  502 -0.51019875750E+03  0.50092966953E+03 -0.47135124262E+03  0.85639086292E+03  0.10100000352E+00 0. -1.
</event>
<event>
 5   0  0.7672251E-04  0.1539091E+04  0.7818609E-02  0.8858866E-01
       -2   -1    0    0    0  501  0.00000000000E+00  0.00000000000E+00  0.53511800221E+03  0.53511800222E+03  0.25500000920E-02 0.  1.
        2   -1    0    0  501    0  0.00000000000E+00  0.00000000000E+00 -0.11066727538E+04  0.11066727538E+04  0.25500000920E-02 0. -1.
    10030    2    1    2    0    0  0.00000000000E+00  0.00000000000E+00 -0.57155475163E+03  0.16417907561E+04  0.15390913074E+04 0.  0.
        5    1    3    3  502    0 -0.59185267846E+03  0.37698025329E+03  0.51171240223E+02  0.70359383894E+03  0.46999998093E+01 0.  1.
       -5    1    3    3    0  502  0.59185267846E+03 -0.37698025329E+03 -0.62272599185E+03  0.93819691712E+03  0.46999998093E+01 0. -1.
</event>
<event>
 5   0  0.7359897E-04  0.1432243E+04  0.7818609E-02  0.8930804E-01
        2   -1    0    0  501    0  0.00000000000E+00  0.00000000000E+00  0.12265183562E+04  0.12265183562E+04  0.25500000920E-02 0.  1.
       -2   -1    0    0    0  501  0.00000000000E+00  0.00000000000E+00 -0.41811858122E+03  0.41811858123E+03  0.25500000920E-02 0. -1.
    10030    2    1    2    0    0  0.00000000000E+00  0.00000000000E+00  0.80839977497E+03  0.16446369374E+04  0.14322431567E+04 0.  0.
        1    1    3    3  502    0  0.89836359742E+02  0.21209995955E+03  0.11828190488E+04  0.12050385332E+04  0.50400001928E-02 0.  1.
       -1    1    3    3    0  502 -0.89836359742E+02 -0.21209995955E+03 -0.37441927380E+03  0.43959840422E+03  0.50400001928E-02 0. -1.
</event>
<event>
 5   0  0.4058874E-04  0.1530398E+04  0.7818609E-02  0.8864486E-01
       -1   -1    0    0    0  501  0.00000000000E+00  0.00000000000E+00  0.58869898771E+03  0.58869898773E+03  0.50400001928E-02 0. -1.
        1   -1    0    0  501    0  0.00000000000E+00  0.00000000000E+00 -0.99461616538E+03  0.99461616539E+03  0.50400001928E-02 0.  1.
    10030    2    1    2    0    0  0.00000000000E+00  0.00000000000E+00 -0.40591717767E+03  0.15833151531E+04  0.15303980263E+04 0.  0.
        4    1    3    3  502    0 -0.22057024310E+03 -0.59863535967E+03  0.23415786518E+03  0.67959329361E+03  0.12699999809E+01 0. -1.
       -4    1    3    3    0  502  0.22057024310E+03  0.59863535967E+03 -0.64007504285E+03  0.90372185951E+03  0.12699999809E+01 0.  1.
</event>
<event>
 5   0  0.4086710E-04  0.1500406E+04  0.7818609E-02  0.8884183E-01
        1   -1    0    0  501    0  0.00000000000E+00  0.00000000000E+00  0.11188659962E+04  0.11188659962E+04  0.50400001928E-02 0. -1.
       -1   -1    0    0    0  501  0.00000000000E+00  0.00000000000E+00 -0.50301311016E+03  0.50301311018E+03  0.50400001928E-02 0.  1.
    10030    2    1    2    0    0  0.00000000000E+00  0.00000000000E+00  0.61585288605E+03  0.16218791064E+04  0.15004056313E+04 0.  0.
        3    1    3    3  502    0  0.86326925359E+02  0.43848624848E+03  0.95927280151E+03  0.10582659619E+04  0.10100000352E+00 0. -1.
       -3    1    3    3    0  502 -0.86326925359E+02 -0.43848624848E+03 -0.34341991546E+03  0.56361314453E+03  0.10100000352E+00 0.  1.
</event>
<event>
 5   0  0.7672251E-04  0.1497637E+04  0.7818609E-02  0.8886026E-01
       -2   -1    0    0    0  501  0.00000000000E+00  0.00000000000E+00  0.38036122943E+03  0.38036122943E+03  0.25500000920E-02 0. -1.
        2   -1    0    0  501    0  0.00000000000E+00  0.00000000000E+00 -0.14742023422E+04  0.14742023422E+04  0.25500000920E-02 0.  1.
    10030    2    1    2    0    0  0.00000000000E+00  0.00000000000E+00 -0.10938411127E+04  0.18545635716E+04  0.14976373597E+04 0.  0.
        5    1    3    3  502    0 -0.74660934773E+03  0.20003809073E+02 -0.61339520296E+03  0.96648923197E+03  0.46999998093E+01 0.  1.
       -5    1    3    3    0  502  0.74660934773E+03 -0.20003809073E+02 -0.48044590977E+03  0.88807433963E+03  0.46999998093E+01 0. -1.
</event>
<event>
 5   0  0.4086710E-04  0.1486501E+04  0.7818609E-02  0.8893479E-01
       -1   -1    0    0    0  501  0.00000000000E+00  0.00000000000E+00  0.19729639184E+04  0.19729639184E+04  0.50400001928E-02 0. -1.
        1   -1    0    0  501    0  0.00000000000E+00  0.00000000000E+00 -0.27999570707E+03  0.27999570711E+03  0.50400001928E-02 0.  1.
    10030    2    1    2    0    0  0.00000000000E+00  0.00000000000E+00  0.16929682113E+04  0.22529596255E+04  0.14865011637E+04 0.  0.
        3    1    3    3  502    0  0.43234935553E+02 -0.29827716667E+03  0.18761895432E+04  0.19002436002E+04  0.10100000352E+00 0. -1.
       -3    1    3    3    0  502 -0.43234935553E+02  0.29827716667E+03 -0.18322133193E+03  0.35271602527E+03  0.10100000352E+00 0.  1.
</event>
<event>
 5   0  0.4086710E-04  0.1516411E+04  0.7818609E-02  0.8873612E-01
       -1   -1    0    0    0  501  0.00000000000E+00  0.00000000000E+00  0.82985387975E+03  0.82985387976E+03  0.50400001928E-02 0.  1.
        1   -1    0    0  501    0  0.00000000000E+00  0.00000000000E+00 -0.69274332975E+03  0.69274332977E+03  0.50400001928E-02 0. -1.
    10030    2    1    2    0    0  0.00000000000E+00  0.00000000000E+00  0.13711055000E+03  0.15225972095E+04  0.15164112106E+04 0.  0.
        3    1    3    3  502    0 -0.23590358511E+03 -0.72015085398E+03  0.43797525613E+02  0.75906915852E+03  0.10100000352E+00 0.  1.
       -3    1    3    3    0  502  0.23590358511E+03  0.72015085398E+03  0.93313024384E+02  0.76352805101E+03  0.10100000352E+00 0. -1.
</event>
<event>
 5   0  0.7547580E-04  0.1488805E+04  0.7818609E-02  0.8891932E-01
       -2   -1    0    0    0  501  0.00000000000E+00  0.00000000000E+00  0.13388610220E+04  0.13388610220E+04  0.25500000920E-02 0. -1.
        2   -1    0    0  501    0  0.00000000000E+00  0.00000000000E+00 -0.41388524939E+03  0.41388524940E+03  0.25500000920E-02 0.  1.
    10030    2    1    2    0    0  0.00000000000E+00  0.00000000000E+00  0.92497577256E+03  0.17527462714E+04  0.14888046588E+04 0.  0.
        4    1    3    3  502    0  0.40291228970E+03  0.41471117161E+03 -0.89468302804E+02  0.58508961635E+03  0.12699999809E+01 0.  1.
       -4    1    3    3    0  502 -0.40291228970E+03 -0.41471117161E+03  0.10144440754E+04  0.11676566550E+04  0.12699999809E+01 0. -1.
</event>
<event>
 5   0  0.7634227E-04  0.1471572E+04  0.7818609E-02  0.8903580E-01
       -2   -1    0    0    0  501  0.00000000000E+00  0.00000000000E+00  0.60318385921E+03  0.60318385921E+03  0.25500000920E-02 0.  1.
        2   -1    0    0  501    0  0.00000000000E+00  0.00000000000E+00 -0.89753933202E+03  0.89753933203E+03  0.25500000920E-02 0. -1.
    10030    2    1    2    0    0  0.00000000000E+00  0.00000000000E+00 -0.29435547282E+03  0.15007231912E+04  0.14715722722E+04 0.  0.
        2    1    3    3  502    0  0.55835288207E+03 -0.15382294059E+03 -0.60999797004E+03  0.84114027452E+03  0.25500000920E-02 0. -1.
       -2    1    3    3    0  502 -0.55835288207E+03  0.15382294059E+03  0.31564249723E+03  0.65958291672E+03  0.25500000920E-02 0.  1.
</event>
<event>
 5   0  0.4015204E-04  0.1567873E+04  0.7818609E-02  0.8840531E-01
       -1   -1    0    0    0  501  0.00000000000E+00  0.00000000000E+00  0.34128917408E+03  0.34128917412E+03  0.50400001928E-02 0.  1.
        1   -1    0    0  501    0  0.00000000000E+00  0.00000000000E+00 -0.18006922516E+04  0.18006922516E+04  0.50400001928E-02 0. -1.
    10030    2    1    2    0    0  0.00000000000E+00  0.00000000000E+00 -0.14594030775E+04  0.21419814257E+04  0.15678734278E+04 0.  0.
        2    1    3    3  502    0 -0.51504235463E+03 -0.26760402927E+03 -0.97984263507E+01  0.58049681542E+03  0.25500000920E-02 0.  1.
       -2    1    3    3    0  502  0.51504235463E+03  0.26760402927E+03 -0.14496046512E+04  0.15614846103E+04  0.25500000920E-02 0. -1.
</event>
<event>
 5   0  0.7634227E-04  0.1598679E+04  0.7818609E-02  0.8821360E-01
       -2   -1    0    0    0  501  0.00000000000E+00  0.00000000000E+00  0.74575748077E+03  0.74575748077E+03  0.25500000920E-02 0. -1.
        2   -1    0    0  501    0  0.00000000000E+00  0.00000000000E+00 -0.85677170785E+03  0.85677170785E+03  0.25500000920E-02 0.  1.
    10030    2    1    2    0    0  0.00000000000E+00  0.00000000000E+00 -0.11101422708E+03  0.16025291886E+04  0.15986793430E+04 0.  0.
        2    1    3    3  502    0  0.52593588858E+03 -0.15077728947E+02  0.54769610927E+03  0.75947806086E+03  0.25500000920E-02 0. -1.
       -2    1    3    3    0  502 -0.52593588858E+03  0.15077728947E+02 -0.65871033635E+03  0.84305112777E+03  0.25500000920E-02 0.  1.
</event>
<event>
 5   0  0.4015204E-04  0.1512389E+04  0.7818609E-02  0.8876256E-01
        1   -1    0    0  501    0  0.00000000000E+00  0.00000000000E+00  0.98667938540E+03  0.98667938541E+03  0.50400001928E-02 0.  1.
       -1   -1    0    0    0  501  0.00000000000E+00  0.00000000000E+00 -0.57955016810E+03  0.57955016812E+03  0.50400001928E-02 0. -1.
    10030    2    1    2    0    0  0.00000000000E+00  0.00000000000E+00  0.40712921730E+03  0.15662295535E+04  0.15123891083E+04 0.  0.
        2    1    3    3  502    0 -0.44621722466E+03  0.37956148343E+03 -0.29163554870E+03  0.65439133899E+03  0.25500000920E-02 0. -1.
       -2    1    3    3    0  502  0.44621722466E+03 -0.37956148343E+03  0.69876476599E+03  0.91183821453E+03  0.25500000920E-02 0.  1.
</event>
<event>
 5   0  0.2800375E-04  0.1508392E+04  0.7818609E-02  0.8878892E-01
        3   -1    0    0  501    0  0.00000000000E+00  0.00000000000E+00  0.51283865665E+03  0.51283866660E+03  0.10100000352E+00 0. -1.
       -3   -1    0    0    0  501  0.00000000000E+00  0.00000000000E+00 -0.11091431429E+04  0.11091431475E+04  0.10100000352E+00 0.  1.
    10030    2    1    2    0    0  0.00000000000E+00  0.00000000000E+00 -0.59630448623E+03  0.16219818141E+04  0.15083918473E+04 0.  0.
        1    1    3    3  502    0  0.15326337797E+03  0.49913657239E+03  0.28705942311E+03  0.59584401763E+03  0.50400001928E-02 0. -1.
       -1    1    3    3    0  502 -0.15326337797E+03 -0.49913657239E+03 -0.88336390935E+03  0.10261377964E+04  0.50400001928E-02 0.  1.
</event>
<event>
 5   0  0.4084462E-04  0.1507153E+04  0.7818609E-02  0.8879710E-01
       -1   -1    0    0    0  501  0.00000000000E+00  0.00000000000E+00  0.72141973737E+03  0.72141973739E+03  0.50400001928E-02 0.  1.
        1   -1    0    0  501    0  0.00000000000E+00  0.00000000000E+00 -0.78716670757E+03  0.78716670758E+03  0.50400001928E-02 0. -1.
    10030    2    1    2    0    0  0.00000000000E+00  0.00000000000E+00 -0.65746970196E+02  0.15085864450E+04  0.15071530771E+04 0.  0.
        1    1    3    3  502    0 -0.14774738894E+03 -0.71093228130E+03  0.16887117097E+03  0.74550081955E+03  0.50400001928E-02 0.  1.
       -1    1    3    3    0  502  0.14774738894E+03  0.71093228130E+03 -0.23461814116E+03  0.76308562542E+03  0.50400001928E-02 0. -1.
</event>
<event>
 5   0  0.7634227E-04  0.1216844E+04  0.7818609E-02  0.9098240E-01
       -2   -1    0    0    0  501  0.00000000000E+00  0.00000000000E+00  0.16683304919E+04  0.16683304919E+04  0.25500000920E-02 0. -1.
        2   -1    0    0  501    0  0.00000000000E+00  0.00000000000E+00 -0.22188477596E+03  0.22188477597E+03  0.25500000920E-02 0.  1.
    10030    2    1    2    0    0  0.00000000000E+00  0.00000000000E+00  0.14464457159E+04  0.18902152678E+04  0.12168436833E+04 0.  0.
        2    1    3    3  502    0  0.41403614324E+03  0.28210257453E+03  0.18698341596E+03  0.53476217921E+03  0.25500000920E-02 0.  1.
       -2    1    3    3    0  502 -0.41403614324E+03 -0.28210257453E+03  0.12594622999E+04  0.13554530886E+04  0.25500000920E-02 0. -1.
</event>
<event>
 5   0  0.7547580E-04  0.1423467E+04  0.7818609E-02  0.8937005E-01
        2   -1    0    0  501    0  0.00000000000E+00  0.00000000000E+00  0.42452776241E+03  0.42452776241E+03  0.25500000920E-02 0. -1.
       -2   -1    0    0    0  501  0.00000000000E+00  0.00000000000E+00 -0.11932417276E+04  0.11932417276E+04  0.25500000920E-02 0.  1.
    10030    2    1    2    0    0  0.00000000000E+00  0.00000000000E+00 -0.76871396523E+03  0.16177694901E+04  0.14234665302E+04 0.  0.
        4    1    3    3  502    0 -0.14073030707E+03  0.69152300476E+03 -0.27924738230E+03  0.75893991782E+03  0.12699999809E+01 0. -1.
       -4    1    3    3    0  502  0.14073030707E+03 -0.69152300476E+03 -0.48946658293E+03  0.85882957223E+03  0.12699999809E+01 0.  1.
</event>
<event>
 5   0  0.7359897E-04  0.1566202E+04  0.7818609E-02  0.8841585E-01
        2   -1    0    0  501    0  0.00000000000E+00  0.00000000000E+00  0.10676099609E+04  0.10676099609E+04  0.25500000920E-02 0.  1.
       -2   -1    0    0    0  501  0.00000000000E+00  0.00000000000E+00 -0.57441146672E+03  0.57441146673E+03  0.25500000920E-02 0. -1.
    10030    2    1    2    0    0  0.00000000000E+00  0.00000000000E+00  0.49319849415E+03  0.16420214276E+04  0.15662022903E+04 0.  0.
        1    1    3    3  502    0 -0.47529524614E+03 -0.55939641075E+03  0.53260085109E+03  0.90691431899E+03  0.50400001928E-02 0.  1.
       -1    1    3    3    0  502  0.47529524614E+03  0.55939641075E+03 -0.39402356949E+02  0.73510710861E+03  0.50400001928E-02 0. -1.
</event>
<event>
 5   0  0.7359897E-04  0.1459503E+04  0.7818609E-02  0.8911839E-01
       -2   -1    0    0    0  501  0.00000000000E+00  0.00000000000E+00  0.62146567302E+03  0.62146567302E+03  0.25500000920E-02 0.  1.
        2   -1    0    0  501    0  0.00000000000E+00  0.00000000000E+00 -0.85690539173E+03  0.85690539174E+03  0.25500000920E-02 0. -1.
    10030    2    1    2    0    0  0.00000000000E+00  0.00000000000E+00 -0.23543971872E+03  0.14783710648E+04  0.14595030469E+04 0.  0.
        1    1    3    3  502    0  0.17136093367E+01  0.43491301645E+03 -0.71128599984E+03  0.83371460460E+03  0.50400001928E-02 0. -1.
       -1    1    3    3    0  502 -0.17136093367E+01 -0.43491301645E+03  0.47584628112E+03  0.64465646016E+03  0.50400001928E-02 0.  1.
</event>
<event>
 5   0  0.4015204E-04  0.1488498E+04  0.7818609E-02  0.8892138E-01
        1   -1    0    0  501    0  0.00000000000E+00  0.00000000000E+00  0.16846144376E+04  0.16846144376E+04  0.50400001928E-02 0.  1.
       -1   -1    0    0    0  501  0.00000000000E+00  0.00000000000E+00 -0.32880321140E+03  0.32880321144E+03  0.50400001928E-02 0. -1.
    10030    2    1    2    0    0  0.00000000000E+00  0.00000000000E+00  0.13558112262E+04  0.20134176490E+04  0.14884980848E+04 0.  0.
        2    1    3    3  502    0 -0.71740185545E+03 -0.15224646439E+03  0.50647495313E+03  0.89126948017E+03  0.25500000920E-02 0. -1.
       -2    1    3    3    0  502  0.71740185545E+03  0.15224646439E+03  0.84933627306E+03  0.11221481689E+04  0.25500000920E-02 0.  1.
</event>
<event>
 5   0  0.2800375E-04  0.1508489E+04  0.7818609E-02  0.8878827E-01
       -4   -1    0    0    0  501  0.00000000000E+00  0.00000000000E+00  0.70524148354E+03  0.70524262705E+03  0.12699999809E+01 0. -1.
        4   -1    0    0  501    0  0.00000000000E+00  0.00000000000E+00 -0.80665044271E+03  0.80665144247E+03  0.12699999809E+01 0.  1.
    10030    2    1    2    0    0  0.00000000000E+00  0.00000000000E+00 -0.10140895917E+03  0.15118940695E+04  0.15084892775E+04 0.  0.
        3    1    3    3  502    0  0.14611740221E+03 -0.56329672890E+03  0.43020293647E+03  0.72369059464E+03  0.10100000352E+00 0.  1.
       -3    1    3    3    0  502 -0.14611740221E+03  0.56329672890E+03 -0.53161189564E+03  0.78820347488E+03  0.10100000352E+00 0. -1.
</event>
<event>
 5   0  0.7359897E-04  0.1496172E+04  0.7818609E-02  0.8887002E-01
       -2   -1    0    0    0  501  0.00000000000E+00  0.00000000000E+00  0.64345503681E+03  0.64345503682E+03  0.25500000920E-02 0. -1.
        2   -1    0    0  501    0  0.00000000000E+00  0.00000000000E+00 -0.86973126709E+03  0.86973126710E+03  0.25500000920E-02 0.  1.
    10030    2    1    2    0    0  0.00000000000E+00  0.00000000000E+00 -0.22627623028E+03  0.15131863039E+04  0.14961724025E+04 0.  0.
        1    1    3    3  502    0 -0.17811317299E+03 -0.72504403651E+03 -0.16078871679E+03  0.76371864502E+03  0.50400001928E-02 0.  1.
       -1    1    3    3    0  502  0.17811317299E+03  0.72504403651E+03 -0.65487513486E+02  0.74946765889E+03  0.50400001928E-02 0. -1.
</event>
<event>
 5   0  0.7672251E-04  0.1464363E+04  0.7818609E-02  0.8908503E-01
       -2   -1    0    0    0  501  0.00000000000E+00  0.00000000000E+00  0.14708163614E+04  0.14708163614E+04  0.25500000920E-02 0. -1.
        2   -1    0    0  501    0  0.00000000000E+00  0.00000000000E+00 -0.36448469373E+03  0.36448469374E+03  0.25500000920E-02 0.  1.
    10030    2    1    2    0    0  0.00000000000E+00  0.00000000000E+00  0.11063316677E+04  0.18353010551E+04  0.14643634126E+04 0.  0.
        5    1    3    3  502    0 -0.45443275567E+03 -0.51200306387E+03  0.87857221556E+03  0.11138076561E+04  0.46999998093E+01 0. -1.
       -5    1    3    3    0  502  0.45443275567E+03  0.51200306387E+03  0.22775945211E+03  0.72149339904E+03  0.46999998093E+01 0.  1.
</event>
<event>
 5   0  0.7547580E-04  0.1465831E+04  0.7818609E-02  0.8907499E-01
        2   -1    0    0  501    0  0.00000000000E+00  0.00000000000E+00  0.10927629244E+04  0.10927629244E+04  0.25500000920E-02 0. -1.
       -2   -1    0    0    0  501  0.00000000000E+00  0.00000000000E+00 -0.49156575639E+03  0.49156575639E+03  0.25500000920E-02 0.  1.
    10030    2    1    2    0    0  0.00000000000E+00  0.00000000000E+00  0.60119716799E+03  0.15843286808E+04  0.14658305952E+04 0.  0.
        4    1    3    3  502    0 -0.11180275190E+03  0.13817981299E+03 -0.46791583970E+03  0.50054007031E+03  0.12699999809E+01 0.  1.
       -4    1    3    3    0  502  0.11180275190E+03 -0.13817981299E+03  0.10691130077E+04  0.10837886105E+04  0.12699999809E+01 0. -1.
</event>
<event>
 5   0  0.4084462E-04  0.1511959E+04  0.7818609E-02  0.8876539E-01
       -1   -1    0    0    0  501  0.00000000000E+00  0.00000000000E+00  0.10213092351E+04  0.10213092351E+04  0.50400001928E-02 0.  1.
        1   -1    0    0  501    0  0.00000000000E+00  0.00000000000E+00 -0.55958045446E+03  0.55958045448E+03  0.50400001928E-02 0. -1.
    10030    2    1    2    0    0  0.00000000000E+00  0.00000000000E+00  0.46172878066E+03  0.15808896896E+04  0.15119585787E+04 0.  0.
        1    1    3    3  502    0 -0.66873147982E+03 -0.35093775248E+03  0.26625400621E+03  0.80078105251E+03  0.50400001928E-02 0.  1.
       -1    1    3    3    0  502  0.66873147982E+03  0.35093775248E+03  0.19547477445E+03  0.78010863710E+03  0.50400001928E-02 0. -1.
</event>
<event>
 5   0  0.7454828E-04  0.1480462E+04  0.7818609E-02  0.8897551E-01
       -2   -1    0    0    0  501  0.00000000000E+00  0.00000000000E+00  0.63696933967E+03  0.63696933968E+03  0.25500000920E-02 0.  1.
        2   -1    0    0  501    0  0.00000000000E+00  0.00000000000E+00 -0.86023243693E+03  0.86023243693E+03  0.25500000920E-02 0. -1.
    10030    2    1    2    0    0  0.00000000000E+00  0.00000000000E+00 -0.22326309725E+03  0.14972017766E+04  0.14804616676E+04 0.  0.
        3    1    3    3  502    0  0.19610099199E+03  0.53565737566E+03 -0.58872564635E+03  0.81974527753E+03  0.10100000352E+00 0. -1.
       -3    1    3    3    0  502 -0.19610099199E+03 -0.53565737566E+03  0.36546254910E+03  0.67745649908E+03  0.10100000352E+00 0.  1.
</event>
<event>
 5   0  0.7359897E-04  0.1386942E+04  0.7818609E-02  0.8963325E-01
       -2   -1    0    0    0  501  0.00000000000E+00  0.00000000000E+00  0.45681564832E+03  0.45681564833E+03  0.25500000920E-02 0. -1.
        2   -1    0    0  501    0  0.00000000000E+00  0.00000000000E+00 -0.10527268275E+04  0.10527268275E+04  0.25500000920E-02 0.  1.
    10030    2    1    2    0    0  0.00000000000E+00  0.00000000000E+00 -0.59591117915E+03  0.15095424758E+04  0.13869420870E+04 0.  0.
        1    1    3    3  502    0 -0.44798954010E+03  0.90832300116E+01 -0.87400921023E+03  0.98217576467E+03  0.50400001928E-02 0.  1.
       -1    1    3    3    0  502  0.44798954010E+03 -0.90832300116E+01  0.27809803108E+03  0.52736671114E+03  0.50400001928E-02 0. -1.
</event>
<event>
 5   0  0.4058874E-04  0.1499880E+04  0.7818609E-02  0.8884533E-01
        1   -1    0    0  501    0  0.00000000000E+00  0.00000000000E+00  0.92926078797E+03  0.92926078799E+03  0.50400001928E-02 0. -1.
       -1   -1    0    0    0  501  0.00000000000E+00  0.00000000000E+00 -0.60522268780E+03  0.60522268782E+03  0.50400001928E-02 0.  1.
    10030    2    1    2    0    0  0.00000000000E+00  0.00000000000E+00  0.32403810018E+03  0.15344834758E+04  0.14998796109E+04 0.  0.
        4    1    3    3  502    0  0.97692016581E+02 -0.39061990821E+03 -0.48525471916E+03  0.63055641950E+03  0.12699999809E+01 0.  1.
       -4    1    3    3    0  502 -0.97692016581E+02  0.39061990821E+03  0.80929281934E+03  0.90392705631E+03  0.12699999809E+01 0. -1.
</event>
<event>
 5   0  0.7454828E-04  0.1506380E+04  0.7818609E-02  0.8880221E-01
       -2   -1    0    0    0  501  0.00000000000E+00  0.00000000000E+00  0.23975722868E+03  0.23975722870E+03  0.25500000920E-02 0. -1.
        2   -1    0    0  501    0  0.00000000000E+00  0.00000000000E+00 -0.23661241841E+04  0.23661241841E+04  0.25500000920E-02 0.  1.
    10030    2    1    2    0    0  0.00000000000E+00  0.00000000000E+00 -0.21263669554E+04  0.26058814128E+04  0.15063802669E+04 0.  0.
        3    1    3    3  502    0 -0.27139072912E+03 -0.65786998655E+03 -0.63645796570E+03  0.95473797419E+03  0.10100000352E+00 0. -1.
       -3    1    3    3    0  502  0.27139072912E+03  0.65786998655E+03 -0.14899089897E+04  0.16511434386E+04  0.10100000352E+00 0.  1.
</event>
<event>
 5   0  0.7359897E-04  0.1504611E+04  0.7818609E-02  0.8881392E-01
        2   -1    0    0  501    0  0.00000000000E+00  0.00000000000E+00  0.23849659526E+04  0.23849659526E+04  0.25500000920E-02 0. -1.
       -2   -1    0    0    0  501  0.00000000000E+00  0.00000000000E+00 -0.23730471115E+03  0.23730471116E+03  0.25500000920E-02 0.  1.
    10030    2    1    2    0    0  0.00000000000E+00  0.00000000000E+00  0.21476612415E+04  0.26222706638E+04  0.15046111212E+04 0.  0.
        1    1    3    3  502    0 -0.42224055886E+03 -0.57106450356E+03  0.15062540886E+04  0.16652937087E+04  0.50400001928E-02 0. -1.
       -1    1    3    3    0  502  0.42224055886E+03  0.57106450356E+03  0.64140715285E+03  0.95697695506E+03  0.50400001928E-02 0.  1.
</event>
<event>
 5   0  0.4015204E-04  0.1495701E+04  0.7818609E-02  0.8887317E-01
       -1   -1    0    0    0  501  0.00000000000E+00  0.00000000000E+00  0.69859246258E+03  0.69859246259E+03  0.50400001928E-02 0.  1.
        1   -1    0    0  501    0  0.00000000000E+00  0.00000000000E+00 -0.80058187552E+03  0.80058187554E+03  0.50400001928E-02 0. -1.
    10030    2    1    2    0    0  0.00000000000E+00  0.00000000000E+00 -0.10198941295E+03  0.14991743381E+04  0.14957011251E+04 0.  0.
        2    1    3    3  502    0 -0.68109945416E+02  0.49142303833E+03 -0.61188766576E+03  0.78774493510E+03  0.25500000920E-02 0. -1.
       -2    1    3    3    0  502  0.68109945416E+02 -0.49142303833E+03  0.50989825282E+03  0.71142940303E+03  0.25500000920E-02 0.  1.
</event>
<event>
 5   0  0.7672251E-04  0.1473599E+04  0.7818609E-02  0.8902202E-01
       -2   -1    0    0    0  501  0.00000000000E+00  0.00000000000E+00  0.31939941579E+03  0.31939941580E+03  0.25500000920E-02 0. -1.
        2   -1    0    0  501    0  0.00000000000E+00  0.00000000000E+00 -0.16996685279E+04  0.16996685279E+04  0.25500000920E-02 0.  1.
    10030    2    1    2    0    0  0.00000000000E+00  0.00000000000E+00 -0.13802691121E+04  0.20190679437E+04  0.14735985001E+04 0.  0.
        5    1    3    3  502    0  0.69820417097E+03  0.16217115669E+01 -0.10125139364E+04  0.12299179874E+04  0.46999998093E+01 0.  1.
       -5    1    3    3    0  502 -0.69820417097E+03 -0.16217115669E+01 -0.36775517574E+03  0.78914995633E+03  0.46999998093E+01 0. -1.
</event>
<event>
 5   0  0.4084462E-04  0.1489023E+04  0.7818609E-02  0.8891785E-01
        1   -1    0    0  501    0  0.00000000000E+00  0.00000000000E+00  0.67618157508E+03  0.67618157509E+03  0.50400001928E-02 0.  1.
       -1   -1    0    0    0  501  0.00000000000E+00  0.00000000000E+00 -0.81974685708E+03  0.81974685710E+03  0.50400001928E-02 0. -1.
    10030    2    1    2    0    0  0.00000000000E+00  0.00000000000E+00 -0.14356528201E+03  0.14959284322E+04  0.14890234666E+04 0.  0.
        1    1    3    3  502    0  0.29294565678E+03  0.36080239261E+03  0.51255206735E+03  0.69188521166E+03  0.50400001928E-02 0.  1.
       -1    1    3    3    0  502 -0.29294565678E+03 -0.36080239261E+03 -0.65611734935E+03  0.80404322054E+03  0.50400001928E-02 0. -1.
</event>
<event>
 5   0  0.7359897E-04  0.1499025E+04  0.7818609E-02  0.8885101E-01
        2   -1    0    0  501    0  0.00000000000E+00  0.00000000000E+00  0.24960555724E+04  0.24960555724E+04  0.25500000920E-02 0.  1.
       -2   -1    0    0    0  501  0.00000000000E+00  0.00000000000E+00 -0.22506283889E+03  0.22506283890E+03  0.25500000920E-02 0. -1.
    10030    2    1    2    0    0  0.00000000000E+00  0.00000000000E+00  0.22709927335E+04  0.27211184113E+04  0.14990254877E+04 0.  0.
        1    1    3    3  502    0  0.45842151653E+03  0.37976411805E+03  0.19621831605E+04  0.20504959955E+04  0.50400001928E-02 0.  1.
       -1    1    3    3    0  502 -0.45842151653E+03 -0.37976411805E+03  0.30880957301E+03  0.67062241581E+03  0.50400001928E-02 0. -1.
</event>
<event>
 5   0  0.7634227E-04  0.1418774E+04  0.7818609E-02  0.8940340E-01
       -2   -1    0    0    0  501  0.00000000000E+00  0.00000000000E+00  0.99054339165E+03  0.99054339166E+03  0.25500000920E-02 0. -1.
        2   -1    0    0  501    0  0.00000000000E+00  0.00000000000E+00 -0.50803412294E+03  0.50803412295E+03  0.25500000920E-02 0.  1.
    10030    2    1    2    0    0  0.00000000000E+00  0.00000000000E+00  0.48250926871E+03  0.14985775146E+04  0.14187738977E+04 0.  0.
        2    1    3    3  502    0  0.52489605799E+03 -0.47055775481E+03  0.15748827784E+03  0.72231781784E+03  0.25500000920E-02 0.  1.
       -2    1    3    3    0  502 -0.52489605799E+03  0.47055775481E+03  0.32502099087E+03  0.77625969676E+03  0.25500000920E-02 0. -1.
</event>
<event>
 5   0  0.3907345E-04  0.1500293E+04  0.7818609E-02  0.8884258E-01
       -1   -1    0    0    0  501  0.00000000000E+00  0.00000000000E+00  0.71561912252E+03  0.71561912254E+03  0.50400001928E-02 0. -1.
        1   -1    0    0  501    0  0.00000000000E+00  0.00000000000E+00 -0.78634028482E+03  0.78634028483E+03  0.50400001928E-02 0.  1.
    10030    2    1    2    0    0  0.00000000000E+00  0.00000000000E+00 -0.70721162295E+02  0.15019594074E+04  0.15002934975E+04 0.  0.
        5    1    3    3  502    0 -0.27609258869E+03 -0.15423317169E+03 -0.71632398180E+03  0.78304350177E+03  0.46999998093E+01 0.  1.
       -5    1    3    3    0  502  0.27609258869E+03  0.15423317169E+03  0.64560281950E+03  0.71891590560E+03  0.46999998093E+01 0. -1.
</event>
<event>
 5   0  0.4086710E-04  0.1474059E+04  0.7818609E-02  0.8901889E-01
        1   -1    0    0  501    0  0.00000000000E+00  0.00000000000E+00  0.18072543521E+04  0.18072543522E+04  0.50400001928E-02 0. -1.
       -1   -1    0    0    0  501  0.00000000000E+00  0.00000000000E+00 -0.30057317489E+03  0.30057317493E+03  0.50400001928E-02 0.  1.
    10030    2    1    2    0    0  0.00000000000E+00  0.00000000000E+00  0.15066811773E+04  0.21078275271E+04  0.14740585857E+04 0.  0.
        3    1    3    3  502    0  0.30870681545E+03 -0.61083194049E+03  0.36226447817E+03  0.77437143528E+03  0.10100000352E+00 0.  1.
       -3    1    3    3    0  502 -0.30870681545E+03  0.61083194049E+03  0.11444166991E+04  0.13334560918E+04  0.10100000352E+00 0. -1.
</event>
<event>
 5   0  0.7454828E-04  0.1399175E+04  0.7818609E-02  0.8954416E-01
        2   -1    0    0  501    0  0.00000000000E+00  0.00000000000E+00  0.12131871027E+04  0.12131871027E+04  0.25500000920E-02 0.  1.
       -2   -1    0    0    0  501  0.00000000000E+00  0.00000000000E+00 -0.40341905507E+03  0.40341905508E+03  0.25500000920E-02 0. -1.
    10030    2    1    2    0    0  0.00000000000E+00  0.00000000000E+00  0.80976804766E+03  0.16166061578E+04  0.13991751779E+04 0.  0.
        3    1    3    3  502    0 -0.31401524647E+03  0.49944841325E+03  0.83930266150E+03  0.10259060680E+04  0.10100000352E+00 0.  1.
       -3    1    3    3    0  502  0.31401524647E+03 -0.49944841325E+03 -0.29534613840E+02  0.59070008983E+03  0.10100000352E+00 0. -1.
</event>
<event>
 5   0  0.7672251E-04  0.1503798E+04  0.7818609E-02  0.8881931E-01
       -2   -1    0    0    0  501  0.00000000000E+00  0.00000000000E+00  0.45528790809E+03  0.45528790810E+03  0.25500000920E-02 0.  1.
        2   -1    0    0  501    0  0.00000000000E+00  0.00000000000E+00 -0.12417463463E+04  0.12417463463E+04  0.25500000920E-02 0. -1.
    10030    2    1    2    0    0  0.00000000000E+00  0.00000000000E+00 -0.78645843819E+03  0.16970342544E+04  0.15037979869E+04 0.  0.
        5    1    3    3  502    0  0.50040944133E+02  0.14593126354E+03 -0.12236770605E+04  0.12333724774E+04  0.46999998093E+01 0. -1.
       -5    1    3    3    0  502 -0.50040944133E+02 -0.14593126354E+03  0.43721862226E+03  0.46366177696E+03  0.46999998093E+01 0.  1.
</event>
<event>
 5   0  0.3907345E-04  0.1500808E+04  0.7818609E-02  0.8883916E-01
        1   -1    0    0  501    0  0.00000000000E+00  0.00000000000E+00  0.21732338742E+04  0.21732338742E+04  0.50400001928E-02 0. -1.
       -1   -1    0    0    0  501  0.00000000000E+00  0.00000000000E+00 -0.25910993328E+03  0.25910993333E+03  0.50400001928E-02 0.  1.
    10030    2    1    2    0    0  0.00000000000E+00  0.00000000000E+00  0.19141239409E+04  0.24323438075E+04  0.15008084278E+04 0.  0.
        5    1    3    3  502    0 -0.14235947337E+03  0.15651549380E+03 -0.20974532429E+03  0.29795722934E+03  0.46999998093E+01 0.  1.
       -5    1    3    3    0  502  0.14235947337E+03 -0.15651549380E+03  0.21238692652E+04  0.21343865782E+04  0.46999998093E+01 0. -1.
</event>
<event>
 5   0  0.7359897E-04  0.1486342E+04  0.7818609E-02  0.8893587E-01
        2   -1    0    0  501    0  0.00000000000E+00  0.00000000000E+00  0.50900083729E+03  0.50900083730E+03  0.25500000920E-02 0.  1.
       -2   -1    0    0    0  501  0.00000000000E+00  0.00000000000E+00 -0.10850727493E+04  0.10850727493E+04  0.25500000920E-02 0. -1.
    10030    2    1    2    0    0  0.00000000000E+00  0.00000000000E+00 -0.57607191201E+03  0.15940735866E+04  0.14863417345E+04 0.  0.
        1    1    3    3  502    0  0.41717296239E+03 -0.61221096587E+03 -0.35118853320E+03  0.81985909347E+03  0.50400001928E-02 0. -1.
       -1    1    3    3    0  502 -0.41717296239E+03  0.61221096587E+03 -0.22488337881E+03  0.77421449313E+03  0.50400001928E-02 0.  1.
</event>
<event>
 5   0  0.4084462E-04  0.1496387E+04  0.7818609E-02  0.8886859E-01
        1   -1    0    0  501    0  0.00000000000E+00  0.00000000000E+00  0.99303335239E+03  0.99303335240E+03  0.50400001928E-02 0. -1.
       -1   -1    0    0    0  501  0.00000000000E+00  0.00000000000E+00 -0.56372058933E+03  0.56372058936E+03  0.50400001928E-02 0.  1.
    10030    2    1    2    0    0  0.00000000000E+00  0.00000000000E+00  0.42931276305E+03  0.15567539418E+04  0.14963867771E+04 0.  0.
        1    1    3    3  502    0  0.19332213174E+03 -0.19193813641E+03 -0.51029077682E+03  0.57845515968E+03  0.50400001928E-02 0.  1.
       -1    1    3    3    0  502 -0.19332213174E+03  0.19193813641E+03  0.93960353987E+03  0.97829878207E+03  0.50400001928E-02 0. -1.
</event>
<event>
 5   0  0.7454828E-04  0.1501972E+04  0.7818609E-02  0.8883143E-01
        2   -1    0    0  501    0  0.00000000000E+00  0.00000000000E+00  0.14087903553E+04  0.14087903553E+04  0.25500000920E-02 0. -1.
       -2   -1    0    0    0  501  0.00000000000E+00  0.00000000000E+00 -0.40032929210E+03  0.40032929211E+03  0.25500000920E-02 0.  1.
    10030    2    1    2    0    0  0.00000000000E+00  0.00000000000E+00  0.10084610632E+04  0.18091196474E+04  0.15019720978E+04 0.  0.
        3    1    3    3  502    0  0.56121449559E+03  0.35284602084E+03  0.79198645037E+02  0.66763347733E+03  0.10100000352E+00 0.  1.
       -3    1    3    3    0  502 -0.56121449559E+03 -0.35284602084E+03  0.92926241820E+03  0.11414861701E+04  0.10100000352E+00 0. -1.
</event>
<event>
 5   0  0.7547580E-04  0.1504519E+04  0.7818609E-02  0.8881453E-01
        2   -1    0    0  501    0  0.00000000000E+00  0.00000000000E+00  0.31332133157E+04  0.31332133157E+04  0.25500000920E-02 0.  1.
       -2   -1    0    0    0  501  0.00000000000E+00  0.00000000000E+00 -0.18061159496E+03  0.18061159498E+03  0.25500000920E-02 0. -1.
    10030    2    1    2    0    0  0.00000000000E+00  0.00000000000E+00  0.29526017208E+04  0.33138249107E+04  0.15045193975E+04 0.  0.
        4    1    3    3  502    0  0.33162220271E+03 -0.62928491022E+03  0.20154620263E+04  0.21373024063E+04  0.12699999809E+01 0.  1.
       -4    1    3    3    0  502 -0.33162220271E+03  0.62928491022E+03  0.93713969449E+03  0.11765225044E+04  0.12699999809E+01 0. -1.
</event>
<event>
 5   0  0.7634227E-04  0.1392869E+04  0.7818609E-02  0.8958996E-01
        2   -1    0    0  501    0  0.00000000000E+00  0.00000000000E+00  0.13018450961E+04  0.13018450961E+04  0.25500000920E-02 0. -1.
       -2   -1    0    0    0  501  0.00000000000E+00  0.00000000000E+00 -0.37256452663E+03  0.37256452664E+03  0.25500000920E-02 0.  1.
    10030    2    1    2    0    0  0.00000000000E+00  0.00000000000E+00  0.92928056947E+03  0.16744096227E+04  0.13928694152E+04 0.  0.
        2    1    3    3  502    0 -0.68435423611E+03 -0.64167448238E+02  0.59938137726E+03  0.91198476813E+03  0.25500000920E-02 0. -1.
       -2    1    3    3    0  502  0.68435423611E+03  0.64167448238E+02  0.32989919221E+03  0.76242485461E+03  0.25500000920E-02 0.  1.
</event>
<event>
 5   0  0.7547580E-04  0.1497059E+04  0.7818609E-02  0.8886411E-01
        2   -1    0    0  501    0  0.00000000000E+00  0.00000000000E+00  0.10558186663E+04  0.10558186663E+04  0.25500000920E-02 0.  1.
       -2   -1    0    0    0  501  0.00000000000E+00  0.00000000000E+00 -0.53067520040E+03  0.53067520041E+03  0.25500000920E-02 0. -1.
    10030    2    1    2    0    0  0.00000000000E+00  0.00000000000E+00  0.52514346594E+03  0.15864938668E+04  0.14970594943E+04 0.  0.
        4    1    3    3  502    0 -0.56978927635E+03  0.48511686439E+03  0.28083428238E+03  0.79929199835E+03  0.12699999809E+01 0.  1.
       -4    1    3    3    0  502  0.56978927635E+03 -0.48511686439E+03  0.24430918356E+03  0.78720186841E+03  0.12699999809E+01 0. -1.
</event>
<event>
 5   0  0.7359897E-04  0.1490740E+04  0.7818609E-02  0.8890634E-01
        2   -1    0    0  501    0  0.00000000000E+00  0.00000000000E+00  0.17757611568E+04  0.17757611568E+04  0.25500000920E-02 0. -1.
       -2   -1    0    0    0  501  0.00000000000E+00  0.00000000000E+00 -0.31286655145E+03  0.31286655146E+03  0.25500000920E-02 0.  1.
    10030    2    1    2    0    0  0.00000000000E+00  0.00000000000E+00  0.14628946054E+04  0.20886277083E+04  0.14907397752E+04 0.  0.
        1    1    3    3  502    0  0.14663714079E+03 -0.69623333645E+03  0.10426388419E+04  0.12622753521E+04  0.50400001928E-02 0. -1.
       -1    1    3    3    0  502 -0.14663714079E+03  0.69623333645E+03  0.42025576350E+03  0.82635235622E+03  0.50400001928E-02 0.  1.
</event>
<event>
 5   0  0.3907345E-04  0.1494527E+04  0.7818609E-02  0.8888100E-01
        1   -1    0    0  501    0  0.00000000000E+00  0.00000000000E+00  0.89158260492E+03  0.89158260493E+03  0.50400001928E-02 0. -1.
       -1   -1    0    0    0  501  0.00000000000E+00  0.00000000000E+00 -0.62630523014E+03  0.62630523016E+03  0.50400001928E-02 0.  1.
    10030    2    1    2    0    0  0.00000000000E+00  0.00000000000E+00  0.26527737478E+03  0.15178878351E+04  0.14945271474E+04 0.  0.
        5    1    3    3  502    0 -0.18838614147E+03  0.70607334977E+03 -0.25851291596E+02  0.73124502927E+03  0.46999998093E+01 0.  1.
       -5    1    3    3    0  502  0.18838614147E+03 -0.70607334977E+03  0.29112866638E+03  0.78664280582E+03  0.46999998093E+01 0. -1.
</event>
<event>
 5   0  0.4084462E-04  0.1506493E+04  0.7818609E-02  0.8880146E-01
       -1   -1    0    0    0  501  0.00000000000E+00  0.00000000000E+00  0.26825471648E+03  0.26825471652E+03  0.50400001928E-02 0.  1.
        1   -1    0    0  501    0  0.00000000000E+00  0.00000000000E+00 -0.21150809759E+04  0.21150809759E+04  0.50400001928E-02 0. -1.
    10030    2    1    2    0    0  0.00000000000E+00  0.00000000000E+00 -0.18468262595E+04  0.23833356925E+04  0.15064932095E+04 0.  0.
        1    1    3    3  502    0 -0.55947833173E+03 -0.42882796113E+03 -0.50343823637E+03  0.86623292583E+03  0.50400001928E-02 0.  1.
       -1    1    3    3    0  502  0.55947833173E+03  0.42882796113E+03 -0.13433880231E+04  0.15171027666E+04  0.50400001928E-02 0. -1.
</event>
<event>
 5   0  0.7359897E-04  0.1472562E+04  0.7818609E-02  0.8902907E-01
        2   -1    0    0  501    0  0.00000000000E+00  0.00000000000E+00  0.15503787722E+04  0.15503787722E+04  0.25500000920E-02 0.  1.
       -2   -1    0    0    0  501  0.00000000000E+00  0.00000000000E+00 -0.34966256462E+03  0.34966256463E+03  0.25500000920E-02 0. -1.
    10030    2    1    2    0    0  0.00000000000E+00  0.00000000000E+00  0.12007162076E+04  0.19000413368E+04  0.14725616016E+04 0.  0.
        1    1    3    3  502    0  0.53667152690E+03 -0.44135981848E+03  0.91455157134E+03  0.11485727638E+04  0.50400001928E-02 0.  1.
       -1    1    3    3    0  502 -0.53667152690E+03  0.44135981848E+03  0.28616463625E+03  0.75146857301E+03  0.50400001928E-02 0. -1.
</event>
<event>
 5   0  0.4015204E-04  0.1499648E+04  0.7818609E-02  0.8884687E-01
        1   -1    0    0  501    0  0.00000000000E+00  0.00000000000E+00  0.12577773368E+04  0.12577773368E+04  0.50400001928E-02 0. -1.
       -1   -1    0    0    0  501  0.00000000000E+00  0.00000000000E+00 -0.44700748175E+03  0.44700748178E+03  0.50400001928E-02 0.  1.
    10030    2    1    2    0    0  0.00000000000E+00  0.00000000000E+00  0.81076985503E+03  0.17047848186E+04  0.14996477986E+04 0.  0.
        2    1    3    3  502    0 -0.57693763702E+03  0.15495408877E+03 -0.10978055839E+03  0.60738750205E+03  0.25500000920E-02 0.  1.
       -2    1    3    3    0  502  0.57693763702E+03 -0.15495408877E+03  0.92055041342E+03  0.10973973165E+04  0.25500000920E-02 0. -1.
</event>
<event>
 5   0  0.4086710E-04  0.1461431E+04  0.7818609E-02  0.8910514E-01
        1   -1    0    0  501    0  0.00000000000E+00  0.00000000000E+00  0.13030208712E+04  0.13030208713E+04  0.50400001928E-02 0.  1.
       -1   -1    0    0    0  501  0.00000000000E+00  0.00000000000E+00 -0.40977473412E+03  0.40977473415E+03  0.50400001928E-02 0. -1.
    10030    2    1    2    0    0  0.00000000000E+00  0.00000000000E+00  0.89324613712E+03  0.17127956054E+04  0.14614308483E+04 0.  0.
        3    1    3    3  502    0 -0.23512901464E+02 -0.14543223502E+03 -0.39218906659E+03  0.41894589827E+03  0.10100000352E+00 0. -1.
       -3    1    3    3    0  502  0.23512901464E+02  0.14543223502E+03  0.12854352037E+04  0.12938497071E+04  0.10100000352E+00 0.  1.
</event>
<event>
 5   0  0.4058874E-04  0.1505422E+04  0.7818609E-02  0.8880855E-01
        1   -1    0    0  501    0  0.00000000000E+00  0.00000000000E+00  0.96055138171E+03  0.96055138172E+03  0.50400001928E-02 0. -1.
       -1   -1    0    0    0  501  0.00000000000E+00  0.00000000000E+00 -0.58984238463E+03  0.58984238465E+03  0.50400001928E-02 0.  1.
    10030    2    1    2    0    0  0.00000000000E+00  0.00000000000E+00  0.37070899708E+03  0.15503937664E+04  0.15054220904E+04 0.  0.
        4    1    3    3  502    0  0.36363287507E+03 -0.65190531857E+03  0.85701872765E+02  0.75136930741E+03  0.12699999809E+01 0.  1.
       -4    1    3    3    0  502 -0.36363287507E+03  0.65190531857E+03  0.28500712432E+03  0.79902445897E+03  0.12699999809E+01 0. -1.
</event>
<event>
 5   0  0.7359897E-04  0.1500928E+04  0.7818609E-02  0.8883836E-01
        2   -1    0    0  501    0  0.00000000000E+00  0.00000000000E+00  0.77389356848E+03  0.77389356848E+03  0.25500000920E-02 0.  1.
       -2   -1    0    0    0  501  0.00000000000E+00  0.00000000000E+00 -0.72774409466E+03  0.72774409466E+03  0.25500000920E-02 0. -1.
    10030    2    1    2    0    0  0.00000000000E+00  0.00000000000E+00  0.46149473821E+02  0.15016376631E+04  0.15009283452E+04 0.  0.
        1    1    3    3  502    0  0.11570346261E+02  0.67813113805E+03  0.34447530720E+03  0.76069635900E+03  0.50400001928E-02 0.  1.
       -1    1    3    3    0  502 -0.11570346261E+02 -0.67813113805E+03 -0.29832583338E+03  0.74094130414E+03  0.50400001928E-02 0. -1.
</event>
<event>
 5   0  0.4015204E-04  0.1502350E+04  0.7818609E-02  0.8882892E-01
       -1   -1    0    0    0  501  0.00000000000E+00  0.00000000000E+00  0.64819934232E+03  0.64819934234E+03  0.50400001928E-02 0.  1.
        1   -1    0    0  501    0  0.00000000000E+00  0.00000000000E+00 -0.87050974149E+03  0.87050974150E+03  0.50400001928E-02 0. -1.
    10030    2    1    2    0    0  0.00000000000E+00  0.00000000000E+00 -0.22231039917E+03  0.15187090838E+04  0.15023499485E+04 0.  0.
        2    1    3    3  502    0 -0.54094995723E+03 -0.36852963848E+03 -0.48370983358E+03  0.81388952184E+03  0.25500000920E-02 0. -1.
       -2    1    3    3    0  502  0.54094995723E+03  0.36852963848E+03  0.26139943440E+03  0.70481956200E+03  0.25500000920E-02 0.  1.
</event>
<event>
 5   0  0.3907345E-04  0.1495415E+04  0.7818609E-02  0.8887508E-01
       -1   -1    0    0    0  501  0.00000000000E+00  0.00000000000E+00  0.30211182532E+03  0.30211182536E+03  0.50400001928E-02 0.  1.
        1   -1    0    0  501    0  0.00000000000E+00  0.00000000000E+00 -0.18505274686E+04  0.18505274686E+04  0.50400001928E-02 0. -1.
    10030    2    1    2    0    0  0.00000000000E+00  0.00000000000E+00 -0.15484156432E+04  0.21526392939E+04  0.14954146333E+04 0.  0.
        5    1    3    3  502    0 -0.54364647356E+02 -0.59798255951E+03 -0.13285664887E+03  0.61498913447E+03  0.46999998093E+01 0.  1.
       -5    1    3    3    0  502  0.54364647356E+02  0.59798255951E+03 -0.14155589944E+04  0.15376501595E+04  0.46999998093E+01 0. -1.
</event>
<event>
 5   0  0.3907345E-04  0.1544826E+04  0.7818609E-02  0.8855179E-01
       -1   -1    0    0    0  501  0.00000000000E+00  0.00000000000E+00  0.49752547718E+03  0.49752547720E+03  0.50400001928E-02 0.  1.
        1   -1    0    0  501    0  0.00000000000E+00  0.00000000000E+00 -0.11991792178E+04  0.11991792178E+04  0.50400001928E-02 0. -1.
    10030    2    1    2    0    0  0.00000000000E+00  0.00000000000E+00 -0.70165374066E+03  0.16967046950E+04  0.15448264791E+04 0.  0.
        5    1    3    3  502    0  0.22972785928E+03  0.42019977903E+03  0.31477084410E+03  0.57310166456E+03  0.46999998093E+01 0.  1.
       -5    1    3    3    0  502 -0.22972785928E+03 -0.42019977903E+03 -0.10164245848E+04  0.11236030305E+04  0.46999998093E+01 0. -1.
</event>
<event>
 5   0  0.7359897E-04  0.1502960E+04  0.7818609E-02  0.8882487E-01
       -2   -1    0    0    0  501  0.00000000000E+00  0.00000000000E+00  0.51784887976E+03  0.51784887977E+03  0.25500000920E-02 0. -1.
        2   -1    0    0  501    0  0.00000000000E+00  0.00000000000E+00 -0.10905160656E+04  0.10905160656E+04  0.25500000920E-02 0.  1.
    10030    2    1    2    0    0  0.00000000000E+00  0.00000000000E+00 -0.57266718581E+03  0.16083649453E+04  0.15029604425E+04 0.  0.
        1    1    3    3  502    0 -0.59752205494E+03  0.75254232173E+02 -0.76732957914E+03  0.97544373935E+03  0.50400001928E-02 0.  1.
       -1    1    3    3    0  502  0.59752205494E+03 -0.75254232173E+02  0.19466239332E+03  0.63292120599E+03  0.50400001928E-02 0. -1.
</event>
<event>
 5   0  0.2800375E-04  0.1239921E+04  0.7818609E-02  0.9078614E-01
        3   -1    0    0  501    0  0.00000000000E+00  0.00000000000E+00  0.39703797985E+03  0.39703799270E+03  0.10100000352E+00 0.  1.
       -3   -1    0    0    0  501  0.00000000000E+00  0.00000000000E+00 -0.96804566108E+03  0.96804566635E+03  0.10100000352E+00 0. -1.
    10030    2    1    2    0    0  0.00000000000E+00  0.00000000000E+00 -0.57100768123E+03  0.13650836591E+04  0.12399208137E+04 0.  0.
        5    1    3    3  502    0 -0.60000908886E+03  0.11615178566E+03 -0.40005851308E+03  0.73045947726E+03  0.46999998093E+01 0. -1.
       -5    1    3    3    0  502  0.60000908886E+03 -0.11615178566E+03 -0.17094916815E+03  0.63462418180E+03  0.46999998093E+01 0.  1.
</event>
<event>
 5   0  0.3907345E-04  0.1489420E+04  0.7818609E-02  0.8891519E-01
       -1   -1    0    0    0  501  0.00000000000E+00  0.00000000000E+00  0.38684839862E+03  0.38684839865E+03  0.50400001928E-02 0.  1.
        1   -1    0    0  501    0  0.00000000000E+00  0.00000000000E+00 -0.14336178182E+04  0.14336178182E+04  0.50400001928E-02 0. -1.
    10030    2    1    2    0    0  0.00000000000E+00  0.00000000000E+00 -0.10467694196E+04  0.18204662169E+04  0.14894196954E+04 0.  0.
        5    1    3    3  502    0 -0.60739927650E+03 -0.42651775430E+03 -0.59792678410E+03  0.95309485622E+03  0.46999998093E+01 0.  1.
       -5    1    3    3    0  502  0.60739927650E+03  0.42651775430E+03 -0.44884263548E+03  0.86737136063E+03  0.46999998093E+01 0. -1.
</event>
<event>
 5   0  0.7634227E-04  0.1572339E+04  0.7818609E-02  0.8837724E-01
       -2   -1    0    0    0  501  0.00000000000E+00  0.00000000000E+00  0.48741843893E+03  0.48741843893E+03  0.25500000920E-02 0.  1.
        2   -1    0    0  501    0  0.00000000000E+00  0.00000000000E+00 -0.12680331325E+04  0.12680331325E+04  0.25500000920E-02 0. -1.
    10030    2    1    2    0    0  0.00000000000E+00  0.00000000000E+00 -0.78061469354E+03  0.17554515714E+04  0.15723393145E+04 0.  0.
        2    1    3    3  502    0  0.24509061078E+03  0.14792883937E+03  0.42715863269E+03  0.51421478635E+03  0.25500000920E-02 0.  1.
       -2    1    3    3    0  502 -0.24509061078E+03 -0.14792883937E+03 -0.12077733262E+04  0.12412367851E+04  0.25500000920E-02 0. -1.
</event>
<event>
 5   0  0.4015204E-04  0.1501538E+04  0.7818609E-02  0.8883431E-01
        1   -1    0    0  501    0  0.00000000000E+00  0.00000000000E+00  0.63623939984E+03  0.63623939986E+03  0.50400001928E-02 0.  1.
       -1   -1    0    0    0  501  0.00000000000E+00  0.00000000000E+00 -0.88591525577E+03  0.88591525578E+03  0.50400001928E-02 0. -1.
    10030    2    1    2    0    0  0.00000000000E+00  0.00000000000E+00 -0.24967585593E+03  0.15221546556E+04  0.15015381323E+04 0.  0.
        2    1    3    3  502    0  0.36417563164E+03  0.23051919578E+03  0.49833101915E+03  0.65886022414E+03  0.25500000920E-02 0.  1.
       -2    1    3    3    0  502 -0.36417563164E+03 -0.23051919578E+03 -0.74800687507E+03  0.86329443151E+03  0.25500000920E-02 0. -1.
</event>
<event>
 5   0  0.7672251E-04  0.1503797E+04  0.7818609E-02  0.8881932E-01
        2   -1    0    0  501    0  0.00000000000E+00  0.00000000000E+00  0.70100440171E+03  0.70100440172E+03  0.25500000920E-02 0.  1.
       -2   -1    0    0    0  501  0.00000000000E+00  0.00000000000E+00 -0.80648776618E+03  0.80648776618E+03  0.25500000920E-02 0. -1.
    10030    2    1    2    0    0  0.00000000000E+00  0.00000000000E+00 -0.10548336446E+03  0.15074921679E+04  0.15037971592E+04 0.  0.
        5    1    3    3  502    0 -0.44760695980E+03 -0.28391601986E+03 -0.58731465340E+03  0.79115162194E+03  0.46999998093E+01 0. -1.
       -5    1    3    3    0  502  0.44760695980E+03  0.28391601986E+03  0.48183128894E+03  0.71634054596E+03  0.46999998093E+01 0.  1.
</event>
<event>
 5   0  0.7547580E-04  0.1496459E+04  0.7818609E-02  0.8886811E-01
       -2   -1    0    0    0  501  0.00000000000E+00  0.00000000000E+00  0.12230422828E+04  0.12230422828E+04  0.25500000920E-02 0. -1.
        2   -1    0    0  501    0  0.00000000000E+00  0.00000000000E+00 -0.45774974850E+03  0.45774974851E+03  0.25500000920E-02 0.  1.
    10030    2    1    2    0    0  0.00000000000E+00  0.00000000000E+00  0.76529253426E+03  0.16807920313E+04  0.14964588833E+04 0.  0.
        4    1    3    3  502    0  0.51526058279E+03 -0.79125233145E+02 -0.22021078991E+03  0.56590518251E+03  0.12699999809E+01 0.  1.
       -4    1    3    3    0  502 -0.51526058279E+03  0.79125233145E+02  0.98550332417E+03  0.11148868488E+04  0.12699999809E+01 0. -1.
</event>
<event>
 5   0  0.7547580E-04  0.1501904E+04  0.7818609E-02  0.8883188E-01
        2   -1    0    0  501    0  0.00000000000E+00  0.00000000000E+00  0.16465215057E+04  0.16465215057E+04  0.25500000920E-02 0.  1.
       -2   -1    0    0    0  501  0.00000000000E+00  0.00000000000E+00 -0.34249704281E+03  0.34249704282E+03  0.25500000920E-02 0. -1.
    10030    2    1    2    0    0  0.00000000000E+00  0.00000000000E+00  0.13040244629E+04  0.19890185485E+04  0.15019037874E+04 0.  0.
        4    1    3    3  502    0  0.50113748366E+03  0.35587866139E+03  0.80645302926E+02  0.61991424968E+03  0.12699999809E+01 0.  1.
       -4    1    3    3    0  502 -0.50113748366E+03 -0.35587866139E+03  0.12233791600E+04  0.13691042988E+04  0.12699999809E+01 0. -1.
</event>
<event>
 5   0  0.3907345E-04  0.1496757E+04  0.7818609E-02  0.8886612E-01
       -1   -1    0    0    0  501  0.00000000000E+00  0.00000000000E+00  0.37956344862E+03  0.37956344865E+03  0.50400001928E-02 0. -1.
        1   -1    0    0  501    0  0.00000000000E+00  0.00000000000E+00 -0.14755650060E+04  0.14755650060E+04  0.50400001928E-02 0.  1.
    10030    2    1    2    0    0  0.00000000000E+00  0.00000000000E+00 -0.10960015574E+04  0.18551284546E+04  0.14967572179E+04 0.  0.
        5    1    3    3  502    0 -0.63890966857E+02 -0.12860989407E+03  0.36230755752E+03  0.38975815159E+03  0.46999998093E+01 0. -1.
       -5    1    3    3    0  502  0.63890966857E+02  0.12860989407E+03 -0.14583091149E+04  0.14653703030E+04  0.46999998093E+01 0.  1.
</event>
<event>
 5   0  0.2800375E-04  0.1490508E+04  0.7818609E-02  0.8890789E-01
       -3   -1    0    0    0  501  0.00000000000E+00  0.00000000000E+00  0.12034443928E+04  0.12034443971E+04  0.10100000352E+00 0.  1.
        3   -1    0    0  501    0  0.00000000000E+00  0.00000000000E+00 -0.46151180019E+03  0.46151181124E+03  0.10100000352E+00 0. -1.
    10030    2    1    2    0    0  0.00000000000E+00  0.00000000000E+00  0.74193259266E+03  0.16649562083E+04  0.14905083709E+04 0.  0.
        2    1    3    3  502    0  0.29289582795E+03 -0.33930321076E+03 -0.29410756432E+03  0.53610996470E+03  0.25500000920E-02 0. -1.
       -2    1    3    3    0  502 -0.29289582795E+03  0.33930321076E+03  0.10360401570E+04  0.11288462436E+04  0.25500000920E-02 0.  1.
</event>
<event>
 5   0  0.3907345E-04  0.1505697E+04  0.7818609E-02  0.8880673E-01
        1   -1    0    0  501    0  0.00000000000E+00  0.00000000000E+00  0.70281577510E+03  0.70281577512E+03  0.50400001928E-02 0. -1.
       -1   -1    0    0    0  501  0.00000000000E+00  0.00000000000E+00 -0.80644342979E+03  0.80644342981E+03  0.50400001928E-02 0.  1.
    10030    2    1    2    0    0  0.00000000000E+00  0.00000000000E+00 -0.10362765469E+03  0.15092592049E+04  0.15056973988E+04 0.  0.
        5    1    3    3  502    0  0.31024530015E+03 -0.27035968987E+03 -0.68371175454E+03  0.79801651704E+03  0.46999998093E+01 0.  1.
       -5    1    3    3    0  502 -0.31024530015E+03  0.27035968987E+03  0.58008409986E+03  0.71124268789E+03  0.46999998093E+01 0. -1.
</event>
<event>
 5   0  0.7359897E-04  0.1532402E+04  0.7818609E-02  0.8863188E-01
        2   -1    0    0  501    0  0.00000000000E+00  0.00000000000E+00  0.39517842938E+03  0.39517842939E+03  0.25500000920E-02 0. -1.
       -2   -1    0    0    0  501  0.00000000000E+00  0.00000000000E+00 -0.14855661012E+04  0.14855661012E+04  0.25500000920E-02 0.  1.
    10030    2    1    2    0    0  0.00000000000E+00  0.00000000000E+00 -0.10903876718E+04  0.18807445306E+04  0.15324016166E+04 0.  0.
        1    1    3    3  502    0  0.70388596983E+03  0.20627486586E+03 -0.81703555517E+03  0.10979762644E+04  0.50400001928E-02 0. -1.
       -1    1    3    3    0  502 -0.70388596983E+03 -0.20627486586E+03 -0.27335211665E+03  0.78276826616E+03  0.50400001928E-02 0.  1.
</event>
<event>
 5   0  0.7672251E-04  0.1528833E+04  0.7818609E-02  0.8865502E-01
        2   -1    0    0  501    0  0.00000000000E+00  0.00000000000E+00  0.22738385844E+04  0.22738385844E+04  0.25500000920E-02 0.  1.
       -2   -1    0    0    0  501  0.00000000000E+00  0.00000000000E+00 -0.25698071774E+03  0.25698071776E+03  0.25500000920E-02 0. -1.
    10030    2    1    2    0    0  0.00000000000E+00  0.00000000000E+00  0.20168578667E+04  0.25308193022E+04  0.15288331125E+04 0.  0.
        5    1    3    3  502    0  0.38904017093E+03 -0.88457395044E+02  0.20877826247E+04  0.21255670639E+04  0.46999998093E+01 0.  1.
       -5    1    3    3    0  502 -0.38904017093E+03  0.88457395044E+02 -0.70924757979E+02  0.40525223827E+03  0.46999998093E+01 0. -1.
</event>
<event>
 5   0  0.4086710E-04  0.1484233E+04  0.7818609E-02  0.8895006E-01
       -1   -1    0    0    0  501  0.00000000000E+00  0.00000000000E+00  0.59262849443E+03  0.59262849445E+03  0.50400001928E-02 0. -1.
        1   -1    0    0  501    0  0.00000000000E+00  0.00000000000E+00 -0.92931193375E+03  0.92931193376E+03  0.50400001928E-02 0.  1.
    10030    2    1    2    0    0  0.00000000000E+00  0.00000000000E+00 -0.33668343932E+03  0.15219404282E+04  0.14842327744E+04 0.  0.
        3    1    3    3  502    0  0.50584636516E+03 -0.54150934789E+03 -0.12702153025E+03  0.75182936784E+03  0.10100000352E+00 0. -1.
       -3    1    3    3    0  502 -0.50584636516E+03  0.54150934789E+03 -0.20966190907E+03  0.77011106037E+03  0.10100000352E+00 0.  1.
</event>
<event>
 5   0  0.7547580E-04  0.1490002E+04  0.7818609E-02  0.8891129E-01
        2   -1    0    0  501    0  0.00000000000E+00  0.00000000000E+00  0.10700292464E+04  0.10700292464E+04  0.25500000920E-02 0.  1.
       -2   -1    0    0    0  501  0.00000000000E+00  0.00000000000E+00 -0.51870191469E+03  0.51870191470E+03  0.25500000920E-02 0. -1.
    10030    2    1    2    0    0  0.00000000000E+00  0.00000000000E+00  0.55132733166E+03  0.15887311611E+04  0.14900016361E+04 0.  0.
        4    1    3    3  502    0 -0.20727087960E+03 -0.71533228782E+03  0.25534568032E+03  0.78731475846E+03  0.12699999809E+01 0.  1.
       -4    1    3    3    0  502  0.20727087960E+03  0.71533228782E+03  0.29598165134E+03  0.80141640260E+03  0.12699999809E+01 0. -1.
</event>
<event>
 5   0  0.7359897E-04  0.1513664E+04  0.7818609E-02  0.8875417E-01
       -2   -1    0    0    0  501  0.00000000000E+00  0.00000000000E+00  0.38331041985E+03  0.38331041985E+03  0.25500000920E-02 0. -1.
        2   -1    0    0  501    0  0.00000000000E+00  0.00000000000E+00 -0.14943362684E+04  0.14943362684E+04  0.25500000920E-02 0.  1.
    10030    2    1    2    0    0  0.00000000000E+00  0.00000000000E+00 -0.11110258486E+04  0.18776466883E+04  0.15136639818E+04 0.  0.
        1    1    3    3  502    0  0.26304170269E+03 -0.60396198629E+03 -0.93310988078E+02  0.66533296834E+03  0.50400001928E-02 0. -1.
       -1    1    3    3    0  502 -0.26304170269E+03  0.60396198629E+03 -0.10177148605E+04  0.12123137199E+04  0.50400001928E-02 0.  1.
</event>
<event>
 5   0  0.4086710E-04  0.1489454E+04  0.7818609E-02  0.8891497E-01
        1   -1    0    0  501    0  0.00000000000E+00  0.00000000000E+00  0.12095164632E+04  0.12095164632E+04  0.50400001928E-02 0. -1.
       -1   -1    0    0    0  501  0.00000000000E+00  0.00000000000E+00 -0.45854518256E+03  0.45854518259E+03  0.50400001928E-02 0.  1.
    10030    2    1    2    0    0  0.00000000000E+00  0.00000000000E+00  0.75097128067E+03  0.16680616458E+04  0.14894535206E+04 0.  0.
        3    1    3    3  502    0  0.26057669254E+03 -0.34236155606E+02  0.11558549073E+04  0.11853577114E+04  0.10100000352E+00 0. -1.
       -3    1    3    3    0  502 -0.26057669254E+03  0.34236155606E+02 -0.40488362660E+03  0.48270393445E+03  0.10100000352E+00 0.  1.
</event>
<event>
 5   0  0.7454828E-04  0.1495049E+04  0.7818609E-02  0.8887752E-01
        2   -1    0    0  501    0  0.00000000000E+00  0.00000000000E+00  0.55780532265E+03  0.55780532265E+03  0.25500000920E-02 0.  1.
       -2   -1    0    0    0  501  0.00000000000E+00  0.00000000000E+00 -0.10017705697E+04  0.10017705697E+04  0.25500000920E-02 0. -1.
    10030    2    1    2    0    0  0.00000000000E+00  0.00000000000E+00 -0.44396524706E+03  0.15595758924E+04  0.14950491040E+04 0.  0.
        3    1    3    3  502    0 -0.21652566594E+03 -0.70205581091E+03 -0.36587531179E+03  0.82074994951E+03  0.10100000352E+00 0. -1.
       -3    1    3    3    0  502  0.21652566594E+03  0.70205581091E+03 -0.78089935271E+02  0.73882594286E+03  0.10100000352E+00 0.  1.
</event>
<event>
 5   0  0.4086710E-04  0.1510346E+04  0.7818609E-02  0.8877602E-01
        1   -1    0    0  501    0  0.00000000000E+00  0.00000000000E+00  0.90951472996E+03  0.90951472997E+03  0.50400001928E-02 0. -1.
       -1   -1    0    0    0  501  0.00000000000E+00  0.00000000000E+00 -0.62702258280E+03  0.62702258283E+03  0.50400001928E-02 0.  1.
    10030    2    1    2    0    0  0.00000000000E+00  0.00000000000E+00  0.28249214716E+03  0.15365373128E+04  0.15103460201E+04 0.  0.
        3    1    3    3  502    0 -0.35476062154E+03  0.58065538510E+03  0.47444745082E+03  0.82952767804E+03  0.10100000352E+00 0. -1.
       -3    1    3    3    0  502  0.35476062154E+03 -0.58065538510E+03 -0.19195530366E+03  0.70700963476E+03  0.10100000352E+00 0.  1.
</event>
<event>
 5   0  0.3907345E-04  0.1494597E+04  0.7818609E-02  0.8888054E-01
       -1   -1    0    0    0  501  0.00000000000E+00  0.00000000000E+00  0.10703424913E+04  0.10703424913E+04  0.50400001928E-02 0. -1.
        1   -1    0    0  501    0  0.00000000000E+00  0.00000000000E+00 -0.52175351656E+03  0.52175351659E+03  0.50400001928E-02 0.  1.
    10030    2    1    2    0    0  0.00000000000E+00  0.00000000000E+00  0.54858897477E+03  0.15920960079E+04  0.14945968805E+04 0.  0.
        5    1    3    3  502    0  0.29151418715E+03 -0.55977079396E+03 -0.15194439283E+03  0.64917875165E+03  0.46999998093E+01 0.  1.
       -5    1    3    3    0  502 -0.29151418715E+03  0.55977079396E+03  0.70053336761E+03  0.94291725629E+03  0.46999998093E+01 0. -1.
</event>
<event>
 5   0  0.4084462E-04  0.1310925E+04  0.7818609E-02  0.9020946E-01
        1   -1    0    0  501    0  0.00000000000E+00  0.00000000000E+00  0.22051823192E+04  0.22051823192E+04  0.50400001928E-02 0.  1.
       -1   -1    0    0    0  501  0.00000000000E+00  0.00000000000E+00 -0.19482806816E+03  0.19482806822E+03  0.50400001928E-02 0. -1.
    10030    2    1    2    0    0  0.00000000000E+00  0.00000000000E+00  0.20103542510E+04  0.24000103874E+04  0.13109254918E+04 0.  0.
        1    1    3    3  502    0  0.29471032792E+03 -0.76192768548E+02  0.20679291804E+04  0.20902130539E+04  0.50400001928E-02 0.  1.
       -1    1    3    3    0  502 -0.29471032792E+03  0.76192768548E+02 -0.57574929370E+02  0.30979733355E+03  0.50400001928E-02 0. -1.
</event>
<event>
 5   0  0.4084462E-04  0.1564221E+04  0.7818609E-02  0.8842835E-01
       -1   -1    0    0    0  501  0.00000000000E+00  0.00000000000E+00  0.93658181608E+03  0.93658181609E+03  0.50400001928E-02 0.  1.
        1   -1    0    0  501    0  0.00000000000E+00  0.00000000000E+00 -0.65311661126E+03  0.65311661128E+03  0.50400001928E-02 0. -1.
    10030    2    1    2    0    0  0.00000000000E+00  0.00000000000E+00  0.28346520482E+03  0.15896984274E+04  0.15642213934E+04 0.  0.
        1    1    3    3  502    0 -0.66295491923E+02  0.66605639676E+03 -0.26941928951E+03  0.72153514779E+03  0.50400001928E-02 0. -1.
       -1    1    3    3    0  502  0.66295491923E+02 -0.66605639676E+03  0.55288449433E+03  0.86816327958E+03  0.50400001928E-02 0.  1.
</event>
<event>
 5   0  0.7454828E-04  0.1385432E+04  0.7818609E-02  0.8964432E-01
       -2   -1    0    0    0  501  0.00000000000E+00  0.00000000000E+00  0.78648308822E+03  0.78648308823E+03  0.25500000920E-02 0. -1.
        2   -1    0    0  501    0  0.00000000000E+00  0.00000000000E+00 -0.61012791288E+03  0.61012791289E+03  0.25500000920E-02 0.  1.
    10030    2    1    2    0    0  0.00000000000E+00  0.00000000000E+00  0.17635517534E+03  0.13966110011E+04  0.13854317524E+04 0.  0.
        3    1    3    3  502    0  0.31709142648E+03 -0.37349393036E+03 -0.40547850006E+03  0.63596974218E+03  0.10100000352E+00 0.  1.
       -3    1    3    3    0  502 -0.31709142648E+03  0.37349393036E+03  0.58183367540E+03  0.76064125893E+03  0.10100000352E+00 0. -1.
</event>
<event>
 5   0  0.4084462E-04  0.1504978E+04  0.7818609E-02  0.8881149E-01
        1   -1    0    0  501    0  0.00000000000E+00  0.00000000000E+00  0.78574597484E+03  0.78574597485E+03  0.50400001928E-02 0. -1.
       -1   -1    0    0    0  501  0.00000000000E+00  0.00000000000E+00 -0.72063994128E+03  0.72063994130E+03  0.50400001928E-02 0.  1.
    10030    2    1    2    0    0  0.00000000000E+00  0.00000000000E+00  0.65106033551E+02  0.15063859162E+04  0.15049783164E+04 0.  0.
        1    1    3    3  502    0  0.63153404159E+03 -0.92369872416E+01 -0.37687646200E+03  0.73549740669E+03  0.50400001928E-02 0.  1.
       -1    1    3    3    0  502 -0.63153404159E+03  0.92369872416E+01  0.44198249555E+03  0.77088850946E+03  0.50400001928E-02 0. -1.
</event>
<event>
 5   0  0.4015204E-04  0.1515417E+04  0.7818609E-02  0.8874265E-01
        1   -1    0    0  501    0  0.00000000000E+00  0.00000000000E+00  0.93135862537E+03  0.93135862539E+03  0.50400001928E-02 0. -1.
       -1   -1    0    0    0  501  0.00000000000E+00  0.00000000000E+00 -0.61643517181E+03  0.61643517183E+03  0.50400001928E-02 0.  1.
    10030    2    1    2    0    0  0.00000000000E+00  0.00000000000E+00  0.31492345357E+03  0.15477937972E+04  0.15154170571E+04 0.  0.
        2    1    3    3  502    0 -0.10971035102E+03 -0.37067104884E+03 -0.50814292455E+03  0.63846896506E+03  0.25500000920E-02 0.  1.
       -2    1    3    3    0  502  0.10971035102E+03  0.37067104884E+03  0.82306637812E+03  0.90932483215E+03  0.25500000920E-02 0. -1.
</event>
<event>
 5   0  0.3907345E-04  0.1509762E+04  0.7818609E-02  0.8877987E-01
        1   -1    0    0  501    0  0.00000000000E+00  0.00000000000E+00  0.10863372923E+04  0.10863372923E+04  0.50400001928E-02 0.  1.
       -1   -1    0    0    0  501  0.00000000000E+00  0.00000000000E+00 -0.52455640381E+03  0.52455640384E+03  0.50400001928E-02 0. -1.
    10030    2    1    2    0    0  0.00000000000E+00  0.00000000000E+00  0.56178088846E+03  0.16108936961E+04  0.15097618135E+04 0.  0.
        5    1    3    3  502    0  0.44670417685E+03  0.11640555490E+03 -0.35638499061E+03  0.58320427498E+03  0.46999998093E+01 0. -1.
       -5    1    3    3    0  502 -0.44670417685E+03 -0.11640555490E+03  0.91816587907E+03  0.10276894211E+04  0.46999998093E+01 0.  1.
</event>
<event>
 5   0  0.7359897E-04  0.1497041E+04  0.7818609E-02  0.8886423E-01
        2   -1    0    0  501    0  0.00000000000E+00  0.00000000000E+00  0.70910817863E+03  0.70910817863E+03  0.25500000920E-02 0.  1.
       -2   -1    0    0    0  501  0.00000000000E+00  0.00000000000E+00 -0.79012331896E+03  0.79012331896E+03  0.25500000920E-02 0. -1.
    10030    2    1    2    0    0  0.00000000000E+00  0.00000000000E+00 -0.81015140329E+02  0.14992314976E+04  0.14970409582E+04 0.  0.
        1    1    3    3  502    0 -0.10380666702E+03  0.57874375090E+03  0.42337940950E+03  0.72454832671E+03  0.50400001928E-02 0.  1.
       -1    1    3    3    0  502  0.10380666702E+03 -0.57874375090E+03 -0.50439454983E+03  0.77468317088E+03  0.50400001928E-02 0. -1.
</event>
<event>
 5   0  0.7454828E-04  0.1489147E+04  0.7818609E-02  0.8891702E-01
        2   -1    0    0  501    0  0.00000000000E+00  0.00000000000E+00  0.72452286268E+03  0.72452286268E+03  0.25500000920E-02 0. -1.
       -2   -1    0    0    0  501  0.00000000000E+00  0.00000000000E+00 -0.76517876203E+03  0.76517876203E+03  0.25500000920E-02 0.  1.
    10030    2    1    2    0    0  0.00000000000E+00  0.00000000000E+00 -0.40655899350E+02  0.14897016247E+04  0.14891467451E+04 0.  0.
        3    1    3    3  502    0 -0.54956593956E+03  0.10484905357E+03 -0.51180873628E+03  0.75826396373E+03  0.10100000352E+00 0.  1.
       -3    1    3    3    0  502  0.54956593956E+03 -0.10484905357E+03  0.47115283693E+03  0.73143766099E+03  0.10100000352E+00 0. -1.
</event>
<event>
 5   0  0.4058874E-04  0.1506043E+04  0.7818609E-02  0.8880444E-01
        1   -1    0    0  501    0  0.00000000000E+00  0.00000000000E+00  0.51256855850E+03  0.51256855852E+03  0.50400001928E-02 0.  1.
       -1   -1    0    0    0  501  0.00000000000E+00  0.00000000000E+00 -0.11062741188E+04  0.11062741188E+04  0.50400001928E-02 0. -1.
    10030    2    1    2    0    0  0.00000000000E+00  0.00000000000E+00 -0.59370556030E+03  0.16188426773E+04  0.15060429349E+04 0.  0.
        4    1    3    3  502    0 -0.71854551800E+03  0.21833052543E+03 -0.23735508081E+03  0.78760074089E+03  0.12699999809E+01 0. -1.
       -4    1    3    3    0  502  0.71854551800E+03 -0.21833052543E+03 -0.35635047949E+03  0.83124193644E+03  0.12699999809E+01 0.  1.
</event>
<event>
 5   0  0.4015204E-04  0.1496707E+04  0.7818609E-02  0.8886645E-01
       -1   -1    0    0    0  501  0.00000000000E+00  0.00000000000E+00  0.16198268231E+04  0.16198268231E+04  0.50400001928E-02 0.  1.
        1   -1    0    0  501    0  0.00000000000E+00  0.00000000000E+00 -0.34573648984E+03  0.34573648988E+03  0.50400001928E-02 0. -1.
    10030    2    1    2    0    0  0.00000000000E+00  0.00000000000E+00  0.12740903332E+04  0.19655633130E+04  0.14967073729E+04 0.  0.
        2    1    3    3  502    0  0.10569944103E+03  0.36066762132E+03 -0.21280618290E+03  0.43190273950E+03  0.25500000920E-02 0. -1.
       -2    1    3    3    0  502 -0.10569944103E+03 -0.36066762132E+03  0.14868965161E+04  0.15336605735E+04  0.25500000920E-02 0.  1.
</event>
<event>
 5   0  0.4058874E-04  0.1509648E+04  0.7818609E-02  0.8878062E-01
       -1   -1    0    0    0  501  0.00000000000E+00  0.00000000000E+00  0.31011698074E+03  0.31011698078E+03  0.50400001928E-02 0. -1.
        1   -1    0    0  501    0  0.00000000000E+00  0.00000000000E+00 -0.18372403399E+04  0.18372403399E+04  0.50400001928E-02 0.  1.
    10030    2    1    2    0    0  0.00000000000E+00  0.00000000000E+00 -0.15271233592E+04  0.21473573207E+04  0.15096482069E+04 0.  0.
        4    1    3    3  502    0 -0.15120480512E+03  0.19456817920E+03 -0.17784160478E+04  0.17954066173E+04  0.12699999809E+01 0.  1.
       -4    1    3    3    0  502  0.15120480512E+03 -0.19456817920E+03  0.25129268856E+03  0.35195070347E+03  0.12699999809E+01 0. -1.
</event>
<event>
 5   0  0.4084462E-04  0.1498947E+04  0.7818609E-02  0.8885153E-01
        1   -1    0    0  501    0  0.00000000000E+00  0.00000000000E+00  0.88220249887E+03  0.88220249888E+03  0.50400001928E-02 0.  1.
       -1   -1    0    0    0  501  0.00000000000E+00  0.00000000000E+00 -0.63671377323E+03  0.63671377325E+03  0.50400001928E-02 0. -1.
    10030    2    1    2    0    0  0.00000000000E+00  0.00000000000E+00  0.24548872564E+03  0.15189162721E+04  0.14989469395E+04 0.  0.
        1    1    3    3  502    0 -0.20147895428E+03 -0.55369386198E+03  0.59209945167E+03  0.83531576216E+03  0.50400001928E-02 0.  1.
       -1    1    3    3    0  502  0.20147895428E+03  0.55369386198E+03 -0.34661072603E+03  0.68360050997E+03  0.50400001928E-02 0. -1.
</event>
<event>
 5   0  0.2800375E-04  0.1499980E+04  0.7818609E-02  0.8884466E-01
       -3   -1    0    0    0  501  0.00000000000E+00  0.00000000000E+00  0.73475987170E+03  0.73475987865E+03  0.10100000352E+00 0.  1.
        3   -1    0    0  501    0  0.00000000000E+00  0.00000000000E+00 -0.76553543683E+03  0.76553544349E+03  0.10100000352E+00 0. -1.
    10030    2    1    2    0    0  0.00000000000E+00  0.00000000000E+00 -0.30775565122E+02  0.15002953221E+04  0.14999796393E+04 0.  0.
        1    1    3    3  502    0 -0.94867435237E+02 -0.66049534498E+03  0.32707411030E+03  0.74312273862E+03  0.50400001928E-02 0.  1.
       -1    1    3    3    0  502  0.94867435237E+02  0.66049534498E+03 -0.35784967542E+03  0.75717258351E+03  0.50400001928E-02 0. -1.
</event>
<event>
 5   0  0.4058874E-04  0.1462152E+04  0.7818609E-02  0.8910019E-01
       -1   -1    0    0    0  501  0.00000000000E+00  0.00000000000E+00  0.59451158669E+03  0.59451158671E+03  0.50400001928E-02 0.  1.
        1   -1    0    0  501    0  0.00000000000E+00  0.00000000000E+00 -0.89901059340E+03  0.89901059342E+03  0.50400001928E-02 0. -1.
    10030    2    1    2    0    0  0.00000000000E+00  0.00000000000E+00 -0.30449900672E+03  0.14935221801E+04  0.14621521321E+04 0.  0.
        4    1    3    3  502    0 -0.10477102342E+03 -0.17532600950E+03  0.56477563346E+03  0.60057414697E+03  0.12699999809E+01 0.  1.
       -4    1    3    3    0  502  0.10477102342E+03  0.17532600950E+03 -0.86927464018E+03  0.89294803315E+03  0.12699999809E+01 0. -1.
</event>
<event>
 5   0  0.7547580E-04  0.1474000E+04  0.7818609E-02  0.8901929E-01
        2   -1    0    0  501    0  0.00000000000E+00  0.00000000000E+00  0.79071070328E+03  0.79071070328E+03  0.25500000920E-02 0.  1.
       -2   -1    0    0    0  501  0.00000000000E+00  0.00000000000E+00 -0.68693765204E+03  0.68693765205E+03  0.25500000920E-02 0. -1.
    10030    2    1    2    0    0  0.00000000000E+00  0.00000000000E+00  0.10377305123E+03  0.14776483553E+04  0.14739999375E+04 0.  0.
        4    1    3    3  502    0  0.65900694191E+03 -0.28721921477E+03  0.21471489514E+03  0.75025937243E+03  0.12699999809E+01 0.  1.
       -4    1    3    3    0  502 -0.65900694191E+03  0.28721921477E+03 -0.11094184391E+03  0.72738898290E+03  0.12699999809E+01 0. -1.
</event>
<event>
 5   0  0.7547580E-04  0.1488168E+04  0.7818609E-02  0.8892360E-01
        2   -1    0    0  501    0  0.00000000000E+00  0.00000000000E+00  0.51293584930E+03  0.51293584931E+03  0.25500000920E-02 0.  1.
       -2   -1    0    0    0  501  0.00000000000E+00  0.00000000000E+00 -0.10793958180E+04  0.10793958180E+04  0.25500000920E-02 0. -1.
    10030    2    1    2    0    0  0.00000000000E+00  0.00000000000E+00 -0.56645996868E+03  0.15923316673E+04  0.14881677468E+04 0.  0.
        4    1    3    3  502    0  0.90057609973E+02  0.34823531753E+03 -0.98019090953E+03  0.10441044208E+04  0.12699999809E+01 0. -1.
       -4    1    3    3    0  502 -0.90057609973E+02 -0.34823531753E+03  0.41373094085E+03  0.54822724650E+03  0.12699999809E+01 0.  1.
</event>
<event>
 5   0  0.4084462E-04  0.1493717E+04  0.7818609E-02  0.8888642E-01
       -1   -1    0    0    0  501  0.00000000000E+00  0.00000000000E+00  0.74469137825E+03  0.74469137827E+03  0.50400001928E-02 0. -1.
        1   -1    0    0  501    0  0.00000000000E+00  0.00000000000E+00 -0.74903217812E+03  0.74903217813E+03  0.50400001928E-02 0.  1.
    10030    2    1    2    0    0  0.00000000000E+00  0.00000000000E+00 -0.43407998673E+01  0.14937235564E+04  0.14937172491E+04 0.  0.
        1    1    3    3  502    0  0.12793591594E+03  0.13287685178E+03 -0.72589574290E+03  0.74896494305E+03  0.50400001928E-02 0.  1.
       -1    1    3    3    0  502 -0.12793591594E+03 -0.13287685178E+03  0.72155494303E+03  0.74475861336E+03  0.50400001928E-02 0. -1.
</event>
<event>
 5   0  0.4058874E-04  0.1507732E+04  0.7818609E-02  0.8879327E-01
        1   -1    0    0  501    0  0.00000000000E+00  0.00000000000E+00  0.11447496647E+04  0.11447496647E+04  0.50400001928E-02 0. -1.
       -1   -1    0    0    0  501  0.00000000000E+00  0.00000000000E+00 -0.49645285640E+03  0.49645285643E+03  0.50400001928E-02 0.  1.
    10030    2    1    2    0    0  0.00000000000E+00  0.00000000000E+00  0.64829680832E+03  0.16412025212E+04  0.15077323913E+04 0.  0.
        4    1    3    3  502    0  0.23707205724E+03  0.39454937645E+03  0.97402558014E+03  0.10773113823E+04  0.12699999809E+01 0. -1.
       -4    1    3    3    0  502 -0.23707205724E+03 -0.39454937645E+03 -0.32572877183E+03  0.56389113885E+03  0.12699999809E+01 0.  1.
</event>
<event>
 5   0  0.7547580E-04  0.1502577E+04  0.7818609E-02  0.8882741E-01
        2   -1    0    0  501    0  0.00000000000E+00  0.00000000000E+00  0.40261327254E+03  0.40261327255E+03  0.25500000920E-02 0. -1.
       -2   -1    0    0    0  501  0.00000000000E+00  0.00000000000E+00 -0.14019261736E+04  0.14019261736E+04  0.25500000920E-02 0.  1.
    10030    2    1    2    0    0  0.00000000000E+00  0.00000000000E+00 -0.99931290103E+03  0.18045394461E+04  0.15025765666E+04 0.  0.
        4    1    3    3  502    0 -0.54354657029E+03  0.20180356230E+03 -0.10734416679E+04  0.12200189257E+04  0.12699999809E+01 0.  1.
       -4    1    3    3    0  502  0.54354657029E+03 -0.20180356230E+03  0.74128766825E+02  0.58452052043E+03  0.12699999809E+01 0. -1.
</event>
<event>
 5   0  0.7547580E-04  0.1531187E+04  0.7818609E-02  0.8863975E-01
       -2   -1    0    0    0  501  0.00000000000E+00  0.00000000000E+00  0.89542973995E+03  0.89542973995E+03  0.25500000920E-02 0.  1.
        2   -1    0    0  501    0  0.00000000000E+00  0.00000000000E+00 -0.65458350591E+03  0.65458350591E+03  0.25500000920E-02 0. -1.
    10030    2    1    2    0    0  0.00000000000E+00  0.00000000000E+00  0.24084623404E+03  0.15500132459E+04  0.15311871714E+04 0.  0.
        4    1    3    3  502    0  0.41551455513E+02 -0.76376448284E+03  0.87322199756E+02  0.76986329188E+03  0.12699999809E+01 0.  1.
       -4    1    3    3    0  502 -0.41551455513E+02  0.76376448284E+03  0.15352403429E+03  0.78014995399E+03  0.12699999809E+01 0. -1.
</event>
<event>
 5   0  0.7672251E-04  0.1510768E+04  0.7818609E-02  0.8877324E-01
       -2   -1    0    0    0  501  0.00000000000E+00  0.00000000000E+00  0.26286075180E+03  0.26286075181E+03  0.25500000920E-02 0.  1.
        2   -1    0    0  501    0  0.00000000000E+00  0.00000000000E+00 -0.21707489936E+04  0.21707489936E+04  0.25500000920E-02 0. -1.
    10030    2    1    2    0    0  0.00000000000E+00  0.00000000000E+00 -0.19078882418E+04  0.24336097454E+04  0.15107676359E+04 0.  0.
        5    1    3    3  502    0  0.32173429759E+03  0.63129062222E+03 -0.53221745567E+03  0.88618187640E+03  0.46999998093E+01 0.  1.
       -5    1    3    3    0  502 -0.32173429759E+03 -0.63129062222E+03 -0.13756707861E+04  0.15474278690E+04  0.46999998093E+01 0. -1.
</event>
<event>
 5   0  0.7359897E-04  0.1487922E+04  0.7818609E-02  0.8892524E-01
        2   -1    0    0  501    0  0.00000000000E+00  0.00000000000E+00  0.48430288541E+03  0.48430288542E+03  0.25500000920E-02 0. -1.
       -2   -1    0    0    0  501  0.00000000000E+00  0.00000000000E+00 -0.11428350369E+04  0.11428350369E+04  0.25500000920E-02 0.  1.
    10030    2    1    2    0    0  0.00000000000E+00  0.00000000000E+00 -0.65853215153E+03  0.16271379224E+04  0.14879224522E+04 0.  0.
        1    1    3    3  502    0 -0.62780196280E+03  0.39594177260E+03 -0.27379410501E+03  0.79111845114E+03  0.50400001928E-02 0. -1.
       -1    1    3    3    0  502  0.62780196280E+03 -0.39594177260E+03 -0.38473804652E+03  0.83601947121E+03  0.50400001928E-02 0.  1.
</event>
<event>
 5   0  0.3907345E-04  0.1503201E+04  0.7818609E-02  0.8882327E-01
        1   -1    0    0  501    0  0.00000000000E+00  0.00000000000E+00  0.51621502825E+03  0.51621502827E+03  0.50400001928E-02 0. -1.
       -1   -1    0    0    0  501  0.00000000000E+00  0.00000000000E+00 -0.10943182216E+04  0.10943182216E+04  0.50400001928E-02 0.  1.
    10030    2    1    2    0    0  0.00000000000E+00  0.00000000000E+00 -0.57810319334E+03  0.16105332499E+04  0.15032012662E+04 0.  0.
        5    1    3    3  502    0 -0.10244136485E+03 -0.54308469245E+03  0.25667638697E+03  0.60937679151E+03  0.46999998093E+01 0. -1.
       -5    1    3    3    0  502  0.10244136485E+03  0.54308469245E+03 -0.83477958031E+03  0.10011564584E+04  0.46999998093E+01 0.  1.
</event>
<event>
 5   0  0.7672251E-04  0.1480545E+04  0.7818609E-02  0.8897494E-01
       -2   -1    0    0    0  501  0.00000000000E+00  0.00000000000E+00  0.93821905591E+03  0.93821905592E+03  0.25500000920E-02 0. -1.
        2   -1    0    0  501    0  0.00000000000E+00  0.00000000000E+00 -0.58408902796E+03  0.58408902796E+03  0.25500000920E-02 0.  1.
    10030    2    1    2    0    0  0.00000000000E+00  0.00000000000E+00  0.35413002795E+03  0.15223080839E+04  0.14805451109E+04 0.  0.
        5    1    3    3  502    0 -0.22259582873E+03 -0.32836504235E+03 -0.46555160881E+03  0.61166403725E+03  0.46999998093E+01 0.  1.
       -5    1    3    3    0  502  0.22259582873E+03  0.32836504235E+03  0.81968163676E+03  0.91064404662E+03  0.46999998093E+01 0. -1.
</event>
<event>
 5   0  0.4015204E-04  0.1380438E+04  0.7818609E-02  0.8968101E-01
       -1   -1    0    0    0  501  0.00000000000E+00  0.00000000000E+00  0.57391783621E+03  0.57391783623E+03  0.50400001928E-02 0.  1.
        1   -1    0    0  501    0  0.00000000000E+00  0.00000000000E+00 -0.83008819789E+03  0.83008819790E+03  0.50400001928E-02 0. -1.
    10030    2    1    2    0    0  0.00000000000E+00  0.00000000000E+00 -0.25617036168E+03  0.14040060341E+04  0.13804382238E+04 0.  0.
        2    1    3    3  502    0 -0.38712680585E+03 -0.22317102879E+03 -0.66311757883E+03  0.79962328334E+03  0.25500000920E-02 0. -1.
       -2    1    3    3    0  502  0.38712680585E+03  0.22317102879E+03  0.40694721715E+03  0.60438275079E+03  0.25500000920E-02 0.  1.
</event>
<event>
 5   0  0.7672251E-04  0.1500434E+04  0.7818609E-02  0.8884164E-01
       -2   -1    0    0    0  501  0.00000000000E+00  0.00000000000E+00  0.11324963017E+04  0.11324963017E+04  0.25500000920E-02 0. -1.
        2   -1    0    0  501    0  0.00000000000E+00  0.00000000000E+00 -0.49697809820E+03  0.49697809820E+03  0.25500000920E-02 0.  1.
    10030    2    1    2    0    0  0.00000000000E+00  0.00000000000E+00  0.63551820352E+03  0.16294743999E+04  0.15004344148E+04 0.  0.
        5    1    3    3  502    0 -0.45912729038E+03 -0.58362155259E+03  0.20184764244E+03  0.76953008140E+03  0.46999998093E+01 0.  1.
       -5    1    3    3    0  502  0.45912729038E+03  0.58362155259E+03  0.43367056109E+03  0.85994431853E+03  0.46999998093E+01 0. -1.
</event>
<event>
 5   0  0.4086710E-04  0.1501994E+04  0.7818609E-02  0.8883128E-01
       -1   -1    0    0    0  501  0.00000000000E+00  0.00000000000E+00  0.12151104514E+04  0.12151104515E+04  0.50400001928E-02 0.  1.
        1   -1    0    0  501    0  0.00000000000E+00  0.00000000000E+00 -0.46415252841E+03  0.46415252844E+03  0.50400001928E-02 0. -1.
    10030    2    1    2    0    0  0.00000000000E+00  0.00000000000E+00  0.75095792303E+03  0.16792629799E+04  0.15019941256E+04 0.  0.
        3    1    3    3  502    0  0.58050296224E+03  0.13805151063E+03  0.88532003274E+03  0.10676298419E+04  0.10100000352E+00 0. -1.
       -3    1    3    3    0  502 -0.58050296224E+03 -0.13805151063E+03 -0.13436210970E+03  0.61163313799E+03  0.10100000352E+00 0.  1.
</event>
<event>
 5   0  0.4058874E-04  0.1476512E+04  0.7818609E-02  0.8900224E-01
        1   -1    0    0  501    0  0.00000000000E+00  0.00000000000E+00  0.73652636531E+03  0.73652636533E+03  0.50400001928E-02 0.  1.
       -1   -1    0    0    0  501  0.00000000000E+00  0.00000000000E+00 -0.73998931021E+03  0.73998931022E+03  0.50400001928E-02 0. -1.
    10030    2    1    2    0    0  0.00000000000E+00  0.00000000000E+00 -0.34629448970E+01  0.14765156756E+04  0.14765116146E+04 0.  0.
        4    1    3    3  502    0 -0.23794956313E+03 -0.68621820102E+02  0.69374946618E+03  0.73662669209E+03  0.12699999809E+01 0.  1.
       -4    1    3    3    0  502  0.23794956313E+03  0.68621820102E+02 -0.69721241107E+03  0.73988898346E+03  0.12699999809E+01 0. -1.
</event>
<event>
 5   0  0.4086710E-04  0.1514009E+04  0.7818609E-02  0.8875190E-01
        1   -1    0    0  501    0  0.00000000000E+00  0.00000000000E+00  0.10934976261E+04  0.10934976261E+04  0.50400001928E-02 0. -1.
       -1   -1    0    0    0  501  0.00000000000E+00  0.00000000000E+00 -0.52405795976E+03  0.52405795978E+03  0.50400001928E-02 0.  1.
    10030    2    1    2    0    0  0.00000000000E+00  0.00000000000E+00  0.56943966637E+03  0.16175555859E+04  0.15140094253E+04 0.  0.
        3    1    3    3  502    0  0.13851658374E+03  0.40554626452E+03 -0.38197862309E+03  0.57407516523E+03  0.10100000352E+00 0.  1.
       -3    1    3    3    0  502 -0.13851658374E+03 -0.40554626452E+03  0.95141828946E+03  0.10434804207E+04  0.10100000352E+00 0. -1.
</event>
<event>
 5   0  0.4086710E-04  0.1460691E+04  0.7818609E-02  0.8911022E-01
       -1   -1    0    0    0  501  0.00000000000E+00  0.00000000000E+00  0.63010947492E+03  0.63010947494E+03  0.50400001928E-02 0.  1.
        1   -1    0    0  501    0  0.00000000000E+00  0.00000000000E+00 -0.84652669887E+03  0.84652669889E+03  0.50400001928E-02 0. -1.
    10030    2    1    2    0    0  0.00000000000E+00  0.00000000000E+00 -0.21641722395E+03  0.14766361738E+04  0.14606909239E+04 0.  0.
        3    1    3    3  502    0  0.35703036419E+03 -0.63696775431E+03 -0.93703370490E+02  0.73619218471E+03  0.10100000352E+00 0. -1.
       -3    1    3    3    0  502 -0.35703036419E+03  0.63696775431E+03 -0.12271385346E+03  0.74044398912E+03  0.10100000352E+00 0.  1.
</event>
<event>
 5   0  0.7634227E-04  0.1529656E+04  0.7818609E-02  0.8864968E-01
        2   -1    0    0  501    0  0.00000000000E+00  0.00000000000E+00  0.70754254113E+03  0.70754254114E+03  0.25500000920E-02 0. -1.
       -2   -1    0    0    0  501  0.00000000000E+00  0.00000000000E+00 -0.82675153963E+03  0.82675153964E+03  0.25500000920E-02 0.  1.
    10030    2    1    2    0    0  0.00000000000E+00  0.00000000000E+00 -0.11920899850E+03  0.15342940808E+04  0.15296560205E+04 0.  0.
        2    1    3    3  502    0  0.36386388850E+03  0.63231161132E+03 -0.28996798288E+03  0.78504543452E+03  0.25500000920E-02 0.  1.
       -2    1    3    3    0  502 -0.36386388850E+03 -0.63231161132E+03  0.17075898438E+03  0.74924864626E+03  0.25500000920E-02 0. -1.
</event>
<event>
 5   0  0.3907345E-04  0.1504881E+04  0.7818609E-02  0.8881214E-01
        1   -1    0    0  501    0  0.00000000000E+00  0.00000000000E+00  0.18591163392E+04  0.18591163392E+04  0.50400001928E-02 0.  1.
       -1   -1    0    0    0  501  0.00000000000E+00  0.00000000000E+00 -0.30453534532E+03  0.30453534537E+03  0.50400001928E-02 0. -1.
    10030    2    1    2    0    0  0.00000000000E+00  0.00000000000E+00  0.15545809939E+04  0.21636516846E+04  0.15048809075E+04 0.  0.
        5    1    3    3  502    0  0.18427894089E+03  0.24964014382E+03 -0.20824449313E+03  0.37372020066E+03  0.46999998093E+01 0. -1.
       -5    1    3    3    0  502 -0.18427894089E+03 -0.24964014382E+03  0.17628254870E+04  0.17899314839E+04  0.46999998093E+01 0.  1.
</event>
<event>
 5   0  0.4015204E-04  0.1511001E+04  0.7818609E-02  0.8877170E-01
        1   -1    0    0  501    0  0.00000000000E+00  0.00000000000E+00  0.10815969208E+04  0.10815969209E+04  0.50400001928E-02 0.  1.
       -1   -1    0    0    0  501  0.00000000000E+00  0.00000000000E+00 -0.52772090211E+03  0.52772090214E+03  0.50400001928E-02 0. -1.
    10030    2    1    2    0    0  0.00000000000E+00  0.00000000000E+00  0.55387601874E+03  0.16093178230E+04  0.15110013935E+04 0.  0.
        2    1    3    3  502    0  0.41327499747E+03  0.16285901787E+02  0.95030963673E+03  0.10364120126E+04  0.25500000920E-02 0.  1.
       -2    1    3    3    0  502 -0.41327499747E+03 -0.16285901787E+02 -0.39643361800E+03  0.57290581042E+03  0.25500000920E-02 0. -1.
</event>
<event>
 5   0  0.4086710E-04  0.1521875E+04  0.7818609E-02  0.8870035E-01
       -1   -1    0    0    0  501  0.00000000000E+00  0.00000000000E+00  0.39639671256E+03  0.39639671259E+03  0.50400001928E-02 0.  1.
        1   -1    0    0  501    0  0.00000000000E+00  0.00000000000E+00 -0.14607233689E+04  0.14607233689E+04  0.50400001928E-02 0. -1.
    10030    2    1    2    0    0  0.00000000000E+00  0.00000000000E+00 -0.10643266563E+04  0.18571200815E+04  0.15218750821E+04 0.  0.
        3    1    3    3  502    0 -0.40190862705E+03 -0.70883407126E+02 -0.13158774138E+04  0.13777112834E+04  0.10100000352E+00 0. -1.
       -3    1    3    3    0  502  0.40190862705E+03  0.70883407126E+02  0.25155075750E+03  0.47940879811E+03  0.10100000352E+00 0.  1.
</event>
<event>
 5   0  0.7359897E-04  0.1494071E+04  0.7818609E-02  0.8888405E-01
       -2   -1    0    0    0  501  0.00000000000E+00  0.00000000000E+00  0.48984805157E+03  0.48984805158E+03  0.25500000920E-02 0.  1.
        2   -1    0    0  501    0  0.00000000000E+00  0.00000000000E+00 -0.11392560813E+04  0.11392560813E+04  0.25500000920E-02 0. -1.
    10030    2    1    2    0    0  0.00000000000E+00  0.00000000000E+00 -0.64940802972E+03  0.16291041329E+04  0.14940714463E+04 0.  0.
        1    1    3    3  502    0 -0.17333329099E+02  0.68941068399E+02  0.48615173631E+03  0.49132150976E+03  0.50400001928E-02 0.  1.
       -1    1    3    3    0  502  0.17333329099E+02 -0.68941068399E+02 -0.11355597660E+04  0.11377826231E+04  0.50400001928E-02 0. -1.
</event>
<event>
 5   0  0.7634227E-04  0.1527920E+04  0.7818609E-02  0.8866096E-01
        2   -1    0    0  501    0  0.00000000000E+00  0.00000000000E+00  0.35533540098E+03  0.35533540099E+03  0.25500000920E-02 0.  1.
       -2   -1    0    0    0  501  0.00000000000E+00  0.00000000000E+00 -0.16424904409E+04  0.16424904409E+04  0.25500000920E-02 0. -1.
    10030    2    1    2    0    0  0.00000000000E+00  0.00000000000E+00 -0.12871550400E+04  0.19978258419E+04  0.15279201543E+04 0.  0.
        2    1    3    3  502    0 -0.69843909273E+03 -0.28654890094E+03 -0.49049096375E+03  0.90028263585E+03  0.25500000920E-02 0. -1.
       -2    1    3    3    0  502  0.69843909273E+03  0.28654890094E+03 -0.79666407620E+03  0.10975432061E+04  0.25500000920E-02 0.  1.
</event>
<event>
 5   0  0.4086710E-04  0.1479518E+04  0.7818609E-02  0.8898189E-01
       -1   -1    0    0    0  501  0.00000000000E+00  0.00000000000E+00  0.57867267403E+03  0.57867267406E+03  0.50400001928E-02 0. -1.
        1   -1    0    0  501    0  0.00000000000E+00  0.00000000000E+00 -0.94568672728E+03  0.94568672729E+03  0.50400001928E-02 0.  1.
    10030    2    1    2    0    0  0.00000000000E+00  0.00000000000E+00 -0.36701405324E+03  0.15243594013E+04  0.14795175799E+04 0.  0.
        3    1    3    3  502    0  0.24218312886E+03 -0.63517887130E+03 -0.48413504340E+03  0.83456073290E+03  0.10100000352E+00 0.  1.
       -3    1    3    3    0  502 -0.24218312886E+03  0.63517887130E+03  0.11712099016E+03  0.68979866844E+03  0.10100000352E+00 0. -1.
</event>
<event>
 5   0  0.7359897E-04  0.1503839E+04  0.7818609E-02  0.8881904E-01
       -2   -1    0    0    0  501  0.00000000000E+00  0.00000000000E+00  0.56860678523E+03  0.56860678523E+03  0.25500000920E-02 0. -1.
        2   -1    0    0  501    0  0.00000000000E+00  0.00000000000E+00 -0.99433002006E+03  0.99433002007E+03  0.25500000920E-02 0.  1.
    10030    2    1    2    0    0  0.00000000000E+00  0.00000000000E+00 -0.42572323483E+03  0.15629368053E+04  0.15038388161E+04 0.  0.
        1    1    3    3  502    0  0.25077286214E+03 -0.47182058689E+03 -0.76268969692E+03  0.93123427150E+03  0.50400001928E-02 0.  1.
       -1    1    3    3    0  502 -0.25077286214E+03  0.47182058689E+03  0.33696646209E+03  0.63170253380E+03  0.50400001928E-02 0. -1.
</event>
<event>
 5   0  0.4084462E-04  0.1490670E+04  0.7818609E-02  0.8890681E-01
        1   -1    0    0  501    0  0.00000000000E+00  0.00000000000E+00  0.10303209596E+04  0.10303209596E+04  0.50400001928E-02 0. -1.
       -1   -1    0    0    0  501  0.00000000000E+00  0.00000000000E+00 -0.53917574086E+03  0.53917574088E+03  0.50400001928E-02 0.  1.
    10030    2    1    2    0    0  0.00000000000E+00  0.00000000000E+00  0.49114521876E+03  0.15694967005E+04  0.14906697377E+04 0.  0.
        1    1    3    3  502    0  0.21543423459E+03  0.28230036207E+03  0.93552548616E+03  0.10006564541E+04  0.50400001928E-02 0. -1.
       -1    1    3    3    0  502 -0.21543423459E+03 -0.28230036207E+03 -0.44438026740E+03  0.56884024641E+03  0.50400001928E-02 0.  1.
</event>
<event>
 5   0  0.4086710E-04  0.1497685E+04  0.7818609E-02  0.8885994E-01
        1   -1    0    0  501    0  0.00000000000E+00  0.00000000000E+00  0.41565385890E+03  0.41565385893E+03  0.50400001928E-02 0. -1.
       -1   -1    0    0    0  501  0.00000000000E+00  0.00000000000E+00 -0.13491154103E+04  0.13491154103E+04  0.50400001928E-02 0.  1.
    10030    2    1    2    0    0  0.00000000000E+00  0.00000000000E+00 -0.93346155143E+03  0.17647692693E+04  0.14976849154E+04 0.  0.
        3    1    3    3  502    0  0.12209676569E+03  0.38018412970E+03 -0.12131992738E+04  0.12772235830E+04  0.10100000352E+00 0.  1.
       -3    1    3    3    0  502 -0.12209676569E+03 -0.38018412970E+03  0.27973772242E+03  0.48754568628E+03  0.10100000352E+00 0. -1.
</event>
<event>
 5   0  0.7547580E-04  0.1626531E+04  0.7818609E-02  0.8804413E-01
        2   -1    0    0  501    0  0.00000000000E+00  0.00000000000E+00  0.12096182053E+04  0.12096182053E+04  0.25500000920E-02 0. -1.
       -2   -1    0    0    0  501  0.00000000000E+00  0.00000000000E+00 -0.54678445125E+03  0.54678445126E+03  0.25500000920E-02 0.  1.
    10030    2    1    2    0    0  0.00000000000E+00  0.00000000000E+00  0.66283375408E+03  0.17564026566E+04  0.16265305735E+04 0.  0.
        4    1    3    3  502    0 -0.55081368735E+03 -0.50343092507E+03 -0.17759995422E+02  0.74642845928E+03  0.12699999809E+01 0.  1.
       -4    1    3    3    0  502  0.55081368735E+03  0.50343092507E+03  0.68059374950E+03  0.10099741973E+04  0.12699999809E+01 0. -1.
</event>
<event>
 5   0  0.2800375E-04  0.1506132E+04  0.7818609E-02  0.8880386E-01
        4   -1    0    0  501    0  0.00000000000E+00  0.00000000000E+00  0.94625960073E+03  0.94626045298E+03  0.12699999809E+01 0. -1.
       -4   -1    0    0    0  501  0.00000000000E+00  0.00000000000E+00 -0.59931380631E+03  0.59931515194E+03  0.12699999809E+01 0.  1.
    10030    2    1    2    0    0  0.00000000000E+00  0.00000000000E+00  0.34694579442E+03  0.15455756049E+04  0.15061316563E+04 0.  0.
        4    1    3    3  502    0  0.77176330866E+02  0.94741402084E+01 -0.59518341327E+03  0.60024232916E+03  0.12699999809E+01 0.  1.
       -4    1    3    3    0  502 -0.77176330866E+02 -0.94741402084E+01  0.94212920769E+03  0.94533327576E+03  0.12699999809E+01 0. -1.
</event>
<event>
 5   0  0.2800375E-04  0.1534108E+04  0.7818609E-02  0.8862083E-01
        3   -1    0    0  501    0  0.00000000000E+00  0.00000000000E+00  0.56820775283E+03  0.56820776181E+03  0.10100000352E+00 0.  1.
       -3   -1    0    0    0  501  0.00000000000E+00  0.00000000000E+00 -0.10354872577E+04  0.10354872627E+04  0.10100000352E+00 0. -1.
    10030    2    1    2    0    0  0.00000000000E+00  0.00000000000E+00 -0.46727950491E+03  0.16036950245E+04  0.15341080783E+04 0.  0.
        3    1    3    3  502    0  0.20068395624E+03 -0.69935628219E+03  0.20274328073E+02  0.72786284306E+03  0.10100000352E+00 0.  1.
       -3    1    3    3    0  502 -0.20068395624E+03  0.69935628219E+03 -0.48755383298E+03  0.87583218141E+03  0.10100000352E+00 0. -1.
</event>
<event>
 5   0  0.7359897E-04  0.1511162E+04  0.7818609E-02  0.8877064E-01
       -2   -1    0    0    0  501  0.00000000000E+00  0.00000000000E+00  0.43348332689E+03  0.43348332690E+03  0.25500000920E-02 0.  1.
        2   -1    0    0  501    0  0.00000000000E+00  0.00000000000E+00 -0.13170112404E+04  0.13170112404E+04  0.25500000920E-02 0. -1.
    10030    2    1    2    0    0  0.00000000000E+00  0.00000000000E+00 -0.88352791352E+03  0.17504945673E+04  0.15111616910E+04 0.  0.
        1    1    3    3  502    0  0.27577122101E+03 -0.61426146479E+03 -0.83889548088E+03  0.10756916572E+04  0.50400001928E-02 0. -1.
       -1    1    3    3    0  502 -0.27577122101E+03  0.61426146479E+03 -0.44632432641E+02  0.67480291014E+03  0.50400001928E-02 0.  1.
</event>
<event>
 5   0  0.7672251E-04  0.1517479E+04  0.7818609E-02  0.8872912E-01
        2   -1    0    0  501    0  0.00000000000E+00  0.00000000000E+00  0.61079126412E+03  0.61079126413E+03  0.25500000920E-02 0.  1.
       -2   -1    0    0    0  501  0.00000000000E+00  0.00000000000E+00 -0.94252408342E+03  0.94252408343E+03  0.25500000920E-02 0. -1.
    10030    2    1    2    0    0  0.00000000000E+00  0.00000000000E+00 -0.33173281930E+03  0.15533153476E+04  0.15174787990E+04 0.  0.
        5    1    3    3  502    0 -0.23620750219E+03 -0.58358150804E+03 -0.59930702003E+03  0.86922514625E+03  0.46999998093E+01 0. -1.
       -5    1    3    3    0  502  0.23620750219E+03  0.58358150804E+03  0.26757420073E+03  0.68409020130E+03  0.46999998093E+01 0.  1.
</event>
<event>
 5   0  0.7547580E-04  0.1500762E+04  0.7818609E-02  0.8883947E-01
       -2   -1    0    0    0  501  0.00000000000E+00  0.00000000000E+00  0.96072593112E+03  0.96072593112E+03  0.25500000920E-02 0.  1.
        2   -1    0    0  501    0  0.00000000000E+00  0.00000000000E+00 -0.58608953100E+03  0.58608953101E+03  0.25500000920E-02 0. -1.
    10030    2    1    2    0    0  0.00000000000E+00  0.00000000000E+00  0.37463640012E+03  0.15468154621E+04  0.15007616871E+04 0.  0.
        4    1    3    3  502    0 -0.73009375971E+03 -0.17010137670E+03  0.22147767754E+03  0.78168110561E+03  0.12699999809E+01 0. -1.
       -4    1    3    3    0  502  0.73009375971E+03  0.17010137670E+03  0.15315872258E+03  0.76513435652E+03  0.12699999809E+01 0.  1.
</event>
<event>
 5   0  0.4086710E-04  0.1478256E+04  0.7818609E-02  0.8899042E-01
       -1   -1    0    0    0  501  0.00000000000E+00  0.00000000000E+00  0.75856309648E+03  0.75856309650E+03  0.50400001928E-02 0. -1.
        1   -1    0    0  501    0  0.00000000000E+00  0.00000000000E+00 -0.72019102737E+03  0.72019102739E+03  0.50400001928E-02 0.  1.
    10030    2    1    2    0    0  0.00000000000E+00  0.00000000000E+00  0.38372069110E+02  0.14787541239E+04  0.14782561832E+04 0.  0.
        3    1    3    3  502    0 -0.50407611758E+03  0.33359743450E+03  0.44468839161E+03  0.75041838761E+03  0.10100000352E+00 0. -1.
       -3    1    3    3    0  502  0.50407611758E+03 -0.33359743450E+03 -0.40631632250E+03  0.72833573629E+03  0.10100000352E+00 0.  1.
</event>
<event>
 5   0  0.4086710E-04  0.1489375E+04  0.7818609E-02  0.8891549E-01
        1   -1    0    0  501    0  0.00000000000E+00  0.00000000000E+00  0.59308662226E+03  0.59308662228E+03  0.50400001928E-02 0. -1.
       -1   -1    0    0    0  501  0.00000000000E+00  0.00000000000E+00 -0.93504001956E+03  0.93504001958E+03  0.50400001928E-02 0.  1.
    10030    2    1    2    0    0  0.00000000000E+00  0.00000000000E+00 -0.34195339731E+03  0.15281266419E+04  0.14893753414E+04 0.  0.
        3    1    3    3  502    0 -0.38907221946E+03  0.46337940350E+03  0.27444066927E+03  0.66439096524E+03  0.10100000352E+00 0. -1.
       -3    1    3    3    0  502  0.38907221946E+03 -0.46337940350E+03 -0.61639406658E+03  0.86373567661E+03  0.10100000352E+00 0.  1.
</event>
<event>
 5   0  0.7454828E-04  0.1497689E+04  0.7818609E-02  0.8885991E-01
       -2   -1    0    0    0  501  0.00000000000E+00  0.00000000000E+00  0.53378385029E+03  0.53378385030E+03  0.25500000920E-02 0.  1.
        2   -1    0    0  501    0  0.00000000000E+00  0.00000000000E+00 -0.10505525390E+04  0.10505525390E+04  0.25500000920E-02 0. -1.
    10030    2    1    2    0    0  0.00000000000E+00  0.00000000000E+00 -0.51676868870E+03  0.15843363893E+04  0.14976888585E+04 0.  0.
        3    1    3    3  502    0  0.66932056165E+03 -0.92986074997E+02 -0.59974774278E+03  0.90351191999E+03  0.10100000352E+00 0.  1.
       -3    1    3    3    0  502 -0.66932056165E+03  0.92986074997E+02  0.82979054080E+02  0.68082446930E+03  0.10100000352E+00 0. -1.
</event>
<event>
 5   0  0.7547580E-04  0.1477249E+04  0.7818609E-02  0.8899724E-01
        2   -1    0    0  501    0  0.00000000000E+00  0.00000000000E+00  0.18375848715E+04  0.18375848715E+04  0.25500000920E-02 0. -1.
       -2   -1    0    0    0  501  0.00000000000E+00  0.00000000000E+00 -0.29689320718E+03  0.29689320719E+03  0.25500000920E-02 0.  1.
    10030    2    1    2    0    0  0.00000000000E+00  0.00000000000E+00  0.15406916643E+04  0.21344780787E+04  0.14772494251E+04 0.  0.
        4    1    3    3  502    0  0.64845508648E+03  0.18295026838E+03  0.33303953397E+03  0.75158615206E+03  0.12699999809E+01 0.  1.
       -4    1    3    3    0  502 -0.64845508648E+03 -0.18295026838E+03  0.12076521303E+04  0.13828919266E+04  0.12699999809E+01 0. -1.
</event>
<event>
 5   0  0.4015204E-04  0.1501484E+04  0.7818609E-02  0.8883467E-01
        1   -1    0    0  501    0  0.00000000000E+00  0.00000000000E+00  0.15273120907E+04  0.15273120907E+04  0.50400001928E-02 0. -1.
       -1   -1    0    0    0  501  0.00000000000E+00  0.00000000000E+00 -0.36902298460E+03  0.36902298463E+03  0.50400001928E-02 0.  1.
    10030    2    1    2    0    0  0.00000000000E+00  0.00000000000E+00  0.11582891061E+04  0.18963350754E+04  0.15014836212E+04 0.  0.
        2    1    3    3  502    0  0.20778304896E+03  0.21429211514E+03  0.14491480322E+04  0.14795691688E+04  0.25500000920E-02 0. -1.
       -2    1    3    3    0  502 -0.20778304896E+03 -0.21429211514E+03 -0.29085892603E+03  0.41676590660E+03  0.25500000920E-02 0.  1.
</event>
<event>
 5   0  0.4084462E-04  0.1498943E+04  0.7818609E-02  0.8885156E-01
        1   -1    0    0  501    0  0.00000000000E+00  0.00000000000E+00  0.90969476514E+03  0.90969476516E+03  0.50400001928E-02 0. -1.
       -1   -1    0    0    0  501  0.00000000000E+00  0.00000000000E+00 -0.61746797467E+03  0.61746797469E+03  0.50400001928E-02 0.  1.
    10030    2    1    2    0    0  0.00000000000E+00  0.00000000000E+00  0.29222679047E+03  0.15271627398E+04  0.14989428064E+04 0.  0.
        1    1    3    3  502    0  0.31611062265E+03  0.32257017924E+03 -0.46325215859E+03  0.64697759524E+03  0.50400001928E-02 0.  1.
       -1    1    3    3    0  502 -0.31611062265E+03 -0.32257017924E+03  0.75547894906E+03  0.88018514460E+03  0.50400001928E-02 0. -1.
</event>
<event>
 5   0  0.4015204E-04  0.1495748E+04  0.7818609E-02  0.8887285E-01
       -1   -1    0    0    0  501  0.00000000000E+00  0.00000000000E+00  0.35517727186E+03  0.35517727190E+03  0.50400001928E-02 0. -1.
        1   -1    0    0  501    0  0.00000000000E+00  0.00000000000E+00 -0.15747505400E+04  0.15747505400E+04  0.50400001928E-02 0.  1.
    10030    2    1    2    0    0  0.00000000000E+00  0.00000000000E+00 -0.12195732681E+04  0.19299278119E+04  0.14957481081E+04 0.  0.
        2    1    3    3  502    0 -0.42009655619E+03 -0.15961608186E+03  0.16153207397E+03  0.47754687837E+03  0.25500000920E-02 0. -1.
       -2    1    3    3    0  502  0.42009655619E+03  0.15961608186E+03 -0.13811053421E+04  0.14523809335E+04  0.25500000920E-02 0.  1.
</event>
<event>
 5   0  0.7547580E-04  0.1503794E+04  0.7818609E-02  0.8881934E-01
        2   -1    0    0  501    0  0.00000000000E+00  0.00000000000E+00  0.87936655654E+03  0.87936655654E+03  0.25500000920E-02 0. -1.
       -2   -1    0    0    0  501  0.00000000000E+00  0.00000000000E+00 -0.64290465355E+03  0.64290465356E+03  0.25500000920E-02 0.  1.
    10030    2    1    2    0    0  0.00000000000E+00  0.00000000000E+00  0.23646190298E+03  0.15222712101E+04  0.15037936712E+04 0.  0.
        4    1    3    3  502    0 -0.35847256478E+03  0.94528431046E+02 -0.54395430820E+03  0.65827509925E+03  0.12699999809E+01 0.  1.
       -4    1    3    3    0  502  0.35847256478E+03 -0.94528431046E+02  0.78041621119E+03  0.86399611085E+03  0.12699999809E+01 0. -1.
</event>
<event>
 5   0  0.7547580E-04  0.1512366E+04  0.7818609E-02  0.8876271E-01
        2   -1    0    0  501    0  0.00000000000E+00  0.00000000000E+00  0.70672123416E+03  0.70672123416E+03  0.25500000920E-02 0.  1.
       -2   -1    0    0    0  501  0.00000000000E+00  0.00000000000E+00 -0.80910674400E+03  0.80910674401E+03  0.25500000920E-02 0. -1.
    10030    2    1    2    0    0  0.00000000000E+00  0.00000000000E+00 -0.10238550984E+03  0.15158279782E+04  0.15123662476E+04 0.  0.
        4    1    3    3  502    0  0.71235976156E+03 -0.23164681118E+03 -0.15484430461E+03  0.76491505841E+03  0.12699999809E+01 0. -1.
       -4    1    3    3    0  502 -0.71235976156E+03  0.23164681118E+03  0.52458794765E+02  0.75091291976E+03  0.12699999809E+01 0.  1.
</event>
<event>
 5   0  0.7672251E-04  0.1503184E+04  0.7818609E-02  0.8882338E-01
        2   -1    0    0  501    0  0.00000000000E+00  0.00000000000E+00  0.97755029309E+03  0.97755029309E+03  0.25500000920E-02 0. -1.
       -2   -1    0    0    0  501  0.00000000000E+00  0.00000000000E+00 -0.57786365765E+03  0.57786365766E+03  0.25500000920E-02 0.  1.
    10030    2    1    2    0    0  0.00000000000E+00  0.00000000000E+00  0.39968663544E+03  0.15554139508E+04  0.15031843372E+04 0.  0.
        5    1    3    3  502    0 -0.60451418404E+03  0.30857362778E+03  0.53388139829E+03  0.86354300409E+03  0.46999998093E+01 0. -1.
       -5    1    3    3    0  502  0.60451418404E+03 -0.30857362778E+03 -0.13419476285E+03  0.69187094667E+03  0.46999998093E+01 0.  1.
</event>
<event>
 5   0  0.4086710E-04  0.1498762E+04  0.7818609E-02  0.8885276E-01
        1   -1    0    0  501    0  0.00000000000E+00  0.00000000000E+00  0.93715468275E+03  0.93715468277E+03  0.50400001928E-02 0. -1.
       -1   -1    0    0    0  501  0.00000000000E+00  0.00000000000E+00 -0.59923108641E+03  0.59923108643E+03  0.50400001928E-02 0.  1.
    10030    2    1    2    0    0  0.00000000000E+00  0.00000000000E+00  0.33792359635E+03  0.15363857692E+04  0.14987624478E+04 0.  0.
        3    1    3    3  502    0  0.29545693036E+03 -0.60463969572E+03  0.50691671492E+03  0.84252508889E+03  0.10100000352E+00 0. -1.
       -3    1    3    3    0  502 -0.29545693036E+03  0.60463969572E+03 -0.16899311857E+03  0.69386068030E+03  0.10100000352E+00 0.  1.
</event>
<event>
 5   0  0.4015204E-04  0.1452894E+04  0.7818609E-02  0.8916397E-01
       -1   -1    0    0    0  501  0.00000000000E+00  0.00000000000E+00  0.12000140199E+04  0.12000140199E+04  0.50400001928E-02 0.  1.
        1   -1    0    0  501    0  0.00000000000E+00  0.00000000000E+00 -0.43976566011E+03  0.43976566014E+03  0.50400001928E-02 0. -1.
    10030    2    1    2    0    0  0.00000000000E+00  0.00000000000E+00  0.76024835976E+03  0.16397796800E+04  0.14528936061E+04 0.  0.
        2    1    3    3  502    0 -0.47014144109E+03 -0.16063260867E+03 -0.21803830017E+03  0.54256475185E+03  0.25500000920E-02 0. -1.
       -2    1    3    3    0  502  0.47014144109E+03  0.16063260867E+03  0.97828665993E+03  0.10972149282E+04  0.25500000920E-02 0.  1.
</event>
<event>
 5   0  0.7359897E-04  0.1506199E+04  0.7818609E-02  0.8880341E-01
       -2   -1    0    0    0  501  0.00000000000E+00  0.00000000000E+00  0.52595680937E+03  0.52595680937E+03  0.25500000920E-02 0. -1.
        2   -1    0    0  501    0  0.00000000000E+00  0.00000000000E+00 -0.10783374215E+04  0.10783374215E+04  0.25500000920E-02 0.  1.
    10030    2    1    2    0    0  0.00000000000E+00  0.00000000000E+00 -0.55238061209E+03  0.16042942308E+04  0.15061990700E+04 0.  0.
        1    1    3    3  502    0 -0.25645595019E+03 -0.42051202936E+03  0.33061364545E+03  0.59321615269E+03  0.50400001928E-02 0. -1.
       -1    1    3    3    0  502  0.25645595019E+03  0.42051202936E+03 -0.88299425754E+03  0.10110780781E+04  0.50400001928E-02 0.  1.
</event>
<event>
 5   0  0.4058874E-04  0.1492883E+04  0.7818609E-02  0.8889200E-01
       -1   -1    0    0    0  501  0.00000000000E+00  0.00000000000E+00  0.76385788070E+03  0.76385788072E+03  0.50400001928E-02 0. -1.
        1   -1    0    0  501    0  0.00000000000E+00  0.00000000000E+00 -0.72942194625E+03  0.72942194627E+03  0.50400001928E-02 0.  1.
    10030    2    1    2    0    0  0.00000000000E+00  0.00000000000E+00  0.34435934454E+02  0.14932798270E+04  0.14928827175E+04 0.  0.
        4    1    3    3  502    0 -0.25012308975E+03  0.35186514088E+03  0.62631545222E+03  0.76068606927E+03  0.12699999809E+01 0. -1.
       -4    1    3    3    0  502  0.25012308975E+03 -0.35186514088E+03 -0.59187951777E+03  0.73259375772E+03  0.12699999809E+01 0.  1.
</event>
<event>
 5   0  0.7359897E-04  0.1479592E+04  0.7818609E-02  0.8898138E-01
       -2   -1    0    0    0  501  0.00000000000E+00  0.00000000000E+00  0.59819782148E+03  0.59819782149E+03  0.25500000920E-02 0. -1.
        2   -1    0    0  501    0  0.00000000000E+00  0.00000000000E+00 -0.91491178101E+03  0.91491178102E+03  0.25500000920E-02 0.  1.
    10030    2    1    2    0    0  0.00000000000E+00  0.00000000000E+00 -0.31671395953E+03  0.15131096025E+04  0.14795921523E+04 0.  0.
        1    1    3    3  502    0  0.68994753201E+03  0.26390545500E+03 -0.11713824482E+03  0.74792717195E+03  0.50400001928E-02 0.  1.
       -1    1    3    3    0  502 -0.68994753201E+03 -0.26390545500E+03 -0.19957571470E+03  0.76518243056E+03  0.50400001928E-02 0. -1.
</event>
<event>
 5   0  0.2800375E-04  0.1498078E+04  0.7818609E-02  0.8885732E-01
       -3   -1    0    0    0  501  0.00000000000E+00  0.00000000000E+00  0.63324319016E+03  0.63324319822E+03  0.10100000352E+00 0.  1.
        3   -1    0    0  501    0  0.00000000000E+00  0.00000000000E+00 -0.88600902712E+03  0.88600903287E+03  0.10100000352E+00 0. -1.
    10030    2    1    2    0    0  0.00000000000E+00  0.00000000000E+00 -0.25276583695E+03  0.15192522311E+04  0.14980776927E+04 0.  0.
        3    1    3    3  502    0  0.31099368841E+03 -0.59848263042E+03 -0.45681129007E+03  0.81460118959E+03  0.10100000352E+00 0. -1.
       -3    1    3    3    0  502 -0.31099368841E+03  0.59848263042E+03  0.20404545311E+03  0.70465104150E+03  0.10100000352E+00 0.  1.
</event>
<event>
 5   0  0.7634227E-04  0.1498815E+04  0.7818609E-02  0.8885241E-01
       -2   -1    0    0    0  501  0.00000000000E+00  0.00000000000E+00  0.21641425497E+03  0.21641425499E+03  0.25500000920E-02 0.  1.
        2   -1    0    0  501    0  0.00000000000E+00  0.00000000000E+00 -0.25950767395E+04  0.25950767395E+04  0.25500000920E-02 0. -1.
    10030    2    1    2    0    0  0.00000000000E+00  0.00000000000E+00 -0.23786624846E+04  0.28114909945E+04  0.14988149975E+04 0.  0.
        2    1    3    3  502    0 -0.75369138487E+02  0.30601173078E+03  0.86064420644E+02  0.32669675683E+03  0.25500000920E-02 0.  1.
       -2    1    3    3    0  502  0.75369138487E+02 -0.30601173078E+03 -0.24647269052E+04  0.24847942377E+04  0.25500000920E-02 0. -1.
</event>
<event>
 5   0  0.4058874E-04  0.1494681E+04  0.7818609E-02  0.8887998E-01
       -1   -1    0    0    0  501  0.00000000000E+00  0.00000000000E+00  0.70851779908E+03  0.70851779910E+03  0.50400001928E-02 0. -1.
        1   -1    0    0  501    0  0.00000000000E+00  0.00000000000E+00 -0.78829050218E+03  0.78829050219E+03  0.50400001928E-02 0.  1.
    10030    2    1    2    0    0  0.00000000000E+00  0.00000000000E+00 -0.79772703097E+02  0.14968083013E+04  0.14946810384E+04 0.  0.
        4    1    3    3  502    0 -0.72003672446E+03  0.13192561000E+03 -0.19062961360E+03  0.75643804348E+03  0.12699999809E+01 0.  1.
       -4    1    3    3    0  502  0.72003672446E+03 -0.13192561000E+03  0.11085691050E+03  0.74037025781E+03  0.12699999809E+01 0. -1.
</event>
<event>
 5   0  0.7547580E-04  0.1489116E+04  0.7818609E-02  0.8891723E-01
       -2   -1    0    0    0  501  0.00000000000E+00  0.00000000000E+00  0.34034335955E+03  0.34034335956E+03  0.25500000920E-02 0.  1.
        2   -1    0    0  501    0  0.00000000000E+00  0.00000000000E+00 -0.16288448907E+04  0.16288448907E+04  0.25500000920E-02 0. -1.
    10030    2    1    2    0    0  0.00000000000E+00  0.00000000000E+00 -0.12885015312E+04  0.19691882503E+04  0.14891159019E+04 0.  0.
        4    1    3    3  502    0  0.32114229656E+03  0.49028622201E+02 -0.15301800713E+04  0.15642854100E+04  0.12699999809E+01 0. -1.
       -4    1    3    3    0  502 -0.32114229656E+03 -0.49028622201E+02  0.24167854011E+03  0.40490284030E+03  0.12699999809E+01 0.  1.
</event>
<event>
 5   0  0.4086710E-04  0.1557308E+04  0.7818609E-02  0.8847213E-01
       -1   -1    0    0    0  501  0.00000000000E+00  0.00000000000E+00  0.57247173990E+03  0.57247173992E+03  0.50400001928E-02 0.  1.
        1   -1    0    0  501    0  0.00000000000E+00  0.00000000000E+00 -0.10590956406E+04  0.10590956406E+04  0.50400001928E-02 0. -1.
    10030    2    1    2    0    0  0.00000000000E+00  0.00000000000E+00 -0.48662390067E+03  0.16315673805E+04  0.15573083498E+04 0.  0.
        3    1    3    3  502    0  0.67419776461E+03 -0.24759753477E+03 -0.55841096725E+03  0.90976369656E+03  0.10100000352E+00 0. -1.
       -3    1    3    3    0  502 -0.67419776461E+03  0.24759753477E+03  0.71787066575E+02  0.72180368395E+03  0.10100000352E+00 0.  1.
</event>
<event>
 5   0  0.7672251E-04  0.1514536E+04  0.7818609E-02  0.8874844E-01
        2   -1    0    0  501    0  0.00000000000E+00  0.00000000000E+00  0.12886696784E+04  0.12886696784E+04  0.25500000920E-02 0.  1.
       -2   -1    0    0    0  501  0.00000000000E+00  0.00000000000E+00 -0.44499732843E+03  0.44499732843E+03  0.25500000920E-02 0. -1.
    10030    2    1    2    0    0  0.00000000000E+00  0.00000000000E+00  0.84367235002E+03  0.17336670069E+04  0.15145356571E+04 0.  0.
        5    1    3    3  502    0  0.89200303739E+02 -0.14727777842E+03  0.12659476574E+04  0.12776122257E+04  0.46999998093E+01 0.  1.
       -5    1    3    3    0  502 -0.89200303739E+02  0.14727777842E+03 -0.42227530734E+03  0.45605478113E+03  0.46999998093E+01 0. -1.
</event>
<event>
 5   0  0.7672251E-04  0.1483516E+04  0.7818609E-02  0.8895489E-01
       -2   -1    0    0    0  501  0.00000000000E+00  0.00000000000E+00  0.37711769954E+03  0.37711769955E+03  0.25500000920E-02 0. -1.
        2   -1    0    0  501    0  0.00000000000E+00  0.00000000000E+00 -0.14589735539E+04  0.14589735539E+04  0.25500000920E-02 0.  1.
    10030    2    1    2    0    0  0.00000000000E+00  0.00000000000E+00 -0.10818558543E+04  0.18360912534E+04  0.14835157570E+04 0.  0.
        5    1    3    3  502    0  0.85111401833E+02 -0.29661240626E+03 -0.13757397782E+04  0.14099308130E+04  0.46999998093E+01 0.  1.
       -5    1    3    3    0  502 -0.85111401833E+02  0.29661240626E+03  0.29388392384E+03  0.42616044039E+03  0.46999998093E+01 0. -1.
</event>
<event>
 5   0  0.7359897E-04  0.1466160E+04  0.7818609E-02  0.8907273E-01
        2   -1    0    0  501    0  0.00000000000E+00  0.00000000000E+00  0.54762331187E+03  0.54762331188E+03  0.25500000920E-02 0.  1.
       -2   -1    0    0    0  501  0.00000000000E+00  0.00000000000E+00 -0.98134291817E+03  0.98134291817E+03  0.25500000920E-02 0. -1.
    10030    2    1    2    0    0  0.00000000000E+00  0.00000000000E+00 -0.43371960630E+03  0.15289662301E+04  0.14661599625E+04 0.  0.
        1    1    3    3  502    0 -0.21945480919E+02 -0.61307822421E+03  0.20165424675E+03  0.64576384878E+03  0.50400001928E-02 0.  1.
       -1    1    3    3    0  502  0.21945480919E+02  0.61307822421E+03 -0.63537385305E+03  0.88320238128E+03  0.50400001928E-02 0. -1.
</event>
<event>
 5   0  0.4015204E-04  0.1543179E+04  0.7818609E-02  0.8856236E-01
       -1   -1    0    0    0  501  0.00000000000E+00  0.00000000000E+00  0.58197270669E+03  0.58197270672E+03  0.50400001928E-02 0.  1.
        1   -1    0    0  501    0  0.00000000000E+00  0.00000000000E+00 -0.10229870254E+04  0.10229870254E+04  0.50400001928E-02 0. -1.
    10030    2    1    2    0    0  0.00000000000E+00  0.00000000000E+00 -0.44101431868E+03  0.16049597321E+04  0.15431792224E+04 0.  0.
        2    1    3    3  502    0 -0.53075100231E+03  0.28509650310E+03  0.28084331860E+03  0.66471769357E+03  0.25500000920E-02 0.  1.
       -2    1    3    3    0  502  0.53075100231E+03 -0.28509650310E+03 -0.72185763728E+03  0.94024203854E+03  0.25500000920E-02 0. -1.
</event>
<event>
 5   0  0.4086710E-04  0.1511470E+04  0.7818609E-02  0.8876861E-01
       -1   -1    0    0    0  501  0.00000000000E+00  0.00000000000E+00  0.11447413929E+04  0.11447413929E+04  0.50400001928E-02 0. -1.
        1   -1    0    0  501    0  0.00000000000E+00  0.00000000000E+00 -0.49892058515E+03  0.49892058518E+03  0.50400001928E-02 0.  1.
    10030    2    1    2    0    0  0.00000000000E+00  0.00000000000E+00  0.64582080771E+03  0.16436619781E+04  0.15114695440E+04 0.  0.
        3    1    3    3  502    0 -0.14984126100E+02  0.40040022564E+03  0.10197252299E+04  0.10956205637E+04  0.10100000352E+00 0. -1.
       -3    1    3    3    0  502  0.14984126100E+02 -0.40040022564E+03 -0.37390442223E+03  0.54804141439E+03  0.10100000352E+00 0.  1.
</event>
<event>
 5   0  0.4086710E-04  0.1498143E+04  0.7818609E-02  0.8885689E-01
        1   -1    0    0  501    0  0.00000000000E+00  0.00000000000E+00  0.81784531623E+03  0.81784531624E+03  0.50400001928E-02 0. -1.
       -1   -1    0    0    0  501  0.00000000000E+00  0.00000000000E+00 -0.68608116102E+03  0.68608116103E+03  0.50400001928E-02 0.  1.
    10030    2    1    2    0    0  0.00000000000E+00  0.00000000000E+00  0.13176415521E+03  0.15039264773E+04  0.14981432029E+04 0.  0.
        3    1    3    3  502    0 -0.53049877133E+03 -0.31176132994E+03 -0.36294864132E+03  0.71439190901E+03  0.10100000352E+00 0.  1.
       -3    1    3    3    0  502  0.53049877133E+03  0.31176132994E+03  0.49471279653E+03  0.78953456826E+03  0.10100000352E+00 0. -1.
</event>
<event>
 5   0  0.7547580E-04  0.1470544E+04  0.7818609E-02  0.8904280E-01
       -2   -1    0    0    0  501  0.00000000000E+00  0.00000000000E+00  0.38802445211E+03  0.38802445211E+03  0.25500000920E-02 0. -1.
        2   -1    0    0  501    0  0.00000000000E+00  0.00000000000E+00 -0.13932758435E+04  0.13932758435E+04  0.25500000920E-02 0.  1.
    10030    2    1    2    0    0  0.00000000000E+00  0.00000000000E+00 -0.10052513914E+04  0.17813002957E+04  0.14705442473E+04 0.  0.
        4    1    3    3  502    0  0.65900351197E+02 -0.22645577594E+03  0.34095998646E+03  0.41458461140E+03  0.12699999809E+01 0. -1.
       -4    1    3    3    0  502 -0.65900351197E+02  0.22645577594E+03 -0.13462113779E+04  0.13667156843E+04  0.12699999809E+01 0.  1.
</event>
<event>
 5   0  0.3907345E-04  0.1521531E+04  0.7818609E-02  0.8870260E-01
        1   -1    0    0  501    0  0.00000000000E+00  0.00000000000E+00  0.14384914418E+04  0.14384914418E+04  0.50400001928E-02 0.  1.
       -1   -1    0    0    0  501  0.00000000000E+00  0.00000000000E+00 -0.40234093687E+03  0.40234093690E+03  0.50400001928E-02 0. -1.
    10030    2    1    2    0    0  0.00000000000E+00  0.00000000000E+00  0.10361505049E+04  0.18408323787E+04  0.15215308007E+04 0.  0.
        5    1    3    3  502    0  0.43077036818E+02 -0.35092521726E+03 -0.29688412260E+03  0.46169948176E+03  0.46999998093E+01 0. -1.
       -5    1    3    3    0  502 -0.43077036818E+02  0.35092521726E+03  0.13330346275E+04  0.13791328969E+04  0.46999998093E+01 0.  1.
</event>
<event>
 5   0  0.4058874E-04  0.1465938E+04  0.7818609E-02  0.8907425E-01
        1   -1    0    0  501    0  0.00000000000E+00  0.00000000000E+00  0.40499390559E+03  0.40499390562E+03  0.50400001928E-02 0. -1.
       -1   -1    0    0    0  501  0.00000000000E+00  0.00000000000E+00 -0.13265478631E+04  0.13265478631E+04  0.50400001928E-02 0.  1.
    10030    2    1    2    0    0  0.00000000000E+00  0.00000000000E+00 -0.92155395754E+03  0.17315417688E+04  0.14659383344E+04 0.  0.
        4    1    3    3  502    0 -0.72122100359E+03 -0.34178440267E+02 -0.31176854793E+03  0.78646623715E+03  0.12699999809E+01 0. -1.
       -4    1    3    3    0  502  0.72122100359E+03  0.34178440267E+02 -0.60978540961E+03  0.94507553162E+03  0.12699999809E+01 0.  1.
</event>
<event>
 5   0  0.4015204E-04  0.1494325E+04  0.7818609E-02  0.8888235E-01
       -1   -1    0    0    0  501  0.00000000000E+00  0.00000000000E+00  0.69649880063E+03  0.69649880064E+03  0.50400001928E-02 0.  1.
        1   -1    0    0  501    0  0.00000000000E+00  0.00000000000E+00 -0.80151160592E+03  0.80151160594E+03  0.50400001928E-02 0. -1.
    10030    2    1    2    0    0  0.00000000000E+00  0.00000000000E+00 -0.10501280530E+03  0.14980104066E+04  0.14943250948E+04 0.  0.
        2    1    3    3  502    0 -0.20273102710E+03  0.12256713974E+03  0.65785200027E+03  0.69920800006E+03  0.25500000920E-02 0.  1.
       -2    1    3    3    0  502  0.20273102710E+03 -0.12256713974E+03 -0.76286480556E+03  0.79880240652E+03  0.25500000920E-02 0. -1.
</event>
<event>
 5   0  0.7454828E-04  0.1448819E+04  0.7818609E-02  0.8919220E-01
        2   -1    0    0  501    0  0.00000000000E+00  0.00000000000E+00  0.21121388224E+04  0.21121388224E+04  0.25500000920E-02 0. -1.
       -2   -1    0    0    0  501  0.00000000000E+00  0.00000000000E+00 -0.24845387658E+03  0.24845387660E+03  0.25500000920E-02 0.  1.
    10030    2    1    2    0    0  0.00000000000E+00  0.00000000000E+00  0.18636849458E+04  0.23605926990E+04  0.14488189374E+04 0.  0.
        3    1    3    3  502    0 -0.16300801379E+03 -0.37660021896E+03  0.19044941725E+04  0.19482036343E+04  0.10100000352E+00 0. -1.
       -3    1    3    3    0  502  0.16300801379E+03  0.37660021896E+03 -0.40809226692E+02  0.41238906467E+03  0.10100000352E+00 0.  1.
</event>
<event>
 5   0  0.7547580E-04  0.1490163E+04  0.7818609E-02  0.8891021E-01
        2   -1    0    0  501    0  0.00000000000E+00  0.00000000000E+00  0.12727780503E+04  0.12727780503E+04  0.25500000920E-02 0.  1.
       -2   -1    0    0    0  501  0.00000000000E+00  0.00000000000E+00 -0.43616923008E+03  0.43616923009E+03  0.25500000920E-02 0. -1.
    10030    2    1    2    0    0  0.00000000000E+00  0.00000000000E+00  0.83660882025E+03  0.17089472804E+04  0.14901632424E+04 0.  0.
        4    1    3    3  502    0 -0.44518680823E+03  0.16161825494E+02  0.11032275108E+04  0.11897752108E+04  0.12699999809E+01 0.  1.
       -4    1    3    3    0  502  0.44518680823E+03 -0.16161825494E+02 -0.26661869052E+03  0.51917206961E+03  0.12699999809E+01 0. -1.
</event>
<event>
 5   0  0.7359897E-04  0.1495508E+04  0.7818609E-02  0.8887445E-01
        2   -1    0    0  501    0  0.00000000000E+00  0.00000000000E+00  0.90079201199E+03  0.90079201199E+03  0.25500000920E-02 0. -1.
       -2   -1    0    0    0  501  0.00000000000E+00  0.00000000000E+00 -0.62071630467E+03  0.62071630468E+03  0.25500000920E-02 0.  1.
    10030    2    1    2    0    0  0.00000000000E+00  0.00000000000E+00  0.28007570731E+03  0.15215083167E+04  0.14955083269E+04 0.  0.
        1    1    3    3  502    0 -0.39973965958E+03 -0.20626980542E+03  0.74774766907E+03  0.87261996579E+03  0.50400001928E-02 0. -1.
       -1    1    3    3    0  502  0.39973965958E+03  0.20626980542E+03 -0.46767196176E+03  0.64888835088E+03  0.50400001928E-02 0.  1.
</event>
<event>
 5   0  0.7454828E-04  0.1494051E+04  0.7818609E-02  0.8888419E-01
        2   -1    0    0  501    0  0.00000000000E+00  0.00000000000E+00  0.61802956933E+03  0.61802956934E+03  0.25500000920E-02 0.  1.
       -2   -1    0    0    0  501  0.00000000000E+00  0.00000000000E+00 -0.90294526256E+03  0.90294526257E+03  0.25500000920E-02 0. -1.
    10030    2    1    2    0    0  0.00000000000E+00  0.00000000000E+00 -0.28491569323E+03  0.15209748319E+04  0.14940506976E+04 0.  0.
        3    1    3    3  502    0 -0.65464790691E+03 -0.26391841515E+03  0.10655191629E+03  0.71384181227E+03  0.10100000352E+00 0.  1.
       -3    1    3    3    0  502  0.65464790691E+03  0.26391841515E+03 -0.39146760952E+03  0.80713301963E+03  0.10100000352E+00 0. -1.
</event>
<event>
 5   0  0.3907345E-04  0.1516002E+04  0.7818609E-02  0.8873881E-01
        1   -1    0    0  501    0  0.00000000000E+00  0.00000000000E+00  0.14619320377E+04  0.14619320377E+04  0.50400001928E-02 0.  1.
       -1   -1    0    0    0  501  0.00000000000E+00  0.00000000000E+00 -0.39301794034E+03  0.39301794037E+03  0.50400001928E-02 0. -1.
    10030    2    1    2    0    0  0.00000000000E+00  0.00000000000E+00  0.10689140973E+04  0.18549499781E+04  0.15160020032E+04 0.  0.
        5    1    3    3  502    0  0.10869376039E+03 -0.28128125005E+03  0.13853600249E+04  0.14178074495E+04  0.46999998093E+01 0.  1.
       -5    1    3    3    0  502 -0.10869376039E+03  0.28128125005E+03 -0.31644592760E+03  0.43714252855E+03  0.46999998093E+01 0. -1.
</event>
<event>
 5   0  0.4058874E-04  0.1503493E+04  0.7818609E-02  0.8882133E-01
       -1   -1    0    0    0  501  0.00000000000E+00  0.00000000000E+00  0.67237876634E+03  0.67237876636E+03  0.50400001928E-02 0.  1.
        1   -1    0    0  501    0  0.00000000000E+00  0.00000000000E+00 -0.84048299883E+03  0.84048299885E+03  0.50400001928E-02 0. -1.
    10030    2    1    2    0    0  0.00000000000E+00  0.00000000000E+00 -0.16810423250E+03  0.15128617652E+04  0.15034931618E+04 0.  0.
        4    1    3    3  502    0 -0.18232115040E+03 -0.33436746832E+01  0.64978585654E+03  0.67488921632E+03  0.12699999809E+01 0.  1.
       -4    1    3    3    0  502  0.18232115040E+03  0.33436746832E+01 -0.81789008904E+03  0.83797254889E+03  0.12699999809E+01 0. -1.
</event>
<event>
 5   0  0.3907345E-04  0.1522779E+04  0.7818609E-02  0.8869445E-01
        1   -1    0    0  501    0  0.00000000000E+00  0.00000000000E+00  0.10425284600E+04  0.10425284600E+04  0.50400001928E-02 0.  1.
       -1   -1    0    0    0  501  0.00000000000E+00  0.00000000000E+00 -0.55606531280E+03  0.55606531283E+03  0.50400001928E-02 0. -1.
    10030    2    1    2    0    0  0.00000000000E+00  0.00000000000E+00  0.48646314718E+03  0.15985937728E+04  0.15227789258E+04 0.  0.
        5    1    3    3  502    0  0.53889157226E+03  0.52956396027E+03  0.34198809141E+03  0.82934917817E+03  0.46999998093E+01 0.  1.
       -5    1    3    3    0  502 -0.53889157226E+03 -0.52956396027E+03  0.14447505577E+03  0.76924459465E+03  0.46999998093E+01 0. -1.
</event>
<event>
 5   0  0.4084462E-04  0.1425054E+04  0.7818609E-02  0.8935880E-01
        1   -1    0    0  501    0  0.00000000000E+00  0.00000000000E+00  0.99286168001E+03  0.99286168003E+03  0.50400001928E-02 0.  1.
       -1   -1    0    0    0  501  0.00000000000E+00  0.00000000000E+00 -0.51134479608E+03  0.51134479610E+03  0.50400001928E-02 0. -1.
    10030    2    1    2    0    0  0.00000000000E+00  0.00000000000E+00  0.48151688394E+03  0.15042064761E+04  0.14250538984E+04 0.  0.
        1    1    3    3  502    0 -0.40790725063E+03  0.38152368635E+03 -0.22624772666E+03  0.60260823278E+03  0.50400001928E-02 0. -1.
       -1    1    3    3    0  502  0.40790725063E+03 -0.38152368635E+03  0.70776461060E+03  0.90159824335E+03  0.50400001928E-02 0.  1.
</event>
<event>
 5   0  0.7547580E-04  0.1500730E+04  0.7818609E-02  0.8883968E-01
       -2   -1    0    0    0  501  0.00000000000E+00  0.00000000000E+00  0.64764321731E+03  0.64764321731E+03  0.25500000920E-02 0. -1.
        2   -1    0    0  501    0  0.00000000000E+00  0.00000000000E+00 -0.86937930152E+03  0.86937930153E+03  0.25500000920E-02 0.  1.
    10030    2    1    2    0    0  0.00000000000E+00  0.00000000000E+00 -0.22173608421E+03  0.15170225188E+04  0.15007299663E+04 0.  0.
        4    1    3    3  502    0  0.70640201933E+03  0.70612675773E+01  0.14484530848E+03  0.72113483532E+03  0.12699999809E+01 0.  1.
       -4    1    3    3    0  502 -0.70640201933E+03 -0.70612675773E+01 -0.36658139270E+03  0.79588768353E+03  0.12699999809E+01 0. -1.
</event>
<event>
 5   0  0.7359897E-04  0.1469265E+04  0.7818609E-02  0.8905152E-01
       -2   -1    0    0    0  501  0.00000000000E+00  0.00000000000E+00  0.75578221990E+03  0.75578221991E+03  0.25500000920E-02 0.  1.
        2   -1    0    0  501    0  0.00000000000E+00  0.00000000000E+00 -0.71407480220E+03  0.71407480220E+03  0.25500000920E-02 0. -1.
    10030    2    1    2    0    0  0.00000000000E+00  0.00000000000E+00  0.41707417706E+02  0.14698570221E+04  0.14692651758E+04 0.  0.
        1    1    3    3  502    0  0.23174183525E+03  0.59649833880E+03  0.38179052313E+03  0.74517014834E+03  0.50400001928E-02 0.  1.
       -1    1    3    3    0  502 -0.23174183525E+03 -0.59649833880E+03 -0.34008310542E+03  0.72468687377E+03  0.50400001928E-02 0. -1.
</event>
<event>
 5   0  0.7634227E-04  0.1467511E+04  0.7818609E-02  0.8906350E-01
        2   -1    0    0  501    0  0.00000000000E+00  0.00000000000E+00  0.22055668063E+04  0.22055668063E+04  0.25500000920E-02 0. -1.
       -2   -1    0    0    0  501  0.00000000000E+00  0.00000000000E+00 -0.24410830320E+03  0.24410830321E+03  0.25500000920E-02 0.  1.
    10030    2    1    2    0    0  0.00000000000E+00  0.00000000000E+00  0.19614585031E+04  0.24496751095E+04  0.14675110503E+04 0.  0.
        2    1    3    3  502    0 -0.46070237485E+03 -0.50558371192E+03  0.53739498526E+03  0.86985914845E+03  0.25500000920E-02 0.  1.
       -2    1    3    3    0  502  0.46070237485E+03  0.50558371192E+03  0.14240635178E+04  0.15798159610E+04  0.25500000920E-02 0. -1.
</event>
<event>
 5   0  0.4086710E-04  0.1477806E+04  0.7818609E-02  0.8899347E-01
       -1   -1    0    0    0  501  0.00000000000E+00  0.00000000000E+00  0.16842177758E+04  0.16842177759E+04  0.50400001928E-02 0.  1.
        1   -1    0    0  501    0  0.00000000000E+00  0.00000000000E+00 -0.32417290328E+03  0.32417290332E+03  0.50400001928E-02 0. -1.
    10030    2    1    2    0    0  0.00000000000E+00  0.00000000000E+00  0.13600448726E+04  0.20083906792E+04  0.14778061662E+04 0.  0.
        3    1    3    3  502    0 -0.10320964119E+03 -0.52306330068E+03 -0.15254354227E+02  0.53336680818E+03  0.10100000352E+00 0. -1.
       -3    1    3    3    0  502  0.10320964119E+03  0.52306330068E+03  0.13752992268E+04  0.14750238710E+04  0.10100000352E+00 0.  1.
</event>
<event>
 5   0  0.7454828E-04  0.1490338E+04  0.7818609E-02  0.8890903E-01
       -2   -1    0    0    0  501  0.00000000000E+00  0.00000000000E+00  0.42068318102E+03  0.42068318102E+03  0.25500000920E-02 0. -1.
        2   -1    0    0  501    0  0.00000000000E+00  0.00000000000E+00 -0.13199411654E+04  0.13199411654E+04  0.25500000920E-02 0.  1.
    10030    2    1    2    0    0  0.00000000000E+00  0.00000000000E+00 -0.89925798436E+03  0.17406243464E+04  0.14903382814E+04 0.  0.
        3    1    3    3  502    0  0.70310052150E+03 -0.21769119136E+03 -0.31373969291E+03  0.80010774477E+03  0.10100000352E+00 0.  1.
       -3    1    3    3    0  502 -0.70310052150E+03  0.21769119136E+03 -0.58551829145E+03  0.94051660164E+03  0.10100000352E+00 0. -1.
</event>
<event>
 5   0  0.7672251E-04  0.1464355E+04  0.7818609E-02  0.8908508E-01
        2   -1    0    0  501    0  0.00000000000E+00  0.00000000000E+00  0.12149380298E+04  0.12149380298E+04  0.25500000920E-02 0. -1.
       -2   -1    0    0    0  501  0.00000000000E+00  0.00000000000E+00 -0.44124407663E+03  0.44124407664E+03  0.25500000920E-02 0.  1.
    10030    2    1    2    0    0  0.00000000000E+00  0.00000000000E+00  0.77369395320E+03  0.16561821065E+04  0.14643554338E+04 0.  0.
        5    1    3    3  502    0  0.29954172096E+03  0.66446280943E+03  0.46541712225E+03  0.86479549917E+03  0.46999998093E+01 0.  1.
       -5    1    3    3    0  502 -0.29954172096E+03 -0.66446280943E+03  0.30827683094E+03  0.79138660729E+03  0.46999998093E+01 0. -1.
</event>
<event>
 5   0  0.7359897E-04  0.1516388E+04  0.7818609E-02  0.8873628E-01
       -2   -1    0    0    0  501  0.00000000000E+00  0.00000000000E+00  0.32670393735E+03  0.32670393736E+03  0.25500000920E-02 0.  1.
        2   -1    0    0  501    0  0.00000000000E+00  0.00000000000E+00 -0.17595681392E+04  0.17595681392E+04  0.25500000920E-02 0. -1.
    10030    2    1    2    0    0  0.00000000000E+00  0.00000000000E+00 -0.14328642019E+04  0.20862720766E+04  0.15163876010E+04 0.  0.
        1    1    3    3  502    0  0.24284510402E+03 -0.69036414672E+03 -0.98911281199E+03  0.12304147896E+04  0.50400001928E-02 0. -1.
       -1    1    3    3    0  502 -0.24284510402E+03  0.69036414672E+03 -0.44375138986E+03  0.85585728696E+03  0.50400001928E-02 0.  1.
</event>
<event>
 5   0  0.4086710E-04  0.1522103E+04  0.7818609E-02  0.8869886E-01
        1   -1    0    0  501    0  0.00000000000E+00  0.00000000000E+00  0.12322895928E+04  0.12322895928E+04  0.50400001928E-02 0.  1.
       -1   -1    0    0    0  501  0.00000000000E+00  0.00000000000E+00 -0.47001906972E+03  0.47001906974E+03  0.50400001928E-02 0. -1.
    10030    2    1    2    0    0  0.00000000000E+00  0.00000000000E+00  0.76227052306E+03  0.17023086625E+04  0.15221032922E+04 0.  0.
        3    1    3    3  502    0 -0.27327566846E+03  0.13486937996E+02 -0.41311081265E+03  0.49550180847E+03  0.10100000352E+00 0. -1.
       -3    1    3    3    0  502  0.27327566846E+03 -0.13486937996E+02  0.11753813357E+04  0.12068068541E+04  0.10100000352E+00 0.  1.
</event>
<event>
 5   0  0.4058874E-04  0.1500643E+04  0.7818609E-02  0.8884025E-01
       -1   -1    0    0    0  501  0.00000000000E+00  0.00000000000E+00  0.56668311899E+03  0.56668311902E+03  0.50400001928E-02 0.  1.
        1   -1    0    0  501    0  0.00000000000E+00  0.00000000000E+00 -0.99346982043E+03  0.99346982044E+03  0.50400001928E-02 0. -1.
    10030    2    1    2    0    0  0.00000000000E+00  0.00000000000E+00 -0.42678670143E+03  0.15601529395E+04  0.15006432974E+04 0.  0.
        4    1    3    3  502    0 -0.69257506511E+03  0.11705650154E+03 -0.48770995027E+03  0.85511698256E+03  0.12699999809E+01 0. -1.
       -4    1    3    3    0  502  0.69257506511E+03 -0.11705650154E+03  0.60923248840E+02  0.70503595690E+03  0.12699999809E+01 0.  1.
</event>
<event>
 5   0  0.4086710E-04  0.1492790E+04  0.7818609E-02  0.8889261E-01
       -1   -1    0    0    0  501  0.00000000000E+00  0.00000000000E+00  0.88189680743E+03  0.88189680745E+03  0.50400001928E-02 0.  1.
        1   -1    0    0  501    0  0.00000000000E+00  0.00000000000E+00 -0.63171314990E+03  0.63171314992E+03  0.50400001928E-02 0. -1.
    10030    2    1    2    0    0  0.00000000000E+00  0.00000000000E+00  0.25018365753E+03  0.15136099574E+04  0.14927904208E+04 0.  0.
        3    1    3    3  502    0 -0.11302574998E+03  0.42806928364E+03  0.73437820158E+03  0.85751354795E+03  0.10100000352E+00 0.  1.
       -3    1    3    3    0  502  0.11302574998E+03 -0.42806928364E+03 -0.48419454405E+03  0.65609640942E+03  0.10100000352E+00 0. -1.
</event>
<event>
 5   0  0.7547580E-04  0.1510989E+04  0.7818609E-02  0.8877178E-01
        2   -1    0    0  501    0  0.00000000000E+00  0.00000000000E+00  0.11387975824E+04  0.11387975824E+04  0.25500000920E-02 0.  1.
       -2   -1    0    0    0  501  0.00000000000E+00  0.00000000000E+00 -0.50120604980E+03  0.50120604980E+03  0.25500000920E-02 0. -1.
    10030    2    1    2    0    0  0.00000000000E+00  0.00000000000E+00  0.63759153263E+03  0.16400036322E+04  0.15109893948E+04 0.  0.
        4    1    3    3  502    0 -0.68604635665E+03  0.28973238048E+03  0.18079326664E+03  0.76634996831E+03  0.12699999809E+01 0. -1.
       -4    1    3    3    0  502  0.68604635665E+03 -0.28973238048E+03  0.45679826598E+03  0.87365366392E+03  0.12699999809E+01 0.  1.
</event>
<event>
 5   0  0.7672251E-04  0.1486341E+04  0.7818609E-02  0.8893587E-01
        2   -1    0    0  501    0  0.00000000000E+00  0.00000000000E+00  0.63923044489E+03  0.63923044489E+03  0.25500000920E-02 0.  1.
       -2   -1    0    0    0  501  0.00000000000E+00  0.00000000000E+00 -0.86401151176E+03  0.86401151176E+03  0.25500000920E-02 0. -1.
    10030    2    1    2    0    0  0.00000000000E+00  0.00000000000E+00 -0.22478106687E+03  0.15032419567E+04  0.14863410955E+04 0.  0.
        5    1    3    3  502    0 -0.12090776801E+03 -0.51294415048E+03  0.41754264845E+03  0.67237961238E+03  0.46999998093E+01 0.  1.
       -5    1    3    3    0  502  0.12090776801E+03  0.51294415048E+03 -0.64232371532E+03  0.83086234428E+03  0.46999998093E+01 0. -1.
</event>
<event>
 5   0  0.7634227E-04  0.1416841E+04  0.7818609E-02  0.8941718E-01
       -2   -1    0    0    0  501  0.00000000000E+00  0.00000000000E+00  0.40163735530E+03  0.40163735531E+03  0.25500000920E-02 0.  1.
        2   -1    0    0  501    0  0.00000000000E+00  0.00000000000E+00 -0.12495340802E+04  0.12495340802E+04  0.25500000920E-02 0. -1.
    10030    2    1    2    0    0  0.00000000000E+00  0.00000000000E+00 -0.84789672490E+03  0.16511714355E+04  0.14168409415E+04 0.  0.
        2    1    3    3  502    0  0.70274204648E+03  0.73762944967E+02 -0.48305334052E+03  0.85593684681E+03  0.25500000920E-02 0. -1.
       -2    1    3    3    0  502 -0.70274204648E+03 -0.73762944967E+02 -0.36484338438E+03  0.79523458870E+03  0.25500000920E-02 0.  1.
</event>
<event>
 5   0  0.7454828E-04  0.1515871E+04  0.7818609E-02  0.8873967E-01
       -2   -1    0    0    0  501  0.00000000000E+00  0.00000000000E+00  0.38858196616E+03  0.38858196617E+03  0.25500000920E-02 0. -1.
        2   -1    0    0  501    0  0.00000000000E+00  0.00000000000E+00 -0.14783654358E+04  0.14783654358E+04  0.25500000920E-02 0.  1.
    10030    2    1    2    0    0  0.00000000000E+00  0.00000000000E+00 -0.10897834697E+04  0.18669474020E+04  0.15158709019E+04 0.  0.
        3    1    3    3  502    0  0.54627526929E+03 -0.44145175042E+02  0.99908097267E+02  0.55708805805E+03  0.10100000352E+00 0. -1.
       -3    1    3    3    0  502 -0.54627526929E+03  0.44145175042E+02 -0.11896915669E+04  0.13098593440E+04  0.10100000352E+00 0.  1.
</event>
<event>
 5   0  0.7634227E-04  0.1500484E+04  0.7818609E-02  0.8884131E-01
       -2   -1    0    0    0  501  0.00000000000E+00  0.00000000000E+00  0.56312874285E+03  0.56312874286E+03  0.25500000920E-02 0. -1.
        2   -1    0    0  501    0  0.00000000000E+00  0.00000000000E+00 -0.99952766474E+03  0.99952766474E+03  0.25500000920E-02 0.  1.
    10030    2    1    2    0    0  0.00000000000E+00  0.00000000000E+00 -0.43639892189E+03  0.15626564076E+04  0.15004835984E+04 0.  0.
        2    1    3    3  502    0 -0.51061322630E+02 -0.33692022599E+03  0.47788155707E+03  0.58693549896E+03  0.25500000920E-02 0. -1.
       -2    1    3    3    0  502  0.51061322630E+02  0.33692022599E+03 -0.91428047896E+03  0.97572090864E+03  0.25500000920E-02 0.  1.
</event>
<event>
 5   0  0.7454828E-04  0.1491955E+04  0.7818609E-02  0.8889820E-01
        2   -1    0    0  501    0  0.00000000000E+00  0.00000000000E+00  0.21143465181E+04  0.21143465181E+04  0.25500000920E-02 0.  1.
       -2   -1    0    0    0  501  0.00000000000E+00  0.00000000000E+00 -0.26319354747E+03  0.26319354748E+03  0.25500000920E-02 0. -1.
    10030    2    1    2    0    0  0.00000000000E+00  0.00000000000E+00  0.18511529706E+04  0.23775400656E+04  0.14919549064E+04 0.  0.
        3    1    3    3  502    0 -0.68924459394E+03  0.26460389521E+03  0.75536208613E+03  0.10562410819E+04  0.10100000352E+00 0. -1.
       -3    1    3    3    0  502  0.68924459394E+03 -0.26460389521E+03  0.10957908845E+04  0.13212989837E+04  0.10100000352E+00 0.  1.
</event>
<event>
 5   0  0.7454828E-04  0.1512463E+04  0.7818609E-02  0.8876208E-01
       -2   -1    0    0    0  501  0.00000000000E+00  0.00000000000E+00  0.21509929881E+03  0.21509929882E+03  0.25500000920E-02 0.  1.
        2   -1    0    0  501    0  0.00000000000E+00  0.00000000000E+00 -0.26587056912E+04  0.26587056912E+04  0.25500000920E-02 0. -1.
    10030    2    1    2    0    0  0.00000000000E+00  0.00000000000E+00 -0.24436063924E+04  0.28738049900E+04  0.15124625350E+04 0.  0.
        3    1    3    3  502    0  0.86795078567E+01 -0.22510873275E+03 -0.25934692528E+04  0.26032349204E+04  0.10100000352E+00 0. -1.
       -3    1    3    3    0  502 -0.86795078567E+01  0.22510873275E+03  0.14986286043E+03  0.27057006959E+03  0.10100000352E+00 0.  1.
</event>
<event>
 5   0  0.7547580E-04  0.1503610E+04  0.7818609E-02  0.8882056E-01
       -2   -1    0    0    0  501  0.00000000000E+00  0.00000000000E+00  0.48499494089E+03  0.48499494090E+03  0.25500000920E-02 0.  1.
        2   -1    0    0  501    0  0.00000000000E+00  0.00000000000E+00 -0.11653958523E+04  0.11653958523E+04  0.25500000920E-02 0. -1.
    10030    2    1    2    0    0  0.00000000000E+00  0.00000000000E+00 -0.68040091137E+03  0.16503907932E+04  0.15036104449E+04 0.  0.
        4    1    3    3  502    0 -0.31352812638E+03 -0.66712395725E+03 -0.17793389099E+03  0.75829832047E+03  0.12699999809E+01 0. -1.
       -4    1    3    3    0  502  0.31352812638E+03  0.66712395725E+03 -0.50246702038E+03  0.89209247269E+03  0.12699999809E+01 0.  1.
</event>
<event>
 5   0  0.3907345E-04  0.1497705E+04  0.7818609E-02  0.8885981E-01
        1   -1    0    0  501    0  0.00000000000E+00  0.00000000000E+00  0.14822273681E+04  0.14822273681E+04  0.50400001928E-02 0. -1.
       -1   -1    0    0    0  501  0.00000000000E+00  0.00000000000E+00 -0.37833605696E+03  0.37833605699E+03  0.50400001928E-02 0.  1.
    10030    2    1    2    0    0  0.00000000000E+00  0.00000000000E+00  0.11038913111E+04  0.18605634251E+04  0.14977049883E+04 0.  0.
        5    1    3    3  502    0  0.34522866643E+03  0.33732447792E+03 -0.15929125379E+03  0.50829757924E+03  0.46999998093E+01 0.  1.
       -5    1    3    3    0  502 -0.34522866643E+03 -0.33732447792E+03  0.12631825649E+04  0.13522658458E+04  0.46999998093E+01 0. -1.
</event>
<event>
 5   0  0.4015204E-04  0.1496692E+04  0.7818609E-02  0.8886656E-01
       -1   -1    0    0    0  501  0.00000000000E+00  0.00000000000E+00  0.94854926107E+03  0.94854926108E+03  0.50400001928E-02 0. -1.
        1   -1    0    0  501    0  0.00000000000E+00  0.00000000000E+00 -0.59039833665E+03  0.59039833667E+03  0.50400001928E-02 0.  1.
    10030    2    1    2    0    0  0.00000000000E+00  0.00000000000E+00  0.35815092442E+03  0.15389475978E+04  0.14966922275E+04 0.  0.
        2    1    3    3  502    0 -0.54519755248E+03  0.51261534238E+03  0.18180474029E+03  0.77010896895E+03  0.25500000920E-02 0. -1.
       -2    1    3    3    0  502  0.54519755248E+03 -0.51261534238E+03  0.17634618413E+03  0.76883862880E+03  0.25500000920E-02 0.  1.
</event>
<event>
 5   0  0.4015204E-04  0.1274231E+04  0.7818609E-02  0.9050254E-01
       -1   -1    0    0    0  501  0.00000000000E+00  0.00000000000E+00  0.24418920347E+03  0.24418920352E+03  0.50400001928E-02 0. -1.
        1   -1    0    0  501    0  0.00000000000E+00  0.00000000000E+00 -0.16623006425E+04  0.16623006425E+04  0.50400001928E-02 0.  1.
    10030    2    1    2    0    0  0.00000000000E+00  0.00000000000E+00 -0.14181114390E+04  0.19064898460E+04  0.12742305441E+04 0.  0.
        2    1    3    3  502    0  0.44551752632E+03 -0.21549843658E+03 -0.10873060537E+03  0.50670285867E+03  0.25500000920E-02 0. -1.
       -2    1    3    3    0  502 -0.44551752632E+03  0.21549843658E+03 -0.13093808336E+04  0.13997869873E+04  0.25500000920E-02 0.  1.
</event>
<event>
 5   0  0.4086710E-04  0.1504977E+04  0.7818609E-02  0.8881150E-01
        1   -1    0    0  501    0  0.00000000000E+00  0.00000000000E+00  0.50109478393E+03  0.50109478395E+03  0.50400001928E-02 0.  1.
       -1   -1    0    0    0  501  0.00000000000E+00  0.00000000000E+00 -0.11300034035E+04  0.11300034035E+04  0.50400001928E-02 0. -1.
    10030    2    1    2    0    0  0.00000000000E+00  0.00000000000E+00 -0.62890861954E+03  0.16310981874E+04  0.15049768255E+04 0.  0.
        3    1    3    3  502    0 -0.53126321908E+03 -0.52763914536E+03 -0.23338523675E+03  0.78429098847E+03  0.10100000352E+00 0.  1.
       -3    1    3    3    0  502  0.53126321908E+03  0.52763914536E+03 -0.39552338279E+03  0.84680719895E+03  0.10100000352E+00 0. -1.
</event>
<event>
 5   0  0.7359897E-04  0.1500255E+04  0.7818609E-02  0.8884283E-01
       -2   -1    0    0    0  501  0.00000000000E+00  0.00000000000E+00  0.20410560909E+03  0.20410560911E+03  0.25500000920E-02 0. -1.
        2   -1    0    0  501    0  0.00000000000E+00  0.00000000000E+00 -0.27568646309E+04  0.27568646309E+04  0.25500000920E-02 0.  1.
    10030    2    1    2    0    0  0.00000000000E+00  0.00000000000E+00 -0.25527590219E+04  0.29609702401E+04  0.15002553579E+04 0.  0.
        1    1    3    3  502    0 -0.55988743191E+03  0.15663442436E+03 -0.22119019522E+04  0.22870326901E+04  0.50400001928E-02 0.  1.
       -1    1    3    3    0  502  0.55988743191E+03 -0.15663442436E+03 -0.34085706966E+03  0.67393754998E+03  0.50400001928E-02 0. -1.
</event>
<event>
 5   0  0.4086710E-04  0.1477400E+04  0.7818609E-02  0.8899622E-01
       -1   -1    0    0    0  501  0.00000000000E+00  0.00000000000E+00  0.95137759943E+03  0.95137759945E+03  0.50400001928E-02 0. -1.
        1   -1    0    0  501    0  0.00000000000E+00  0.00000000000E+00 -0.57356570970E+03  0.57356570972E+03  0.50400001928E-02 0.  1.
    10030    2    1    2    0    0  0.00000000000E+00  0.00000000000E+00  0.37781188974E+03  0.15249433092E+04  0.14773998349E+04 0.  0.
        3    1    3    3  502    0  0.19700044925E+03  0.40828702330E+03  0.79091595604E+03  0.91162247127E+03  0.10100000352E+00 0. -1.
       -3    1    3    3    0  502 -0.19700044925E+03 -0.40828702330E+03 -0.41310406630E+03  0.61332083790E+03  0.10100000352E+00 0.  1.
</event>
<event>
 5   0  0.7454828E-04  0.1484855E+04  0.7818609E-02  0.8894587E-01
       -2   -1    0    0    0  501  0.00000000000E+00  0.00000000000E+00  0.79345452131E+03  0.79345452131E+03  0.25500000920E-02 0. -1.
        2   -1    0    0  501    0  0.00000000000E+00  0.00000000000E+00 -0.69468207298E+03  0.69468207298E+03  0.25500000920E-02 0.  1.
    10030    2    1    2    0    0  0.00000000000E+00  0.00000000000E+00  0.98772448326E+02  0.14881365943E+04  0.14848550524E+04 0.  0.
        3    1    3    3  502    0 -0.12991444314E+03 -0.64719414135E+02  0.77909715248E+03  0.79250157621E+03  0.10100000352E+00 0. -1.
       -3    1    3    3    0  502  0.12991444314E+03  0.64719414135E+02 -0.68032470415E+03  0.69563501808E+03  0.10100000352E+00 0.  1.
</event>
<event>
 5   0  0.4084462E-04  0.1504153E+04  0.7818609E-02  0.8881696E-01
       -1   -1    0    0    0  501  0.00000000000E+00  0.00000000000E+00  0.40102530611E+03  0.40102530614E+03  0.50400001928E-02 0.  1.
        1   -1    0    0  501    0  0.00000000000E+00  0.00000000000E+00 -0.14104331817E+04  0.14104331817E+04  0.50400001928E-02 0. -1.
    10030    2    1    2    0    0  0.00000000000E+00  0.00000000000E+00 -0.10094078756E+04  0.18114584879E+04  0.15041534476E+04 0.  0.
        1    1    3    3  502    0  0.33686337424E+03  0.65979440496E+03 -0.66086375571E+03  0.99274694326E+03  0.50400001928E-02 0. -1.
       -1    1    3    3    0  502 -0.33686337424E+03 -0.65979440496E+03 -0.34854411990E+03  0.81871154461E+03  0.50400001928E-02 0.  1.
</event>
<event>
 5   0  0.7547580E-04  0.1456974E+04  0.7818609E-02  0.8913580E-01
       -2   -1    0    0    0  501  0.00000000000E+00  0.00000000000E+00  0.50287402953E+03  0.50287402953E+03  0.25500000920E-02 0. -1.
        2   -1    0    0  501    0  0.00000000000E+00  0.00000000000E+00 -0.10553203898E+04  0.10553203898E+04  0.25500000920E-02 0.  1.
    10030    2    1    2    0    0  0.00000000000E+00  0.00000000000E+00 -0.55244636027E+03  0.15581944193E+04  0.14569738733E+04 0.  0.
        4    1    3    3  502    0  0.35905390420E+03  0.41016201379E+02  0.40024674771E+03  0.53925977678E+03  0.12699999809E+01 0. -1.
       -4    1    3    3    0  502 -0.35905390420E+03 -0.41016201379E+02 -0.95269310798E+03  0.10189346425E+04  0.12699999809E+01 0.  1.
</event>
<event>
 5   0  0.7547580E-04  0.1496708E+04  0.7818609E-02  0.8886645E-01
        2   -1    0    0  501    0  0.00000000000E+00  0.00000000000E+00  0.15764061198E+04  0.15764061198E+04  0.25500000920E-02 0.  1.
       -2   -1    0    0    0  501  0.00000000000E+00  0.00000000000E+00 -0.35525995586E+03  0.35525995587E+03  0.25500000920E-02 0. -1.
    10030    2    1    2    0    0  0.00000000000E+00  0.00000000000E+00  0.12211461639E+04  0.19316660756E+04  0.14967083464E+04 0.  0.
        4    1    3    3  502    0  0.68047124638E+03  0.20095340574E+03  0.30350301198E+03  0.77171178533E+03  0.12699999809E+01 0. -1.
       -4    1    3    3    0  502 -0.68047124638E+03 -0.20095340574E+03  0.91764315191E+03  0.11599542903E+04  0.12699999809E+01 0.  1.
</event>
<event>
 5   0  0.3907345E-04  0.1506722E+04  0.7818609E-02  0.8879995E-01
        1   -1    0    0  501    0  0.00000000000E+00  0.00000000000E+00  0.31170619998E+03  0.31170620003E+03  0.50400001928E-02 0.  1.
       -1   -1    0    0    0  501  0.00000000000E+00  0.00000000000E+00 -0.18207940476E+04  0.18207940476E+04  0.50400001928E-02 0. -1.
    10030    2    1    2    0    0  0.00000000000E+00  0.00000000000E+00 -0.15090878476E+04  0.21325002476E+04  0.15067219964E+04 0.  0.
        5    1    3    3  502    0  0.46267875499E+03  0.41806687148E+03 -0.15627985821E+03  0.64288181140E+03  0.46999998093E+01 0.  1.
       -5    1    3    3    0  502 -0.46267875499E+03 -0.41806687148E+03 -0.13528079894E+04  0.14896184362E+04  0.46999998093E+01 0. -1.
</event>
<event>
 5   0  0.4086710E-04  0.1536524E+04  0.7818609E-02  0.8860522E-01
       -1   -1    0    0    0  501  0.00000000000E+00  0.00000000000E+00  0.95874512300E+03  0.95874512302E+03  0.50400001928E-02 0.  1.
        1   -1    0    0  501    0  0.00000000000E+00  0.00000000000E+00 -0.61562392897E+03  0.61562392899E+03  0.50400001928E-02 0. -1.
    10030    2    1    2    0    0  0.00000000000E+00  0.00000000000E+00  0.34312119404E+03  0.15743690520E+04  0.15365239205E+04 0.  0.
        3    1    3    3  502    0  0.18219612733E+03  0.40770241632E+03 -0.46898479011E+03  0.64758276123E+03  0.10100000352E+00 0. -1.
       -3    1    3    3    0  502 -0.18219612733E+03 -0.40770241632E+03  0.81210598414E+03  0.92678629078E+03  0.10100000352E+00 0.  1.
</event>
<event>
 5   0  0.4015204E-04  0.1505262E+04  0.7818609E-02  0.8880961E-01
        1   -1    0    0  501    0  0.00000000000E+00  0.00000000000E+00  0.62935573191E+03  0.62935573193E+03  0.50400001928E-02 0.  1.
       -1   -1    0    0    0  501  0.00000000000E+00  0.00000000000E+00 -0.90005338317E+03  0.90005338319E+03  0.50400001928E-02 0. -1.
    10030    2    1    2    0    0  0.00000000000E+00  0.00000000000E+00 -0.27069765127E+03  0.15294091151E+04  0.15052624432E+04 0.  0.
        2    1    3    3  502    0 -0.41995254953E+03 -0.62324434574E+03 -0.17674671811E+03  0.77203177442E+03  0.25500000920E-02 0. -1.
       -2    1    3    3    0  502  0.41995254953E+03  0.62324434574E+03 -0.93950933153E+02  0.75737734069E+03  0.25500000920E-02 0.  1.
</event>
<event>
 5   0  0.7547580E-04  0.1524794E+04  0.7818609E-02  0.8868130E-01
       -2   -1    0    0    0  501  0.00000000000E+00  0.00000000000E+00  0.49273137042E+03  0.49273137043E+03  0.25500000920E-02 0.  1.
        2   -1    0    0  501    0  0.00000000000E+00  0.00000000000E+00 -0.11796475596E+04  0.11796475596E+04  0.25500000920E-02 0. -1.
    10030    2    1    2    0    0  0.00000000000E+00  0.00000000000E+00 -0.68691618915E+03  0.16723789300E+04  0.15247942270E+04 0.  0.
        4    1    3    3  502    0 -0.37278332600E+03 -0.27569196908E+02 -0.10722420034E+04  0.11355315916E+04  0.12699999809E+01 0. -1.
       -4    1    3    3    0  502  0.37278332600E+03  0.27569196908E+02  0.38532581422E+03  0.53684733842E+03  0.12699999809E+01 0.  1.
</event>
<event>
 5   0  0.4086710E-04  0.1492749E+04  0.7818609E-02  0.8889289E-01
        1   -1    0    0  501    0  0.00000000000E+00  0.00000000000E+00  0.10652768604E+04  0.10652768604E+04  0.50400001928E-02 0. -1.
       -1   -1    0    0    0  501  0.00000000000E+00  0.00000000000E+00 -0.52293933735E+03  0.52293933738E+03  0.50400001928E-02 0.  1.
    10030    2    1    2    0    0  0.00000000000E+00  0.00000000000E+00  0.54233752305E+03  0.15882161978E+04  0.14927493768E+04 0.  0.
        3    1    3    3  502    0  0.21400755687E+03 -0.67493240601E+03  0.52236590136E+03  0.87988586316E+03  0.10100000352E+00 0. -1.
       -3    1    3    3    0  502 -0.21400755687E+03  0.67493240601E+03  0.19971621686E+02  0.70833033463E+03  0.10100000352E+00 0.  1.
</event>
<event>
 5   0  0.7634227E-04  0.1492755E+04  0.7818609E-02  0.8889285E-01
       -2   -1    0    0    0  501  0.00000000000E+00  0.00000000000E+00  0.40909638696E+03  0.40909638697E+03  0.25500000920E-02 0. -1.
        2   -1    0    0  501    0  0.00000000000E+00  0.00000000000E+00 -0.13617308995E+04  0.13617308995E+04  0.25500000920E-02 0.  1.
    10030    2    1    2    0    0  0.00000000000E+00  0.00000000000E+00 -0.95263451254E+03  0.17708272865E+04  0.14927547568E+04 0.  0.
        2    1    3    3  502    0 -0.26380648124E+03  0.55972041710E+03 -0.97143649866E+03  0.11517680651E+04  0.25500000920E-02 0.  1.
       -2    1    3    3    0  502  0.26380648124E+03 -0.55972041710E+03  0.18801986119E+02  0.61905922137E+03  0.25500000920E-02 0. -1.
</event>
<event>
 5   0  0.7547580E-04  0.1506220E+04  0.7818609E-02  0.8880327E-01
        2   -1    0    0  501    0  0.00000000000E+00  0.00000000000E+00  0.14170590091E+04  0.14170590091E+04  0.25500000920E-02 0.  1.
       -2   -1    0    0    0  501  0.00000000000E+00  0.00000000000E+00 -0.40024789483E+03  0.40024789484E+03  0.25500000920E-02 0. -1.
    10030    2    1    2    0    0  0.00000000000E+00  0.00000000000E+00  0.10168111143E+04  0.18173069040E+04  0.15062202830E+04 0.  0.
        4    1    3    3  502    0 -0.28607781294E+02  0.63816231759E+03  0.27145346499E+02  0.63938097523E+03  0.12699999809E+01 0. -1.
       -4    1    3    3    0  502  0.28607781294E+02 -0.63816231759E+03  0.98966576781E+03  0.11779259287E+04  0.12699999809E+01 0.  1.
</event>
<event>
 5   0  0.3907345E-04  0.1502039E+04  0.7818609E-02  0.8883098E-01
        1   -1    0    0  501    0  0.00000000000E+00  0.00000000000E+00  0.70617861162E+03  0.70617861164E+03  0.50400001928E-02 0. -1.
       -1   -1    0    0    0  501  0.00000000000E+00  0.00000000000E+00 -0.79870761740E+03  0.79870761741E+03  0.50400001928E-02 0.  1.
    10030    2    1    2    0    0  0.00000000000E+00  0.00000000000E+00 -0.92529005774E+02  0.15048862291E+04  0.15020389294E+04 0.  0.
        5    1    3    3  502    0  0.14935301872E+03 -0.73600085518E+03 -0.44124256435E+02  0.75231151994E+03  0.46999998093E+01 0. -1.
       -5    1    3    3    0  502 -0.14935301872E+03  0.73600085518E+03 -0.48404749340E+02  0.75257470911E+03  0.46999998093E+01 0.  1.
</event>
<event>
 5   0  0.4015204E-04  0.1520240E+04  0.7818609E-02  0.8871104E-01
       -1   -1    0    0    0  501  0.00000000000E+00  0.00000000000E+00  0.55644838681E+03  0.55644838684E+03  0.50400001928E-02 0. -1.
        1   -1    0    0  501    0  0.00000000000E+00  0.00000000000E+00 -0.10383396007E+04  0.10383396008E+04  0.50400001928E-02 0.  1.
    10030    2    1    2    0    0  0.00000000000E+00  0.00000000000E+00 -0.48189121392E+03  0.15947879876E+04  0.15202399756E+04 0.  0.
        2    1    3    3  502    0  0.20789165137E+03  0.26187445423E+03  0.47515968288E+03  0.58101109519E+03  0.25500000920E-02 0. -1.
       -2    1    3    3    0  502 -0.20789165137E+03 -0.26187445423E+03 -0.95705089680E+03  0.10137768924E+04  0.25500000920E-02 0.  1.
</event>
<event>
 5   0  0.7634227E-04  0.1498077E+04  0.7818609E-02  0.8885733E-01
        2   -1    0    0  501    0  0.00000000000E+00  0.00000000000E+00  0.13593369803E+04  0.13593369803E+04  0.25500000920E-02 0. -1.
       -2   -1    0    0    0  501  0.00000000000E+00  0.00000000000E+00 -0.41274428549E+03  0.41274428550E+03  0.25500000920E-02 0.  1.
    10030    2    1    2    0    0  0.00000000000E+00  0.00000000000E+00  0.94659269479E+03  0.17720812658E+04  0.14980768614E+04 0.  0.
        2    1    3    3  502    0 -0.24669750844E+03 -0.45513584236E+03  0.11136510523E+04  0.12280989219E+04  0.25500000920E-02 0. -1.
       -2    1    3    3    0  502  0.24669750844E+03  0.45513584236E+03 -0.16705835748E+03  0.54398234391E+03  0.25500000920E-02 0.  1.
</event>
<event>
 5   0  0.7454828E-04  0.1580645E+04  0.7818609E-02  0.8832527E-01
       -2   -1    0    0    0  501  0.00000000000E+00  0.00000000000E+00  0.37541637739E+03  0.37541637739E+03  0.25500000920E-02 0. -1.
        2   -1    0    0  501    0  0.00000000000E+00  0.00000000000E+00 -0.16637790676E+04  0.16637790676E+04  0.25500000920E-02 0.  1.
    10030    2    1    2    0    0  0.00000000000E+00  0.00000000000E+00 -0.12883626902E+04  0.20391954450E+04  0.15806453243E+04 0.  0.
        3    1    3    3  502    0 -0.17223978441E+03  0.57281957667E+03  0.22217902202E+02  0.59856700221E+03  0.10100000352E+00 0. -1.
       -3    1    3    3    0  502  0.17223978441E+03 -0.57281957667E+03 -0.13105805924E+04  0.14406284428E+04  0.10100000352E+00 0.  1.
</event>
<event>
 5   0  0.7672251E-04  0.1508269E+04  0.7818609E-02  0.8878973E-01
        2   -1    0    0  501    0  0.00000000000E+00  0.00000000000E+00  0.55508265888E+03  0.55508265888E+03  0.25500000920E-02 0.  1.
       -2   -1    0    0    0  501  0.00000000000E+00  0.00000000000E+00 -0.10245659992E+04  0.10245659992E+04  0.25500000920E-02 0. -1.
    10030    2    1    2    0    0  0.00000000000E+00  0.00000000000E+00 -0.46948334031E+03  0.15796486581E+04  0.15082689668E+04 0.  0.
        5    1    3    3  502    0 -0.10524644797E+03 -0.19102059893E+03  0.52131644711E+03  0.56511822838E+03  0.46999998093E+01 0.  1.
       -5    1    3    3    0  502  0.10524644797E+03  0.19102059893E+03 -0.99079978742E+03  0.10145304297E+04  0.46999998093E+01 0. -1.
</event>
<event>
 5   0  0.4015204E-04  0.1496115E+04  0.7818609E-02  0.8887040E-01
       -1   -1    0    0    0  501  0.00000000000E+00  0.00000000000E+00  0.26964004967E+03  0.26964004971E+03  0.50400001928E-02 0.  1.
        1   -1    0    0  501    0  0.00000000000E+00  0.00000000000E+00 -0.20753237341E+04  0.20753237341E+04  0.50400001928E-02 0. -1.
    10030    2    1    2    0    0  0.00000000000E+00  0.00000000000E+00 -0.18056836844E+04  0.23449637838E+04  0.14961154966E+04 0.  0.
        2    1    3    3  502    0  0.34764975784E+02  0.15976504534E+03 -0.20469743471E+04  0.20534939618E+04  0.25500000920E-02 0. -1.
       -2    1    3    3    0  502 -0.34764975784E+02 -0.15976504534E+03  0.24129066269E+03  0.29146982204E+03  0.25500000920E-02 0.  1.
</event>
<event>
 5   0  0.7634227E-04  0.1501557E+04  0.7818609E-02  0.8883418E-01
        2   -1    0    0  501    0  0.00000000000E+00  0.00000000000E+00  0.89312029143E+03  0.89312029143E+03  0.25500000920E-02 0.  1.
       -2   -1    0    0    0  501  0.00000000000E+00  0.00000000000E+00 -0.63112251463E+03  0.63112251463E+03  0.25500000920E-02 0. -1.
    10030    2    1    2    0    0  0.00000000000E+00  0.00000000000E+00  0.26199777680E+03  0.15242428061E+04  0.15015569576E+04 0.  0.
        2    1    3    3  502    0 -0.54059962507E+03  0.21763888531E+03  0.61149335320E+03  0.84471223505E+03  0.25500000920E-02 0.  1.
       -2    1    3    3    0  502  0.54059962507E+03 -0.21763888531E+03 -0.34949557639E+03  0.67953057102E+03  0.25500000920E-02 0. -1.
</event>
<event>
 5   0  0.4015204E-04  0.1492904E+04  0.7818609E-02  0.8889185E-01
        1   -1    0    0  501    0  0.00000000000E+00  0.00000000000E+00  0.14889950811E+04  0.14889950811E+04  0.50400001928E-02 0.  1.
       -1   -1    0    0    0  501  0.00000000000E+00  0.00000000000E+00 -0.37420588790E+03  0.37420588793E+03  0.50400001928E-02 0. -1.
    10030    2    1    2    0    0  0.00000000000E+00  0.00000000000E+00  0.11147891932E+04  0.18632009690E+04  0.14929041850E+04 0.  0.
        2    1    3    3  502    0 -0.87278492646E+02  0.53956514611E+02 -0.36536201040E+03  0.37949735097E+03  0.25500000920E-02 0. -1.
       -2    1    3    3    0  502  0.87278492646E+02 -0.53956514611E+02  0.14801512036E+04  0.14837036180E+04  0.25500000920E-02 0.  1.
</event>
<event>
 5   0  0.7672251E-04  0.1502326E+04  0.7818609E-02  0.8882907E-01
       -2   -1    0    0    0  501  0.00000000000E+00  0.00000000000E+00  0.43078303598E+03  0.43078303599E+03  0.25500000920E-02 0. -1.
        2   -1    0    0  501    0  0.00000000000E+00  0.00000000000E+00 -0.13098148891E+04  0.13098148891E+04  0.25500000920E-02 0.  1.
    10030    2    1    2    0    0  0.00000000000E+00  0.00000000000E+00 -0.87903185313E+03  0.17405979251E+04  0.15023262422E+04 0.  0.
        5    1    3    3  502    0  0.30541463398E+03 -0.47172477900E+03 -0.10169851813E+04  0.11619308563E+04  0.46999998093E+01 0.  1.
       -5    1    3    3    0  502 -0.30541463398E+03  0.47172477900E+03  0.13795332819E+03  0.57866706881E+03  0.46999998093E+01 0. -1.
</event>
<event>
 5   0  0.4084462E-04  0.1496590E+04  0.7818609E-02  0.8886724E-01
       -1   -1    0    0    0  501  0.00000000000E+00  0.00000000000E+00  0.52388786818E+03  0.52388786820E+03  0.50400001928E-02 0. -1.
        1   -1    0    0  501    0  0.00000000000E+00  0.00000000000E+00 -0.10688268090E+04  0.10688268090E+04  0.50400001928E-02 0.  1.
    10030    2    1    2    0    0  0.00000000000E+00  0.00000000000E+00 -0.54493894086E+03  0.15927146772E+04  0.14965899886E+04 0.  0.
        1    1    3    3  502    0 -0.73281873341E+03 -0.82912287813E+02 -0.40728531453E+03  0.84248386985E+03  0.50400001928E-02 0. -1.
       -1    1    3    3    0  502  0.73281873341E+03  0.82912287813E+02 -0.13765362633E+03  0.75023080740E+03  0.50400001928E-02 0.  1.
</event>
<event>
 5   0  0.4015204E-04  0.1500042E+04  0.7818609E-02  0.8884425E-01
       -1   -1    0    0    0  501  0.00000000000E+00  0.00000000000E+00  0.82116754180E+03  0.82116754182E+03  0.50400001928E-02 0. -1.
        1   -1    0    0  501    0  0.00000000000E+00  0.00000000000E+00 -0.68503850369E+03  0.68503850371E+03  0.50400001928E-02 0.  1.
    10030    2    1    2    0    0  0.00000000000E+00  0.00000000000E+00  0.13612903811E+03  0.15062060455E+04  0.15000418449E+04 0.  0.
        2    1    3    3  502    0 -0.65619202612E+03  0.61462811364E+02  0.42753809588E+03  0.78559179970E+03  0.25500000920E-02 0. -1.
       -2    1    3    3    0  502  0.65619202612E+03 -0.61462811364E+02 -0.29140905777E+03  0.72061424582E+03  0.25500000920E-02 0.  1.
</event>
<event>
 5   0  0.4084462E-04  0.1492032E+04  0.7818609E-02  0.8889769E-01
       -1   -1    0    0    0  501  0.00000000000E+00  0.00000000000E+00  0.35023617147E+03  0.35023617150E+03  0.50400001928E-02 0.  1.
        1   -1    0    0  501    0  0.00000000000E+00  0.00000000000E+00 -0.15890417346E+04  0.15890417346E+04  0.50400001928E-02 0. -1.
    10030    2    1    2    0    0  0.00000000000E+00  0.00000000000E+00 -0.12388055631E+04  0.19392779061E+04  0.14920320284E+04 0.  0.
        1    1    3    3  502    0  0.36318362312E+03 -0.42487455693E+03  0.22786181518E+02  0.55941035325E+03  0.50400001928E-02 0.  1.
       -1    1    3    3    0  502 -0.36318362312E+03  0.42487455693E+03 -0.12615917446E+04  0.13798675528E+04  0.50400001928E-02 0. -1.
</event>
<event>
 5   0  0.7672251E-04  0.1488039E+04  0.7818609E-02  0.8892446E-01
       -2   -1    0    0    0  501  0.00000000000E+00  0.00000000000E+00  0.39123046012E+03  0.39123046013E+03  0.25500000920E-02 0.  1.
        2   -1    0    0  501    0  0.00000000000E+00  0.00000000000E+00 -0.14149333133E+04  0.14149333133E+04  0.25500000920E-02 0. -1.
    10030    2    1    2    0    0  0.00000000000E+00  0.00000000000E+00 -0.10237028532E+04  0.18061637734E+04  0.14880389930E+04 0.  0.
        5    1    3    3  502    0  0.65361850041E+01  0.65151828468E+03 -0.75859672535E+02  0.65596918899E+03  0.46999998093E+01 0.  1.
       -5    1    3    3    0  502 -0.65361850041E+01 -0.65151828468E+03 -0.94784318063E+03  0.11501945844E+04  0.46999998093E+01 0. -1.
</event>
<event>
 5   0  0.3907345E-04  0.1494519E+04  0.7818609E-02  0.8888106E-01
        1   -1    0    0  501    0  0.00000000000E+00  0.00000000000E+00  0.52740373246E+03  0.52740373249E+03  0.50400001928E-02 0. -1.
       -1   -1    0    0    0  501  0.00000000000E+00  0.00000000000E+00 -0.10587647410E+04  0.10587647410E+04  0.50400001928E-02 0.  1.
    10030    2    1    2    0    0  0.00000000000E+00  0.00000000000E+00 -0.53136100856E+03  0.15861684735E+04  0.14945186198E+04 0.  0.
        5    1    3    3  502    0  0.31792123807E+03  0.38336104451E+01 -0.98337865943E+03  0.10335106618E+04  0.46999998093E+01 0.  1.
       -5    1    3    3    0  502 -0.31792123807E+03 -0.38336104451E+01  0.45201765087E+03  0.55265781174E+03  0.46999998093E+01 0. -1.
</event>
<event>
 5   0  0.4086710E-04  0.1519047E+04  0.7818609E-02  0.8871885E-01
       -1   -1    0    0    0  501  0.00000000000E+00  0.00000000000E+00  0.13549725955E+04  0.13549725955E+04  0.50400001928E-02 0.  1.
        1   -1    0    0  501    0  0.00000000000E+00  0.00000000000E+00 -0.42574737598E+03  0.42574737601E+03  0.50400001928E-02 0. -1.
    10030    2    1    2    0    0  0.00000000000E+00  0.00000000000E+00  0.92922521954E+03  0.17807199715E+04  0.15190471054E+04 0.  0.
        3    1    3    3  502    0  0.29623774776E+03  0.69928287052E+03  0.45162848981E+03  0.88358453993E+03  0.10100000352E+00 0. -1.
       -3    1    3    3    0  502 -0.29623774776E+03 -0.69928287052E+03  0.47759672973E+03  0.89713543161E+03  0.10100000352E+00 0.  1.
</event>
<event>
 5   0  0.7359897E-04  0.1491622E+04  0.7818609E-02  0.8890043E-01
       -2   -1    0    0    0  501  0.00000000000E+00  0.00000000000E+00  0.17338270459E+04  0.17338270459E+04  0.25500000920E-02 0.  1.
        2   -1    0    0  501    0  0.00000000000E+00  0.00000000000E+00 -0.32081281525E+03  0.32081281526E+03  0.25500000920E-02 0. -1.
    10030    2    1    2    0    0  0.00000000000E+00  0.00000000000E+00  0.14130142306E+04  0.20546398611E+04  0.14916218499E+04 0.  0.
        1    1    3    3  502    0  0.58740553402E+03 -0.44993255999E+03  0.83535142990E+03  0.11159285736E+04  0.50400001928E-02 0.  1.
       -1    1    3    3    0  502 -0.58740553402E+03  0.44993255999E+03  0.57766280073E+03  0.93871128752E+03  0.50400001928E-02 0. -1.
</event>
<event>
 5   0  0.4086710E-04  0.1485661E+04  0.7818609E-02  0.8894045E-01
       -1   -1    0    0    0  501  0.00000000000E+00  0.00000000000E+00  0.71552749560E+03  0.71552749562E+03  0.50400001928E-02 0.  1.
        1   -1    0    0  501    0  0.00000000000E+00  0.00000000000E+00 -0.77117503677E+03  0.77117503678E+03  0.50400001928E-02 0. -1.
    10030    2    1    2    0    0  0.00000000000E+00  0.00000000000E+00 -0.55647541167E+02  0.14867025324E+04  0.14856607187E+04 0.  0.
        3    1    3    3  502    0  0.29912582125E+03  0.18425786462E+02 -0.70799236596E+03  0.76881009814E+03  0.10100000352E+00 0. -1.
       -3    1    3    3    0  502 -0.29912582125E+03 -0.18425786462E+02  0.65234482479E+03  0.71789243427E+03  0.10100000352E+00 0.  1.
</event>
<event>
 5   0  0.7454828E-04  0.1567126E+04  0.7818609E-02  0.8841002E-01
       -2   -1    0    0    0  501  0.00000000000E+00  0.00000000000E+00  0.13770646228E+04  0.13770646228E+04  0.25500000920E-02 0.  1.
        2   -1    0    0  501    0  0.00000000000E+00  0.00000000000E+00 -0.44585497807E+03  0.44585497808E+03  0.25500000920E-02 0. -1.
    10030    2    1    2    0    0  0.00000000000E+00  0.00000000000E+00  0.93120964478E+03  0.18229196009E+04  0.15671261816E+04 0.  0.
        3    1    3    3  502    0  0.48887586050E+03 -0.36802693742E+02 -0.24540712558E+03  0.54825059301E+03  0.10100000352E+00 0. -1.
       -3    1    3    3    0  502 -0.48887586050E+03  0.36802693742E+02  0.11766167704E+04  0.12746690079E+04  0.10100000352E+00 0.  1.
</event>
<event>
 5   0  0.4084462E-04  0.1503019E+04  0.7818609E-02  0.8882448E-01
        1   -1    0    0  501    0  0.00000000000E+00  0.00000000000E+00  0.97854977615E+03  0.97854977617E+03  0.50400001928E-02 0.  1.
       -1   -1    0    0    0  501  0.00000000000E+00  0.00000000000E+00 -0.57714655748E+03  0.57714655750E+03  0.50400001928E-02 0. -1.
    10030    2    1    2    0    0  0.00000000000E+00  0.00000000000E+00  0.40140321868E+03  0.15556963337E+04  0.15030191411E+04 0.  0.
        1    1    3    3  502    0 -0.50173092509E+03 -0.35323233829E+03 -0.24839411010E+03  0.66197178185E+03  0.50400001928E-02 0. -1.
       -1    1    3    3    0  502  0.50173092509E+03  0.35323233829E+03  0.64979732878E+03  0.89372455182E+03  0.50400001928E-02 0.  1.
</event>
<event>
 5   0  0.4084462E-04  0.1509785E+04  0.7818609E-02  0.8877972E-01
       -1   -1    0    0    0  501  0.00000000000E+00  0.00000000000E+00  0.68369519454E+03  0.68369519456E+03  0.50400001928E-02 0.  1.
        1   -1    0    0  501    0  0.00000000000E+00  0.00000000000E+00 -0.83350426425E+03  0.83350426427E+03  0.50400001928E-02 0. -1.
    10030    2    1    2    0    0  0.00000000000E+00  0.00000000000E+00 -0.14980906971E+03  0.15171994588E+04  0.15097852299E+04 0.  0.
        1    1    3    3  502    0 -0.34581848039E+03  0.65549131222E+03  0.69339822489E+02  0.74435696597E+03  0.50400001928E-02 0.  1.
       -1    1    3    3    0  502  0.34581848039E+03 -0.65549131222E+03 -0.21914889220E+03  0.77284249285E+03  0.50400001928E-02 0. -1.
</event>
<event>
 5   0  0.7359897E-04  0.1522787E+04  0.7818609E-02  0.8869440E-01
        2   -1    0    0  501    0  0.00000000000E+00  0.00000000000E+00  0.17175339345E+04  0.17175339345E+04  0.25500000920E-02 0.  1.
       -2   -1    0    0    0  501  0.00000000000E+00  0.00000000000E+00 -0.33753055827E+03  0.33753055828E+03  0.25500000920E-02 0. -1.
    10030    2    1    2    0    0  0.00000000000E+00  0.00000000000E+00  0.13800033762E+04  0.20550644928E+04  0.15227871654E+04 0.  0.
        1    1    3    3  502    0  0.13375485945E+03  0.74025960746E+03  0.84879828080E+03  0.11341662887E+04  0.50400001928E-02 0. -1.
       -1    1    3    3    0  502 -0.13375485945E+03 -0.74025960746E+03  0.53120509542E+03  0.92089820408E+03  0.50400001928E-02 0.  1.
</event>
<event>
 5   0  0.4084462E-04  0.1496407E+04  0.7818609E-02  0.8886846E-01
        1   -1    0    0  501    0  0.00000000000E+00  0.00000000000E+00  0.24518013646E+04  0.24518013646E+04  0.50400001928E-02 0.  1.
       -1   -1    0    0    0  501  0.00000000000E+00  0.00000000000E+00 -0.22832529992E+03  0.22832529998E+03  0.50400001928E-02 0. -1.
    10030    2    1    2    0    0  0.00000000000E+00  0.00000000000E+00  0.22234760647E+04  0.26801266646E+04  0.14964067388E+04 0.  0.
        1    1    3    3  502    0 -0.62256348250E+03 -0.31352355393E+03  0.15987102557E+04  0.17440632988E+04  0.50400001928E-02 0. -1.
       -1    1    3    3    0  502  0.62256348250E+03  0.31352355393E+03  0.62476580898E+03  0.93606336575E+03  0.50400001928E-02 0.  1.
</event>
<event>
 5   0  0.4084462E-04  0.1475430E+04  0.7818609E-02  0.8900958E-01
        1   -1    0    0  501    0  0.00000000000E+00  0.00000000000E+00  0.14366426046E+04  0.14366426046E+04  0.50400001928E-02 0. -1.
       -1   -1    0    0    0  501  0.00000000000E+00  0.00000000000E+00 -0.37881617153E+03  0.37881617157E+03  0.50400001928E-02 0.  1.
    10030    2    1    2    0    0  0.00000000000E+00  0.00000000000E+00  0.10578264331E+04  0.18154587762E+04  0.14754300409E+04 0.  0.
        1    1    3    3  502    0 -0.10531586259E+03  0.69431870226E+03  0.80693625549E+03  0.10697270735E+04  0.50400001928E-02 0.  1.
       -1    1    3    3    0  502  0.10531586259E+03 -0.69431870226E+03  0.25089017758E+03  0.74573170273E+03  0.50400001928E-02 0. -1.
</event>
<event>
 5   0  0.7454828E-04  0.1499202E+04  0.7818609E-02  0.8884984E-01
       -2   -1    0    0    0  501  0.00000000000E+00  0.00000000000E+00  0.26145554143E+03  0.26145554145E+03  0.25500000920E-02 0. -1.
        2   -1    0    0  501    0  0.00000000000E+00  0.00000000000E+00 -0.21491277044E+04  0.21491277044E+04  0.25500000920E-02 0.  1.
    10030    2    1    2    0    0  0.00000000000E+00  0.00000000000E+00 -0.18876721630E+04  0.24105832459E+04  0.14992015843E+04 0.  0.
        3    1    3    3  502    0 -0.46604797586E+02 -0.74766969920E+03 -0.90071073805E+03  0.11715211608E+04  0.10100000352E+00 0. -1.
       -3    1    3    3    0  502  0.46604797586E+02  0.74766969920E+03 -0.98696142496E+03  0.12390620851E+04  0.10100000352E+00 0.  1.
</event>
<event>
 5   0  0.7672251E-04  0.1452652E+04  0.7818609E-02  0.8916564E-01
       -2   -1    0    0    0  501  0.00000000000E+00  0.00000000000E+00  0.10054783839E+04  0.10054783839E+04  0.25500000920E-02 0.  1.
        2   -1    0    0  501    0  0.00000000000E+00  0.00000000000E+00 -0.52467505867E+03  0.52467505868E+03  0.25500000920E-02 0. -1.
    10030    2    1    2    0    0  0.00000000000E+00  0.00000000000E+00  0.48080332525E+03  0.15301534426E+04  0.14526519612E+04 0.  0.
        5    1    3    3  502    0  0.19033674888E+02  0.19434701264E+03  0.97729199943E+03  0.99662168563E+03  0.46999998093E+01 0.  1.
       -5    1    3    3    0  502 -0.19033674888E+02 -0.19434701264E+03 -0.49648867419E+03  0.53353175697E+03  0.46999998093E+01 0. -1.
</event>
<event>
 5   0  0.7634227E-04  0.1501019E+04  0.7818609E-02  0.8883775E-01
       -2   -1    0    0    0  501  0.00000000000E+00  0.00000000000E+00  0.65805850909E+03  0.65805850909E+03  0.25500000920E-02 0. -1.
        2   -1    0    0  501    0  0.00000000000E+00  0.00000000000E+00 -0.85594921851E+03  0.85594921851E+03  0.25500000920E-02 0.  1.
    10030    2    1    2    0    0  0.00000000000E+00  0.00000000000E+00 -0.19789070942E+03  0.15140077276E+04  0.15010192092E+04 0.  0.
        2    1    3    3  502    0  0.47031893145E+03  0.34741526173E+03 -0.57351360433E+03  0.81903303702E+03  0.25500000920E-02 0.  1.
       -2    1    3    3    0  502 -0.47031893145E+03 -0.34741526173E+03  0.37562289491E+03  0.69497469059E+03  0.25500000920E-02 0. -1.
</event>
<event>
 5   0  0.7634227E-04  0.1503888E+04  0.7818609E-02  0.8881872E-01
        2   -1    0    0  501    0  0.00000000000E+00  0.00000000000E+00  0.10292586636E+04  0.10292586636E+04  0.25500000920E-02 0. -1.
       -2   -1    0    0    0  501  0.00000000000E+00  0.00000000000E+00 -0.54934629769E+03  0.54934629770E+03  0.25500000920E-02 0.  1.
    10030    2    1    2    0    0  0.00000000000E+00  0.00000000000E+00  0.47991236587E+03  0.15786049613E+04  0.15038875439E+04 0.  0.
        2    1    3    3  502    0  0.60082242916E+03 -0.40689480826E+03  0.44690205457E+03  0.85221618311E+03  0.25500000920E-02 0.  1.
       -2    1    3    3    0  502 -0.60082242916E+03  0.40689480826E+03  0.33010311294E+02  0.72638877815E+03  0.25500000920E-02 0. -1.
</event>
<event>
 5   0  0.7454828E-04  0.1498602E+04  0.7818609E-02  0.8885383E-01
        2   -1    0    0  501    0  0.00000000000E+00  0.00000000000E+00  0.88106275634E+03  0.88106275634E+03  0.25500000920E-02 0.  1.
       -2   -1    0    0    0  501  0.00000000000E+00  0.00000000000E+00 -0.63724406879E+03  0.63724406880E+03  0.25500000920E-02 0. -1.
    10030    2    1    2    0    0  0.00000000000E+00  0.00000000000E+00  0.24381868755E+03  0.15183068251E+04  0.14986020362E+04 0.  0.
        3    1    3    3  502    0 -0.29116494745E+03 -0.47652173008E+03  0.62808036003E+03  0.84043734729E+03  0.10100000352E+00 0.  1.
       -3    1    3    3    0  502  0.29116494745E+03  0.47652173008E+03 -0.38426167249E+03  0.67786947785E+03  0.10100000352E+00 0. -1.
</event>
<event>
 5   0  0.4015204E-04  0.1484165E+04  0.7818609E-02  0.8895052E-01
        1   -1    0    0  501    0  0.00000000000E+00  0.00000000000E+00  0.13500119190E+04  0.13500119190E+04  0.50400001928E-02 0.  1.
       -1   -1    0    0    0  501  0.00000000000E+00  0.00000000000E+00 -0.40791243631E+03  0.40791243634E+03  0.50400001928E-02 0. -1.
    10030    2    1    2    0    0  0.00000000000E+00  0.00000000000E+00  0.94209948269E+03  0.17579243553E+04  0.14841652886E+04 0.  0.
        2    1    3    3  502    0 -0.36097025591E+03  0.45255813489E+03  0.10209961800E+04  0.11736871775E+04  0.25500000920E-02 0.  1.
       -2    1    3    3    0  502  0.36097025591E+03 -0.45255813489E+03 -0.78896697298E+02  0.58423717783E+03  0.25500000920E-02 0. -1.
</event>
<event>
 5   0  0.7359897E-04  0.1503007E+04  0.7818609E-02  0.8882456E-01
        2   -1    0    0  501    0  0.00000000000E+00  0.00000000000E+00  0.10116264851E+04  0.10116264851E+04  0.25500000920E-02 0. -1.
       -2   -1    0    0    0  501  0.00000000000E+00  0.00000000000E+00 -0.55826669165E+03  0.55826669166E+03  0.25500000920E-02 0.  1.
    10030    2    1    2    0    0  0.00000000000E+00  0.00000000000E+00  0.45335979346E+03  0.15698931768E+04  0.15030068144E+04 0.  0.
        1    1    3    3  502    0  0.13592105863E+03  0.47026923930E+03  0.82225626913E+03  0.95693942534E+03  0.50400001928E-02 0. -1.
       -1    1    3    3    0  502 -0.13592105863E+03 -0.47026923930E+03 -0.36889647567E+03  0.61295375144E+03  0.50400001928E-02 0.  1.
</event>
<event>
 5   0  0.4086710E-04  0.1500218E+04  0.7818609E-02  0.8884308E-01
       -1   -1    0    0    0  501  0.00000000000E+00  0.00000000000E+00  0.71883282682E+03  0.71883282683E+03  0.50400001928E-02 0.  1.
        1   -1    0    0  501    0  0.00000000000E+00  0.00000000000E+00 -0.78274634048E+03  0.78274634050E+03  0.50400001928E-02 0. -1.
    10030    2    1    2    0    0  0.00000000000E+00  0.00000000000E+00 -0.63913513663E+02  0.15015791673E+04  0.15002183370E+04 0.  0.
        3    1    3    3  502    0 -0.49255948128E+03 -0.18230022047E+03 -0.56799417291E+03  0.77360558662E+03  0.10100000352E+00 0. -1.
       -3    1    3    3    0  502  0.49255948128E+03  0.18230022047E+03  0.50408065925E+03  0.72797358071E+03  0.10100000352E+00 0.  1.
</event>
<event>
 5   0  0.4086710E-04  0.1523338E+04  0.7818609E-02  0.8869080E-01
        1   -1    0    0  501    0  0.00000000000E+00  0.00000000000E+00  0.15573346115E+04  0.15573346115E+04  0.50400001928E-02 0.  1.
       -1   -1    0    0    0  501  0.00000000000E+00  0.00000000000E+00 -0.37252104421E+03  0.37252104425E+03  0.50400001928E-02 0. -1.
    10030    2    1    2    0    0  0.00000000000E+00  0.00000000000E+00  0.11848135673E+04  0.19298556557E+04  0.15233383284E+04 0.  0.
        3    1    3    3  502    0  0.23373787802E+03  0.51724328464E+03  0.12358490768E+04  0.13599621178E+04  0.10100000352E+00 0.  1.
       -3    1    3    3    0  502 -0.23373787802E+03 -0.51724328464E+03 -0.51035509515E+02  0.56989353791E+03  0.10100000352E+00 0. -1.
</event>
<event>
 5   0  0.4058874E-04  0.1482051E+04  0.7818609E-02  0.8896477E-01
       -1   -1    0    0    0  501  0.00000000000E+00  0.00000000000E+00  0.40673152163E+03  0.40673152166E+03  0.50400001928E-02 0. -1.
        1   -1    0    0  501    0  0.00000000000E+00  0.00000000000E+00 -0.13500762867E+04  0.13500762867E+04  0.50400001928E-02 0.  1.
    10030    2    1    2    0    0  0.00000000000E+00  0.00000000000E+00 -0.94334476502E+03  0.17568078083E+04  0.14820507177E+04 0.  0.
        4    1    3    3  502    0 -0.89078465381E+02 -0.49792430298E+03  0.17025027357E+03  0.53371373698E+03  0.12699999809E+01 0. -1.
       -4    1    3    3    0  502  0.89078465381E+02  0.49792430298E+03 -0.11135950386E+04  0.12230940714E+04  0.12699999809E+01 0.  1.
</event>
<event>
 5   0  0.7547580E-04  0.1500903E+04  0.7818609E-02  0.8883853E-01
       -2   -1    0    0    0  501  0.00000000000E+00  0.00000000000E+00  0.61688684655E+03  0.61688684655E+03  0.25500000920E-02 0. -1.
        2   -1    0    0  501    0  0.00000000000E+00  0.00000000000E+00 -0.91293472977E+03  0.91293472978E+03  0.25500000920E-02 0.  1.
    10030    2    1    2    0    0  0.00000000000E+00  0.00000000000E+00 -0.29604788323E+03  0.15298215763E+04  0.15009029636E+04 0.  0.
        4    1    3    3  502    0 -0.26777044671E+02 -0.64178031296E+03  0.24749496331E+03  0.68837079397E+03  0.12699999809E+01 0. -1.
       -4    1    3    3    0  502  0.26777044671E+02  0.64178031296E+03 -0.54354284654E+03  0.84145078236E+03  0.12699999809E+01 0.  1.
</event>
<event>
 5   0  0.4086710E-04  0.1516853E+04  0.7818609E-02  0.8873322E-01
        1   -1    0    0  501    0  0.00000000000E+00  0.00000000000E+00  0.11577978623E+04  0.11577978623E+04  0.50400001928E-02 0. -1.
       -1   -1    0    0    0  501  0.00000000000E+00  0.00000000000E+00 -0.49681473026E+03  0.49681473028E+03  0.50400001928E-02 0.  1.
    10030    2    1    2    0    0  0.00000000000E+00  0.00000000000E+00  0.66098313202E+03  0.16546125926E+04  0.15168533649E+04 0.  0.
        3    1    3    3  502    0 -0.73887515483E+02 -0.75177429950E+03  0.25661274729E+03  0.79779325305E+03  0.10100000352E+00 0.  1.
       -3    1    3    3    0  502  0.73887515483E+02  0.75177429950E+03  0.40437038474E+03  0.85681933953E+03  0.10100000352E+00 0. -1.
</event>
<event>
 5   0  0.7672251E-04  0.1378771E+04  0.7818609E-02  0.8969330E-01
        2   -1    0    0  501    0  0.00000000000E+00  0.00000000000E+00  0.99416707702E+03  0.99416707702E+03  0.25500000920E-02 0.  1.
       -2   -1    0    0    0  501  0.00000000000E+00  0.00000000000E+00 -0.47804098396E+03  0.47804098396E+03  0.25500000920E-02 0. -1.
    10030    2    1    2    0    0  0.00000000000E+00  0.00000000000E+00  0.51612609306E+03  0.14722080610E+04  0.13787713483E+04 0.  0.
        5    1    3    3  502    0 -0.95243568805E+02  0.35855275323E+03 -0.36234523126E+03  0.51860155309E+03  0.46999998093E+01 0. -1.
       -5    1    3    3    0  502  0.95243568805E+02 -0.35855275323E+03  0.87847132432E+03  0.95360650789E+03  0.46999998093E+01 0.  1.
</event>
<event>
 5   0  0.4086710E-04  0.1477881E+04  0.7818609E-02  0.8899297E-01
       -1   -1    0    0    0  501  0.00000000000E+00  0.00000000000E+00  0.71415616938E+03  0.71415616940E+03  0.50400001928E-02 0. -1.
        1   -1    0    0  501    0  0.00000000000E+00  0.00000000000E+00 -0.76458466974E+03  0.76458466976E+03  0.50400001928E-02 0.  1.
    10030    2    1    2    0    0  0.00000000000E+00  0.00000000000E+00 -0.50428500364E+02  0.14787408392E+04  0.14778807245E+04 0.  0.
        3    1    3    3  502    0  0.15461818372E+03  0.72216852960E+03 -0.49696445823E+02  0.74020531937E+03  0.10100000352E+00 0.  1.
       -3    1    3    3    0  502 -0.15461818372E+03 -0.72216852960E+03 -0.73205454173E+00  0.73853551979E+03  0.10100000352E+00 0. -1.
</event>
<event>
 5   0  0.7359897E-04  0.1470414E+04  0.7818609E-02  0.8904369E-01
       -2   -1    0    0    0  501  0.00000000000E+00  0.00000000000E+00  0.27288911701E+03  0.27288911702E+03  0.25500000920E-02 0. -1.
        2   -1    0    0  501    0  0.00000000000E+00  0.00000000000E+00 -0.19807667410E+04  0.19807667410E+04  0.25500000920E-02 0.  1.
    10030    2    1    2    0    0  0.00000000000E+00  0.00000000000E+00 -0.17078776240E+04  0.22536558580E+04  0.14704144817E+04 0.  0.
        1    1    3    3  502    0 -0.56350430537E+03 -0.33217307360E+02 -0.13197421002E+03  0.57970482473E+03  0.50400001928E-02 0. -1.
       -1    1    3    3    0  502  0.56350430537E+03  0.33217307360E+02 -0.15759034140E+04  0.16739510333E+04  0.50400001928E-02 0.  1.
</event>
<event>
 5   0  0.4086710E-04  0.1502022E+04  0.7818609E-02  0.8883110E-01
        1   -1    0    0  501    0  0.00000000000E+00  0.00000000000E+00  0.74309335595E+03  0.74309335597E+03  0.50400001928E-02 0.  1.
       -1   -1    0    0    0  501  0.00000000000E+00  0.00000000000E+00 -0.75901251610E+03  0.75901251612E+03  0.50400001928E-02 0. -1.
    10030    2    1    2    0    0  0.00000000000E+00  0.00000000000E+00 -0.15919160147E+02  0.15021058721E+04  0.15020215149E+04 0.  0.
        3    1    3    3  502    0 -0.38335619550E+03 -0.14112173641E+03  0.62226612586E+03  0.74437387025E+03  0.10100000352E+00 0.  1.
       -3    1    3    3    0  502  0.38335619550E+03  0.14112173641E+03 -0.63818528601E+03  0.75773200183E+03  0.10100000352E+00 0. -1.
</event>
<event>
 5   0  0.7672251E-04  0.1484686E+04  0.7818609E-02  0.8894701E-01
       -2   -1    0    0    0  501  0.00000000000E+00  0.00000000000E+00  0.19979321559E+03  0.19979321561E+03  0.25500000920E-02 0.  1.
        2   -1    0    0  501    0  0.00000000000E+00  0.00000000000E+00 -0.27582156379E+04  0.27582156379E+04  0.25500000920E-02 0. -1.
    10030    2    1    2    0    0  0.00000000000E+00  0.00000000000E+00 -0.25584224223E+04  0.29580088535E+04  0.14846855177E+04 0.  0.
        5    1    3    3  502    0 -0.64733708738E+03  0.19157755176E+03 -0.66414872846E+03  0.94702845076E+03  0.46999998093E+01 0.  1.
       -5    1    3    3    0  502  0.64733708738E+03 -0.19157755176E+03 -0.18942736939E+04  0.20109804028E+04  0.46999998093E+01 0. -1.
</event>
<event>
 5   0  0.7454828E-04  0.1277508E+04  0.7818609E-02  0.9047594E-01
       -2   -1    0    0    0  501  0.00000000000E+00  0.00000000000E+00  0.92985924040E+03  0.92985924041E+03  0.25500000920E-02 0.  1.
        2   -1    0    0  501    0  0.00000000000E+00  0.00000000000E+00 -0.43878330089E+03  0.43878330090E+03  0.25500000920E-02 0. -1.
    10030    2    1    2    0    0  0.00000000000E+00  0.00000000000E+00  0.49107593951E+03  0.13686425413E+04  0.12775080538E+04 0.  0.
        3    1    3    3  502    0 -0.62121243235E+03  0.77054458143E+02  0.10932876245E+03  0.63544871085E+03  0.10100000352E+00 0. -1.
       -3    1    3    3    0  502  0.62121243235E+03 -0.77054458143E+02  0.38174717706E+03  0.73319383045E+03  0.10100000352E+00 0.  1.
</event>
<event>
 5   0  0.7454828E-04  0.1499785E+04  0.7818609E-02  0.8884596E-01
        2   -1    0    0  501    0  0.00000000000E+00  0.00000000000E+00  0.64699002653E+03  0.64699002653E+03  0.25500000920E-02 0.  1.
       -2   -1    0    0    0  501  0.00000000000E+00  0.00000000000E+00 -0.86916089751E+03  0.86916089751E+03  0.25500000920E-02 0. -1.
    10030    2    1    2    0    0  0.00000000000E+00  0.00000000000E+00 -0.22217087098E+03  0.15161509240E+04  0.14997845607E+04 0.  0.
        3    1    3    3  502    0 -0.56498898333E+03 -0.19484359697E+03 -0.56897616695E+03  0.82517299236E+03  0.10100000352E+00 0. -1.
       -3    1    3    3    0  502  0.56498898333E+03  0.19484359697E+03  0.34680529597E+03  0.69097793168E+03  0.10100000352E+00 0.  1.
</event>
<event>
 5   0  0.4084462E-04  0.1507359E+04  0.7818609E-02  0.8879574E-01
       -1   -1    0    0    0  501  0.00000000000E+00  0.00000000000E+00  0.50073760968E+03  0.50073760971E+03  0.50400001928E-02 0. -1.
        1   -1    0    0  501    0  0.00000000000E+00  0.00000000000E+00 -0.11343923759E+04  0.11343923759E+04  0.50400001928E-02 0.  1.
    10030    2    1    2    0    0  0.00000000000E+00  0.00000000000E+00 -0.63365476620E+03  0.16351299856E+04  0.15073591832E+04 0.  0.
        1    1    3    3  502    0  0.20470220358E+03 -0.56917263310E+03  0.17092176213E+03  0.62854970147E+03  0.50400001928E-02 0. -1.
       -1    1    3    3    0  502 -0.20470220358E+03  0.56917263310E+03 -0.80457652834E+03  0.10065802841E+04  0.50400001928E-02 0.  1.
</event>
<event>
 5   0  0.4058874E-04  0.1528703E+04  0.7818609E-02  0.8865587E-01
        1   -1    0    0  501    0  0.00000000000E+00  0.00000000000E+00  0.20836050098E+04  0.20836050098E+04  0.50400001928E-02 0. -1.
       -1   -1    0    0    0  501  0.00000000000E+00  0.00000000000E+00 -0.28039531590E+03  0.28039531594E+03  0.50400001928E-02 0.  1.
    10030    2    1    2    0    0  0.00000000000E+00  0.00000000000E+00  0.18032096939E+04  0.23640003258E+04  0.15287028292E+04 0.  0.
        4    1    3    3  502    0 -0.30668504720E+03  0.62865899767E+03  0.13781489395E+04  0.15454979670E+04  0.12699999809E+01 0. -1.
       -4    1    3    3    0  502  0.30668504720E+03 -0.62865899767E+03  0.42506075442E+03  0.81850235881E+03  0.12699999809E+01 0.  1.
</event>
<event>
 5   0  0.4084462E-04  0.1496851E+04  0.7818609E-02  0.8886549E-01
       -1   -1    0    0    0  501  0.00000000000E+00  0.00000000000E+00  0.97884536179E+03  0.97884536180E+03  0.50400001928E-02 0.  1.
        1   -1    0    0  501    0  0.00000000000E+00  0.00000000000E+00 -0.57224662302E+03  0.57224662304E+03  0.50400001928E-02 0. -1.
    10030    2    1    2    0    0  0.00000000000E+00  0.00000000000E+00  0.40659873877E+03  0.15510919848E+04  0.14968512989E+04 0.  0.
        1    1    3    3  502    0 -0.37163765615E+03  0.16250259022E+03 -0.44847553950E+03  0.60469161467E+03  0.50400001928E-02 0. -1.
       -1    1    3    3    0  502  0.37163765615E+03 -0.16250259022E+03  0.85507427827E+03  0.94640037018E+03  0.50400001928E-02 0.  1.
</event>
<event>
 5   0  0.2800375E-04  0.1511677E+04  0.7818609E-02  0.8876724E-01
       -3   -1    0    0    0  501  0.00000000000E+00  0.00000000000E+00  0.31183547465E+03  0.31183549101E+03  0.10100000352E+00 0. -1.
        3   -1    0    0  501    0  0.00000000000E+00  0.00000000000E+00 -0.18320306860E+04  0.18320306888E+04  0.10100000352E+00 0.  1.
    10030    2    1    2    0    0  0.00000000000E+00  0.00000000000E+00 -0.15201952114E+04  0.21438661798E+04  0.15116774511E+04 0.  0.
        2    1    3    3  502    0  0.31397605644E+03 -0.40901320596E+03 -0.15438643945E+04  0.16276946997E+04  0.25500000920E-02 0.  1.
       -2    1    3    3    0  502 -0.31397605644E+03  0.40901320596E+03  0.23669183151E+02  0.51617148014E+03  0.25500000920E-02 0. -1.
</event>
<event>
 5   0  0.4086710E-04  0.1495657E+04  0.7818609E-02  0.8887346E-01
       -1   -1    0    0    0  501  0.00000000000E+00  0.00000000000E+00  0.40512726295E+03  0.40512726298E+03  0.50400001928E-02 0.  1.
        1   -1    0    0  501    0  0.00000000000E+00  0.00000000000E+00 -0.13804246184E+04  0.13804246184E+04  0.50400001928E-02 0. -1.
    10030    2    1    2    0    0  0.00000000000E+00  0.00000000000E+00 -0.97529735540E+03  0.17855518813E+04  0.14956572433E+04 0.  0.
        3    1    3    3  502    0 -0.52996913132E+03  0.29605574857E+01  0.14222411839E+03  0.54872921838E+03  0.10100000352E+00 0.  1.
       -3    1    3    3    0  502  0.52996913132E+03 -0.29605574857E+01 -0.11175214738E+04  0.12368226630E+04  0.10100000352E+00 0. -1.
</event>
<event>
 5   0  0.4058874E-04  0.1305249E+04  0.7818609E-02  0.9025413E-01
        1   -1    0    0  501    0  0.00000000000E+00  0.00000000000E+00  0.29519474498E+03  0.29519474502E+03  0.50400001928E-02 0.  1.
       -1   -1    0    0    0  501  0.00000000000E+00  0.00000000000E+00 -0.14428404705E+04  0.14428404705E+04  0.50400001928E-02 0. -1.
    10030    2    1    2    0    0  0.00000000000E+00  0.00000000000E+00 -0.11476457255E+04  0.17380352156E+04  0.13052492862E+04 0.  0.
        4    1    3    3  502    0  0.62548973402E+03  0.16794562254E+02 -0.82078520698E+03  0.10320898379E+04  0.12699999809E+01 0. -1.
       -4    1    3    3    0  502 -0.62548973402E+03 -0.16794562254E+02 -0.32686051857E+03  0.70594537762E+03  0.12699999809E+01 0.  1.
</event>
<event>
 5   0  0.4015204E-04  0.1514051E+04  0.7818609E-02  0.8875163E-01
       -1   -1    0    0    0  501  0.00000000000E+00  0.00000000000E+00  0.59362935446E+03  0.59362935448E+03  0.50400001928E-02 0. -1.
        1   -1    0    0  501    0  0.00000000000E+00  0.00000000000E+00 -0.96539614370E+03  0.96539614371E+03  0.50400001928E-02 0.  1.
    10030    2    1    2    0    0  0.00000000000E+00  0.00000000000E+00 -0.37176678924E+03  0.15590254982E+04  0.15140508441E+04 0.  0.
        2    1    3    3  502    0 -0.33175621395E+03  0.23488760169E+02  0.51437161334E+03  0.61252923519E+03  0.25500000920E-02 0. -1.
       -2    1    3    3    0  502  0.33175621395E+03 -0.23488760169E+02 -0.88613840258E+03  0.94649626300E+03  0.25500000920E-02 0.  1.
</event>
<event>
 5   0  0.7634227E-04  0.1506938E+04  0.7818609E-02  0.8879853E-01
       -2   -1    0    0    0  501  0.00000000000E+00  0.00000000000E+00  0.22649071066E+03  0.22649071067E+03  0.25500000920E-02 0. -1.
        2   -1    0    0  501    0  0.00000000000E+00  0.00000000000E+00 -0.25065720324E+04  0.25065720324E+04  0.25500000920E-02 0.  1.
    10030    2    1    2    0    0  0.00000000000E+00  0.00000000000E+00 -0.22800813218E+04  0.27330627431E+04  0.15069376642E+04 0.  0.
        2    1    3    3  502    0 -0.47865009607E+03 -0.57630787094E+03 -0.99406009441E+03  0.12447458166E+04  0.25500000920E-02 0. -1.
       -2    1    3    3    0  502  0.47865009607E+03  0.57630787094E+03 -0.12860212274E+04  0.14883169265E+04  0.25500000920E-02 0.  1.
</event>
<event>
 5   0  0.3907345E-04  0.1487326E+04  0.7818609E-02  0.8892925E-01
        1   -1    0    0  501    0  0.00000000000E+00  0.00000000000E+00  0.63135613564E+03  0.63135613566E+03  0.50400001928E-02 0.  1.
       -1   -1    0    0    0  501  0.00000000000E+00  0.00000000000E+00 -0.87594749488E+03  0.87594749490E+03  0.50400001928E-02 0. -1.
    10030    2    1    2    0    0  0.00000000000E+00  0.00000000000E+00 -0.24459135924E+03  0.15073036306E+04  0.14873262257E+04 0.  0.
        5    1    3    3  502    0  0.51015301597E+03 -0.43787033242E+02 -0.66883457941E+03  0.84233911734E+03  0.46999998093E+01 0. -1.
       -5    1    3    3    0  502 -0.51015301597E+03  0.43787033242E+02  0.42424322017E+03  0.66496451322E+03  0.46999998093E+01 0.  1.
</event>
<event>
 5   0  0.4086710E-04  0.1503289E+04  0.7818609E-02  0.8882268E-01
        1   -1    0    0  501    0  0.00000000000E+00  0.00000000000E+00  0.79962257874E+03  0.79962257875E+03  0.50400001928E-02 0. -1.
       -1   -1    0    0    0  501  0.00000000000E+00  0.00000000000E+00 -0.70654559155E+03  0.70654559157E+03  0.50400001928E-02 0.  1.
    10030    2    1    2    0    0  0.00000000000E+00  0.00000000000E+00  0.93076987187E+02  0.15061681703E+04  0.15032894704E+04 0.  0.
        3    1    3    3  502    0  0.18735819802E+03 -0.68793256766E+03  0.28493422164E+03  0.76781627547E+03  0.10100000352E+00 0. -1.
       -3    1    3    3    0  502 -0.18735819802E+03  0.68793256766E+03 -0.19185723445E+03  0.73835189485E+03  0.10100000352E+00 0.  1.
</event>
<event>
 5   0  0.7634227E-04  0.1500110E+04  0.7818609E-02  0.8884380E-01
       -2   -1    0    0    0  501  0.00000000000E+00  0.00000000000E+00  0.93096711087E+03  0.93096711088E+03  0.25500000920E-02 0. -1.
        2   -1    0    0  501    0  0.00000000000E+00  0.00000000000E+00 -0.60429931337E+03  0.60429931338E+03  0.25500000920E-02 0.  1.
    10030    2    1    2    0    0  0.00000000000E+00  0.00000000000E+00  0.32666779750E+03  0.15352664243E+04  0.15001103771E+04 0.  0.
        2    1    3    3  502    0  0.47173419208E+03 -0.50768092039E+03  0.45695421463E+03  0.83010855867E+03  0.25500000920E-02 0.  1.
       -2    1    3    3    0  502 -0.47173419208E+03  0.50768092039E+03 -0.13028641713E+03  0.70515786559E+03  0.25500000920E-02 0. -1.
</event>
<event>
 5   0  0.4015204E-04  0.1506310E+04  0.7818609E-02  0.8880268E-01
       -1   -1    0    0    0  501  0.00000000000E+00  0.00000000000E+00  0.56914644170E+03  0.56914644173E+03  0.50400001928E-02 0.  1.
        1   -1    0    0  501    0  0.00000000000E+00  0.00000000000E+00 -0.99665414659E+03  0.99665414660E+03  0.50400001928E-02 0. -1.
    10030    2    1    2    0    0  0.00000000000E+00  0.00000000000E+00 -0.42750770489E+03  0.15658005883E+04  0.15063096112E+04 0.  0.
        2    1    3    3  502    0 -0.58305534477E+03  0.45719978017E+03 -0.73298996287E+02  0.74455215862E+03  0.25500000920E-02 0. -1.
       -2    1    3    3    0  502  0.58305534477E+03 -0.45719978017E+03 -0.35420870860E+03  0.82124842971E+03  0.25500000920E-02 0.  1.
</event>
<event>
 5   0  0.3907345E-04  0.1496077E+04  0.7818609E-02  0.8887066E-01
        1   -1    0    0  501    0  0.00000000000E+00  0.00000000000E+00  0.16864217547E+04  0.16864217548E+04  0.50400001928E-02 0.  1.
       -1   -1    0    0    0  501  0.00000000000E+00  0.00000000000E+00 -0.33180391047E+03  0.33180391051E+03  0.50400001928E-02 0. -1.
    10030    2    1    2    0    0  0.00000000000E+00  0.00000000000E+00  0.13546178443E+04  0.20182256653E+04  0.14960766464E+04 0.  0.
        5    1    3    3  502    0  0.31257170410E+02 -0.74102619580E+03  0.80839521879E+03  0.10970969662E+04  0.46999998093E+01 0. -1.
       -5    1    3    3    0  502 -0.31257170410E+02  0.74102619580E+03  0.54622262548E+03  0.92112869902E+03  0.46999998093E+01 0.  1.
</event>
<event>
 5   0  0.7359897E-04  0.1489402E+04  0.7818609E-02  0.8891531E-01
       -2   -1    0    0    0  501  0.00000000000E+00  0.00000000000E+00  0.83867988501E+03  0.83867988501E+03  0.25500000920E-02 0.  1.
        2   -1    0    0  501    0  0.00000000000E+00  0.00000000000E+00 -0.66125320824E+03  0.66125320825E+03  0.25500000920E-02 0. -1.
    10030    2    1    2    0    0  0.00000000000E+00  0.00000000000E+00  0.17742667677E+03  0.14999330933E+04  0.14894022488E+04 0.  0.
        1    1    3    3  502    0 -0.37305653005E+03 -0.64439922322E+03  0.10138127415E+03  0.75146503330E+03  0.50400001928E-02 0. -1.
       -1    1    3    3    0  502  0.37305653005E+03  0.64439922322E+03  0.76045402623E+02  0.74846805996E+03  0.50400001928E-02 0.  1.
</event>
<event>
 5   0  0.7634227E-04  0.1489824E+04  0.7818609E-02  0.8891248E-01
        2   -1    0    0  501    0  0.00000000000E+00  0.00000000000E+00  0.10024388264E+04  0.10024388264E+04  0.25500000920E-02 0. -1.
       -2   -1    0    0    0  501  0.00000000000E+00  0.00000000000E+00 -0.55354388216E+03  0.55354388217E+03  0.25500000920E-02 0.  1.
    10030    2    1    2    0    0  0.00000000000E+00  0.00000000000E+00  0.44889494424E+03  0.15559827086E+04  0.14898239891E+04 0.  0.
        2    1    3    3  502    0 -0.97853899012E+02  0.55764667373E+03 -0.28114553724E+03  0.63212974253E+03  0.25500000920E-02 0.  1.
       -2    1    3    3    0  502  0.97853899012E+02 -0.55764667373E+03  0.73004048147E+03  0.92385296604E+03  0.25500000920E-02 0. -1.
</event>
<event>
 5   0  0.7547580E-04  0.1486332E+04  0.7818609E-02  0.8893593E-01
       -2   -1    0    0    0  501  0.00000000000E+00  0.00000000000E+00  0.67738455767E+03  0.67738455768E+03  0.25500000920E-02 0. -1.
        2   -1    0    0  501    0  0.00000000000E+00  0.00000000000E+00 -0.81533583519E+03  0.81533583520E+03  0.25500000920E-02 0.  1.
    10030    2    1    2    0    0  0.00000000000E+00  0.00000000000E+00 -0.13795127752E+03  0.14927203929E+04  0.14863322698E+04 0.  0.
        4    1    3    3  502    0  0.33922876279E+03 -0.10304398335E+03 -0.72492909231E+03  0.80698080385E+03  0.12699999809E+01 0.  1.
       -4    1    3    3    0  502 -0.33922876279E+03  0.10304398335E+03  0.58697781478E+03  0.68573958902E+03  0.12699999809E+01 0. -1.
</event>
<event>
 5   0  0.7672251E-04  0.1476229E+04  0.7818609E-02  0.8900416E-01
        2   -1    0    0  501    0  0.00000000000E+00  0.00000000000E+00  0.48617292973E+03  0.48617292974E+03  0.25500000920E-02 0. -1.
       -2   -1    0    0    0  501  0.00000000000E+00  0.00000000000E+00 -0.11206158425E+04  0.11206158425E+04  0.25500000920E-02 0.  1.
    10030    2    1    2    0    0  0.00000000000E+00  0.00000000000E+00 -0.63444291274E+03  0.16067887722E+04  0.14762290977E+04 0.  0.
        5    1    3    3  502    0 -0.20937372949E+03 -0.34573785509E+03 -0.98943332147E+03  0.10688182309E+04  0.46999998093E+01 0.  1.
       -5    1    3    3    0  502  0.20937372949E+03  0.34573785509E+03  0.35499040873E+03  0.53797054132E+03  0.46999998093E+01 0. -1.
</event>
<event>
 5   0  0.7547580E-04  0.1494588E+04  0.7818609E-02  0.8888060E-01
       -2   -1    0    0    0  501  0.00000000000E+00  0.00000000000E+00  0.15685244400E+04  0.15685244400E+04  0.25500000920E-02 0.  1.
        2   -1    0    0  501    0  0.00000000000E+00  0.00000000000E+00 -0.35603422367E+03  0.35603422368E+03  0.25500000920E-02 0. -1.
    10030    2    1    2    0    0  0.00000000000E+00  0.00000000000E+00  0.12124902163E+04  0.19245586637E+04  0.14945880788E+04 0.  0.
        4    1    3    3  502    0  0.58580145019E+03  0.94472669603E+02  0.11911976828E+04  0.13308050033E+04  0.12699999809E+01 0.  1.
       -4    1    3    3    0  502 -0.58580145019E+03 -0.94472669603E+02  0.21292533513E+02  0.59375366039E+03  0.12699999809E+01 0. -1.
</event>
<event>
 5   0  0.7359897E-04  0.1502100E+04  0.7818609E-02  0.8883058E-01
       -2   -1    0    0    0  501  0.00000000000E+00  0.00000000000E+00  0.12042051046E+04  0.12042051046E+04  0.25500000920E-02 0. -1.
        2   -1    0    0  501    0  0.00000000000E+00  0.00000000000E+00 -0.46842175935E+03  0.46842175935E+03  0.25500000920E-02 0.  1.
    10030    2    1    2    0    0  0.00000000000E+00  0.00000000000E+00  0.73578334529E+03  0.16726268640E+04  0.15020996954E+04 0.  0.
        1    1    3    3  502    0  0.37607181038E+03  0.35973204389E+02 -0.35491596710E+03  0.51835260366E+03  0.50400001928E-02 0.  1.
       -1    1    3    3    0  502 -0.37607181038E+03 -0.35973204389E+02  0.10906993124E+04  0.11542742603E+04  0.50400001928E-02 0. -1.
</event>
<event>
 5   0  0.4015204E-04  0.1498230E+04  0.7818609E-02  0.8885631E-01
       -1   -1    0    0    0  501  0.00000000000E+00  0.00000000000E+00  0.66165246811E+03  0.66165246813E+03  0.50400001928E-02 0. -1.
        1   -1    0    0  501    0  0.00000000000E+00  0.00000000000E+00 -0.84813852033E+03  0.84813852035E+03  0.50400001928E-02 0.  1.
    10030    2    1    2    0    0  0.00000000000E+00  0.00000000000E+00 -0.18648605223E+03  0.15097909885E+04  0.14982295489E+04 0.  0.
        2    1    3    3  502    0  0.66711368638E+02  0.60907648951E+03  0.34106811941E+03  0.70125033965E+03  0.25500000920E-02 0. -1.
       -2    1    3    3    0  502 -0.66711368638E+02 -0.60907648951E+03 -0.52755417163E+03  0.80854064882E+03  0.25500000920E-02 0.  1.
</event>
<event>
 5   0  0.7634227E-04  0.1500527E+04  0.7818609E-02  0.8884103E-01
        2   -1    0    0  501    0  0.00000000000E+00  0.00000000000E+00  0.11199787278E+04  0.11199787278E+04  0.25500000920E-02 0. -1.
       -2   -1    0    0    0  501  0.00000000000E+00  0.00000000000E+00 -0.50259461145E+03  0.50259461145E+03  0.25500000920E-02 0.  1.
    10030    2    1    2    0    0  0.00000000000E+00  0.00000000000E+00  0.61738411635E+03  0.16225733393E+04  0.15005269388E+04 0.  0.
        2    1    3    3  502    0  0.52181510609E+03  0.39983899386E+03 -0.82286761988E+02  0.66252044282E+03  0.25500000920E-02 0.  1.
       -2    1    3    3    0  502 -0.52181510609E+03 -0.39983899386E+03  0.69967087834E+03  0.96005289644E+03  0.25500000920E-02 0. -1.
</event>
<event>
 5   0  0.7454828E-04  0.1496612E+04  0.7818609E-02  0.8886709E-01
       -2   -1    0    0    0  501  0.00000000000E+00  0.00000000000E+00  0.12504301741E+04  0.12504301741E+04  0.25500000920E-02 0.  1.
        2   -1    0    0  501    0  0.00000000000E+00  0.00000000000E+00 -0.44781554738E+03  0.44781554739E+03  0.25500000920E-02 0. -1.
    10030    2    1    2    0    0  0.00000000000E+00  0.00000000000E+00  0.80261462669E+03  0.16982457215E+04  0.14966122716E+04 0.  0.
        3    1    3    3  502    0  0.55121062192E+03 -0.48486337861E+03  0.56588733426E+03  0.92690567531E+03  0.10100000352E+00 0.  1.
       -3    1    3    3    0  502 -0.55121062192E+03  0.48486337861E+03  0.23672729243E+03  0.77134004616E+03  0.10100000352E+00 0. -1.
</event>
<event>
 5   0  0.2800375E-04  0.1509729E+04  0.7818609E-02  0.8878009E-01
        4   -1    0    0  501    0  0.00000000000E+00  0.00000000000E+00  0.53507395220E+03  0.53507545937E+03  0.12699999809E+01 0. -1.
       -4   -1    0    0    0  501  0.00000000000E+00  0.00000000000E+00 -0.10649336423E+04  0.10649343996E+04  0.12699999809E+01 0.  1.
    10030    2    1    2    0    0  0.00000000000E+00  0.00000000000E+00 -0.52985969014E+03  0.16000098590E+04  0.15097285377E+04 0.  0.
        2    1    3    3  502    0 -0.65473744727E+03 -0.24557306632E+03  0.36382988006E+02  0.70022209161E+03  0.25500000920E-02 0. -1.
       -2    1    3    3    0  502  0.65473744727E+03  0.24557306632E+03 -0.56624267814E+03  0.89978776737E+03  0.25500000920E-02 0.  1.
</event>
<event>
 5   0  0.7359897E-04  0.1494742E+04  0.7818609E-02  0.8887957E-01
       -2   -1    0    0    0  501  0.00000000000E+00  0.00000000000E+00  0.26376115644E+03  0.26376115645E+03  0.25500000920E-02 0.  1.
        2   -1    0    0  501    0  0.00000000000E+00  0.00000000000E+00 -0.21176870775E+04  0.21176870775E+04  0.25500000920E-02 0. -1.
    10030    2    1    2    0    0  0.00000000000E+00  0.00000000000E+00 -0.18539259210E+04  0.23814482339E+04  0.14947422420E+04 0.  0.
        1    1    3    3  502    0 -0.46028296555E+02  0.46428451536E+03  0.32421153805E+01  0.46657178078E+03  0.50400001928E-02 0.  1.
       -1    1    3    3    0  502  0.46028296555E+02 -0.46428451536E+03 -0.18571680364E+04  0.19148764531E+04  0.50400001928E-02 0. -1.
</event>
<event>
 5   0  0.4084462E-04  0.1571663E+04  0.7818609E-02  0.8838148E-01
       -1   -1    0    0    0  501  0.00000000000E+00  0.00000000000E+00  0.15885412592E+04  0.15885412592E+04  0.50400001928E-02 0.  1.
        1   -1    0    0  501    0  0.00000000000E+00  0.00000000000E+00 -0.38874103573E+03  0.38874103576E+03  0.50400001928E-02 0. -1.
    10030    2    1    2    0    0  0.00000000000E+00  0.00000000000E+00  0.11998002235E+04  0.19772822950E+04  0.15716630357E+04 0.  0.
        1    1    3    3  502    0 -0.17837166702E+03  0.79613523322E+02 -0.35771202727E+03  0.40756920784E+03  0.50400001928E-02 0. -1.
       -1    1    3    3    0  502  0.17837166702E+03 -0.79613523322E+02  0.15575122508E+04  0.15697130872E+04  0.50400001928E-02 0.  1.
</event>
<event>
 5   0  0.7634227E-04  0.1505152E+04  0.7818609E-02  0.8881034E-01
        2   -1    0    0  501    0  0.00000000000E+00  0.00000000000E+00  0.95325661626E+03  0.95325661627E+03  0.25500000920E-02 0.  1.
       -2   -1    0    0    0  501  0.00000000000E+00  0.00000000000E+00 -0.59414257925E+03  0.59414257925E+03  0.25500000920E-02 0. -1.
    10030    2    1    2    0    0  0.00000000000E+00  0.00000000000E+00  0.35911403702E+03  0.15473991955E+04  0.15051516132E+04 0.  0.
        2    1    3    3  502    0 -0.31986942599E+02  0.35431032839E+03 -0.50224038862E+03  0.61547086143E+03  0.25500000920E-02 0. -1.
       -2    1    3    3    0  502  0.31986942599E+02 -0.35431032839E+03  0.86135442564E+03  0.93192833409E+03  0.25500000920E-02 0.  1.
</event>
<event>
 5   0  0.3907345E-04  0.1485692E+04  0.7818609E-02  0.8894024E-01
        1   -1    0    0  501    0  0.00000000000E+00  0.00000000000E+00  0.10193012325E+04  0.10193012325E+04  0.50400001928E-02 0. -1.
       -1   -1    0    0    0  501  0.00000000000E+00  0.00000000000E+00 -0.54137117336E+03  0.54137117338E+03  0.50400001928E-02 0.  1.
    10030    2    1    2    0    0  0.00000000000E+00  0.00000000000E+00  0.47793005911E+03  0.15606724059E+04  0.14856921677E+04 0.  0.
        5    1    3    3  502    0  0.45021691929E+03 -0.51937985424E+03 -0.56938101515E+02  0.68972077307E+03  0.46999998093E+01 0.  1.
       -5    1    3    3    0  502 -0.45021691929E+03  0.51937985424E+03  0.53486816062E+03  0.87095163279E+03  0.46999998093E+01 0. -1.
</event>
<event>
 5   0  0.7672251E-04  0.1492430E+04  0.7818609E-02  0.8889503E-01
       -2   -1    0    0    0  501  0.00000000000E+00  0.00000000000E+00  0.47753321790E+03  0.47753321790E+03  0.25500000920E-02 0. -1.
        2   -1    0    0  501    0  0.00000000000E+00  0.00000000000E+00 -0.11660685489E+04  0.11660685489E+04  0.25500000920E-02 0.  1.
    10030    2    1    2    0    0  0.00000000000E+00  0.00000000000E+00 -0.68853533103E+03  0.16436017668E+04  0.14924295179E+04 0.  0.
        5    1    3    3  502    0 -0.64713993206E+03  0.76747212979E+02  0.56055117454E+02  0.65409822852E+03  0.46999998093E+01 0. -1.
       -5    1    3    3    0  502  0.64713993206E+03 -0.76747212979E+02 -0.74459044848E+03  0.98950353831E+03  0.46999998093E+01 0.  1.
</event>
<event>
 5   0  0.4058874E-04  0.1499833E+04  0.7818609E-02  0.8884564E-01
        1   -1    0    0  501    0  0.00000000000E+00  0.00000000000E+00  0.71916989291E+03  0.71916989293E+03  0.50400001928E-02 0.  1.
       -1   -1    0    0    0  501  0.00000000000E+00  0.00000000000E+00 -0.78197766325E+03  0.78197766326E+03  0.50400001928E-02 0. -1.
    10030    2    1    2    0    0  0.00000000000E+00  0.00000000000E+00 -0.62807770336E+02  0.15011475562E+04  0.14998330472E+04 0.  0.
        4    1    3    3  502    0  0.44709017962E+03  0.12230144837E+03 -0.62143383565E+03  0.77526053555E+03  0.12699999809E+01 0. -1.
       -4    1    3    3    0  502 -0.44709017962E+03 -0.12230144837E+03  0.55862606532E+03  0.72588702064E+03  0.12699999809E+01 0.  1.
</event>
<event>
 5   0  0.7547580E-04  0.1510987E+04  0.7818609E-02  0.8877180E-01
        2   -1    0    0  501    0  0.00000000000E+00  0.00000000000E+00  0.15520265229E+04  0.15520265229E+04  0.25500000920E-02 0.  1.
       -2   -1    0    0    0  501  0.00000000000E+00  0.00000000000E+00 -0.36775802721E+03  0.36775802722E+03  0.25500000920E-02 0. -1.
    10030    2    1    2    0    0  0.00000000000E+00  0.00000000000E+00  0.11842684956E+04  0.19197845501E+04  0.15109867137E+04 0.  0.
        4    1    3    3  502    0 -0.24084428084E+03  0.26030390139E+03 -0.25543277977E+03  0.43704874623E+03  0.12699999809E+01 0. -1.
       -4    1    3    3    0  502  0.24084428084E+03 -0.26030390139E+03  0.14397012754E+04  0.14827358039E+04  0.12699999809E+01 0.  1.
</event>
<event>
 5   0  0.4084462E-04  0.1499838E+04  0.7818609E-02  0.8884561E-01
        1   -1    0    0  501    0  0.00000000000E+00  0.00000000000E+00  0.11045044453E+04  0.11045044453E+04  0.50400001928E-02 0.  1.
       -1   -1    0    0    0  501  0.00000000000E+00  0.00000000000E+00 -0.50916820704E+03  0.50916820706E+03  0.50400001928E-02 0. -1.
    10030    2    1    2    0    0  0.00000000000E+00  0.00000000000E+00  0.59533623824E+03  0.16136726524E+04  0.14998380554E+04 0.  0.
        1    1    3    3  502    0 -0.32765425843E+03  0.24771422948E+02 -0.42759212005E+03  0.53926427437E+03  0.50400001928E-02 0. -1.
       -1    1    3    3    0  502  0.32765425843E+03 -0.24771422948E+02  0.10229283583E+04  0.10744083780E+04  0.50400001928E-02 0.  1.
</event>
<event>
 5   0  0.7359897E-04  0.1497925E+04  0.7818609E-02  0.8885834E-01
        2   -1    0    0  501    0  0.00000000000E+00  0.00000000000E+00  0.10095114630E+04  0.10095114630E+04  0.25500000920E-02 0. -1.
       -2   -1    0    0    0  501  0.00000000000E+00  0.00000000000E+00 -0.55565946729E+03  0.55565946730E+03  0.25500000920E-02 0.  1.
    10030    2    1    2    0    0  0.00000000000E+00  0.00000000000E+00  0.45385199570E+03  0.15651709303E+04  0.14979247001E+04 0.  0.
        1    1    3    3  502    0 -0.34130305170E+03 -0.45417692826E+03 -0.28302044897E+03  0.63471649562E+03  0.50400001928E-02 0.  1.
       -1    1    3    3    0  502  0.34130305170E+03  0.45417692826E+03  0.73687244466E+03  0.93045443466E+03  0.50400001928E-02 0. -1.
</event>
<event>
 5   0  0.4058874E-04  0.1279233E+04  0.7818609E-02  0.9046198E-01
       -1   -1    0    0    0  501  0.00000000000E+00  0.00000000000E+00  0.64534023977E+03  0.64534023979E+03  0.50400001928E-02 0. -1.
        1   -1    0    0  501    0  0.00000000000E+00  0.00000000000E+00 -0.63394341664E+03  0.63394341666E+03  0.50400001928E-02 0.  1.
    10030    2    1    2    0    0  0.00000000000E+00  0.00000000000E+00  0.11396823128E+02  0.12792836564E+04  0.12792328897E+04 0.  0.
        4    1    3    3  502    0 -0.52862998563E+02  0.59600389073E+03 -0.22034694794E+03  0.63762804577E+03  0.12699999809E+01 0. -1.
       -4    1    3    3    0  502  0.52862998563E+02 -0.59600389073E+03  0.23174377107E+03  0.64165561068E+03  0.12699999809E+01 0.  1.
</event>
<event>
 5   0  0.2800375E-04  0.1497212E+04  0.7818609E-02  0.8886309E-01
        3   -1    0    0  501    0  0.00000000000E+00  0.00000000000E+00  0.21156741554E+04  0.21156741578E+04  0.10100000352E+00 0.  1.
       -3   -1    0    0    0  501  0.00000000000E+00  0.00000000000E+00 -0.26488526027E+03  0.26488527953E+03  0.10100000352E+00 0. -1.
    10030    2    1    2    0    0  0.00000000000E+00  0.00000000000E+00  0.18507888951E+04  0.23805594373E+04  0.14972119758E+04 0.  0.
        5    1    3    3  502    0  0.60593794572E+03 -0.18809402795E+03  0.29368668864E+03  0.69915242865E+03  0.46999998093E+01 0. -1.
       -5    1    3    3    0  502 -0.60593794572E+03  0.18809402795E+03  0.15571022065E+04  0.16814070087E+04  0.46999998093E+01 0.  1.
</event>
<event>
 5   0  0.7454828E-04  0.1516750E+04  0.7818609E-02  0.8873390E-01
       -2   -1    0    0    0  501  0.00000000000E+00  0.00000000000E+00  0.94871465666E+03  0.94871465666E+03  0.25500000920E-02 0. -1.
        2   -1    0    0  501    0  0.00000000000E+00  0.00000000000E+00 -0.60622303600E+03  0.60622303600E+03  0.25500000920E-02 0.  1.
    10030    2    1    2    0    0  0.00000000000E+00  0.00000000000E+00  0.34249162066E+03  0.15549376927E+04  0.15167500512E+04 0.  0.
        3    1    3    3  502    0 -0.39363424778E+03 -0.64263882652E+03  0.84256108638E+02  0.75830843621E+03  0.10100000352E+00 0. -1.
       -3    1    3    3    0  502  0.39363424778E+03  0.64263882652E+03  0.25823551203E+03  0.79662925646E+03  0.10100000352E+00 0.  1.
</event>
<event>
 5   0  0.4086710E-04  0.1487940E+04  0.7818609E-02  0.8892513E-01
        1   -1    0    0  501    0  0.00000000000E+00  0.00000000000E+00  0.10109495584E+04  0.10109495584E+04  0.50400001928E-02 0. -1.
       -1   -1    0    0    0  501  0.00000000000E+00  0.00000000000E+00 -0.54749617104E+03  0.54749617106E+03  0.50400001928E-02 0.  1.
    10030    2    1    2    0    0  0.00000000000E+00  0.00000000000E+00  0.46345338737E+03  0.15584457295E+04  0.14879395315E+04 0.  0.
        3    1    3    3  502    0 -0.23852349910E+03 -0.30983533479E+03  0.89464751675E+03  0.97636344859E+03  0.10100000352E+00 0. -1.
       -3    1    3    3    0  502  0.23852349910E+03  0.30983533479E+03 -0.43119412938E+03  0.58208228089E+03  0.10100000352E+00 0.  1.
</event>
<event>
 5   0  0.7359897E-04  0.1509066E+04  0.7818609E-02  0.8878447E-01
        2   -1    0    0  501    0  0.00000000000E+00  0.00000000000E+00  0.19817068337E+04  0.19817068337E+04  0.25500000920E-02 0.  1.
       -2   -1    0    0    0  501  0.00000000000E+00  0.00000000000E+00 -0.28728768182E+03  0.28728768183E+03  0.25500000920E-02 0. -1.
    10030    2    1    2    0    0  0.00000000000E+00  0.00000000000E+00  0.16944191518E+04  0.22689945155E+04  0.15090658863E+04 0.  0.
        1    1    3    3  502    0  0.22087151058E+03  0.44789958753E+03  0.16976562603E+04  0.17695861219E+04  0.50400001928E-02 0.  1.
       -1    1    3    3    0  502 -0.22087151058E+03 -0.44789958753E+03 -0.32371084418E+01  0.49940839360E+03  0.50400001928E-02 0. -1.
</event>
<event>
 5   0  0.4058874E-04  0.1483552E+04  0.7818609E-02  0.8895465E-01
        1   -1    0    0  501    0  0.00000000000E+00  0.00000000000E+00  0.68052288264E+03  0.68052288265E+03  0.50400001928E-02 0. -1.
       -1   -1    0    0    0  501  0.00000000000E+00  0.00000000000E+00 -0.80854287170E+03  0.80854287171E+03  0.50400001928E-02 0.  1.
    10030    2    1    2    0    0  0.00000000000E+00  0.00000000000E+00 -0.12801998906E+03  0.14890657544E+04  0.14835523932E+04 0.  0.
        4    1    3    3  502    0  0.27527197080E+03 -0.67509403879E+03  0.73259703782E+02  0.73273133973E+03  0.12699999809E+01 0. -1.
       -4    1    3    3    0  502 -0.27527197080E+03  0.67509403879E+03 -0.20127969284E+03  0.75633441464E+03  0.12699999809E+01 0.  1.
</event>
<event>
 5   0  0.7454828E-04  0.1487945E+04  0.7818609E-02  0.8892509E-01
        2   -1    0    0  501    0  0.00000000000E+00  0.00000000000E+00  0.70368584916E+03  0.70368584916E+03  0.25500000920E-02 0.  1.
       -2   -1    0    0    0  501  0.00000000000E+00  0.00000000000E+00 -0.78656519116E+03  0.78656519116E+03  0.25500000920E-02 0. -1.
    10030    2    1    2    0    0  0.00000000000E+00  0.00000000000E+00 -0.82879342003E+02  0.14902510403E+04  0.14879446152E+04 0.  0.
        3    1    3    3  502    0  0.14674500555E+02 -0.40640946819E+03 -0.66539072784E+03  0.77982615223E+03  0.10100000352E+00 0. -1.
       -3    1    3    3    0  502 -0.14674500555E+02  0.40640946819E+03  0.58251138583E+03  0.71042488810E+03  0.10100000352E+00 0.  1.
</event>
<event>
 5   0  0.4058874E-04  0.1668911E+04  0.7818609E-02  0.8779297E-01
        1   -1    0    0  501    0  0.00000000000E+00  0.00000000000E+00  0.10573146353E+04  0.10573146353E+04  0.50400001928E-02 0.  1.
       -1   -1    0    0    0  501  0.00000000000E+00  0.00000000000E+00 -0.65857011519E+03  0.65857011520E+03  0.50400001928E-02 0. -1.
    10030    2    1    2    0    0  0.00000000000E+00  0.00000000000E+00  0.39874452010E+03  0.17158847505E+04  0.16689108079E+04 0.  0.
        4    1    3    3  502    0  0.22355944869E+03  0.70723656800E+03 -0.19368615490E+03  0.76660180649E+03  0.12699999809E+01 0. -1.
       -4    1    3    3    0  502 -0.22355944869E+03 -0.70723656800E+03  0.59243067500E+03  0.94928294401E+03  0.12699999809E+01 0.  1.
</event>
<event>
 5   0  0.2800375E-04  0.1535678E+04  0.7818609E-02  0.8861068E-01
        3   -1    0    0  501    0  0.00000000000E+00  0.00000000000E+00  0.40343421974E+03  0.40343423238E+03  0.10100000352E+00 0. -1.
       -3   -1    0    0    0  501  0.00000000000E+00  0.00000000000E+00 -0.14613941730E+04  0.14613941765E+04  0.10100000352E+00 0.  1.
    10030    2    1    2    0    0  0.00000000000E+00  0.00000000000E+00 -0.10579599533E+04  0.18648284089E+04  0.15356776133E+04 0.  0.
        2    1    3    3  502    0 -0.15512489677E+03  0.95021793921E+02 -0.14348481300E+04  0.14463339971E+04  0.25500000920E-02 0.  1.
       -2    1    3    3    0  502  0.15512489677E+03 -0.95021793921E+02  0.37688817675E+03  0.41849441179E+03  0.25500000920E-02 0. -1.
</event>
<event>
 5   0  0.4058874E-04  0.1489220E+04  0.7818609E-02  0.8891653E-01
        1   -1    0    0  501    0  0.00000000000E+00  0.00000000000E+00  0.17413589742E+04  0.17413589742E+04  0.50400001928E-02 0.  1.
       -1   -1    0    0    0  501  0.00000000000E+00  0.00000000000E+00 -0.31839727903E+03  0.31839727907E+03  0.50400001928E-02 0. -1.
    10030    2    1    2    0    0  0.00000000000E+00  0.00000000000E+00  0.14229616951E+04  0.20597562532E+04  0.14892198753E+04 0.  0.
        4    1    3    3  502    0 -0.53893077253E+03 -0.33395691103E+03  0.17141411432E+03  0.65677850718E+03  0.12699999809E+01 0. -1.
       -4    1    3    3    0  502  0.53893077253E+03  0.33395691103E+03  0.12515475808E+04  0.14029777461E+04  0.12699999809E+01 0.  1.
</event>
<event>
 5   0  0.3907345E-04  0.1501246E+04  0.7818609E-02  0.8883625E-01
        1   -1    0    0  501    0  0.00000000000E+00  0.00000000000E+00  0.12379774600E+04  0.12379774600E+04  0.50400001928E-02 0.  1.
       -1   -1    0    0    0  501  0.00000000000E+00  0.00000000000E+00 -0.45512546713E+03  0.45512546716E+03  0.50400001928E-02 0. -1.
    10030    2    1    2    0    0  0.00000000000E+00  0.00000000000E+00  0.78285199287E+03  0.16931029272E+04  0.15012462420E+04 0.  0.
        5    1    3    3  502    0 -0.18334705325E+03 -0.11186414807E+03 -0.41971366158E+03  0.47149907452E+03  0.46999998093E+01 0. -1.
       -5    1    3    3    0  502  0.18334705325E+03  0.11186414807E+03  0.12025656545E+04  0.12216038527E+04  0.46999998093E+01 0.  1.
</event>
<event>
 5   0  0.7634227E-04  0.1475229E+04  0.7818609E-02  0.8901094E-01
       -2   -1    0    0    0  501  0.00000000000E+00  0.00000000000E+00  0.40951879328E+03  0.40951879328E+03  0.25500000920E-02 0. -1.
        2   -1    0    0  501    0  0.00000000000E+00  0.00000000000E+00 -0.13285721194E+04  0.13285721194E+04  0.25500000920E-02 0.  1.
    10030    2    1    2    0    0  0.00000000000E+00  0.00000000000E+00 -0.91905332616E+03  0.17380909127E+04  0.14752291363E+04 0.  0.
        2    1    3    3  502    0  0.33307725321E+03  0.56609949787E+03 -0.85499319974E+03  0.10781569782E+04  0.25500000920E-02 0. -1.
       -2    1    3    3    0  502 -0.33307725321E+03 -0.56609949787E+03 -0.64060126419E+02  0.65993393449E+03  0.25500000920E-02 0.  1.
</event>
<event>
 5   0  0.7547580E-04  0.1461781E+04  0.7818609E-02  0.8910274E-01
       -2   -1    0    0    0  501  0.00000000000E+00  0.00000000000E+00  0.22358241060E+03  0.22358241062E+03  0.25500000920E-02 0.  1.
        2   -1    0    0  501    0  0.00000000000E+00  0.00000000000E+00 -0.23892784571E+04  0.23892784571E+04  0.25500000920E-02 0. -1.
    10030    2    1    2    0    0  0.00000000000E+00  0.00000000000E+00 -0.21656960465E+04  0.26128608677E+04  0.14617806088E+04 0.  0.
        4    1    3    3  502    0  0.33292394626E+03  0.37584866418E+02  0.78235812980E+02  0.34405440197E+03  0.12699999809E+01 0.  1.
       -4    1    3    3    0  502 -0.33292394626E+03 -0.37584866418E+02 -0.22439318595E+04  0.22688064657E+04  0.12699999809E+01 0. -1.
</event>
<event>
 5   0  0.7672251E-04  0.1503825E+04  0.7818609E-02  0.8881913E-01
        2   -1    0    0  501    0  0.00000000000E+00  0.00000000000E+00  0.11152126312E+04  0.11152126312E+04  0.25500000920E-02 0.  1.
       -2   -1    0    0    0  501  0.00000000000E+00  0.00000000000E+00 -0.50696370192E+03  0.50696370193E+03  0.25500000920E-02 0. -1.
    10030    2    1    2    0    0  0.00000000000E+00  0.00000000000E+00  0.60824892924E+03  0.16221763331E+04  0.15038248887E+04 0.  0.
        5    1    3    3  502    0  0.36593830438E+02 -0.24236041542E+02 -0.50556476745E+03  0.50748824441E+03  0.46999998093E+01 0. -1.
       -5    1    3    3    0  502 -0.36593830438E+02  0.24236041542E+02  0.11138136967E+04  0.11146880887E+04  0.46999998093E+01 0.  1.
</event>
<event>
 5   0  0.7672251E-04  0.1553196E+04  0.7818609E-02  0.8849829E-01
        2   -1    0    0  501    0  0.00000000000E+00  0.00000000000E+00  0.15418886740E+04  0.15418886740E+04  0.25500000920E-02 0. -1.
       -2   -1    0    0    0  501  0.00000000000E+00  0.00000000000E+00 -0.39114635195E+03  0.39114635196E+03  0.25500000920E-02 0.  1.
    10030    2    1    2    0    0  0.00000000000E+00  0.00000000000E+00  0.11507423221E+04  0.19330350260E+04  0.15531955833E+04 0.  0.
        5    1    3    3  502    0 -0.55729708989E+03  0.50024629583E+03  0.31953854989E+03  0.81421948991E+03  0.46999998093E+01 0.  1.
       -5    1    3    3    0  502  0.55729708989E+03 -0.50024629583E+03  0.83120377219E+03  0.11188155361E+04  0.46999998093E+01 0. -1.
</event>
<event>
 5   0  0.4058874E-04  0.1525240E+04  0.7818609E-02  0.8867840E-01
        1   -1    0    0  501    0  0.00000000000E+00  0.00000000000E+00  0.11411118740E+04  0.11411118740E+04  0.50400001928E-02 0.  1.
       -1   -1    0    0    0  501  0.00000000000E+00  0.00000000000E+00 -0.50966913223E+03  0.50966913226E+03  0.50400001928E-02 0. -1.
    10030    2    1    2    0    0  0.00000000000E+00  0.00000000000E+00  0.63144274177E+03  0.16507810063E+04  0.15252403071E+04 0.  0.
        4    1    3    3  502    0  0.56199924100E+03  0.46919626111E+03  0.54683829095E+03  0.91379538611E+03  0.12699999809E+01 0.  1.
       -4    1    3    3    0  502 -0.56199924100E+03 -0.46919626111E+03  0.84604450817E+02  0.73698562016E+03  0.12699999809E+01 0. -1.
</event>
<event>
 5   0  0.4084462E-04  0.1515662E+04  0.7818609E-02  0.8874104E-01
       -1   -1    0    0    0  501  0.00000000000E+00  0.00000000000E+00  0.90094116236E+03  0.90094116237E+03  0.50400001928E-02 0. -1.
        1   -1    0    0  501    0  0.00000000000E+00  0.00000000000E+00 -0.63745297809E+03  0.63745297811E+03  0.50400001928E-02 0.  1.
    10030    2    1    2    0    0  0.00000000000E+00  0.00000000000E+00  0.26348818427E+03  0.15383941405E+04  0.15156617394E+04 0.  0.
        1    1    3    3  502    0 -0.72642180120E+03 -0.19636432653E+03  0.40619821796E+02  0.75358977696E+03  0.50400001928E-02 0.  1.
       -1    1    3    3    0  502  0.72642180120E+03  0.19636432653E+03  0.22286836248E+03  0.78480436352E+03  0.50400001928E-02 0. -1.
</event>
<event>
 5   0  0.7454828E-04  0.1494270E+04  0.7818609E-02  0.8888273E-01
        2   -1    0    0  501    0  0.00000000000E+00  0.00000000000E+00  0.96844636334E+03  0.96844636335E+03  0.25500000920E-02 0.  1.
       -2   -1    0    0    0  501  0.00000000000E+00  0.00000000000E+00 -0.57639778838E+03  0.57639778839E+03  0.25500000920E-02 0. -1.
    10030    2    1    2    0    0  0.00000000000E+00  0.00000000000E+00  0.39204857496E+03  0.15448441517E+04  0.14942695098E+04 0.  0.
        3    1    3    3  502    0  0.52314306396E+02  0.56702987766E+03  0.69607940754E+03  0.89932542531E+03  0.10100000352E+00 0.  1.
       -3    1    3    3    0  502 -0.52314306396E+02 -0.56702987766E+03 -0.30403083257E+03  0.64551872642E+03  0.10100000352E+00 0. -1.
</event>
<event>
 5   0  0.7359897E-04  0.1492982E+04  0.7818609E-02  0.8889133E-01
        2   -1    0    0  501    0  0.00000000000E+00  0.00000000000E+00  0.18181603710E+04  0.18181603710E+04  0.25500000920E-02 0. -1.
       -2   -1    0    0    0  501  0.00000000000E+00  0.00000000000E+00 -0.30649053840E+03  0.30649053841E+03  0.25500000920E-02 0.  1.
    10030    2    1    2    0    0  0.00000000000E+00  0.00000000000E+00  0.15116698326E+04  0.21246509094E+04  0.14929821848E+04 0.  0.
        1    1    3    3  502    0 -0.50148807103E+03 -0.44224055822E+03  0.12282113179E+04  0.13984169758E+04  0.50400001928E-02 0. -1.
       -1    1    3    3    0  502  0.50148807103E+03  0.44224055822E+03  0.28345851464E+03  0.72623393357E+03  0.50400001928E-02 0.  1.
</event>
<event>
 5   0  0.2800375E-04  0.1512493E+04  0.7818609E-02  0.8876188E-01
        3   -1    0    0  501    0  0.00000000000E+00  0.00000000000E+00  0.82244148949E+03  0.82244149570E+03  0.10100000352E+00 0. -1.
       -3   -1    0    0    0  501  0.00000000000E+00  0.00000000000E+00 -0.69537888791E+03  0.69537889524E+03  0.10100000352E+00 0.  1.
    10030    2    1    2    0    0  0.00000000000E+00  0.00000000000E+00  0.12706260159E+03  0.15178203909E+04  0.15124925899E+04 0.  0.
        3    1    3    3  502    0 -0.21582057527E+03 -0.53909195918E+03  0.54970641768E+03  0.79960979046E+03  0.10100000352E+00 0. -1.
       -3    1    3    3    0  502  0.21582057527E+03  0.53909195918E+03 -0.42264381609E+03  0.71821060048E+03  0.10100000352E+00 0.  1.
</event>
<event>
 5   0  0.7672251E-04  0.1515025E+04  0.7818609E-02  0.8874522E-01
       -2   -1    0    0    0  501  0.00000000000E+00  0.00000000000E+00  0.48593742602E+03  0.48593742603E+03  0.25500000920E-02 0.  1.
        2   -1    0    0  501    0  0.00000000000E+00  0.00000000000E+00 -0.11808627127E+04  0.11808627127E+04  0.25500000920E-02 0. -1.
    10030    2    1    2    0    0  0.00000000000E+00  0.00000000000E+00 -0.69492528667E+03  0.16668001387E+04  0.15150252633E+04 0.  0.
        5    1    3    3  502    0  0.49373444841E+03  0.56738119977E+03 -0.44652871931E+03  0.87470287445E+03  0.46999998093E+01 0. -1.
       -5    1    3    3    0  502 -0.49373444841E+03 -0.56738119977E+03 -0.24839656736E+03  0.79209726428E+03  0.46999998093E+01 0.  1.
</event>
<event>
 5   0  0.4086710E-04  0.1688965E+04  0.7818609E-02  0.8767683E-01
        1   -1    0    0  501    0  0.00000000000E+00  0.00000000000E+00  0.11844222660E+04  0.11844222660E+04  0.50400001928E-02 0.  1.
       -1   -1    0    0    0  501  0.00000000000E+00  0.00000000000E+00 -0.60210820294E+03  0.60210820296E+03  0.50400001928E-02 0. -1.
    10030    2    1    2    0    0  0.00000000000E+00  0.00000000000E+00  0.58231406308E+03  0.17865304690E+04  0.16889646084E+04 0.  0.
        3    1    3    3  502    0 -0.50148428322E+03 -0.92640137870E+02  0.10031539676E+04  0.11253384266E+04  0.10100000352E+00 0.  1.
       -3    1    3    3    0  502  0.50148428322E+03  0.92640137870E+02 -0.42083990453E+03  0.66119204239E+03  0.10100000352E+00 0. -1.
</event>
<event>
 5   0  0.7634227E-04  0.1488408E+04  0.7818609E-02  0.8892198E-01
        2   -1    0    0  501    0  0.00000000000E+00  0.00000000000E+00  0.11180818989E+04  0.11180818989E+04  0.25500000920E-02 0.  1.
       -2   -1    0    0    0  501  0.00000000000E+00  0.00000000000E+00 -0.49534801420E+03  0.49534801421E+03  0.25500000920E-02 0. -1.
    10030    2    1    2    0    0  0.00000000000E+00  0.00000000000E+00  0.62273388467E+03  0.16134299131E+04  0.14884080735E+04 0.  0.
        2    1    3    3  502    0  0.45588147771E+03 -0.51519683399E+03  0.36493256504E+01  0.68794550442E+03  0.25500000920E-02 0. -1.
       -2    1    3    3    0  502 -0.45588147771E+03  0.51519683399E+03  0.61908455902E+03  0.92548440867E+03  0.25500000920E-02 0.  1.
</event>
<event>
 5   0  0.4084462E-04  0.1503903E+04  0.7818609E-02  0.8881862E-01
       -1   -1    0    0    0  501  0.00000000000E+00  0.00000000000E+00  0.10579077303E+04  0.10579077303E+04  0.50400001928E-02 0. -1.
        1   -1    0    0  501    0  0.00000000000E+00  0.00000000000E+00 -0.53448060952E+03  0.53448060954E+03  0.50400001928E-02 0.  1.
    10030    2    1    2    0    0  0.00000000000E+00  0.00000000000E+00  0.52342712080E+03  0.15923883399E+04  0.15039031465E+04 0.  0.
        1    1    3    3  502    0  0.52218079998E+03 -0.49785394911E+03  0.37350451168E+02  0.72244473750E+03  0.50400001928E-02 0. -1.
       -1    1    3    3    0  502 -0.52218079998E+03  0.49785394911E+03  0.48607666963E+03  0.86994360237E+03  0.50400001928E-02 0.  1.
</event>
<event>
 5   0  0.7454828E-04  0.1499768E+04  0.7818609E-02  0.8884607E-01
       -2   -1    0    0    0  501  0.00000000000E+00  0.00000000000E+00  0.36190725759E+03  0.36190725760E+03  0.25500000920E-02 0.  1.
        2   -1    0    0  501    0  0.00000000000E+00  0.00000000000E+00 -0.15537854153E+04  0.15537854153E+04  0.25500000920E-02 0. -1.
    10030    2    1    2    0    0  0.00000000000E+00  0.00000000000E+00 -0.11918781577E+04  0.19156926729E+04  0.14997682735E+04 0.  0.
        3    1    3    3  502    0  0.53688405089E+02 -0.40923382149E+03  0.20376422413E+03  0.46029841921E+03  0.10100000352E+00 0.  1.
       -3    1    3    3    0  502 -0.53688405089E+02  0.40923382149E+03 -0.13956423819E+04  0.14553942537E+04  0.10100000352E+00 0. -1.
</event>
<event>
 5   0  0.7634227E-04  0.1469321E+04  0.7818609E-02  0.8905114E-01
        2   -1    0    0  501    0  0.00000000000E+00  0.00000000000E+00  0.91805254040E+03  0.91805254041E+03  0.25500000920E-02 0.  1.
       -2   -1    0    0    0  501  0.00000000000E+00  0.00000000000E+00 -0.58790358719E+03  0.58790358719E+03  0.25500000920E-02 0. -1.
    10030    2    1    2    0    0  0.00000000000E+00  0.00000000000E+00  0.33014895321E+03  0.15059561276E+04  0.14693214512E+04 0.  0.
        2    1    3    3  502    0 -0.44618090762E+03  0.28913436892E+03  0.68471684691E+03  0.86689863656E+03  0.25500000920E-02 0.  1.
       -2    1    3    3    0  502  0.44618090762E+03 -0.28913436892E+03 -0.35456789370E+03  0.63905749104E+03  0.25500000920E-02 0. -1.
</event>
<event>
 5   0  0.4084462E-04  0.1507232E+04  0.7818609E-02  0.8879658E-01
        1   -1    0    0  501    0  0.00000000000E+00  0.00000000000E+00  0.90760525513E+03  0.90760525515E+03  0.50400001928E-02 0.  1.
       -1   -1    0    0    0  501  0.00000000000E+00  0.00000000000E+00 -0.62575350405E+03  0.62575350407E+03  0.50400001928E-02 0. -1.
    10030    2    1    2    0    0  0.00000000000E+00  0.00000000000E+00  0.28185175109E+03  0.15333587592E+04  0.15072321238E+04 0.  0.
        1    1    3    3  502    0  0.18435568307E+03 -0.57483230343E+03  0.59987550311E+03  0.85104043041E+03  0.50400001928E-02 0.  1.
       -1    1    3    3    0  502 -0.18435568307E+03  0.57483230343E+03 -0.31802375202E+03  0.68231832880E+03  0.50400001928E-02 0. -1.
</event>
<event>
 5   0  0.7672251E-04  0.1495621E+04  0.7818609E-02  0.8887370E-01
        2   -1    0    0  501    0  0.00000000000E+00  0.00000000000E+00  0.12060980171E+04  0.12060980171E+04  0.25500000920E-02 0.  1.
       -2   -1    0    0    0  501  0.00000000000E+00  0.00000000000E+00 -0.46366108202E+03  0.46366108203E+03  0.25500000920E-02 0. -1.
    10030    2    1    2    0    0  0.00000000000E+00  0.00000000000E+00  0.74243693511E+03  0.16697590992E+04  0.14956212243E+04 0.  0.
        5    1    3    3  502    0  0.26943987059E+03 -0.24978751020E+03 -0.35592666787E+03  0.51156380542E+03  0.46999998093E+01 0. -1.
       -5    1    3    3    0  502 -0.26943987059E+03  0.24978751020E+03  0.10983636030E+04  0.11581952937E+04  0.46999998093E+01 0.  1.
</event>
<event>
 5   0  0.7634227E-04  0.1590807E+04  0.7818609E-02  0.8826216E-01
        2   -1    0    0  501    0  0.00000000000E+00  0.00000000000E+00  0.12592989701E+04  0.12592989701E+04  0.25500000920E-02 0. -1.
       -2   -1    0    0    0  501  0.00000000000E+00  0.00000000000E+00 -0.50239589994E+03  0.50239589995E+03  0.25500000920E-02 0.  1.
    10030    2    1    2    0    0  0.00000000000E+00  0.00000000000E+00  0.75690307019E+03  0.17616948701E+04  0.15908068889E+04 0.  0.
        2    1    3    3  502    0  0.50873618827E+03  0.52798661670E+03  0.36969745769E+02  0.73413155414E+03  0.25500000920E-02 0.  1.
       -2    1    3    3    0  502 -0.50873618827E+03 -0.52798661670E+03  0.71993332442E+03  0.10275633160E+04  0.25500000920E-02 0. -1.
</event>
<event>
 5   0  0.7672251E-04  0.1510481E+04  0.7818609E-02  0.8877513E-01
       -2   -1    0    0    0  501  0.00000000000E+00  0.00000000000E+00  0.35200657151E+03  0.35200657152E+03  0.25500000920E-02 0.  1.
        2   -1    0    0  501    0  0.00000000000E+00  0.00000000000E+00 -0.16203904415E+04  0.16203904415E+04  0.25500000920E-02 0. -1.
    10030    2    1    2    0    0  0.00000000000E+00  0.00000000000E+00 -0.12683838700E+04  0.19723970131E+04  0.15104808292E+04 0.  0.
        5    1    3    3  502    0 -0.34950584290E+02 -0.66428783974E+03 -0.16725647534E+03  0.68592761711E+03  0.46999998093E+01 0.  1.
       -5    1    3    3    0  502  0.34950584290E+02  0.66428783974E+03 -0.11011273947E+04  0.12864693960E+04  0.46999998093E+01 0. -1.
</event>
<event>
 5   0  0.4084462E-04  0.1488639E+04  0.7818609E-02  0.8892043E-01
        1   -1    0    0  501    0  0.00000000000E+00  0.00000000000E+00  0.78518051734E+03  0.78518051735E+03  0.50400001928E-02 0. -1.
       -1   -1    0    0    0  501  0.00000000000E+00  0.00000000000E+00 -0.70558447546E+03  0.70558447547E+03  0.50400001928E-02 0.  1.
    10030    2    1    2    0    0  0.00000000000E+00  0.00000000000E+00  0.79596041881E+02  0.14907649928E+04  0.14886385505E+04 0.  0.
        1    1    3    3  502    0  0.44157866382E+03 -0.59916580506E+03  0.35341363674E+02  0.74514454323E+03  0.50400001928E-02 0. -1.
       -1    1    3    3    0  502 -0.44157866382E+03  0.59916580506E+03  0.44254678207E+02  0.74562044960E+03  0.50400001928E-02 0.  1.
</event>
<event>
 5   0  0.7547580E-04  0.1525095E+04  0.7818609E-02  0.8867934E-01
       -2   -1    0    0    0  501  0.00000000000E+00  0.00000000000E+00  0.12398705375E+04  0.12398705375E+04  0.25500000920E-02 0. -1.
        2   -1    0    0  501    0  0.00000000000E+00  0.00000000000E+00 -0.46898338070E+03  0.46898338071E+03  0.25500000920E-02 0.  1.
    10030    2    1    2    0    0  0.00000000000E+00  0.00000000000E+00  0.77088715676E+03  0.17088539182E+04  0.15250949824E+04 0.  0.
        4    1    3    3  502    0  0.18177743373E+03 -0.20113754573E+02  0.12149313745E+04  0.12286201431E+04  0.12699999809E+01 0. -1.
       -4    1    3    3    0  502 -0.18177743373E+03  0.20113754573E+02 -0.44404421769E+03  0.48023377506E+03  0.12699999809E+01 0.  1.
</event>
<event>
 5   0  0.7454828E-04  0.1499971E+04  0.7818609E-02  0.8884472E-01
        2   -1    0    0  501    0  0.00000000000E+00  0.00000000000E+00  0.32450856156E+03  0.32450856157E+03  0.25500000920E-02 0. -1.
       -2   -1    0    0    0  501  0.00000000000E+00  0.00000000000E+00 -0.17333225930E+04  0.17333225930E+04  0.25500000920E-02 0.  1.
    10030    2    1    2    0    0  0.00000000000E+00  0.00000000000E+00 -0.14088140315E+04  0.20578311546E+04  0.14999706949E+04 0.  0.
        3    1    3    3  502    0  0.27745905223E+03 -0.35682314456E+03 -0.15254627062E+04  0.15910194092E+04  0.10100000352E+00 0.  1.
       -3    1    3    3    0  502 -0.27745905223E+03  0.35682314456E+03  0.11664867472E+03  0.46681174543E+03  0.10100000352E+00 0. -1.
</event>
<event>
 5   0  0.7672251E-04  0.1499313E+04  0.7818609E-02  0.8884910E-01
        2   -1    0    0  501    0  0.00000000000E+00  0.00000000000E+00  0.18229486690E+04  0.18229486690E+04  0.25500000920E-02 0.  1.
       -2   -1    0    0    0  501  0.00000000000E+00  0.00000000000E+00 -0.30828339405E+03  0.30828339406E+03  0.25500000920E-02 0. -1.
    10030    2    1    2    0    0  0.00000000000E+00  0.00000000000E+00  0.15146652750E+04  0.21312320631E+04  0.14993129131E+04 0.  0.
        5    1    3    3  502    0  0.18017577936E+03 -0.23292997450E+03  0.17372655337E+04  0.17620537191E+04  0.46999998093E+01 0.  1.
       -5    1    3    3    0  502 -0.18017577936E+03  0.23292997450E+03 -0.22260025871E+03  0.36917834398E+03  0.46999998093E+01 0. -1.
</event>
<event>
 5   0  0.7454828E-04  0.1509842E+04  0.7818609E-02  0.8877934E-01
        2   -1    0    0  501    0  0.00000000000E+00  0.00000000000E+00  0.22953007176E+04  0.22953007176E+04  0.25500000920E-02 0.  1.
       -2   -1    0    0    0  501  0.00000000000E+00  0.00000000000E+00 -0.24829252160E+03  0.24829252161E+03  0.25500000920E-02 0. -1.
    10030    2    1    2    0    0  0.00000000000E+00  0.00000000000E+00  0.20470081960E+04  0.25435932392E+04  0.15098423799E+04 0.  0.
        3    1    3    3  502    0 -0.14640427579E+03  0.29108420844E+03  0.21707437671E+04  0.21950609880E+04  0.10100000352E+00 0.  1.
       -3    1    3    3    0  502  0.14640427579E+03 -0.29108420844E+03 -0.12373557112E+03  0.34853225121E+03  0.10100000352E+00 0. -1.
</event>
<event>
 5   0  0.4086710E-04  0.1502325E+04  0.7818609E-02  0.8882908E-01
       -1   -1    0    0    0  501  0.00000000000E+00  0.00000000000E+00  0.44179864692E+03  0.44179864695E+03  0.50400001928E-02 0.  1.
        1   -1    0    0  501    0  0.00000000000E+00  0.00000000000E+00 -0.12771547073E+04  0.12771547073E+04  0.50400001928E-02 0. -1.
    10030    2    1    2    0    0  0.00000000000E+00  0.00000000000E+00 -0.83535606041E+03  0.17189533543E+04  0.15023251601E+04 0.  0.
        3    1    3    3  502    0 -0.23713694837E+02  0.65461992851E+03  0.29684001813E+01  0.65505603709E+03  0.10100000352E+00 0.  1.
       -3    1    3    3    0  502  0.23713694837E+02 -0.65461992851E+03 -0.83832446059E+03  0.10638973172E+04  0.10100000352E+00 0. -1.
</event>
<event>
 5   0  0.4086710E-04  0.1517190E+04  0.7818609E-02  0.8873101E-01
       -1   -1    0    0    0  501  0.00000000000E+00  0.00000000000E+00  0.86602088618E+03  0.86602088620E+03  0.50400001928E-02 0. -1.
        1   -1    0    0  501    0  0.00000000000E+00  0.00000000000E+00 -0.66449490801E+03  0.66449490803E+03  0.50400001928E-02 0.  1.
    10030    2    1    2    0    0  0.00000000000E+00  0.00000000000E+00  0.20152597818E+03  0.15305157942E+04  0.15171901254E+04 0.  0.
        3    1    3    3  502    0 -0.29590446765E+03  0.26345253913E+03  0.75336050639E+03  0.85118667585E+03  0.10100000352E+00 0. -1.
       -3    1    3    3    0  502  0.29590446765E+03 -0.26345253913E+03 -0.55183452821E+03  0.67932911838E+03  0.10100000352E+00 0.  1.
</event>
<event>
 5   0  0.7547580E-04  0.1489607E+04  0.7818609E-02  0.8891394E-01
       -2   -1    0    0    0  501  0.00000000000E+00  0.00000000000E+00  0.60550054502E+03  0.60550054502E+03  0.25500000920E-02 0. -1.
        2   -1    0    0  501    0  0.00000000000E+00  0.00000000000E+00 -0.91615485440E+03  0.91615485440E+03  0.25500000920E-02 0.  1.
    10030    2    1    2    0    0  0.00000000000E+00  0.00000000000E+00 -0.31065430938E+03  0.15216553994E+04  0.14896070135E+04 0.  0.
        4    1    3    3  502    0  0.52682460854E+03 -0.37735214813E+03  0.21971181946E+03  0.68426143277E+03  0.12699999809E+01 0. -1.
       -4    1    3    3    0  502 -0.52682460854E+03  0.37735214813E+03 -0.53036612884E+03  0.83739396665E+03  0.12699999809E+01 0.  1.
</event>
<event>
 5   0  0.3907345E-04  0.1303187E+04  0.7818609E-02  0.9027042E-01
       -1   -1    0    0    0  501  0.00000000000E+00  0.00000000000E+00  0.20882234618E+03  0.20882234624E+03  0.50400001928E-02 0.  1.
        1   -1    0    0  501    0  0.00000000000E+00  0.00000000000E+00 -0.20331818483E+04  0.20331818483E+04  0.50400001928E-02 0. -1.
    10030    2    1    2    0    0  0.00000000000E+00  0.00000000000E+00 -0.18243595022E+04  0.22420041946E+04  0.13031865620E+04 0.  0.
        5    1    3    3  502    0  0.20630343914E+03  0.45672783467E+03 -0.16285577080E+04  0.17039318421E+04  0.46999998093E+01 0. -1.
       -5    1    3    3    0  502 -0.20630343914E+03 -0.45672783467E+03 -0.19580179411E+03  0.53807235251E+03  0.46999998093E+01 0.  1.
</event>
<event>
 5   0  0.2800375E-04  0.1497844E+04  0.7818609E-02  0.8885888E-01
        3   -1    0    0  501    0  0.00000000000E+00  0.00000000000E+00  0.89701509959E+03  0.89701510527E+03  0.10100000352E+00 0.  1.
       -3   -1    0    0    0  501  0.00000000000E+00  0.00000000000E+00 -0.62527875602E+03  0.62527876418E+03  0.10100000352E+00 0. -1.
    10030    2    1    2    0    0  0.00000000000E+00  0.00000000000E+00  0.27173634356E+03  0.15222938695E+04  0.14978444460E+04 0.  0.
        3    1    3    3  502    0 -0.30108110328E+02  0.20976419015E+03  0.86590865658E+03  0.89146246445E+03  0.10100000352E+00 0.  1.
       -3    1    3    3    0  502  0.30108110328E+02 -0.20976419015E+03 -0.59417231302E+03  0.63083140500E+03  0.10100000352E+00 0. -1.
</event>
<event>
 5   0  0.4086710E-04  0.1447158E+04  0.7818609E-02  0.8920373E-01
        1   -1    0    0  501    0  0.00000000000E+00  0.00000000000E+00  0.77789412241E+03  0.77789412242E+03  0.50400001928E-02 0. -1.
       -1   -1    0    0    0  501  0.00000000000E+00  0.00000000000E+00 -0.67305622894E+03  0.67305622896E+03  0.50400001928E-02 0.  1.
    10030    2    1    2    0    0  0.00000000000E+00  0.00000000000E+00  0.10483789347E+03  0.14509503514E+04  0.14471578830E+04 0.  0.
        3    1    3    3  502    0 -0.19355929354E+03  0.25549624603E+03  0.70282764658E+03  0.77247022133E+03  0.10100000352E+00 0. -1.
       -3    1    3    3    0  502  0.19355929354E+03 -0.25549624603E+03 -0.59798975311E+03  0.67848013005E+03  0.10100000352E+00 0.  1.
</event>
<event>
 5   0  0.2800375E-04  0.1498050E+04  0.7818609E-02  0.8885751E-01
        3   -1    0    0  501    0  0.00000000000E+00  0.00000000000E+00  0.28431562676E+04  0.28431562694E+04  0.10100000352E+00 0.  1.
       -3   -1    0    0    0  501  0.00000000000E+00  0.00000000000E+00 -0.19732936509E+03  0.19732939093E+03  0.10100000352E+00 0. -1.
    10030    2    1    2    0    0  0.00000000000E+00  0.00000000000E+00  0.26458269025E+04  0.30404856603E+04  0.14980497497E+04 0.  0.
        4    1    3    3  502    0 -0.32962929370E+02  0.70467991883E+03  0.18338655524E+04  0.19648727236E+04  0.12699999809E+01 0. -1.
       -4    1    3    3    0  502  0.32962929370E+02 -0.70467991883E+03  0.81196135013E+03  0.10756129368E+04  0.12699999809E+01 0.  1.
</event>
<event>
 5   0  0.4086710E-04  0.1505294E+04  0.7818609E-02  0.8880940E-01
        1   -1    0    0  501    0  0.00000000000E+00  0.00000000000E+00  0.15515908573E+04  0.15515908573E+04  0.50400001928E-02 0.  1.
       -1   -1    0    0    0  501  0.00000000000E+00  0.00000000000E+00 -0.36509466204E+03  0.36509466207E+03  0.50400001928E-02 0. -1.
    10030    2    1    2    0    0  0.00000000000E+00  0.00000000000E+00  0.11864961952E+04  0.19166855194E+04  0.15052940440E+04 0.  0.
        3    1    3    3  502    0 -0.47365455986E+02 -0.17091281494E+03  0.15246040293E+04  0.15348850553E+04  0.10100000352E+00 0.  1.
       -3    1    3    3    0  502  0.47365455986E+02  0.17091281494E+03 -0.33810783402E+03  0.38180046406E+03  0.10100000352E+00 0. -1.
</event>
<event>
 5   0  0.7359897E-04  0.1491496E+04  0.7818609E-02  0.8890128E-01
       -2   -1    0    0    0  501  0.00000000000E+00  0.00000000000E+00  0.35527660906E+03  0.35527660907E+03  0.25500000920E-02 0. -1.
        2   -1    0    0  501    0  0.00000000000E+00  0.00000000000E+00 -0.15653728324E+04  0.15653728324E+04  0.25500000920E-02 0.  1.
    10030    2    1    2    0    0  0.00000000000E+00  0.00000000000E+00 -0.12100962233E+04  0.19206494414E+04  0.14914963652E+04 0.  0.
        1    1    3    3  502    0  0.72569640913E+02  0.39061616212E+03  0.20764625414E+03  0.44829042570E+03  0.50400001928E-02 0. -1.
       -1    1    3    3    0  502 -0.72569640913E+02 -0.39061616212E+03 -0.14177424774E+04  0.14723590158E+04  0.50400001928E-02 0.  1.
</event>
<event>
 5   0  0.4015204E-04  0.1483833E+04  0.7818609E-02  0.8895276E-01
       -1   -1    0    0    0  501  0.00000000000E+00  0.00000000000E+00  0.37786889073E+03  0.37786889077E+03  0.50400001928E-02 0.  1.
        1   -1    0    0  501    0  0.00000000000E+00  0.00000000000E+00 -0.14566956710E+04  0.14566956710E+04  0.50400001928E-02 0. -1.
    10030    2    1    2    0    0  0.00000000000E+00  0.00000000000E+00 -0.10788267803E+04  0.18345645618E+04  0.14838328442E+04 0.  0.
        2    1    3    3  502    0  0.12465595794E+03  0.67875250700E+03 -0.20263983247E+03  0.71924055456E+03  0.25500000920E-02 0.  1.
       -2    1    3    3    0  502 -0.12465595794E+03 -0.67875250700E+03 -0.87618694782E+03  0.11153240072E+04  0.25500000920E-02 0. -1.
</event>
<event>
 5   0  0.4086710E-04  0.1465071E+04  0.7818609E-02  0.8908018E-01
       -1   -1    0    0    0  501  0.00000000000E+00  0.00000000000E+00  0.29293787325E+03  0.29293787329E+03  0.50400001928E-02 0.  1.
        1   -1    0    0  501    0  0.00000000000E+00  0.00000000000E+00 -0.18318155647E+04  0.18318155647E+04  0.50400001928E-02 0. -1.
    10030    2    1    2    0    0  0.00000000000E+00  0.00000000000E+00 -0.15388776914E+04  0.21247534380E+04  0.14650708594E+04 0.  0.
        3    1    3    3  502    0  0.12103017545E+03  0.49447814888E+03 -0.55270500103E+01  0.50910460769E+03  0.10100000352E+00 0.  1.
       -3    1    3    3    0  502 -0.12103017545E+03 -0.49447814888E+03 -0.15333506414E+04  0.16156488303E+04  0.10100000352E+00 0. -1.
</event>
<event>
 5   0  0.4015204E-04  0.1493227E+04  0.7818609E-02  0.8888970E-01
       -1   -1    0    0    0  501  0.00000000000E+00  0.00000000000E+00  0.10342594723E+04  0.10342594723E+04  0.50400001928E-02 0. -1.
        1   -1    0    0  501    0  0.00000000000E+00  0.00000000000E+00 -0.53896668143E+03  0.53896668146E+03  0.50400001928E-02 0.  1.
    10030    2    1    2    0    0  0.00000000000E+00  0.00000000000E+00  0.49529279082E+03  0.15732261537E+04  0.14932265676E+04 0.  0.
        2    1    3    3  502    0  0.72894658944E+02 -0.28770264531E+02 -0.53462152507E+03  0.54033465047E+03  0.25500000920E-02 0.  1.
       -2    1    3    3    0  502 -0.72894658944E+02  0.28770264531E+02  0.10299143159E+04  0.10328915033E+04  0.25500000920E-02 0. -1.
</event>
<event>
 5   0  0.4086710E-04  0.1473547E+04  0.7818609E-02  0.8902237E-01
       -1   -1    0    0    0  501  0.00000000000E+00  0.00000000000E+00  0.58055515393E+03  0.58055515395E+03  0.50400001928E-02 0. -1.
        1   -1    0    0  501    0  0.00000000000E+00  0.00000000000E+00 -0.93502747922E+03  0.93502747923E+03  0.50400001928E-02 0.  1.
    10030    2    1    2    0    0  0.00000000000E+00  0.00000000000E+00 -0.35447232528E+03  0.15155826332E+04  0.14735467718E+04 0.  0.
        3    1    3    3  502    0  0.55098049263E+03  0.27634328570E+03  0.23787342986E+03  0.66070333255E+03  0.10100000352E+00 0. -1.
       -3    1    3    3    0  502 -0.55098049263E+03 -0.27634328570E+03 -0.59234575514E+03  0.85487930063E+03  0.10100000352E+00 0.  1.
</event>
<event>
 5   0  0.7672251E-04  0.1307810E+04  0.7818609E-02  0.9023394E-01
        2   -1    0    0  501    0  0.00000000000E+00  0.00000000000E+00  0.20438119049E+04  0.20438119049E+04  0.25500000920E-02 0.  1.
       -2   -1    0    0    0  501  0.00000000000E+00  0.00000000000E+00 -0.20921302246E+03  0.20921302248E+03  0.25500000920E-02 0. -1.
    10030    2    1    2    0    0  0.00000000000E+00  0.00000000000E+00  0.18345988824E+04  0.22530249274E+04  0.13078104847E+04 0.  0.
        5    1    3    3  502    0 -0.51020439214E+03 -0.40336731536E+03  0.80101393688E+03  0.10318232067E+04  0.46999998093E+01 0. -1.
       -5    1    3    3    0  502  0.51020439214E+03  0.40336731536E+03  0.10335849455E+04  0.12212017206E+04  0.46999998093E+01 0.  1.
</event>
<event>
 5   0  0.7359897E-04  0.1515021E+04  0.7818609E-02  0.8874525E-01
        2   -1    0    0  501    0  0.00000000000E+00  0.00000000000E+00  0.11261252259E+04  0.11261252259E+04  0.25500000920E-02 0. -1.
       -2   -1    0    0    0  501  0.00000000000E+00  0.00000000000E+00 -0.50955431382E+03  0.50955431383E+03  0.25500000920E-02 0.  1.
    10030    2    1    2    0    0  0.00000000000E+00  0.00000000000E+00  0.61657091207E+03  0.16356795397E+04  0.15150207481E+04 0.  0.
        1    1    3    3  502    0  0.16905805795E+03  0.73788330275E+03  0.33823595575E+03  0.82912963837E+03  0.50400001928E-02 0. -1.
       -1    1    3    3    0  502 -0.16905805795E+03 -0.73788330275E+03  0.27833495632E+03  0.80654990135E+03  0.50400001928E-02 0.  1.
</event>
<event>
 5   0  0.4084462E-04  0.1449399E+04  0.7818609E-02  0.8918817E-01
        1   -1    0    0  501    0  0.00000000000E+00  0.00000000000E+00  0.56602059214E+03  0.56602059216E+03  0.50400001928E-02 0.  1.
       -1   -1    0    0    0  501  0.00000000000E+00  0.00000000000E+00 -0.92786321514E+03  0.92786321515E+03  0.50400001928E-02 0. -1.
    10030    2    1    2    0    0  0.00000000000E+00  0.00000000000E+00 -0.36184262300E+03  0.14938838073E+04  0.14493994432E+04 0.  0.
        1    1    3    3  502    0  0.35436148599E+03  0.73478784269E+02 -0.82805979346E+03  0.90368922538E+03  0.50400001928E-02 0. -1.
       -1    1    3    3    0  502 -0.35436148599E+03 -0.73478784269E+02  0.46621717046E+03  0.59019458193E+03  0.50400001928E-02 0.  1.
</event>
<event>
 5   0  0.7634227E-04  0.1519810E+04  0.7818609E-02  0.8871385E-01
        2   -1    0    0  501    0  0.00000000000E+00  0.00000000000E+00  0.22972561929E+04  0.22972561929E+04  0.25500000920E-02 0.  1.
       -2   -1    0    0    0  501  0.00000000000E+00  0.00000000000E+00 -0.25136753129E+03  0.25136753131E+03  0.25500000920E-02 0. -1.
    10030    2    1    2    0    0  0.00000000000E+00  0.00000000000E+00  0.20458886616E+04  0.25486237242E+04  0.15198100118E+04 0.  0.
        2    1    3    3  502    0 -0.44498463823E+03 -0.60638699615E+03  0.84125315614E+03  0.11284606285E+04  0.25500000920E-02 0. -1.
       -2    1    3    3    0  502  0.44498463823E+03  0.60638699615E+03  0.12046355055E+04  0.14201630957E+04  0.25500000920E-02 0.  1.
</event>
<event>
 5   0  0.7672251E-04  0.1501593E+04  0.7818609E-02  0.8883395E-01
       -2   -1    0    0    0  501  0.00000000000E+00  0.00000000000E+00  0.40967658755E+03  0.40967658756E+03  0.25500000920E-02 0. -1.
        2   -1    0    0  501    0  0.00000000000E+00  0.00000000000E+00 -0.13759515613E+04  0.13759515613E+04  0.25500000920E-02 0.  1.
    10030    2    1    2    0    0  0.00000000000E+00  0.00000000000E+00 -0.96627497378E+03  0.17856281489E+04  0.15015926749E+04 0.  0.
        5    1    3    3  502    0  0.29690677134E+03  0.68861161093E+03 -0.52656153418E+03  0.91631256722E+03  0.46999998093E+01 0. -1.
       -5    1    3    3    0  502 -0.29690677134E+03 -0.68861161093E+03 -0.43971343960E+03  0.86931558167E+03  0.46999998093E+01 0.  1.
</event>
<event>
 5   0  0.4015204E-04  0.1492848E+04  0.7818609E-02  0.8889223E-01
        1   -1    0    0  501    0  0.00000000000E+00  0.00000000000E+00  0.23333430703E+04  0.23333430703E+04  0.50400001928E-02 0. -1.
       -1   -1    0    0    0  501  0.00000000000E+00  0.00000000000E+00 -0.23877716744E+03  0.23877716749E+03  0.50400001928E-02 0.  1.
    10030    2    1    2    0    0  0.00000000000E+00  0.00000000000E+00  0.20945659028E+04  0.25721202378E+04  0.14928483500E+04 0.  0.
        2    1    3    3  502    0  0.12806038094E+03 -0.73485152567E+03  0.10942418905E+04  0.13243003968E+04  0.25500000920E-02 0.  1.
       -2    1    3    3    0  502 -0.12806038094E+03  0.73485152567E+03  0.10003240123E+04  0.12478198410E+04  0.25500000920E-02 0. -1.
</event>
<event>
 5   0  0.7634227E-04  0.1464270E+04  0.7818609E-02  0.8908567E-01
        2   -1    0    0  501    0  0.00000000000E+00  0.00000000000E+00  0.18070896388E+04  0.18070896388E+04  0.25500000920E-02 0.  1.
       -2   -1    0    0    0  501  0.00000000000E+00  0.00000000000E+00 -0.29662134995E+03  0.29662134996E+03  0.25500000920E-02 0. -1.
    10030    2    1    2    0    0  0.00000000000E+00  0.00000000000E+00  0.15104682889E+04  0.21037109888E+04  0.14642696038E+04 0.  0.
        2    1    3    3  502    0 -0.27908446528E+03 -0.55324214835E+03  0.19500291325E+03  0.64960845873E+03  0.25500000920E-02 0. -1.
       -2    1    3    3    0  502  0.27908446528E+03  0.55324214835E+03  0.13154653756E+04  0.14541025301E+04  0.25500000920E-02 0.  1.
</event>
<event>
 5   0  0.7454828E-04  0.1503762E+04  0.7818609E-02  0.8881955E-01
        2   -1    0    0  501    0  0.00000000000E+00  0.00000000000E+00  0.16519855508E+04  0.16519855508E+04  0.25500000920E-02 0.  1.
       -2   -1    0    0    0  501  0.00000000000E+00  0.00000000000E+00 -0.34220930212E+03  0.34220930213E+03  0.25500000920E-02 0. -1.
    10030    2    1    2    0    0  0.00000000000E+00  0.00000000000E+00  0.13097762487E+04  0.19941948529E+04  0.15037617131E+04 0.  0.
        3    1    3    3  502    0  0.30120987048E+03  0.68811210814E+03  0.61092205843E+03  0.96822075536E+03  0.10100000352E+00 0. -1.
       -3    1    3    3    0  502 -0.30120987048E+03 -0.68811210814E+03  0.69885419024E+03  0.10259740976E+04  0.10100000352E+00 0.  1.
</event>
<event>
 5   0  0.2800375E-04  0.1362955E+04  0.7818609E-02  0.8981079E-01
       -3   -1    0    0    0  501  0.00000000000E+00  0.00000000000E+00  0.41608579120E+03  0.41608580346E+03  0.10100000352E+00 0.  1.
        3   -1    0    0  501    0  0.00000000000E+00  0.00000000000E+00 -0.11161436931E+04  0.11161436976E+04  0.10100000352E+00 0. -1.
    10030    2    1    2    0    0  0.00000000000E+00  0.00000000000E+00 -0.70005790188E+03  0.15322295011E+04  0.13629549435E+04 0.  0.
        2    1    3    3  502    0  0.52464922431E+03  0.20004487020E+03 -0.78417385751E+03  0.96447052701E+03  0.25500000920E-02 0. -1.
       -2    1    3    3    0  502 -0.52464922431E+03 -0.20004487020E+03  0.84115955638E+02  0.56775897409E+03  0.25500000920E-02 0.  1.
</event>
<event>
 5   0  0.3907345E-04  0.1496300E+04  0.7818609E-02  0.8886917E-01
        1   -1    0    0  501    0  0.00000000000E+00  0.00000000000E+00  0.87498332195E+03  0.87498332196E+03  0.50400001928E-02 0.  1.
       -1   -1    0    0    0  501  0.00000000000E+00  0.00000000000E+00 -0.63970190119E+03  0.63970190121E+03  0.50400001928E-02 0. -1.
    10030    2    1    2    0    0  0.00000000000E+00  0.00000000000E+00  0.23528142075E+03  0.15146852232E+04  0.14963000964E+04 0.  0.
        5    1    3    3  502    0 -0.55438291910E+03 -0.15006310952E+03  0.60295507799E+03  0.83272821130E+03  0.46999998093E+01 0.  1.
       -5    1    3    3    0  502  0.55438291910E+03  0.15006310952E+03 -0.36767365724E+03  0.68195701188E+03  0.46999998093E+01 0. -1.
</event>
<event>
 5   0  0.7359897E-04  0.1495621E+04  0.7818609E-02  0.8887370E-01
        2   -1    0    0  501    0  0.00000000000E+00  0.00000000000E+00  0.77229372746E+03  0.77229372747E+03  0.25500000920E-02 0.  1.
       -2   -1    0    0    0  501  0.00000000000E+00  0.00000000000E+00 -0.72410359086E+03  0.72410359086E+03  0.25500000920E-02 0. -1.
    10030    2    1    2    0    0  0.00000000000E+00  0.00000000000E+00  0.48190136608E+02  0.14963973183E+04  0.14956211569E+04 0.  0.
        1    1    3    3  502    0  0.42955800665E+03 -0.61004658999E+03 -0.26366590976E+02  0.74657358658E+03  0.50400001928E-02 0. -1.
       -1    1    3    3    0  502 -0.42955800665E+03  0.61004658999E+03  0.74556727584E+02  0.74982373175E+03  0.50400001928E-02 0.  1.
</event>
<event>
 5   0  0.4058874E-04  0.1473917E+04  0.7818609E-02  0.8901985E-01
        1   -1    0    0  501    0  0.00000000000E+00  0.00000000000E+00  0.88610061877E+03  0.88610061878E+03  0.50400001928E-02 0.  1.
       -1   -1    0    0    0  501  0.00000000000E+00  0.00000000000E+00 -0.61291924607E+03  0.61291924609E+03  0.50400001928E-02 0. -1.
    10030    2    1    2    0    0  0.00000000000E+00  0.00000000000E+00  0.27318137270E+03  0.14990198649E+04  0.14739173969E+04 0.  0.
        4    1    3    3  502    0  0.38561530351E+03  0.34000345787E+03  0.67360334056E+03  0.84737511586E+03  0.12699999809E+01 0.  1.
       -4    1    3    3    0  502 -0.38561530351E+03 -0.34000345787E+03 -0.40042196786E+03  0.65164474901E+03  0.12699999809E+01 0. -1.
</event>
<event>
 5   0  0.4015204E-04  0.1457683E+04  0.7818609E-02  0.8913092E-01
        1   -1    0    0  501    0  0.00000000000E+00  0.00000000000E+00  0.15673460236E+04  0.15673460236E+04  0.50400001928E-02 0.  1.
       -1   -1    0    0    0  501  0.00000000000E+00  0.00000000000E+00 -0.33892300879E+03  0.33892300883E+03  0.50400001928E-02 0. -1.
    10030    2    1    2    0    0  0.00000000000E+00  0.00000000000E+00  0.12284230148E+04  0.19062690324E+04  0.14576825857E+04 0.  0.
        2    1    3    3  502    0  0.70246062591E+03 -0.97012420178E+02  0.39403194860E+03  0.81124812305E+03  0.25500000920E-02 0. -1.
       -2    1    3    3    0  502 -0.70246062591E+03  0.97012420178E+02  0.83439106622E+03  0.10950209094E+04  0.25500000920E-02 0.  1.
</event>
<event>
 5   0  0.7547580E-04  0.1488029E+04  0.7818609E-02  0.8892453E-01
        2   -1    0    0  501    0  0.00000000000E+00  0.00000000000E+00  0.12824036447E+04  0.12824036447E+04  0.25500000920E-02 0. -1.
       -2   -1    0    0    0  501  0.00000000000E+00  0.00000000000E+00 -0.43165633248E+03  0.43165633248E+03  0.25500000920E-02 0.  1.
    10030    2    1    2    0    0  0.00000000000E+00  0.00000000000E+00  0.85074731223E+03  0.17140599772E+04  0.14880291046E+04 0.  0.
        4    1    3    3  502    0  0.41478135593E+03 -0.51724293581E+03  0.36495024674E+02  0.66401605975E+03  0.12699999809E+01 0.  1.
       -4    1    3    3    0  502 -0.41478135593E+03  0.51724293581E+03  0.81425228755E+03  0.10500439174E+04  0.12699999809E+01 0. -1.
</event>
<event>
 5   0  0.7634227E-04  0.1498081E+04  0.7818609E-02  0.8885730E-01
        2   -1    0    0  501    0  0.00000000000E+00  0.00000000000E+00  0.11505147878E+04  0.11505147878E+04  0.25500000920E-02 0.  1.
       -2   -1    0    0    0  501  0.00000000000E+00  0.00000000000E+00 -0.48766121159E+03  0.48766121159E+03  0.25500000920E-02 0. -1.
    10030    2    1    2    0    0  0.00000000000E+00  0.00000000000E+00  0.66285357616E+03  0.16381759993E+04  0.14980806859E+04 0.  0.
        2    1    3    3  502    0 -0.40163214526E+03  0.19143018174E+03 -0.32750883687E+03  0.55246351266E+03  0.25500000920E-02 0. -1.
       -2    1    3    3    0  502  0.40163214526E+03 -0.19143018174E+03  0.99036241303E+03  0.10857124867E+04  0.25500000920E-02 0.  1.
</event>
<event>
 5   0  0.7454828E-04  0.1496035E+04  0.7818609E-02  0.8887094E-01
       -2   -1    0    0    0  501  0.00000000000E+00  0.00000000000E+00  0.31841701972E+03  0.31841701973E+03  0.25500000920E-02 0.  1.
        2   -1    0    0  501    0  0.00000000000E+00  0.00000000000E+00 -0.17572247147E+04  0.17572247147E+04  0.25500000920E-02 0. -1.
    10030    2    1    2    0    0  0.00000000000E+00  0.00000000000E+00 -0.14388076950E+04  0.20756417345E+04  0.14960351021E+04 0.  0.
        3    1    3    3  502    0  0.54717153878E+03 -0.32383056803E+03 -0.12661058123E+04  0.14167875168E+04  0.10100000352E+00 0. -1.
       -3    1    3    3    0  502 -0.54717153878E+03  0.32383056803E+03 -0.17270188271E+03  0.65885421766E+03  0.10100000352E+00 0.  1.
</event>
<event>
 5   0  0.2800375E-04  0.1497871E+04  0.7818609E-02  0.8885870E-01
       -4   -1    0    0    0  501  0.00000000000E+00  0.00000000000E+00  0.44467753290E+03  0.44467934646E+03  0.12699999809E+01 0.  1.
        4   -1    0    0  501    0  0.00000000000E+00  0.00000000000E+00 -0.12613686315E+04  0.12613692708E+04  0.12699999809E+01 0. -1.
    10030    2    1    2    0    0  0.00000000000E+00  0.00000000000E+00 -0.81669109859E+03  0.17060486173E+04  0.14978710005E+04 0.  0.
        5    1    3    3  502    0  0.21203881788E+03 -0.70528941581E+03 -0.25347463467E+03  0.77888709115E+03  0.46999998093E+01 0. -1.
       -5    1    3    3    0  502 -0.21203881788E+03  0.70528941581E+03 -0.56321646393E+03  0.92716152615E+03  0.46999998093E+01 0.  1.
</event>
<event>
 5   0  0.7547580E-04  0.1501808E+04  0.7818609E-02  0.8883252E-01
       -2   -1    0    0    0  501  0.00000000000E+00  0.00000000000E+00  0.55268357236E+03  0.55268357236E+03  0.25500000920E-02 0.  1.
        2   -1    0    0  501    0  0.00000000000E+00  0.00000000000E+00 -0.10202158793E+04  0.10202158793E+04  0.25500000920E-02 0. -1.
    10030    2    1    2    0    0  0.00000000000E+00  0.00000000000E+00 -0.46753230691E+03  0.15728994516E+04  0.15018076531E+04 0.  0.
        4    1    3    3  502    0 -0.72989728961E+02 -0.40216234290E+02 -0.10153565133E+04  0.10187714700E+04  0.12699999809E+01 0. -1.
       -4    1    3    3    0  502  0.72989728961E+02  0.40216234290E+02  0.54782420640E+03  0.55412798165E+03  0.12699999809E+01 0.  1.
</event>
<event>
 5   0  0.7454828E-04  0.1368194E+04  0.7818609E-02  0.8977168E-01
        2   -1    0    0  501    0  0.00000000000E+00  0.00000000000E+00  0.98909045450E+03  0.98909045450E+03  0.25500000920E-02 0.  1.
       -2   -1    0    0    0  501  0.00000000000E+00  0.00000000000E+00 -0.47315086292E+03  0.47315086293E+03  0.25500000920E-02 0. -1.
    10030    2    1    2    0    0  0.00000000000E+00  0.00000000000E+00  0.51593959158E+03  0.14622413174E+04  0.13681944336E+04 0.  0.
        3    1    3    3  502    0  0.47488302784E+03  0.35947429315E+03 -0.10169400593E+03  0.60421630117E+03  0.10100000352E+00 0. -1.
       -3    1    3    3    0  502 -0.47488302784E+03 -0.35947429315E+03  0.61763359750E+03  0.85802501626E+03  0.10100000352E+00 0.  1.
</event>
<event>
 5   0  0.4086710E-04  0.1472507E+04  0.7818609E-02  0.8902944E-01
       -1   -1    0    0    0  501  0.00000000000E+00  0.00000000000E+00  0.10748768385E+04  0.10748768385E+04  0.50400001928E-02 0.  1.
        1   -1    0    0  501    0  0.00000000000E+00  0.00000000000E+00 -0.50430813987E+03  0.50430813990E+03  0.50400001928E-02 0. -1.
    10030    2    1    2    0    0  0.00000000000E+00  0.00000000000E+00  0.57056869865E+03  0.15791849784E+04  0.14725068951E+04 0.  0.
        3    1    3    3  502    0  0.20356694387E+03 -0.43080894829E+03  0.88722529113E+03  0.10070772453E+04  0.10100000352E+00 0.  1.
       -3    1    3    3    0  502 -0.20356694387E+03  0.43080894829E+03 -0.31665659247E+03  0.57210773314E+03  0.10100000352E+00 0. -1.
</event>
<event>
 5   0  0.7454828E-04  0.1489077E+04  0.7818609E-02  0.8891749E-01
        2   -1    0    0  501    0  0.00000000000E+00  0.00000000000E+00  0.44371798810E+03  0.44371798810E+03  0.25500000920E-02 0. -1.
       -2   -1    0    0    0  501  0.00000000000E+00  0.00000000000E+00 -0.12493015954E+04  0.12493015954E+04  0.25500000920E-02 0.  1.
    10030    2    1    2    0    0  0.00000000000E+00  0.00000000000E+00 -0.80558360729E+03  0.16930195835E+04  0.14890770167E+04 0.  0.
        3    1    3    3  502    0 -0.66332504373E+02  0.41990333463E+02  0.43899903042E+03  0.44596339329E+03  0.10100000352E+00 0. -1.
       -3    1    3    3    0  502  0.66332504373E+02 -0.41990333463E+02 -0.12445826377E+04  0.12470561902E+04  0.10100000352E+00 0.  1.
</event>
<event>
 5   0  0.4015204E-04  0.1485423E+04  0.7818609E-02  0.8894205E-01
        1   -1    0    0  501    0  0.00000000000E+00  0.00000000000E+00  0.81724288100E+03  0.81724288101E+03  0.50400001928E-02 0.  1.
       -1   -1    0    0    0  501  0.00000000000E+00  0.00000000000E+00 -0.67497711400E+03  0.67497711401E+03  0.50400001928E-02 0. -1.
    10030    2    1    2    0    0  0.00000000000E+00  0.00000000000E+00  0.14226576700E+03  0.14922199950E+04  0.14854228237E+04 0.  0.
        2    1    3    3  502    0 -0.51816853232E+03 -0.42881923907E+03  0.38759131658E+03  0.77628061703E+03  0.25500000920E-02 0.  1.
       -2    1    3    3    0  502  0.51816853232E+03  0.42881923907E+03 -0.24532554958E+03  0.71593937800E+03  0.25500000920E-02 0. -1.
</event>
<event>
 5   0  0.4084462E-04  0.1478523E+04  0.7818609E-02  0.8898862E-01
        1   -1    0    0  501    0  0.00000000000E+00  0.00000000000E+00  0.94811022890E+03  0.94811022891E+03  0.50400001928E-02 0. -1.
       -1   -1    0    0    0  501  0.00000000000E+00  0.00000000000E+00 -0.57641771102E+03  0.57641771105E+03  0.50400001928E-02 0.  1.
    10030    2    1    2    0    0  0.00000000000E+00  0.00000000000E+00  0.37169251787E+03  0.15245279400E+04  0.14785229494E+04 0.  0.
        1    1    3    3  502    0  0.34603153964E+03  0.35685169787E+03 -0.37837894711E+03  0.62470119924E+03  0.50400001928E-02 0.  1.
       -1    1    3    3    0  502 -0.34603153964E+03 -0.35685169787E+03  0.75007146498E+03  0.89982674071E+03  0.50400001928E-02 0. -1.
</event>
<event>
 5   0  0.7547580E-04  0.1478199E+04  0.7818609E-02  0.8899081E-01
        2   -1    0    0  501    0  0.00000000000E+00  0.00000000000E+00  0.63463557766E+03  0.63463557766E+03  0.25500000920E-02 0.  1.
       -2   -1    0    0    0  501  0.00000000000E+00  0.00000000000E+00 -0.86075894035E+03  0.86075894036E+03  0.25500000920E-02 0. -1.
    10030    2    1    2    0    0  0.00000000000E+00  0.00000000000E+00 -0.22612336269E+03  0.14953945180E+04  0.14781992387E+04 0.  0.
        4    1    3    3  502    0  0.29047913084E+03  0.49082859793E+03  0.36248719943E+03  0.67578799978E+03  0.12699999809E+01 0.  1.
       -4    1    3    3    0  502 -0.29047913084E+03 -0.49082859793E+03 -0.58861056212E+03  0.81960651824E+03  0.12699999809E+01 0. -1.
</event>
<event>
 5   0  0.7547580E-04  0.1423763E+04  0.7818609E-02  0.8936795E-01
        2   -1    0    0  501    0  0.00000000000E+00  0.00000000000E+00  0.78158171507E+03  0.78158171508E+03  0.25500000920E-02 0.  1.
       -2   -1    0    0    0  501  0.00000000000E+00  0.00000000000E+00 -0.64839685704E+03  0.64839685705E+03  0.25500000920E-02 0. -1.
    10030    2    1    2    0    0  0.00000000000E+00  0.00000000000E+00  0.13318485803E+03  0.14299785721E+04  0.14237627999E+04 0.  0.
        4    1    3    3  502    0 -0.44681218352E+03  0.42594981549E+03  0.42268100831E+03  0.74815454308E+03  0.12699999809E+01 0.  1.
       -4    1    3    3    0  502  0.44681218352E+03 -0.42594981549E+03 -0.28949615028E+03  0.68182402904E+03  0.12699999809E+01 0. -1.
</event>
<event>
 5   0  0.7547580E-04  0.1474707E+04  0.7818609E-02  0.8901449E-01
        2   -1    0    0  501    0  0.00000000000E+00  0.00000000000E+00  0.14930977323E+04  0.14930977323E+04  0.25500000920E-02 0.  1.
       -2   -1    0    0    0  501  0.00000000000E+00  0.00000000000E+00 -0.36413554919E+03  0.36413554920E+03  0.25500000920E-02 0. -1.
    10030    2    1    2    0    0  0.00000000000E+00  0.00000000000E+00  0.11289621831E+04  0.18572332815E+04  0.14747067000E+04 0.  0.
        4    1    3    3  502    0 -0.12599145100E+03  0.16792472234E+03  0.14546632440E+04  0.14697344401E+04  0.12699999809E+01 0.  1.
       -4    1    3    3    0  502  0.12599145100E+03 -0.16792472234E+03 -0.32570106091E+03  0.38749884138E+03  0.12699999809E+01 0. -1.
</event>
<event>
 5   0  0.2800375E-04  0.1287984E+04  0.7818609E-02  0.9039148E-01
       -3   -1    0    0    0  501  0.00000000000E+00  0.00000000000E+00  0.83366813658E+03  0.83366814270E+03  0.10100000352E+00 0. -1.
        3   -1    0    0  501    0  0.00000000000E+00  0.00000000000E+00 -0.49747110063E+03  0.49747111089E+03  0.10100000352E+00 0.  1.
    10030    2    1    2    0    0  0.00000000000E+00  0.00000000000E+00  0.33619703595E+03  0.13311392536E+04  0.12879841868E+04 0.  0.
        3    1    3    3  502    0 -0.31657853389E+03 -0.55852688275E+03  0.22030396167E+03  0.67875481037E+03  0.10100000352E+00 0. -1.
       -3    1    3    3    0  502  0.31657853389E+03  0.55852688275E+03  0.11589307428E+03  0.65238444321E+03  0.10100000352E+00 0.  1.
</event>
<event>
 5   0  0.4084462E-04  0.1501369E+04  0.7818609E-02  0.8883543E-01
       -1   -1    0    0    0  501  0.00000000000E+00  0.00000000000E+00  0.75442138630E+03  0.75442138632E+03  0.50400001928E-02 0.  1.
        1   -1    0    0  501    0  0.00000000000E+00  0.00000000000E+00 -0.74696630786E+03  0.74696630788E+03  0.50400001928E-02 0. -1.
    10030    2    1    2    0    0  0.00000000000E+00  0.00000000000E+00  0.74550784387E+01  0.15013876942E+04  0.15013691851E+04 0.  0.
        1    1    3    3  502    0  0.28128265070E+03 -0.39846301390E+03 -0.56692356561E+03  0.74786030266E+03  0.50400001928E-02 0. -1.
       -1    1    3    3    0  502 -0.28128265070E+03  0.39846301390E+03  0.57437864404E+03  0.75352739153E+03  0.50400001928E-02 0.  1.
</event>
<event>
 5   0  0.2800375E-04  0.1499945E+04  0.7818609E-02  0.8884489E-01
       -3   -1    0    0    0  501  0.00000000000E+00  0.00000000000E+00  0.99681096499E+03  0.99681097011E+03  0.10100000352E+00 0.  1.
        3   -1    0    0  501    0  0.00000000000E+00  0.00000000000E+00 -0.56425854836E+03  0.56425855740E+03  0.10100000352E+00 0. -1.
    10030    2    1    2    0    0  0.00000000000E+00  0.00000000000E+00  0.43255241663E+03  0.15610695275E+04  0.14999454912E+04 0.  0.
        5    1    3    3  502    0 -0.17236874277E+03 -0.49526951451E+03 -0.34170035138E+03  0.62592658964E+03  0.46999998093E+01 0. -1.
       -5    1    3    3    0  502  0.17236874277E+03  0.49526951451E+03  0.77425276801E+03  0.93514293787E+03  0.46999998093E+01 0.  1.
</event>
<event>
 5   0  0.7454828E-04  0.1499334E+04  0.7818609E-02  0.8884896E-01
       -2   -1    0    0    0  501  0.00000000000E+00  0.00000000000E+00  0.25087969894E+03  0.25087969895E+03  0.25500000920E-02 0.  1.
        2   -1    0    0  501    0  0.00000000000E+00  0.00000000000E+00 -0.22401209936E+04  0.22401209936E+04  0.25500000920E-02 0. -1.
    10030    2    1    2    0    0  0.00000000000E+00  0.00000000000E+00 -0.19892412947E+04  0.24910006926E+04  0.14993343596E+04 0.  0.
        3    1    3    3  502    0  0.21517380667E+02  0.46914935515E+03 -0.23819032953E+02  0.47024618195E+03  0.10100000352E+00 0.  1.
       -3    1    3    3    0  502 -0.21517380667E+02 -0.46914935515E+03 -0.19654222617E+04  0.20207545106E+04  0.10100000352E+00 0. -1.
</event>
<event>
 5   0  0.7359897E-04  0.1487187E+04  0.7818609E-02  0.8893018E-01
       -2   -1    0    0    0  501  0.00000000000E+00  0.00000000000E+00  0.56473391337E+03  0.56473391337E+03  0.25500000920E-02 0.  1.
        2   -1    0    0  501    0  0.00000000000E+00  0.00000000000E+00 -0.97910096050E+03  0.97910096050E+03  0.25500000920E-02 0. -1.
    10030    2    1    2    0    0  0.00000000000E+00  0.00000000000E+00 -0.41436704713E+03  0.15438348739E+04  0.14871873009E+04 0.  0.
        1    1    3    3  502    0 -0.34273918315E+03  0.59966234494E+03 -0.49311372838E+03  0.84866143117E+03  0.50400001928E-02 0. -1.
       -1    1    3    3    0  502  0.34273918315E+03 -0.59966234494E+03  0.78746681252E+02  0.69517344271E+03  0.50400001928E-02 0.  1.
</event>
<event>
 5   0  0.4015204E-04  0.1497960E+04  0.7818609E-02  0.8885810E-01
        1   -1    0    0  501    0  0.00000000000E+00  0.00000000000E+00  0.12815744270E+04  0.12815744271E+04  0.50400001928E-02 0. -1.
       -1   -1    0    0    0  501  0.00000000000E+00  0.00000000000E+00 -0.43772050008E+03  0.43772050011E+03  0.50400001928E-02 0.  1.
    10030    2    1    2    0    0  0.00000000000E+00  0.00000000000E+00  0.84385392697E+03  0.17192949272E+04  0.14979604790E+04 0.  0.
        2    1    3    3  502    0  0.24912741841E+02  0.48903455674E+03 -0.22855470376E+03  0.54038198990E+03  0.25500000920E-02 0.  1.
       -2    1    3    3    0  502 -0.24912741841E+02 -0.48903455674E+03  0.10724086307E+04  0.11789129373E+04  0.25500000920E-02 0. -1.
</event>
<event>
 5   0  0.4084462E-04  0.1518524E+04  0.7818609E-02  0.8872227E-01
        1   -1    0    0  501    0  0.00000000000E+00  0.00000000000E+00  0.60842843605E+03  0.60842843607E+03  0.50400001928E-02 0. -1.
       -1   -1    0    0    0  501  0.00000000000E+00  0.00000000000E+00 -0.94748818036E+03  0.94748818037E+03  0.50400001928E-02 0.  1.
    10030    2    1    2    0    0  0.00000000000E+00  0.00000000000E+00 -0.33905974431E+03  0.15559166164E+04  0.15185239567E+04 0.  0.
        1    1    3    3  502    0 -0.48361953116E+03  0.44426946168E+02  0.42846563997E+03  0.64764528032E+03  0.50400001928E-02 0. -1.
       -1    1    3    3    0  502  0.48361953116E+03 -0.44426946168E+02 -0.76752538428E+03  0.90827133612E+03  0.50400001928E-02 0.  1.
</event>
<event>
 5   0  0.4015204E-04  0.1501421E+04  0.7818609E-02  0.8883508E-01
       -1   -1    0    0    0  501  0.00000000000E+00  0.00000000000E+00  0.35285927906E+03  0.35285927909E+03  0.50400001928E-02 0. -1.
        1   -1    0    0  501    0  0.00000000000E+00  0.00000000000E+00 -0.15971421524E+04  0.15971421524E+04  0.50400001928E-02 0.  1.
    10030    2    1    2    0    0  0.00000000000E+00  0.00000000000E+00 -0.12442828733E+04  0.19500014315E+04  0.15014212313E+04 0.  0.
        2    1    3    3  502    0  0.17049779541E+03 -0.73026779600E+03 -0.57704068636E+03  0.94622222856E+03  0.25500000920E-02 0. -1.
       -2    1    3    3    0  502 -0.17049779541E+03  0.73026779600E+03 -0.66724218694E+03  0.10037792029E+04  0.25500000920E-02 0.  1.
</event>
<event>
 5   0  0.7454828E-04  0.1575004E+04  0.7818609E-02  0.8836053E-01
       -2   -1    0    0    0  501  0.00000000000E+00  0.00000000000E+00  0.46446889395E+03  0.46446889396E+03  0.25500000920E-02 0. -1.
        2   -1    0    0  501    0  0.00000000000E+00  0.00000000000E+00 -0.13352003582E+04  0.13352003582E+04  0.25500000920E-02 0.  1.
    10030    2    1    2    0    0  0.00000000000E+00  0.00000000000E+00 -0.87073146428E+03  0.17996692522E+04  0.15750035347E+04 0.  0.
        3    1    3    3  502    0 -0.75016999932E+03 -0.11103945774E+03 -0.67795709989E+03  0.10172072692E+04  0.10100000352E+00 0.  1.
       -3    1    3    3    0  502  0.75016999932E+03  0.11103945774E+03 -0.19277436439E+03  0.78246198299E+03  0.10100000352E+00 0. -1.
</event>
<event>
 5   0  0.4015204E-04  0.1526192E+04  0.7818609E-02  0.8867220E-01
       -1   -1    0    0    0  501  0.00000000000E+00  0.00000000000E+00  0.30322229284E+03  0.30322229288E+03  0.50400001928E-02 0.  1.
        1   -1    0    0  501    0  0.00000000000E+00  0.00000000000E+00 -0.19204232896E+04  0.19204232896E+04  0.50400001928E-02 0. -1.
    10030    2    1    2    0    0  0.00000000000E+00  0.00000000000E+00 -0.16172009968E+04  0.22236455825E+04  0.15261915386E+04 0.  0.
        2    1    3    3  502    0 -0.30570279147E+03  0.41689836791E+03  0.92066295332E+01  0.51705242279E+03  0.25500000920E-02 0.  1.
       -2    1    3    3    0  502  0.30570279147E+03 -0.41689836791E+03 -0.16264076263E+04  0.17065931597E+04  0.25500000920E-02 0. -1.
</event>
<event>
 5   0  0.7547580E-04  0.1484897E+04  0.7818609E-02  0.8894559E-01
       -2   -1    0    0    0  501  0.00000000000E+00  0.00000000000E+00  0.10568876844E+04  0.10568876844E+04  0.25500000920E-02 0.  1.
        2   -1    0    0  501    0  0.00000000000E+00  0.00000000000E+00 -0.52155969255E+03  0.52155969256E+03  0.25500000920E-02 0. -1.
    10030    2    1    2    0    0  0.00000000000E+00  0.00000000000E+00  0.53532799183E+03  0.15784473769E+04  0.14848973240E+04 0.  0.
        4    1    3    3  502    0  0.26303585040E+03  0.63319858629E+03  0.57038626038E+03  0.89189147726E+03  0.12699999809E+01 0.  1.
       -4    1    3    3    0  502 -0.26303585040E+03 -0.63319858629E+03 -0.35058268554E+02  0.68655589967E+03  0.12699999809E+01 0. -1.
</event>
<event>
 5   0  0.4086710E-04  0.1587203E+04  0.7818609E-02  0.8828449E-01
        1   -1    0    0  501    0  0.00000000000E+00  0.00000000000E+00  0.12709150194E+04  0.12709150194E+04  0.50400001928E-02 0.  1.
       -1   -1    0    0    0  501  0.00000000000E+00  0.00000000000E+00 -0.49555100067E+03  0.49555100070E+03  0.50400001928E-02 0. -1.
    10030    2    1    2    0    0  0.00000000000E+00  0.00000000000E+00  0.77536401874E+03  0.17664660201E+04  0.15872028348E+04 0.  0.
        3    1    3    3  502    0 -0.51283666980E+03  0.21374867455E+03  0.10183517190E+04  0.11600561105E+04  0.10100000352E+00 0.  1.
       -3    1    3    3    0  502  0.51283666980E+03 -0.21374867455E+03 -0.24298770028E+03  0.60640990959E+03  0.10100000352E+00 0. -1.
</event>
<event>
 5   0  0.4084462E-04  0.1531850E+04  0.7818609E-02  0.8863545E-01
        1   -1    0    0  501    0  0.00000000000E+00  0.00000000000E+00  0.91092953878E+03  0.91092953880E+03  0.50400001928E-02 0. -1.
       -1   -1    0    0    0  501  0.00000000000E+00  0.00000000000E+00 -0.64400286701E+03  0.64400286703E+03  0.50400001928E-02 0.  1.
    10030    2    1    2    0    0  0.00000000000E+00  0.00000000000E+00  0.26692667178E+03  0.15549324058E+04  0.15318501684E+04 0.  0.
        1    1    3    3  502    0  0.40298203424E+03  0.65108966412E+03  0.11505267420E+03  0.77430574614E+03  0.50400001928E-02 0. -1.
       -1    1    3    3    0  502 -0.40298203424E+03 -0.65108966412E+03  0.15187399758E+03  0.78062665968E+03  0.50400001928E-02 0.  1.
</event>
<event>
 5   0  0.7547580E-04  0.1351358E+04  0.7818609E-02  0.8989801E-01
        2   -1    0    0  501    0  0.00000000000E+00  0.00000000000E+00  0.14549738954E+04  0.14549738954E+04  0.25500000920E-02 0.  1.
       -2   -1    0    0    0  501  0.00000000000E+00  0.00000000000E+00 -0.31378031784E+03  0.31378031785E+03  0.25500000920E-02 0. -1.
    10030    2    1    2    0    0  0.00000000000E+00  0.00000000000E+00  0.11411935776E+04  0.17687542133E+04  0.13513580893E+04 0.  0.
        4    1    3    3  502    0 -0.53253474858E+03  0.29661780283E+03  0.18907659486E+03  0.63822170994E+03  0.12699999809E+01 0. -1.
       -4    1    3    3    0  502  0.53253474858E+03 -0.29661780283E+03  0.95211698271E+03  0.11305325033E+04  0.12699999809E+01 0.  1.
</event>
<event>
 5   0  0.7672251E-04  0.1502676E+04  0.7818609E-02  0.8882675E-01
        2   -1    0    0  501    0  0.00000000000E+00  0.00000000000E+00  0.45676894171E+03  0.45676894172E+03  0.25500000920E-02 0.  1.
       -2   -1    0    0    0  501  0.00000000000E+00  0.00000000000E+00 -0.12358745825E+04  0.12358745825E+04  0.25500000920E-02 0. -1.
    10030    2    1    2    0    0  0.00000000000E+00  0.00000000000E+00 -0.77910564083E+03  0.16926435243E+04  0.15026764458E+04 0.  0.
        5    1    3    3  502    0  0.63797068364E+03  0.10021959417E+03 -0.82206913568E+03  0.10454043783E+04  0.46999998093E+01 0. -1.
       -5    1    3    3    0  502 -0.63797068364E+03 -0.10021959417E+03  0.42963494854E+02  0.64723914601E+03  0.46999998093E+01 0.  1.
</event>
<event>
 5   0  0.4015204E-04  0.1493486E+04  0.7818609E-02  0.8888796E-01
        1   -1    0    0  501    0  0.00000000000E+00  0.00000000000E+00  0.14320948512E+04  0.14320948512E+04  0.50400001928E-02 0.  1.
       -1   -1    0    0    0  501  0.00000000000E+00  0.00000000000E+00 -0.38937747571E+03  0.38937747574E+03  0.50400001928E-02 0. -1.
    10030    2    1    2    0    0  0.00000000000E+00  0.00000000000E+00  0.10427173755E+04  0.18214723269E+04  0.14934864956E+04 0.  0.
        2    1    3    3  502    0 -0.11940412753E+03  0.57273376189E+03  0.10873214237E+04  0.12347263608E+04  0.25500000920E-02 0.  1.
       -2    1    3    3    0  502  0.11940412753E+03 -0.57273376189E+03 -0.44604048171E+02  0.58674596615E+03  0.25500000920E-02 0. -1.
</event>
<event>
 5   0  0.4015204E-04  0.1501507E+04  0.7818609E-02  0.8883451E-01
       -1   -1    0    0    0  501  0.00000000000E+00  0.00000000000E+00  0.73125112917E+03  0.73125112918E+03  0.50400001928E-02 0. -1.
        1   -1    0    0  501    0  0.00000000000E+00  0.00000000000E+00 -0.77077618476E+03  0.77077618477E+03  0.50400001928E-02 0.  1.
    10030    2    1    2    0    0  0.00000000000E+00  0.00000000000E+00 -0.39525055588E+02  0.15020273140E+04  0.15015071834E+04 0.  0.
        2    1    3    3  502    0 -0.42920747814E+03 -0.61333340626E+03 -0.76650750507E+02  0.75251064052E+03  0.25500000920E-02 0.  1.
       -2    1    3    3    0  502  0.42920747814E+03  0.61333340626E+03  0.37125694919E+02  0.74951667344E+03  0.25500000920E-02 0. -1.
</event>
<event>
 5   0  0.4084462E-04  0.1506616E+04  0.7818609E-02  0.8880065E-01
       -1   -1    0    0    0  501  0.00000000000E+00  0.00000000000E+00  0.74441686786E+03  0.74441686787E+03  0.50400001928E-02 0. -1.
        1   -1    0    0  501    0  0.00000000000E+00  0.00000000000E+00 -0.76230577127E+03  0.76230577129E+03  0.50400001928E-02 0.  1.
    10030    2    1    2    0    0  0.00000000000E+00  0.00000000000E+00 -0.17888903416E+02  0.15067226392E+04  0.15066164404E+04 0.  0.
        1    1    3    3  502    0  0.54693712354E+03  0.10033578020E+03 -0.51717884586E+03  0.75939544673E+03  0.50400001928E-02 0.  1.
       -1    1    3    3    0  502 -0.54693712354E+03 -0.10033578020E+03  0.49928994244E+03  0.74732719243E+03  0.50400001928E-02 0. -1.
</event>
<event>
 5   0  0.3907345E-04  0.1507397E+04  0.7818609E-02  0.8879549E-01
       -1   -1    0    0    0  501  0.00000000000E+00  0.00000000000E+00  0.75091295956E+03  0.75091295957E+03  0.50400001928E-02 0.  1.
        1   -1    0    0  501    0  0.00000000000E+00  0.00000000000E+00 -0.75649483861E+03  0.75649483862E+03  0.50400001928E-02 0. -1.
    10030    2    1    2    0    0  0.00000000000E+00  0.00000000000E+00 -0.55818790485E+01  0.15074077982E+04  0.15073974634E+04 0.  0.
        5    1    3    3  502    0  0.60124722634E+03  0.86507610160E+02  0.44337116542E+03  0.75205177622E+03  0.46999998093E+01 0.  1.
       -5    1    3    3    0  502 -0.60124722634E+03 -0.86507610160E+02 -0.44895304447E+03  0.75535602197E+03  0.46999998093E+01 0. -1.
</event>
<event>
 5   0  0.4086710E-04  0.1497774E+04  0.7818609E-02  0.8885935E-01
        1   -1    0    0  501    0  0.00000000000E+00  0.00000000000E+00  0.17121709171E+04  0.17121709171E+04  0.50400001928E-02 0.  1.
       -1   -1    0    0    0  501  0.00000000000E+00  0.00000000000E+00 -0.32755583232E+03  0.32755583236E+03  0.50400001928E-02 0. -1.
    10030    2    1    2    0    0  0.00000000000E+00  0.00000000000E+00  0.13846150848E+04  0.20397267495E+04  0.14977737745E+04 0.  0.
        3    1    3    3  502    0  0.32317480354E+03  0.48546120882E+03  0.52508358014E+02  0.58555245433E+03  0.10100000352E+00 0. -1.
       -3    1    3    3    0  502 -0.32317480354E+03 -0.48546120882E+03  0.13321067268E+04  0.14541742951E+04  0.10100000352E+00 0.  1.
</event>
<event>
 5   0  0.7359897E-04  0.1506154E+04  0.7818609E-02  0.8880371E-01
       -2   -1    0    0    0  501  0.00000000000E+00  0.00000000000E+00  0.90347009269E+03  0.90347009269E+03  0.25500000920E-02 0. -1.
        2   -1    0    0  501    0  0.00000000000E+00  0.00000000000E+00 -0.62771874386E+03  0.62771874387E+03  0.25500000920E-02 0.  1.
    10030    2    1    2    0    0  0.00000000000E+00  0.00000000000E+00  0.27575134883E+03  0.15311888366E+04  0.15061541909E+04 0.  0.
        1    1    3    3  502    0 -0.46252419569E+03  0.51497648296E+03 -0.16369565458E+03  0.71128452602E+03  0.50400001928E-02 0.  1.
       -1    1    3    3    0  502  0.46252419569E+03 -0.51497648296E+03  0.43944700341E+03  0.81990431054E+03  0.50400001928E-02 0. -1.
</event>
<event>
 5   0  0.3907345E-04  0.1501594E+04  0.7818609E-02  0.8883393E-01
        1   -1    0    0  501    0  0.00000000000E+00  0.00000000000E+00  0.13402711013E+04  0.13402711013E+04  0.50400001928E-02 0. -1.
       -1   -1    0    0    0  501  0.00000000000E+00  0.00000000000E+00 -0.42058380253E+03  0.42058380256E+03  0.50400001928E-02 0.  1.
    10030    2    1    2    0    0  0.00000000000E+00  0.00000000000E+00  0.91968729876E+03  0.17608549039E+04  0.15015942411E+04 0.  0.
        5    1    3    3  502    0 -0.25739404447E+03 -0.53507956821E+03  0.99864395832E+03  0.11618406448E+04  0.46999998093E+01 0. -1.
       -5    1    3    3    0  502  0.25739404447E+03  0.53507956821E+03 -0.78956659563E+02  0.59901425904E+03  0.46999998093E+01 0.  1.
</event>
<event>
 5   0  0.4084462E-04  0.1516414E+04  0.7818609E-02  0.8873610E-01
        1   -1    0    0  501    0  0.00000000000E+00  0.00000000000E+00  0.20848364229E+04  0.20848364229E+04  0.50400001928E-02 0. -1.
       -1   -1    0    0    0  501  0.00000000000E+00  0.00000000000E+00 -0.27574256583E+03  0.27574256587E+03  0.50400001928E-02 0.  1.
    10030    2    1    2    0    0  0.00000000000E+00  0.00000000000E+00  0.18090938571E+04  0.23605789888E+04  0.15164143822E+04 0.  0.
        1    1    3    3  502    0  0.42450662304E+03  0.41554233708E+02 -0.71266548245E+02  0.43244831861E+03  0.50400001928E-02 0.  1.
       -1    1    3    3    0  502 -0.42450662304E+03 -0.41554233708E+02  0.18803604053E+04  0.19281306702E+04  0.50400001928E-02 0. -1.
</event>
<event>
 5   0  0.4084462E-04  0.1500722E+04  0.7818609E-02  0.8883973E-01
       -1   -1    0    0    0  501  0.00000000000E+00  0.00000000000E+00  0.74839224631E+03  0.74839224633E+03  0.50400001928E-02 0.  1.
        1   -1    0    0  501    0  0.00000000000E+00  0.00000000000E+00 -0.75233499089E+03  0.75233499091E+03  0.50400001928E-02 0. -1.
    10030    2    1    2    0    0  0.00000000000E+00  0.00000000000E+00 -0.39427445792E+01  0.15007272372E+04  0.15007220580E+04 0.  0.
        1    1    3    3  502    0 -0.66752771385E+03  0.15483188967E+03 -0.30771007805E+03  0.75116686227E+03  0.50400001928E-02 0. -1.
       -1    1    3    3    0  502  0.66752771385E+03 -0.15483188967E+03  0.30376733347E+03  0.74956037497E+03  0.50400001928E-02 0.  1.
</event>
<event>
 5   0  0.4058874E-04  0.1502811E+04  0.7818609E-02  0.8882586E-01
        1   -1    0    0  501    0  0.00000000000E+00  0.00000000000E+00  0.65561518621E+03  0.65561518623E+03  0.50400001928E-02 0.  1.
       -1   -1    0    0    0  501  0.00000000000E+00  0.00000000000E+00 -0.86119155982E+03  0.86119155984E+03  0.50400001928E-02 0. -1.
    10030    2    1    2    0    0  0.00000000000E+00  0.00000000000E+00 -0.20557637361E+03  0.15168067461E+04  0.15028110525E+04 0.  0.
        4    1    3    3  502    0  0.27292655036E+03 -0.37836228624E+03  0.49173207268E+03  0.67782664874E+03  0.12699999809E+01 0.  1.
       -4    1    3    3    0  502 -0.27292655036E+03  0.37836228624E+03 -0.69730844629E+03  0.83898009733E+03  0.12699999809E+01 0. -1.
</event>
<event>
 5   0  0.4086710E-04  0.1507896E+04  0.7818609E-02  0.8879219E-01
       -1   -1    0    0    0  501  0.00000000000E+00  0.00000000000E+00  0.46418219884E+03  0.46418219887E+03  0.50400001928E-02 0. -1.
        1   -1    0    0  501    0  0.00000000000E+00  0.00000000000E+00 -0.12245998510E+04  0.12245998510E+04  0.50400001928E-02 0.  1.
    10030    2    1    2    0    0  0.00000000000E+00  0.00000000000E+00 -0.76041765214E+03  0.16887820499E+04  0.15078958208E+04 0.  0.
        3    1    3    3  502    0  0.52358794717E+03  0.48688129001E+03 -0.64815711499E+03  0.96504164931E+03  0.10100000352E+00 0.  1.
       -3    1    3    3    0  502 -0.52358794717E+03 -0.48688129001E+03 -0.11226053715E+03  0.72374040055E+03  0.10100000352E+00 0. -1.
</event>
<event>
 5   0  0.7359897E-04  0.1497634E+04  0.7818609E-02  0.8886028E-01
        2   -1    0    0  501    0  0.00000000000E+00  0.00000000000E+00  0.13563548052E+04  0.13563548052E+04  0.25500000920E-02 0. -1.
       -2   -1    0    0    0  501  0.00000000000E+00  0.00000000000E+00 -0.41340705582E+03  0.41340705582E+03  0.25500000920E-02 0.  1.
    10030    2    1    2    0    0  0.00000000000E+00  0.00000000000E+00  0.94294774934E+03  0.17697618610E+04  0.14976336624E+04 0.  0.
        1    1    3    3  502    0 -0.54088465481E+03  0.21704142667E+03  0.10270808841E+04  0.11809141938E+04  0.50400001928E-02 0. -1.
       -1    1    3    3    0  502  0.54088465481E+03 -0.21704142667E+03 -0.84133134772E+02  0.58884766714E+03  0.50400001928E-02 0.  1.
</event>
<event>
 5   0  0.7454828E-04  0.1490987E+04  0.7818609E-02  0.8890469E-01
        2   -1    0    0  501    0  0.00000000000E+00  0.00000000000E+00  0.52418619293E+03  0.52418619294E+03  0.25500000920E-02 0. -1.
       -2   -1    0    0    0  501  0.00000000000E+00  0.00000000000E+00 -0.10602348628E+04  0.10602348628E+04  0.25500000920E-02 0.  1.
    10030    2    1    2    0    0  0.00000000000E+00  0.00000000000E+00 -0.53604866986E+03  0.15844210557E+04  0.14909868897E+04 0.  0.
        3    1    3    3  502    0 -0.10316743357E+03  0.22272238993E+03  0.48001378521E+03  0.53913080650E+03  0.10100000352E+00 0. -1.
       -3    1    3    3    0  502  0.10316743357E+03 -0.22272238993E+03 -0.10160624551E+04  0.10452902492E+04  0.10100000352E+00 0.  1.
</event>
<event>
 5   0  0.4086710E-04  0.1529201E+04  0.7818609E-02  0.8865263E-01
        1   -1    0    0  501    0  0.00000000000E+00  0.00000000000E+00  0.82802341122E+03  0.82802341123E+03  0.50400001928E-02 0.  1.
       -1   -1    0    0    0  501  0.00000000000E+00  0.00000000000E+00 -0.70603579779E+03  0.70603579781E+03  0.50400001928E-02 0. -1.
    10030    2    1    2    0    0  0.00000000000E+00  0.00000000000E+00  0.12198761343E+03  0.15340592090E+04  0.15292013206E+04 0.  0.
        3    1    3    3  502    0  0.42578142383E+03 -0.28273572926E+03  0.63146969087E+03  0.81239355867E+03  0.10100000352E+00 0.  1.
       -3    1    3    3    0  502 -0.42578142383E+03  0.28273572926E+03 -0.50948207745E+03  0.72166565037E+03  0.10100000352E+00 0. -1.
</event>
<event>
 5   0  0.2800375E-04  0.1495766E+04  0.7818609E-02  0.8887273E-01
       -4   -1    0    0    0  501  0.00000000000E+00  0.00000000000E+00  0.57495853305E+03  0.57495993567E+03  0.12699999809E+01 0.  1.
        4   -1    0    0  501    0  0.00000000000E+00  0.00000000000E+00 -0.97281325588E+03  0.97281408486E+03  0.12699999809E+01 0. -1.
    10030    2    1    2    0    0  0.00000000000E+00  0.00000000000E+00 -0.39785472283E+03  0.15477740205E+04  0.14957660372E+04 0.  0.
        4    1    3    3  502    0  0.27584591146E+03  0.23179824933E+03 -0.87708163517E+03  0.94820630820E+03  0.12699999809E+01 0. -1.
       -4    1    3    3    0  502 -0.27584591146E+03 -0.23179824933E+03  0.47922691234E+03  0.59956771234E+03  0.12699999809E+01 0.  1.
</event>
<event>
 5   0  0.4058874E-04  0.1501136E+04  0.7818609E-02  0.8883698E-01
        1   -1    0    0  501    0  0.00000000000E+00  0.00000000000E+00  0.68237312909E+03  0.68237312910E+03  0.50400001928E-02 0.  1.
       -1   -1    0    0    0  501  0.00000000000E+00  0.00000000000E+00 -0.82557774450E+03  0.82557774452E+03  0.50400001928E-02 0. -1.
    10030    2    1    2    0    0  0.00000000000E+00  0.00000000000E+00 -0.14320461542E+03  0.15079508736E+04  0.15011356619E+04 0.  0.
        4    1    3    3  502    0  0.36962674987E+03  0.38659197653E+03  0.45735566936E+03  0.70374221967E+03  0.12699999809E+01 0.  1.
       -4    1    3    3    0  502 -0.36962674987E+03 -0.38659197653E+03 -0.60056028478E+03  0.80420865396E+03  0.12699999809E+01 0. -1.
</event>
<event>
 5   0  0.4015204E-04  0.1498487E+04  0.7818609E-02  0.8885460E-01
       -1   -1    0    0    0  501  0.00000000000E+00  0.00000000000E+00  0.54753584108E+03  0.54753584110E+03  0.50400001928E-02 0.  1.
        1   -1    0    0  501    0  0.00000000000E+00  0.00000000000E+00 -0.10252585863E+04  0.10252585863E+04  0.50400001928E-02 0. -1.
    10030    2    1    2    0    0  0.00000000000E+00  0.00000000000E+00 -0.47772274522E+03  0.15727944274E+04  0.14984870001E+04 0.  0.
        2    1    3    3  502    0 -0.74657149401E+03  0.60602082042E+02 -0.25776021100E+03  0.79213757290E+03  0.25500000920E-02 0.  1.
       -2    1    3    3    0  502  0.74657149401E+03 -0.60602082042E+02 -0.21996253422E+03  0.78065685451E+03  0.25500000920E-02 0. -1.
</event>
<event>
 5   0  0.4084462E-04  0.1500787E+04  0.7818609E-02  0.8883930E-01
        1   -1    0    0  501    0  0.00000000000E+00  0.00000000000E+00  0.52307118426E+03  0.52307118428E+03  0.50400001928E-02 0. -1.
       -1   -1    0    0    0  501  0.00000000000E+00  0.00000000000E+00 -0.10765081830E+04  0.10765081830E+04  0.50400001928E-02 0.  1.
    10030    2    1    2    0    0  0.00000000000E+00  0.00000000000E+00 -0.55343699877E+03  0.15995793673E+04  0.15007870071E+04 0.  0.
        1    1    3    3  502    0  0.19130432050E+03 -0.70279980622E+03 -0.46905672464E+03  0.86633660988E+03  0.50400001928E-02 0. -1.
       -1    1    3    3    0  502 -0.19130432050E+03  0.70279980622E+03 -0.84380274131E+02  0.73324275745E+03  0.50400001928E-02 0.  1.
</event>
<event>
 5   0  0.3907345E-04  0.1502014E+04  0.7818609E-02  0.8883115E-01
       -1   -1    0    0    0  501  0.00000000000E+00  0.00000000000E+00  0.96173321520E+03  0.96173321521E+03  0.50400001928E-02 0. -1.
        1   -1    0    0  501    0  0.00000000000E+00  0.00000000000E+00 -0.58645288331E+03  0.58645288333E+03  0.50400001928E-02 0.  1.
    10030    2    1    2    0    0  0.00000000000E+00  0.00000000000E+00  0.37528033189E+03  0.15481860985E+04  0.15020136045E+04 0.  0.
        5    1    3    3  502    0 -0.64841007296E+03 -0.14228242061E+03  0.54958890455E+03  0.86182942856E+03  0.46999998093E+01 0. -1.
       -5    1    3    3    0  502  0.64841007296E+03  0.14228242061E+03 -0.17430857266E+03  0.68635666998E+03  0.46999998093E+01 0.  1.
</event>
<event>
 5   0  0.7672251E-04  0.1478798E+04  0.7818609E-02  0.8898676E-01
       -2   -1    0    0    0  501  0.00000000000E+00  0.00000000000E+00  0.39046803521E+03  0.39046803522E+03  0.25500000920E-02 0.  1.
        2   -1    0    0  501    0  0.00000000000E+00  0.00000000000E+00 -0.14001426629E+04  0.14001426629E+04  0.25500000920E-02 0. -1.
    10030    2    1    2    0    0  0.00000000000E+00  0.00000000000E+00 -0.10096746277E+04  0.17906106981E+04  0.14787980993E+04 0.  0.
        5    1    3    3  502    0 -0.54129288905E+03  0.33189989945E+02  0.10371758617E+03  0.55215848708E+03  0.46999998093E+01 0.  1.
       -5    1    3    3    0  502  0.54129288905E+03 -0.33189989945E+02 -0.11133922138E+04  0.12384522110E+04  0.46999998093E+01 0. -1.
</event>
<event>
 5   0  0.7547580E-04  0.1562919E+04  0.7818609E-02  0.8843658E-01
       -2   -1    0    0    0  501  0.00000000000E+00  0.00000000000E+00  0.18581559302E+03  0.18581559304E+03  0.25500000920E-02 0. -1.
        2   -1    0    0  501    0  0.00000000000E+00  0.00000000000E+00 -0.32864781204E+04  0.32864781204E+04  0.25500000920E-02 0.  1.
    10030    2    1    2    0    0  0.00000000000E+00  0.00000000000E+00 -0.31006625274E+04  0.34722937134E+04  0.15629189114E+04 0.  0.
        4    1    3    3  502    0 -0.55616709070E+03  0.89250178090E+02 -0.34695194424E+03  0.66156231118E+03  0.12699999809E+01 0. -1.
       -4    1    3    3    0  502  0.55616709070E+03 -0.89250178090E+02 -0.27537105831E+04  0.28107314022E+04  0.12699999809E+01 0.  1.
</event>
<event>
 5   0  0.3907345E-04  0.1477976E+04  0.7818609E-02  0.8899232E-01
        1   -1    0    0  501    0  0.00000000000E+00  0.00000000000E+00  0.89093668434E+03  0.89093668436E+03  0.50400001928E-02 0.  1.
       -1   -1    0    0    0  501  0.00000000000E+00  0.00000000000E+00 -0.61295428732E+03  0.61295428734E+03  0.50400001928E-02 0. -1.
    10030    2    1    2    0    0  0.00000000000E+00  0.00000000000E+00  0.27798239702E+03  0.15038909717E+04  0.14779762656E+04 0.  0.
        5    1    3    3  502    0  0.40687382663E+03 -0.23846534455E+03 -0.43990363384E+03  0.64494133718E+03  0.46999998093E+01 0. -1.
       -5    1    3    3    0  502 -0.40687382663E+03  0.23846534455E+03  0.71788603086E+03  0.85894963452E+03  0.46999998093E+01 0.  1.
</event>
<event>
 5   0  0.2800375E-04  0.1495597E+04  0.7818609E-02  0.8887386E-01
        3   -1    0    0  501    0  0.00000000000E+00  0.00000000000E+00  0.14977994731E+04  0.14977994765E+04  0.10100000352E+00 0. -1.
       -3   -1    0    0    0  501  0.00000000000E+00  0.00000000000E+00 -0.37334940720E+03  0.37334942086E+03  0.10100000352E+00 0.  1.
    10030    2    1    2    0    0  0.00000000000E+00  0.00000000000E+00  0.11244500659E+04  0.18711488973E+04  0.14955969528E+04 0.  0.
        4    1    3    3  502    0 -0.40841047832E+03 -0.31611471245E+03  0.12388326810E+04  0.13421757167E+04  0.12699999809E+01 0. -1.
       -4    1    3    3    0  502  0.40841047832E+03  0.31611471245E+03 -0.11438261513E+03  0.52897318058E+03  0.12699999809E+01 0.  1.
</event>
<event>
 5   0  0.7359897E-04  0.1526168E+04  0.7818609E-02  0.8867236E-01
        2   -1    0    0  501    0  0.00000000000E+00  0.00000000000E+00  0.10743272066E+04  0.10743272067E+04  0.25500000920E-02 0. -1.
       -2   -1    0    0    0  501  0.00000000000E+00  0.00000000000E+00 -0.54201082443E+03  0.54201082443E+03  0.25500000920E-02 0.  1.
    10030    2    1    2    0    0  0.00000000000E+00  0.00000000000E+00  0.53231638222E+03  0.16163380311E+04  0.15261677168E+04 0.  0.
        1    1    3    3  502    0 -0.11441291659E+03 -0.51158840324E+03 -0.32111633814E+03  0.61475906863E+03  0.50400001928E-02 0.  1.
       -1    1    3    3    0  502  0.11441291659E+03  0.51158840324E+03  0.85343272037E+03  0.10015789625E+04  0.50400001928E-02 0. -1.
</event>
<event>
 5   0  0.7547580E-04  0.1547332E+04  0.7818609E-02  0.8853574E-01
       -2   -1    0    0    0  501  0.00000000000E+00  0.00000000000E+00  0.74333383081E+03  0.74333383081E+03  0.25500000920E-02 0. -1.
        2   -1    0    0  501    0  0.00000000000E+00  0.00000000000E+00 -0.80523561122E+03  0.80523561122E+03  0.25500000920E-02 0.  1.
    10030    2    1    2    0    0  0.00000000000E+00  0.00000000000E+00 -0.61901780412E+02  0.15485694420E+04  0.15473317312E+04 0.  0.
        4    1    3    3  502    0 -0.17216287980E+03 -0.35588751766E+03 -0.69651012044E+03  0.80088947002E+03  0.12699999809E+01 0.  1.
       -4    1    3    3    0  502  0.17216287980E+03  0.35588751766E+03  0.63460834003E+03  0.74767997201E+03  0.12699999809E+01 0. -1.
</event>
<event>
 5   0  0.7547580E-04  0.1461719E+04  0.7818609E-02  0.8910316E-01
       -2   -1    0    0    0  501  0.00000000000E+00  0.00000000000E+00  0.42575018396E+03  0.42575018397E+03  0.25500000920E-02 0.  1.
        2   -1    0    0  501    0  0.00000000000E+00  0.00000000000E+00 -0.12546221898E+04  0.12546221898E+04  0.25500000920E-02 0. -1.
    10030    2    1    2    0    0  0.00000000000E+00  0.00000000000E+00 -0.82887200584E+03  0.16803723738E+04  0.14617190265E+04 0.  0.
        4    1    3    3  502    0  0.44258289410E+03  0.55922825870E+03 -0.59814751188E+03  0.93080498621E+03  0.12699999809E+01 0. -1.
       -4    1    3    3    0  502 -0.44258289410E+03 -0.55922825870E+03 -0.23072449395E+03  0.74956738756E+03  0.12699999809E+01 0.  1.
</event>
<event>
 5   0  0.4058874E-04  0.1477746E+04  0.7818609E-02  0.8899388E-01
       -1   -1    0    0    0  501  0.00000000000E+00  0.00000000000E+00  0.26408565692E+03  0.26408565696E+03  0.50400001928E-02 0.  1.
        1   -1    0    0  501    0  0.00000000000E+00  0.00000000000E+00 -0.20672592130E+04  0.20672592130E+04  0.50400001928E-02 0. -1.
    10030    2    1    2    0    0  0.00000000000E+00  0.00000000000E+00 -0.18031735561E+04  0.23313448699E+04  0.14777462669E+04 0.  0.
        4    1    3    3  502    0 -0.48728405028E+03 -0.40189920545E+01 -0.17778066849E+04  0.18433827925E+04  0.12699999809E+01 0. -1.
       -4    1    3    3    0  502  0.48728405028E+03  0.40189920545E+01 -0.25366871156E+02  0.48796207743E+03  0.12699999809E+01 0.  1.
</event>
<event>
 5   0  0.4086710E-04  0.1494235E+04  0.7818609E-02  0.8888296E-01
        1   -1    0    0  501    0  0.00000000000E+00  0.00000000000E+00  0.10053828377E+04  0.10053828377E+04  0.50400001928E-02 0.  1.
       -1   -1    0    0    0  501  0.00000000000E+00  0.00000000000E+00 -0.55519573734E+03  0.55519573736E+03  0.50400001928E-02 0. -1.
    10030    2    1    2    0    0  0.00000000000E+00  0.00000000000E+00  0.45018710038E+03  0.15605785751E+04  0.14942346080E+04 0.  0.
        3    1    3    3  502    0 -0.22856031388E+02 -0.25784672940E+03 -0.50686388361E+03  0.56913824396E+03  0.10100000352E+00 0. -1.
       -3    1    3    3    0  502  0.22856031388E+02  0.25784672940E+03  0.95705098399E+03  0.99144033113E+03  0.10100000352E+00 0.  1.
</event>
<event>
 5   0  0.4086710E-04  0.1500980E+04  0.7818609E-02  0.8883801E-01
        1   -1    0    0  501    0  0.00000000000E+00  0.00000000000E+00  0.10134796815E+04  0.10134796815E+04  0.50400001928E-02 0.  1.
       -1   -1    0    0    0  501  0.00000000000E+00  0.00000000000E+00 -0.55574426868E+03  0.55574426871E+03  0.50400001928E-02 0. -1.
    10030    2    1    2    0    0  0.00000000000E+00  0.00000000000E+00  0.45773541284E+03  0.15692239502E+04  0.15009803789E+04 0.  0.
        3    1    3    3  502    0 -0.71917467142E+03 -0.21344054559E+03  0.25144686185E+03  0.79119821097E+03  0.10100000352E+00 0. -1.
       -3    1    3    3    0  502  0.71917467142E+03  0.21344054559E+03  0.20628855099E+03  0.77802573928E+03  0.10100000352E+00 0.  1.
</event>
<event>
 5   0  0.7359897E-04  0.1484402E+04  0.7818609E-02  0.8894892E-01
        2   -1    0    0  501    0  0.00000000000E+00  0.00000000000E+00  0.14363183177E+04  0.14363183177E+04  0.25500000920E-02 0. -1.
       -2   -1    0    0    0  501  0.00000000000E+00  0.00000000000E+00 -0.38352409712E+03  0.38352409713E+03  0.25500000920E-02 0.  1.
    10030    2    1    2    0    0  0.00000000000E+00  0.00000000000E+00  0.10527942206E+04  0.18198424148E+04  0.14844024872E+04 0.  0.
        1    1    3    3  502    0  0.20730133557E+03  0.28608838014E+02 -0.34660688100E+03  0.40488101873E+03  0.50400001928E-02 0.  1.
       -1    1    3    3    0  502 -0.20730133557E+03 -0.28608838014E+02  0.13994011016E+04  0.14149613961E+04  0.50400001928E-02 0. -1.
</event>
<event>
 5   0  0.4058874E-04  0.1343777E+04  0.7818609E-02  0.8995552E-01
       -1   -1    0    0    0  501  0.00000000000E+00  0.00000000000E+00  0.38537634886E+03  0.38537634889E+03  0.50400001928E-02 0. -1.
        1   -1    0    0  501    0  0.00000000000E+00  0.00000000000E+00 -0.11714110667E+04  0.11714110667E+04  0.50400001928E-02 0.  1.
    10030    2    1    2    0    0  0.00000000000E+00  0.00000000000E+00 -0.78603471786E+03  0.15567874156E+04  0.13437769457E+04 0.  0.
        4    1    3    3  502    0  0.11511448672E+03  0.16180909123E+03  0.35060115996E+03  0.40293462661E+03  0.12699999809E+01 0. -1.
       -4    1    3    3    0  502 -0.11511448672E+03 -0.16180909123E+03 -0.11366358778E+04  0.11538527890E+04  0.12699999809E+01 0.  1.
</event>
<event>
 5   0  0.7359897E-04  0.1500345E+04  0.7818609E-02  0.8884223E-01
       -2   -1    0    0    0  501  0.00000000000E+00  0.00000000000E+00  0.21335209467E+03  0.21335209469E+03  0.25500000920E-02 0.  1.
        2   -1    0    0  501    0  0.00000000000E+00  0.00000000000E+00 -0.26377006413E+04  0.26377006413E+04  0.25500000920E-02 0. -1.
    10030    2    1    2    0    0  0.00000000000E+00  0.00000000000E+00 -0.24243485467E+04  0.28510527360E+04  0.15003452362E+04 0.  0.
        1    1    3    3  502    0  0.10806143551E+00 -0.67946195461E+03 -0.18163579657E+04  0.19392846153E+04  0.50400001928E-02 0.  1.
       -1    1    3    3    0  502 -0.10806143551E+00  0.67946195461E+03 -0.60799058093E+03  0.91176812072E+03  0.50400001928E-02 0. -1.
</event>
<event>
 5   0  0.3907345E-04  0.1502431E+04  0.7818609E-02  0.8882838E-01
        1   -1    0    0  501    0  0.00000000000E+00  0.00000000000E+00  0.16880092658E+04  0.16880092658E+04  0.50400001928E-02 0.  1.
       -1   -1    0    0    0  501  0.00000000000E+00  0.00000000000E+00 -0.33431388406E+03  0.33431388409E+03  0.50400001928E-02 0. -1.
    10030    2    1    2    0    0  0.00000000000E+00  0.00000000000E+00  0.13536953817E+04  0.20223231499E+04  0.15024312750E+04 0.  0.
        5    1    3    3  502    0 -0.71226433290E+03  0.70397002295E+02  0.36982620465E+03  0.80564863899E+03  0.46999998093E+01 0. -1.
       -5    1    3    3    0  502  0.71226433290E+03 -0.70397002295E+02  0.98386917706E+03  0.12166745109E+04  0.46999998093E+01 0.  1.
</event>
<event>
 5   0  0.7454828E-04  0.1499385E+04  0.7818609E-02  0.8884862E-01
       -2   -1    0    0    0  501  0.00000000000E+00  0.00000000000E+00  0.16008728833E+04  0.16008728833E+04  0.25500000920E-02 0. -1.
        2   -1    0    0  501    0  0.00000000000E+00  0.00000000000E+00 -0.35108255290E+03  0.35108255291E+03  0.25500000920E-02 0.  1.
    10030    2    1    2    0    0  0.00000000000E+00  0.00000000000E+00  0.12497903304E+04  0.19519554362E+04  0.14993845921E+04 0.  0.
        3    1    3    3  502    0  0.60830365409E+03 -0.18766456064E+03  0.10941475591E+03  0.64592795411E+03  0.10100000352E+00 0.  1.
       -3    1    3    3    0  502 -0.60830365409E+03  0.18766456064E+03  0.11403755745E+04  0.13060274821E+04  0.10100000352E+00 0. -1.
</event>
<event>
 5   0  0.7359897E-04  0.1502093E+04  0.7818609E-02  0.8883062E-01
       -2   -1    0    0    0  501  0.00000000000E+00  0.00000000000E+00  0.54301778558E+03  0.54301778559E+03  0.25500000920E-02 0. -1.
        2   -1    0    0  501    0  0.00000000000E+00  0.00000000000E+00 -0.10387707636E+04  0.10387707636E+04  0.25500000920E-02 0.  1.
    10030    2    1    2    0    0  0.00000000000E+00  0.00000000000E+00 -0.49575297800E+03  0.15817885492E+04  0.15020932059E+04 0.  0.
        1    1    3    3  502    0  0.56581559839E+03  0.28596293466E+03 -0.67191818237E+03  0.92379442258E+03  0.50400001928E-02 0.  1.
       -1    1    3    3    0  502 -0.56581559839E+03 -0.28596293466E+03  0.17616520436E+03  0.65799412659E+03  0.50400001928E-02 0. -1.
</event>
<event>
 5   0  0.3907345E-04  0.1504024E+04  0.7818609E-02  0.8881781E-01
       -1   -1    0    0    0  501  0.00000000000E+00  0.00000000000E+00  0.47630245654E+03  0.47630245657E+03  0.50400001928E-02 0.  1.
        1   -1    0    0  501    0  0.00000000000E+00  0.00000000000E+00 -0.11873170239E+04  0.11873170239E+04  0.50400001928E-02 0. -1.
    10030    2    1    2    0    0  0.00000000000E+00  0.00000000000E+00 -0.71101456738E+03  0.16636194805E+04  0.15040239562E+04 0.  0.
        5    1    3    3  502    0 -0.15995068126E+03  0.25349521943E+03  0.40735418135E+03  0.50577026976E+03  0.46999998093E+01 0.  1.
       -5    1    3    3    0  502  0.15995068126E+03 -0.25349521943E+03 -0.11183687487E+04  0.11578492108E+04  0.46999998093E+01 0. -1.
</event>
<event>
 5   0  0.4015204E-04  0.1514204E+04  0.7818609E-02  0.8875062E-01
        1   -1    0    0  501    0  0.00000000000E+00  0.00000000000E+00  0.92772756617E+03  0.92772756618E+03  0.50400001928E-02 0.  1.
       -1   -1    0    0    0  501  0.00000000000E+00  0.00000000000E+00 -0.61785711025E+03  0.61785711028E+03  0.50400001928E-02 0. -1.
    10030    2    1    2    0    0  0.00000000000E+00  0.00000000000E+00  0.30987045591E+03  0.15455846765E+04  0.15142035176E+04 0.  0.
        2    1    3    3  502    0  0.52273525998E+03 -0.73914030936E+01 -0.40404197722E+03  0.66072437841E+03  0.25500000920E-02 0. -1.
       -2    1    3    3    0  502 -0.52273525998E+03  0.73914030936E+01  0.71391243313E+03  0.88486029804E+03  0.25500000920E-02 0.  1.
</event>
<event>
 5   0  0.7634227E-04  0.1499773E+04  0.7818609E-02  0.8884604E-01
        2   -1    0    0  501    0  0.00000000000E+00  0.00000000000E+00  0.11901328413E+04  0.11901328413E+04  0.25500000920E-02 0. -1.
       -2   -1    0    0    0  501  0.00000000000E+00  0.00000000000E+00 -0.47249329847E+03  0.47249329848E+03  0.25500000920E-02 0.  1.
    10030    2    1    2    0    0  0.00000000000E+00  0.00000000000E+00  0.71763954283E+03  0.16626261398E+04  0.14997730386E+04 0.  0.
        2    1    3    3  502    0 -0.48496761421E+03  0.94240350223E+02 -0.26657846687E+03  0.56137234475E+03  0.25500000920E-02 0.  1.
       -2    1    3    3    0  502  0.48496761421E+03 -0.94240350223E+02  0.98421800971E+03  0.11012537950E+04  0.25500000920E-02 0. -1.
</event>
<event>
 5   0  0.7634227E-04  0.1500986E+04  0.7818609E-02  0.8883798E-01
       -2   -1    0    0    0  501  0.00000000000E+00  0.00000000000E+00  0.67274271984E+03  0.67274271984E+03  0.25500000920E-02 0. -1.
        2   -1    0    0  501    0  0.00000000000E+00  0.00000000000E+00 -0.83722890330E+03  0.83722890331E+03  0.25500000920E-02 0.  1.
    10030    2    1    2    0    0  0.00000000000E+00  0.00000000000E+00 -0.16448618346E+03  0.15099716232E+04  0.15009858754E+04 0.  0.
        2    1    3    3  502    0 -0.37106560162E+03  0.52298713909E+03  0.31000708031E+03  0.71225670808E+03  0.25500000920E-02 0. -1.
       -2    1    3    3    0  502  0.37106560162E+03 -0.52298713909E+03 -0.47449326377E+03  0.79771491507E+03  0.25500000920E-02 0.  1.
</event>
<event>
 5   0  0.4086710E-04  0.1536819E+04  0.7818609E-02  0.8860332E-01
        1   -1    0    0  501    0  0.00000000000E+00  0.00000000000E+00  0.16640721553E+04  0.16640721553E+04  0.50400001928E-02 0. -1.
       -1   -1    0    0    0  501  0.00000000000E+00  0.00000000000E+00 -0.35482403768E+03  0.35482403771E+03  0.50400001928E-02 0.  1.
    10030    2    1    2    0    0  0.00000000000E+00  0.00000000000E+00  0.13092481177E+04  0.20188961931E+04  0.15368185334E+04 0.  0.
        3    1    3    3  502    0  0.76508776279E+03  0.58184794931E+02  0.60033155245E+03  0.97423956920E+03  0.10100000352E+00 0.  1.
       -3    1    3    3    0  502 -0.76508776279E+03 -0.58184794931E+02  0.70891656521E+03  0.10446566239E+04  0.10100000352E+00 0. -1.
</event>
<event>
 5   0  0.4015204E-04  0.1496915E+04  0.7818609E-02  0.8886507E-01
        1   -1    0    0  501    0  0.00000000000E+00  0.00000000000E+00  0.12495351328E+04  0.12495351328E+04  0.50400001928E-02 0. -1.
       -1   -1    0    0    0  501  0.00000000000E+00  0.00000000000E+00 -0.44831771503E+03  0.44831771505E+03  0.50400001928E-02 0.  1.
    10030    2    1    2    0    0  0.00000000000E+00  0.00000000000E+00  0.80121741775E+03  0.16978528478E+04  0.14969151420E+04 0.  0.
        2    1    3    3  502    0 -0.21293106985E+03  0.23199736746E+03 -0.36952427535E+03  0.48550036982E+03  0.25500000920E-02 0.  1.
       -2    1    3    3    0  502  0.21293106985E+03 -0.23199736746E+03  0.11707416931E+04  0.12123524780E+04  0.25500000920E-02 0. -1.
</event>
<event>
 5   0  0.7359897E-04  0.1494580E+04  0.7818609E-02  0.8888065E-01
       -2   -1    0    0    0  501  0.00000000000E+00  0.00000000000E+00  0.79824919089E+03  0.79824919089E+03  0.25500000920E-02 0. -1.
        2   -1    0    0  501    0  0.00000000000E+00  0.00000000000E+00 -0.69958422752E+03  0.69958422753E+03  0.25500000920E-02 0.  1.
    10030    2    1    2    0    0  0.00000000000E+00  0.00000000000E+00  0.98664963366E+02  0.14978334184E+04  0.14945802669E+04 0.  0.
        1    1    3    3  502    0  0.72402244765E+03 -0.17403955921E+02 -0.13527253764E+03  0.73675644677E+03  0.50400001928E-02 0.  1.
       -1    1    3    3    0  502 -0.72402244765E+03  0.17403955921E+02  0.23393750100E+03  0.76107697166E+03  0.50400001928E-02 0. -1.
</event>
<event>
 5   0  0.4058874E-04  0.1497188E+04  0.7818609E-02  0.8886325E-01
       -1   -1    0    0    0  501  0.00000000000E+00  0.00000000000E+00  0.78921408958E+03  0.78921408960E+03  0.50400001928E-02 0.  1.
        1   -1    0    0  501    0  0.00000000000E+00  0.00000000000E+00 -0.71006434256E+03  0.71006434257E+03  0.50400001928E-02 0. -1.
    10030    2    1    2    0    0  0.00000000000E+00  0.00000000000E+00  0.79149747027E+02  0.14992784322E+04  0.14971877420E+04 0.  0.
        4    1    3    3  502    0  0.99782962002E+02  0.70213591816E+03  0.27957532055E+03  0.76230929408E+03  0.12699999809E+01 0.  1.
       -4    1    3    3    0  502 -0.99782962002E+02 -0.70213591816E+03 -0.20042557352E+03  0.73696913809E+03  0.12699999809E+01 0. -1.
</event>
<event>
 5   0  0.7359897E-04  0.1510557E+04  0.7818609E-02  0.8877463E-01
       -2   -1    0    0    0  501  0.00000000000E+00  0.00000000000E+00  0.40487343334E+03  0.40487343335E+03  0.25500000920E-02 0. -1.
        2   -1    0    0  501    0  0.00000000000E+00  0.00000000000E+00 -0.14089472666E+04  0.14089472666E+04  0.25500000920E-02 0.  1.
    10030    2    1    2    0    0  0.00000000000E+00  0.00000000000E+00 -0.10040738333E+04  0.18138207000E+04  0.15105566090E+04 0.  0.
        1    1    3    3  502    0  0.49807434306E+03 -0.45656142258E+03 -0.96756794211E+02  0.68256007871E+03  0.50400001928E-02 0. -1.
       -1    1    3    3    0  502 -0.49807434306E+03  0.45656142258E+03 -0.90731703908E+03  0.11312606213E+04  0.50400001928E-02 0.  1.
</event>
<event>
 5   0  0.4084462E-04  0.1501892E+04  0.7818609E-02  0.8883196E-01
       -1   -1    0    0    0  501  0.00000000000E+00  0.00000000000E+00  0.97580745074E+03  0.97580745076E+03  0.50400001928E-02 0. -1.
        1   -1    0    0  501    0  0.00000000000E+00  0.00000000000E+00 -0.57790063044E+03  0.57790063047E+03  0.50400001928E-02 0.  1.
    10030    2    1    2    0    0  0.00000000000E+00  0.00000000000E+00  0.39790682030E+03  0.15537080812E+04  0.15018917950E+04 0.  0.
        1    1    3    3  502    0  0.21859803477E+03  0.65463828953E+03 -0.10720173070E+03  0.69844727934E+03  0.50400001928E-02 0.  1.
       -1    1    3    3    0  502 -0.21859803477E+03 -0.65463828953E+03  0.50510855099E+03  0.85526080188E+03  0.50400001928E-02 0. -1.
</event>
<event>
 5   0  0.7547580E-04  0.1495279E+04  0.7818609E-02  0.8887598E-01
       -2   -1    0    0    0  501  0.00000000000E+00  0.00000000000E+00  0.30574272002E+03  0.30574272003E+03  0.25500000920E-02 0.  1.
        2   -1    0    0  501    0  0.00000000000E+00  0.00000000000E+00 -0.18282193481E+04  0.18282193481E+04  0.25500000920E-02 0. -1.
    10030    2    1    2    0    0  0.00000000000E+00  0.00000000000E+00 -0.15224766281E+04  0.21339620681E+04  0.14952789122E+04 0.  0.
        4    1    3    3  502    0 -0.42695527637E+03 -0.20548376082E+03  0.64094821553E+02  0.47814657065E+03  0.12699999809E+01 0.  1.
       -4    1    3    3    0  502  0.42695527637E+03  0.20548376082E+03 -0.15865714496E+04  0.16558154975E+04  0.12699999809E+01 0. -1.
</event>
<event>
 5   0  0.2800375E-04  0.1504062E+04  0.7818609E-02  0.8881756E-01
        3   -1    0    0  501    0  0.00000000000E+00  0.00000000000E+00  0.43907173091E+03  0.43907174253E+03  0.10100000352E+00 0. -1.
       -3   -1    0    0    0  501  0.00000000000E+00  0.00000000000E+00 -0.12880599169E+04  0.12880599209E+04  0.10100000352E+00 0.  1.
    10030    2    1    2    0    0  0.00000000000E+00  0.00000000000E+00 -0.84898818604E+03  0.17271316634E+04  0.15040621140E+04 0.  0.
        2    1    3    3  502    0  0.19976715569E+03  0.23184325299E+03  0.36433189820E+03  0.47581082638E+03  0.25500000920E-02 0. -1.
       -2    1    3    3    0  502 -0.19976715569E+03 -0.23184325299E+03 -0.12133200842E+04  0.12513208371E+04  0.25500000920E-02 0.  1.
</event>
<event>
 5   0  0.7454828E-04  0.1502072E+04  0.7818609E-02  0.8883076E-01
        2   -1    0    0  501    0  0.00000000000E+00  0.00000000000E+00  0.13925392710E+04  0.13925392710E+04  0.25500000920E-02 0.  1.
       -2   -1    0    0    0  501  0.00000000000E+00  0.00000000000E+00 -0.40505506118E+03  0.40505506118E+03  0.25500000920E-02 0. -1.
    10030    2    1    2    0    0  0.00000000000E+00  0.00000000000E+00  0.98748420980E+03  0.17975943322E+04  0.15020720084E+04 0.  0.
        3    1    3    3  502    0 -0.21320759218E+03 -0.17989853764E+03 -0.34075271906E+03  0.44037868585E+03  0.10100000352E+00 0. -1.
       -3    1    3    3    0  502  0.21320759218E+03  0.17989853764E+03  0.13282369289E+04  0.13572156463E+04  0.10100000352E+00 0.  1.
</event>
<event>
 5   0  0.7634227E-04  0.1494756E+04  0.7818609E-02  0.8887947E-01
       -2   -1    0    0    0  501  0.00000000000E+00  0.00000000000E+00  0.50916671744E+03  0.50916671745E+03  0.25500000920E-02 0. -1.
        2   -1    0    0  501    0  0.00000000000E+00  0.00000000000E+00 -0.10970357606E+04  0.10970357606E+04  0.25500000920E-02 0.  1.
    10030    2    1    2    0    0  0.00000000000E+00  0.00000000000E+00 -0.58786904314E+03  0.16062024780E+04  0.14947562974E+04 0.  0.
        2    1    3    3  502    0  0.91840608984E+02  0.41322053110E+02  0.50184223313E+03  0.51184747385E+03  0.25500000920E-02 0. -1.
       -2    1    3    3    0  502 -0.91840608984E+02 -0.41322053110E+02 -0.10897112763E+04  0.10943550042E+04  0.25500000920E-02 0.  1.
</event>
<event>
 5   0  0.7359897E-04  0.1489638E+04  0.7818609E-02  0.8891373E-01
       -2   -1    0    0    0  501  0.00000000000E+00  0.00000000000E+00  0.49277866810E+03  0.49277866810E+03  0.25500000920E-02 0.  1.
        2   -1    0    0  501    0  0.00000000000E+00  0.00000000000E+00 -0.11257704760E+04  0.11257704760E+04  0.25500000920E-02 0. -1.
    10030    2    1    2    0    0  0.00000000000E+00  0.00000000000E+00 -0.63299180788E+03  0.16185491441E+04  0.14896384471E+04 0.  0.
        1    1    3    3  502    0 -0.36995312091E+03 -0.12812771370E+03  0.37195590042E+03  0.54003075336E+03  0.50400001928E-02 0.  1.
       -1    1    3    3    0  502  0.36995312091E+03  0.12812771370E+03 -0.10049477083E+04  0.10785183907E+04  0.50400001928E-02 0. -1.
</event>
<event>
 5   0  0.4015204E-04  0.1706417E+04  0.7818609E-02  0.8757713E-01
        1   -1    0    0  501    0  0.00000000000E+00  0.00000000000E+00  0.90746967779E+03  0.90746967780E+03  0.50400001928E-02 0.  1.
       -1   -1    0    0    0  501  0.00000000000E+00  0.00000000000E+00 -0.80219196879E+03  0.80219196880E+03  0.50400001928E-02 0. -1.
    10030    2    1    2    0    0  0.00000000000E+00  0.00000000000E+00  0.10527770900E+03  0.17096616466E+04  0.17064171676E+04 0.  0.
        2    1    3    3  502    0 -0.29518622280E+03  0.25434374690E+02 -0.74899684796E+03  0.80546762306E+03  0.25500000920E-02 0. -1.
       -2    1    3    3    0  502  0.29518622280E+03 -0.25434374690E+02  0.85427455696E+03  0.90419402354E+03  0.25500000920E-02 0.  1.
</event>
<event>
 5   0  0.7634227E-04  0.1584643E+04  0.7818609E-02  0.8830038E-01
        2   -1    0    0  501    0  0.00000000000E+00  0.00000000000E+00  0.10885059206E+04  0.10885059206E+04  0.25500000920E-02 0.  1.
       -2   -1    0    0    0  501  0.00000000000E+00  0.00000000000E+00 -0.57672928349E+03  0.57672928350E+03  0.25500000920E-02 0. -1.
    10030    2    1    2    0    0  0.00000000000E+00  0.00000000000E+00  0.51177663709E+03  0.16652352041E+04  0.15846428489E+04 0.  0.
        2    1    3    3  502    0 -0.14617391961E+03  0.69540788096E+03 -0.11238365069E+03  0.71943659945E+03  0.25500000920E-02 0. -1.
       -2    1    3    3    0  502  0.14617391961E+03 -0.69540788096E+03  0.62416028778E+03  0.94579860463E+03  0.25500000920E-02 0.  1.
</event>
<event>
 5   0  0.4086710E-04  0.1502549E+04  0.7818609E-02  0.8882760E-01
        1   -1    0    0  501    0  0.00000000000E+00  0.00000000000E+00  0.60933205676E+03  0.60933205678E+03  0.50400001928E-02 0. -1.
       -1   -1    0    0    0  501  0.00000000000E+00  0.00000000000E+00 -0.92628229437E+03  0.92628229439E+03  0.50400001928E-02 0.  1.
    10030    2    1    2    0    0  0.00000000000E+00  0.00000000000E+00 -0.31695023762E+03  0.15356143512E+04  0.15025491614E+04 0.  0.
        3    1    3    3  502    0 -0.54048489028E+03  0.37556072841E+02 -0.69038888327E+03  0.87759398105E+03  0.10100000352E+00 0. -1.
       -3    1    3    3    0  502  0.54048489028E+03 -0.37556072841E+02  0.37343864565E+03  0.65802037012E+03  0.10100000352E+00 0.  1.
</event>
<event>
 5   0  0.4058874E-04  0.1445765E+04  0.7818609E-02  0.8921342E-01
        1   -1    0    0  501    0  0.00000000000E+00  0.00000000000E+00  0.58829890267E+03  0.58829890269E+03  0.50400001928E-02 0.  1.
       -1   -1    0    0    0  501  0.00000000000E+00  0.00000000000E+00 -0.88825387956E+03  0.88825387958E+03  0.50400001928E-02 0. -1.
    10030    2    1    2    0    0  0.00000000000E+00  0.00000000000E+00 -0.29995497689E+03  0.14765527823E+04  0.14457645488E+04 0.  0.
        4    1    3    3  502    0 -0.53456937827E+03 -0.16751533121E+02 -0.64665914377E+03  0.83917500867E+03  0.12699999809E+01 0. -1.
       -4    1    3    3    0  502  0.53456937827E+03  0.16751533121E+02  0.34670416688E+03  0.63737777360E+03  0.12699999809E+01 0.  1.
</event>
<event>
 5   0  0.4015204E-04  0.1469394E+04  0.7818609E-02  0.8905065E-01
        1   -1    0    0  501    0  0.00000000000E+00  0.00000000000E+00  0.81418127829E+03  0.81418127831E+03  0.50400001928E-02 0. -1.
       -1   -1    0    0    0  501  0.00000000000E+00  0.00000000000E+00 -0.66297228978E+03  0.66297228980E+03  0.50400001928E-02 0.  1.
    10030    2    1    2    0    0  0.00000000000E+00  0.00000000000E+00  0.15120898851E+03  0.14771535681E+04  0.14693939246E+04 0.  0.
        2    1    3    3  502    0 -0.71110074415E+03 -0.12765269783E+03  0.20980156820E+03  0.75231388238E+03  0.25500000920E-02 0. -1.
       -2    1    3    3    0  502  0.71110074415E+03  0.12765269783E+03 -0.58592579684E+02  0.72483968572E+03  0.25500000920E-02 0.  1.
</event>
<event>
 5   0  0.3907345E-04  0.1505090E+04  0.7818609E-02  0.8881075E-01
        1   -1    0    0  501    0  0.00000000000E+00  0.00000000000E+00  0.10628074415E+04  0.10628074415E+04  0.50400001928E-02 0.  1.
       -1   -1    0    0    0  501  0.00000000000E+00  0.00000000000E+00 -0.53285684127E+03  0.53285684129E+03  0.50400001928E-02 0. -1.
    10030    2    1    2    0    0  0.00000000000E+00  0.00000000000E+00  0.52995060027E+03  0.15956642828E+04  0.15050903178E+04 0.  0.
        5    1    3    3  502    0  0.26355310413E+03 -0.69694955826E+03  0.37668813118E+03  0.83493410736E+03  0.46999998093E+01 0.  1.
       -5    1    3    3    0  502 -0.26355310413E+03  0.69694955826E+03  0.15326246909E+03  0.76073017548E+03  0.46999998093E+01 0. -1.
</event>
<event>
 5   0  0.7454828E-04  0.1508943E+04  0.7818609E-02  0.8878528E-01
       -2   -1    0    0    0  501  0.00000000000E+00  0.00000000000E+00  0.45333169046E+03  0.45333169047E+03  0.25500000920E-02 0. -1.
        2   -1    0    0  501    0  0.00000000000E+00  0.00000000000E+00 -0.12556530653E+04  0.12556530653E+04  0.25500000920E-02 0.  1.
    10030    2    1    2    0    0  0.00000000000E+00  0.00000000000E+00 -0.80232137481E+03  0.17089847557E+04  0.15089431092E+04 0.  0.
        3    1    3    3  502    0  0.35868550237E+03  0.68820600111E+02 -0.11488596001E+04  0.12055164684E+04  0.10100000352E+00 0.  1.
       -3    1    3    3    0  502 -0.35868550237E+03 -0.68820600111E+02  0.34653822527E+03  0.50346828737E+03  0.10100000352E+00 0. -1.
</event>
<event>
 5   0  0.7547580E-04  0.1580747E+04  0.7818609E-02  0.8832464E-01
       -2   -1    0    0    0  501  0.00000000000E+00  0.00000000000E+00  0.70057654047E+03  0.70057654047E+03  0.25500000920E-02 0.  1.
        2   -1    0    0  501    0  0.00000000000E+00  0.00000000000E+00 -0.89168016203E+03  0.89168016203E+03  0.25500000920E-02 0. -1.
    10030    2    1    2    0    0  0.00000000000E+00  0.00000000000E+00 -0.19110362156E+03  0.15922567025E+04  0.15807469160E+04 0.  0.
        4    1    3    3  502    0 -0.17440350444E+03 -0.71683000471E+03  0.19010922608E+03  0.76184313920E+03  0.12699999809E+01 0.  1.
       -4    1    3    3    0  502  0.17440350444E+03  0.71683000471E+03 -0.38121284763E+03  0.83041356330E+03  0.12699999809E+01 0. -1.
</event>
<event>
 5   0  0.7672251E-04  0.1484300E+04  0.7818609E-02  0.8894961E-01
        2   -1    0    0  501    0  0.00000000000E+00  0.00000000000E+00  0.75020046078E+03  0.75020046079E+03  0.25500000920E-02 0. -1.
       -2   -1    0    0    0  501  0.00000000000E+00  0.00000000000E+00 -0.73418560536E+03  0.73418560536E+03  0.25500000920E-02 0.  1.
    10030    2    1    2    0    0  0.00000000000E+00  0.00000000000E+00  0.16014855426E+02  0.14843860661E+04  0.14842996725E+04 0.  0.
        5    1    3    3  502    0 -0.19056329653E+03 -0.67527321223E+03 -0.23378341863E+03  0.73958438190E+03  0.46999998093E+01 0. -1.
       -5    1    3    3    0  502  0.19056329653E+03  0.67527321223E+03  0.24979827405E+03  0.74480168424E+03  0.46999998093E+01 0.  1.
</event>
<event>
 5   0  0.4015204E-04  0.1509874E+04  0.7818609E-02  0.8877913E-01
       -1   -1    0    0    0  501  0.00000000000E+00  0.00000000000E+00  0.61713634950E+03  0.61713634952E+03  0.50400001928E-02 0. -1.
        1   -1    0    0  501    0  0.00000000000E+00  0.00000000000E+00 -0.92350776583E+03  0.92350776584E+03  0.50400001928E-02 0.  1.
    10030    2    1    2    0    0  0.00000000000E+00  0.00000000000E+00 -0.30637141632E+03  0.15406441154E+04  0.15098744469E+04 0.  0.
        2    1    3    3  502    0 -0.57303042433E+03 -0.24937011066E+03  0.27897928434E+03  0.68438202811E+03  0.25500000920E-02 0. -1.
       -2    1    3    3    0  502  0.57303042433E+03  0.24937011066E+03 -0.58535070067E+03  0.85626208726E+03  0.25500000920E-02 0.  1.
</event>
<event>
 5   0  0.2800375E-04  0.1512183E+04  0.7818609E-02  0.8876392E-01
       -4   -1    0    0    0  501  0.00000000000E+00  0.00000000000E+00  0.13260905185E+04  0.13260911266E+04  0.12699999809E+01 0.  1.
        4   -1    0    0  501    0  0.00000000000E+00  0.00000000000E+00 -0.43109592153E+03  0.43109779222E+03  0.12699999809E+01 0. -1.
    10030    2    1    2    0    0  0.00000000000E+00  0.00000000000E+00  0.89499459697E+03  0.17571889189E+04  0.15121830471E+04 0.  0.
        5    1    3    3  502    0 -0.40282953538E+03  0.62363584896E+03  0.61370695130E+03  0.96325054828E+03  0.46999998093E+01 0.  1.
       -5    1    3    3    0  502  0.40282953538E+03 -0.62363584896E+03  0.28128764567E+03  0.79393837059E+03  0.46999998093E+01 0. -1.
</event>
<event>
 5   0  0.2800375E-04  0.1512996E+04  0.7818609E-02  0.8875857E-01
        3   -1    0    0  501    0  0.00000000000E+00  0.00000000000E+00  0.24945203776E+03  0.24945205820E+03  0.10100000352E+00 0. -1.
       -3   -1    0    0    0  501  0.00000000000E+00  0.00000000000E+00 -0.22941849167E+04  0.22941849189E+04  0.10100000352E+00 0.  1.
    10030    2    1    2    0    0  0.00000000000E+00  0.00000000000E+00 -0.20447328790E+04  0.25436369771E+04  0.15129958774E+04 0.  0.
        4    1    3    3  502    0  0.16087575690E+03 -0.68128731567E+03 -0.15045319809E+04  0.16594130016E+04  0.12699999809E+01 0. -1.
       -4    1    3    3    0  502 -0.16087575690E+03  0.68128731567E+03 -0.54020089808E+03  0.88422397550E+03  0.12699999809E+01 0.  1.
</event>
<event>
 5   0  0.2800375E-04  0.1510035E+04  0.7818609E-02  0.8877807E-01
        3   -1    0    0  501    0  0.00000000000E+00  0.00000000000E+00  0.71513761875E+03  0.71513762588E+03  0.10100000352E+00 0.  1.
       -3   -1    0    0    0  501  0.00000000000E+00  0.00000000000E+00 -0.79712134837E+03  0.79712135477E+03  0.10100000352E+00 0. -1.
    10030    2    1    2    0    0  0.00000000000E+00  0.00000000000E+00 -0.81983729615E+02  0.15122589807E+04  0.15100350634E+04 0.  0.
        2    1    3    3  502    0 -0.32817147997E+03 -0.41947528104E+03  0.49495556306E+03  0.72707430231E+03  0.25500000920E-02 0.  1.
       -2    1    3    3    0  502  0.32817147997E+03  0.41947528104E+03 -0.57693929268E+03  0.78518467834E+03  0.25500000920E-02 0. -1.
</event>
<event>
 5   0  0.4058874E-04  0.1490854E+04  0.7818609E-02  0.8890558E-01
       -1   -1    0    0    0  501  0.00000000000E+00  0.00000000000E+00  0.87902856567E+03  0.87902856569E+03  0.50400001928E-02 0.  1.
        1   -1    0    0  501    0  0.00000000000E+00  0.00000000000E+00 -0.63213108564E+03  0.63213108566E+03  0.50400001928E-02 0. -1.
    10030    2    1    2    0    0  0.00000000000E+00  0.00000000000E+00  0.24689748003E+03  0.15111596513E+04  0.14908538246E+04 0.  0.
        4    1    3    3  502    0 -0.40550287277E+03  0.10195366101E+03  0.74897033859E+03  0.85777928968E+03  0.12699999809E+01 0.  1.
       -4    1    3    3    0  502  0.40550287277E+03 -0.10195366101E+03 -0.50207285856E+03  0.65338036167E+03  0.12699999809E+01 0. -1.
</event>
<event>
 5   0  0.4084462E-04  0.1497152E+04  0.7818609E-02  0.8886349E-01
        1   -1    0    0  501    0  0.00000000000E+00  0.00000000000E+00  0.10357866976E+04  0.10357866976E+04  0.50400001928E-02 0. -1.
       -1   -1    0    0    0  501  0.00000000000E+00  0.00000000000E+00 -0.54100529965E+03  0.54100529968E+03  0.50400001928E-02 0.  1.
    10030    2    1    2    0    0  0.00000000000E+00  0.00000000000E+00  0.49478139792E+03  0.15767919973E+04  0.14971520868E+04 0.  0.
        1    1    3    3  502    0 -0.32696198673E+03  0.59583781816E+03  0.57783070942E+03  0.89208473537E+03  0.50400001928E-02 0. -1.
       -1    1    3    3    0  502  0.32696198673E+03 -0.59583781816E+03 -0.83049311503E+02  0.68470726189E+03  0.50400001928E-02 0.  1.
</event>
<event>
 5   0  0.7547580E-04  0.1503955E+04  0.7818609E-02  0.8881827E-01
       -2   -1    0    0    0  501  0.00000000000E+00  0.00000000000E+00  0.51690234266E+03  0.51690234267E+03  0.25500000920E-02 0.  1.
        2   -1    0    0  501    0  0.00000000000E+00  0.00000000000E+00 -0.10939588989E+04  0.10939588989E+04  0.25500000920E-02 0. -1.
    10030    2    1    2    0    0  0.00000000000E+00  0.00000000000E+00 -0.57705655621E+03  0.16108612415E+04  0.15039546770E+04 0.  0.
        4    1    3    3  502    0  0.28968744531E+02  0.38384954940E+03  0.40336906762E+03  0.55757320806E+03  0.12699999809E+01 0.  1.
       -4    1    3    3    0  502 -0.28968744531E+02 -0.38384954940E+03 -0.98042562383E+03  0.10532880335E+04  0.12699999809E+01 0. -1.
</event>
<event>
 5   0  0.7672251E-04  0.1530191E+04  0.7818609E-02  0.8864621E-01
        2   -1    0    0  501    0  0.00000000000E+00  0.00000000000E+00  0.63461233708E+03  0.63461233709E+03  0.25500000920E-02 0. -1.
       -2   -1    0    0    0  501  0.00000000000E+00  0.00000000000E+00 -0.92240704711E+03  0.92240704712E+03  0.25500000920E-02 0.  1.
    10030    2    1    2    0    0  0.00000000000E+00  0.00000000000E+00 -0.28779471003E+03  0.15570193842E+04  0.15301906965E+04 0.  0.
        5    1    3    3  502    0 -0.71689618348E+03 -0.19721179306E+03  0.39586633913E+02  0.74459507169E+03  0.46999998093E+01 0. -1.
       -5    1    3    3    0  502  0.71689618348E+03  0.19721179306E+03 -0.32738134394E+03  0.81242431251E+03  0.46999998093E+01 0.  1.
</event>
<event>
 5   0  0.3907345E-04  0.1509395E+04  0.7818609E-02  0.8878229E-01
       -1   -1    0    0    0  501  0.00000000000E+00  0.00000000000E+00  0.57881204196E+03  0.57881204198E+03  0.50400001928E-02 0.  1.
        1   -1    0    0  501    0  0.00000000000E+00  0.00000000000E+00 -0.98403038186E+03  0.98403038187E+03  0.50400001928E-02 0. -1.
    10030    2    1    2    0    0  0.00000000000E+00  0.00000000000E+00 -0.40521833989E+03  0.15628424239E+04  0.15093954216E+04 0.  0.
        5    1    3    3  502    0 -0.13752633885E+03 -0.29709146735E+03  0.50144625893E+03  0.59887166776E+03  0.46999998093E+01 0.  1.
       -5    1    3    3    0  502  0.13752633885E+03  0.29709146735E+03 -0.90666459883E+03  0.96397075610E+03  0.46999998093E+01 0. -1.
</event>
<event>
 5   0  0.7359897E-04  0.1517185E+04  0.7818609E-02  0.8873105E-01
        2   -1    0    0  501    0  0.00000000000E+00  0.00000000000E+00  0.22321023183E+04  0.22321023183E+04  0.25500000920E-02 0.  1.
       -2   -1    0    0    0  501  0.00000000000E+00  0.00000000000E+00 -0.25781191922E+03  0.25781191923E+03  0.25500000920E-02 0. -1.
    10030    2    1    2    0    0  0.00000000000E+00  0.00000000000E+00  0.19742903990E+04  0.24899142375E+04  0.15171850020E+04 0.  0.
        1    1    3    3  502    0  0.52298497530E+03  0.30972773780E+03  0.17320460311E+04  0.18356001770E+04  0.50400001928E-02 0.  1.
       -1    1    3    3    0  502 -0.52298497530E+03 -0.30972773780E+03  0.24224436797E+03  0.65431406051E+03  0.50400001928E-02 0. -1.
</event>
<event>
 5   0  0.7634227E-04  0.1522553E+04  0.7818609E-02  0.8869592E-01
        2   -1    0    0  501    0  0.00000000000E+00  0.00000000000E+00  0.73053342791E+03  0.73053342792E+03  0.25500000920E-02 0.  1.
       -2   -1    0    0    0  501  0.00000000000E+00  0.00000000000E+00 -0.79331330403E+03  0.79331330404E+03  0.25500000920E-02 0. -1.
    10030    2    1    2    0    0  0.00000000000E+00  0.00000000000E+00 -0.62779876122E+02  0.15238467320E+04  0.15225529710E+04 0.  0.
        2    1    3    3  502    0  0.28439473501E+03  0.63191048460E+03  0.28407729640E+03  0.74892665608E+03  0.25500000920E-02 0.  1.
       -2    1    3    3    0  502 -0.28439473501E+03 -0.63191048460E+03 -0.34685717252E+03  0.77492007587E+03  0.25500000920E-02 0. -1.
</event>
<event>
 5   0  0.7634227E-04  0.1478898E+04  0.7818609E-02  0.8898608E-01
       -2   -1    0    0    0  501  0.00000000000E+00  0.00000000000E+00  0.11517943236E+04  0.11517943236E+04  0.25500000920E-02 0.  1.
        2   -1    0    0  501    0  0.00000000000E+00  0.00000000000E+00 -0.47472461318E+03  0.47472461319E+03  0.25500000920E-02 0. -1.
    10030    2    1    2    0    0  0.00000000000E+00  0.00000000000E+00  0.67706971039E+03  0.16265189368E+04  0.14788983937E+04 0.  0.
        2    1    3    3  502    0  0.38501590118E+03  0.14179283252E+03  0.10151174662E+04  0.10948999597E+04  0.25500000920E-02 0.  1.
       -2    1    3    3    0  502 -0.38501590118E+03 -0.14179283252E+03 -0.33804775585E+03  0.53161897705E+03  0.25500000920E-02 0. -1.
</event>
<event>
 5   0  0.4058874E-04  0.1463791E+04  0.7818609E-02  0.8908895E-01
        1   -1    0    0  501    0  0.00000000000E+00  0.00000000000E+00  0.50179710087E+03  0.50179710089E+03  0.50400001928E-02 0.  1.
       -1   -1    0    0    0  501  0.00000000000E+00  0.00000000000E+00 -0.10675056713E+04  0.10675056713E+04  0.50400001928E-02 0. -1.
    10030    2    1    2    0    0  0.00000000000E+00  0.00000000000E+00 -0.56570857040E+03  0.15693027722E+04  0.14637913117E+04 0.  0.
        4    1    3    3  502    0 -0.46804241368E+03 -0.53695866396E+03 -0.46314671594E+03  0.84964392612E+03  0.12699999809E+01 0. -1.
       -4    1    3    3    0  502  0.46804241368E+03  0.53695866396E+03 -0.10256185446E+03  0.71965884605E+03  0.12699999809E+01 0.  1.
</event>
<event>
 5   0  0.4084462E-04  0.1495320E+04  0.7818609E-02  0.8887571E-01
       -1   -1    0    0    0  501  0.00000000000E+00  0.00000000000E+00  0.55995126729E+03  0.55995126731E+03  0.50400001928E-02 0. -1.
        1   -1    0    0  501    0  0.00000000000E+00  0.00000000000E+00 -0.99829367418E+03  0.99829367419E+03  0.50400001928E-02 0.  1.
    10030    2    1    2    0    0  0.00000000000E+00  0.00000000000E+00 -0.43834240689E+03  0.15582449415E+04  0.14953204446E+04 0.  0.
        1    1    3    3  502    0  0.40941844534E+03 -0.42659770685E+03  0.25767249015E+03  0.64498385955E+03  0.50400001928E-02 0. -1.
       -1    1    3    3    0  502 -0.40941844534E+03  0.42659770685E+03 -0.69601489704E+03  0.91326108195E+03  0.50400001928E-02 0.  1.
</event>
<event>
 5   0  0.7672251E-04  0.1431852E+04  0.7818609E-02  0.8931079E-01
        2   -1    0    0  501    0  0.00000000000E+00  0.00000000000E+00  0.10618196774E+04  0.10618196774E+04  0.25500000920E-02 0. -1.
       -2   -1    0    0    0  501  0.00000000000E+00  0.00000000000E+00 -0.48270939631E+03  0.48270939631E+03  0.25500000920E-02 0.  1.
    10030    2    1    2    0    0  0.00000000000E+00  0.00000000000E+00  0.57911028111E+03  0.15445290737E+04  0.14318524163E+04 0.  0.
        5    1    3    3  502    0  0.69009224817E+03  0.14412526497E+03  0.15513406268E+03  0.72186430192E+03  0.46999998093E+01 0. -1.
       -5    1    3    3    0  502 -0.69009224817E+03 -0.14412526497E+03  0.42397621842E+03  0.82266477181E+03  0.46999998093E+01 0.  1.
</event>
<event>
 5   0  0.3907345E-04  0.1506990E+04  0.7818609E-02  0.8879818E-01
        1   -1    0    0  501    0  0.00000000000E+00  0.00000000000E+00  0.20436004851E+04  0.20436004851E+04  0.50400001928E-02 0. -1.
       -1   -1    0    0    0  501  0.00000000000E+00  0.00000000000E+00 -0.27782091527E+03  0.27782091532E+03  0.50400001928E-02 0.  1.
    10030    2    1    2    0    0  0.00000000000E+00  0.00000000000E+00  0.17657795698E+04  0.23214214004E+04  0.15069903215E+04 0.  0.
        5    1    3    3  502    0  0.28039428124E+03  0.27543718365E+03  0.18731469488E+04  0.19139457089E+04  0.46999998093E+01 0. -1.
       -5    1    3    3    0  502 -0.28039428124E+03 -0.27543718365E+03 -0.10736737895E+03  0.40747569148E+03  0.46999998093E+01 0.  1.
</event>
<event>
 5   0  0.7634227E-04  0.1409408E+04  0.7818609E-02  0.8947036E-01
        2   -1    0    0  501    0  0.00000000000E+00  0.00000000000E+00  0.88334536517E+03  0.88334536518E+03  0.25500000920E-02 0. -1.
       -2   -1    0    0    0  501  0.00000000000E+00  0.00000000000E+00 -0.56219002811E+03  0.56219002812E+03  0.25500000920E-02 0.  1.
    10030    2    1    2    0    0  0.00000000000E+00  0.00000000000E+00  0.32115533706E+03  0.14455353933E+04  0.14094083236E+04 0.  0.
        2    1    3    3  502    0 -0.73003611703E+01  0.25009905399E+03  0.83625496428E+03  0.87288326674E+03  0.25500000920E-02 0. -1.
       -2    1    3    3    0  502  0.73003611703E+01 -0.25009905399E+03 -0.51509962722E+03  0.57265212655E+03  0.25500000920E-02 0.  1.
</event>
<event>
 5   0  0.7547580E-04  0.1500558E+04  0.7818609E-02  0.8884082E-01
       -2   -1    0    0    0  501  0.00000000000E+00  0.00000000000E+00  0.62259984124E+03  0.62259984125E+03  0.25500000920E-02 0. -1.
        2   -1    0    0  501    0  0.00000000000E+00  0.00000000000E+00 -0.90414131544E+03  0.90414131544E+03  0.25500000920E-02 0.  1.
    10030    2    1    2    0    0  0.00000000000E+00  0.00000000000E+00 -0.28154147420E+03  0.15267411567E+04  0.15005575490E+04 0.  0.
        4    1    3    3  502    0 -0.23128167246E+03 -0.27804446018E+03  0.52805546505E+03  0.64003446855E+03  0.12699999809E+01 0. -1.
       -4    1    3    3    0  502  0.23128167246E+03  0.27804446018E+03 -0.80959693925E+03  0.88670668815E+03  0.12699999809E+01 0.  1.
</event>
<event>
 5   0  0.4058874E-04  0.1475814E+04  0.7818609E-02  0.8900698E-01
       -1   -1    0    0    0  501  0.00000000000E+00  0.00000000000E+00  0.91468363462E+03  0.91468363463E+03  0.50400001928E-02 0. -1.
        1   -1    0    0  501    0  0.00000000000E+00  0.00000000000E+00 -0.59529486412E+03  0.59529486414E+03  0.50400001928E-02 0.  1.
    10030    2    1    2    0    0  0.00000000000E+00  0.00000000000E+00  0.31938877050E+03  0.15099784988E+04  0.14758136332E+04 0.  0.
        4    1    3    3  502    0  0.52054775214E+03 -0.51668281088E+03  0.24265012204E+03  0.77253594346E+03  0.12699999809E+01 0. -1.
       -4    1    3    3    0  502 -0.52054775214E+03  0.51668281088E+03  0.76738648455E+02  0.73744255531E+03  0.12699999809E+01 0.  1.
</event>
<event>
 5   0  0.7672251E-04  0.1507130E+04  0.7818609E-02  0.8879726E-01
        2   -1    0    0  501    0  0.00000000000E+00  0.00000000000E+00  0.72845831285E+03  0.72845831286E+03  0.25500000920E-02 0.  1.
       -2   -1    0    0    0  501  0.00000000000E+00  0.00000000000E+00 -0.77953668965E+03  0.77953668966E+03  0.25500000920E-02 0. -1.
    10030    2    1    2    0    0  0.00000000000E+00  0.00000000000E+00 -0.51078376801E+02  0.15079950025E+04  0.15071296981E+04 0.  0.
        5    1    3    3  502    0  0.53423962190E+03  0.32902111854E+02  0.50518345407E+03  0.73602101522E+03  0.46999998093E+01 0.  1.
       -5    1    3    3    0  502 -0.53423962190E+03 -0.32902111854E+02 -0.55626183088E+03  0.77197398730E+03  0.46999998093E+01 0. -1.
</event>
<event>
 5   0  0.7454828E-04  0.1500085E+04  0.7818609E-02  0.8884396E-01
       -2   -1    0    0    0  501  0.00000000000E+00  0.00000000000E+00  0.88630738476E+03  0.88630738477E+03  0.25500000920E-02 0.  1.
        2   -1    0    0  501    0  0.00000000000E+00  0.00000000000E+00 -0.63472796115E+03  0.63472796116E+03  0.25500000920E-02 0. -1.
    10030    2    1    2    0    0  0.00000000000E+00  0.00000000000E+00  0.25157942361E+03  0.15210353459E+04  0.15000854366E+04 0.  0.
        3    1    3    3  502    0 -0.60771503183E+03 -0.40631792766E+03  0.29591930884E+03  0.78865712815E+03  0.10100000352E+00 0.  1.
       -3    1    3    3    0  502  0.60771503183E+03  0.40631792766E+03 -0.44339885232E+02  0.73237821777E+03  0.10100000352E+00 0. -1.
</event>
<event>
 5   0  0.7547580E-04  0.1500155E+04  0.7818609E-02  0.8884350E-01
       -2   -1    0    0    0  501  0.00000000000E+00  0.00000000000E+00  0.79107504799E+03  0.79107504799E+03  0.25500000920E-02 0. -1.
        2   -1    0    0  501    0  0.00000000000E+00  0.00000000000E+00 -0.71120421978E+03  0.71120421978E+03  0.25500000920E-02 0.  1.
    10030    2    1    2    0    0  0.00000000000E+00  0.00000000000E+00  0.79870828209E+02  0.15022792678E+04  0.15001545418E+04 0.  0.
        4    1    3    3  502    0  0.62186116258E+02  0.56886931447E+03  0.52552930006E+03  0.77695692810E+03  0.12699999809E+01 0. -1.
       -4    1    3    3    0  502 -0.62186116258E+02 -0.56886931447E+03 -0.44565847185E+03  0.72532233967E+03  0.12699999809E+01 0.  1.
</event>
<event>
 5   0  0.4015204E-04  0.1505253E+04  0.7818609E-02  0.8880967E-01
       -1   -1    0    0    0  501  0.00000000000E+00  0.00000000000E+00  0.87135597296E+03  0.87135597298E+03  0.50400001928E-02 0. -1.
        1   -1    0    0  501    0  0.00000000000E+00  0.00000000000E+00 -0.65007469984E+03  0.65007469986E+03  0.50400001928E-02 0.  1.
    10030    2    1    2    0    0  0.00000000000E+00  0.00000000000E+00  0.22128127312E+03  0.15214306728E+04  0.15052527663E+04 0.  0.
        2    1    3    3  502    0 -0.56577260017E+03 -0.57661549952E+02 -0.38763127668E+03  0.68824522964E+03  0.25500000920E-02 0.  1.
       -2    1    3    3    0  502  0.56577260017E+03  0.57661549952E+02  0.60891254980E+03  0.83318544320E+03  0.25500000920E-02 0. -1.
</event>
<event>
 5   0  0.7672251E-04  0.1457637E+04  0.7818609E-02  0.8913123E-01
       -2   -1    0    0    0  501  0.00000000000E+00  0.00000000000E+00  0.48651378569E+03  0.48651378570E+03  0.25500000920E-02 0.  1.
        2   -1    0    0  501    0  0.00000000000E+00  0.00000000000E+00 -0.10918016348E+04  0.10918016348E+04  0.25500000920E-02 0. -1.
    10030    2    1    2    0    0  0.00000000000E+00  0.00000000000E+00 -0.60528784913E+03  0.15783154205E+04  0.14576371930E+04 0.  0.
        5    1    3    3  502    0  0.45715186964E+03  0.29953955911E+03  0.21939428672E+03  0.58895477113E+03  0.46999998093E+01 0.  1.
       -5    1    3    3    0  502 -0.45715186964E+03 -0.29953955911E+03 -0.82468213585E+03  0.98936064940E+03  0.46999998093E+01 0. -1.
</event>
<event>
 5   0  0.3907345E-04  0.1616012E+04  0.7818609E-02  0.8810771E-01
       -1   -1    0    0    0  501  0.00000000000E+00  0.00000000000E+00  0.46680730335E+03  0.46680730337E+03  0.50400001928E-02 0. -1.
        1   -1    0    0  501    0  0.00000000000E+00  0.00000000000E+00 -0.13985931424E+04  0.13985931425E+04  0.50400001928E-02 0.  1.
    10030    2    1    2    0    0  0.00000000000E+00  0.00000000000E+00 -0.93178583910E+03  0.18654004458E+04  0.16160117491E+04 0.  0.
        5    1    3    3  502    0 -0.70071574058E+03  0.16761209039E+03 -0.88805832536E+03  0.11435759884E+04  0.46999998093E+01 0. -1.
       -5    1    3    3    0  502  0.70071574058E+03 -0.16761209039E+03 -0.43727513745E+02  0.72182445746E+03  0.46999998093E+01 0.  1.
</event>
<event>
 5   0  0.7547580E-04  0.1493759E+04  0.7818609E-02  0.8888614E-01
        2   -1    0    0  501    0  0.00000000000E+00  0.00000000000E+00  0.37252058817E+03  0.37252058818E+03  0.25500000920E-02 0.  1.
       -2   -1    0    0    0  501  0.00000000000E+00  0.00000000000E+00 -0.14974447021E+04  0.14974447021E+04  0.25500000920E-02 0. -1.
    10030    2    1    2    0    0  0.00000000000E+00  0.00000000000E+00 -0.11249241139E+04  0.18699652903E+04  0.14937589915E+04 0.  0.
        4    1    3    3  502    0 -0.55514853499E+03 -0.16963003158E+03  0.25859306496E+02  0.58106330133E+03  0.12699999809E+01 0.  1.
       -4    1    3    3    0  502  0.55514853499E+03  0.16963003158E+03 -0.11507834204E+04  0.12889019890E+04  0.12699999809E+01 0. -1.
</event>
<event>
 5   0  0.4084462E-04  0.1512245E+04  0.7818609E-02  0.8876351E-01
        1   -1    0    0  501    0  0.00000000000E+00  0.00000000000E+00  0.12495590536E+04  0.12495590536E+04  0.50400001928E-02 0.  1.
       -1   -1    0    0    0  501  0.00000000000E+00  0.00000000000E+00 -0.45753811958E+03  0.45753811961E+03  0.50400001928E-02 0. -1.
    10030    2    1    2    0    0  0.00000000000E+00  0.00000000000E+00  0.79202093400E+03  0.17070971732E+04  0.15122445566E+04 0.  0.
        1    1    3    3  502    0 -0.40748887713E+03  0.11963665383E+03 -0.31018490472E+03  0.52590378308E+03  0.50400001928E-02 0. -1.
       -1    1    3    3    0  502  0.40748887713E+03 -0.11963665383E+03  0.11022058387E+04  0.11811933901E+04  0.50400001928E-02 0.  1.
</event>
<event>
 5   0  0.7672251E-04  0.1450986E+04  0.7818609E-02  0.8917717E-01
        2   -1    0    0  501    0  0.00000000000E+00  0.00000000000E+00  0.52710181007E+03  0.52710181007E+03  0.25500000920E-02 0. -1.
       -2   -1    0    0    0  501  0.00000000000E+00  0.00000000000E+00 -0.99855488989E+03  0.99855488989E+03  0.25500000920E-02 0.  1.
    10030    2    1    2    0    0  0.00000000000E+00  0.00000000000E+00 -0.47145307982E+03  0.15256567000E+04  0.14509859957E+04 0.  0.
        5    1    3    3  502    0 -0.13334018647E+03  0.14014733431E+03  0.49946811156E+03  0.53564107862E+03  0.46999998093E+01 0. -1.
       -5    1    3    3    0  502  0.13334018647E+03 -0.14014733431E+03 -0.97092119138E+03  0.99001562135E+03  0.46999998093E+01 0.  1.
</event>
<event>
 5   0  0.3907345E-04  0.1488986E+04  0.7818609E-02  0.8891811E-01
       -1   -1    0    0    0  501  0.00000000000E+00  0.00000000000E+00  0.70208867041E+03  0.70208867043E+03  0.50400001928E-02 0. -1.
        1   -1    0    0  501    0  0.00000000000E+00  0.00000000000E+00 -0.78945804732E+03  0.78945804734E+03  0.50400001928E-02 0.  1.
    10030    2    1    2    0    0  0.00000000000E+00  0.00000000000E+00 -0.87369376915E+02  0.14915467178E+04  0.14889856290E+04 0.  0.
        5    1    3    3  502    0 -0.51982043621E+03 -0.36689676887E+03 -0.43089960645E+03  0.76845499917E+03  0.46999998093E+01 0.  1.
       -5    1    3    3    0  502  0.51982043621E+03  0.36689676887E+03  0.34353022953E+03  0.72309171860E+03  0.46999998093E+01 0. -1.
</event>
<event>
 5   0  0.3907345E-04  0.1506411E+04  0.7818609E-02  0.8880201E-01
       -1   -1    0    0    0  501  0.00000000000E+00  0.00000000000E+00  0.10089318575E+04  0.10089318575E+04  0.50400001928E-02 0. -1.
        1   -1    0    0  501    0  0.00000000000E+00  0.00000000000E+00 -0.56229627034E+03  0.56229627036E+03  0.50400001928E-02 0.  1.
    10030    2    1    2    0    0  0.00000000000E+00  0.00000000000E+00  0.44663558719E+03  0.15712281279E+04  0.15064111265E+04 0.  0.
        5    1    3    3  502    0  0.58938011060E+03  0.86090198316E+02 -0.25751230171E+03  0.64893382755E+03  0.46999998093E+01 0.  1.
       -5    1    3    3    0  502 -0.58938011060E+03 -0.86090198316E+02  0.70414788889E+03  0.92229430034E+03  0.46999998093E+01 0. -1.
</event>
<event>
 5   0  0.7672251E-04  0.1489477E+04  0.7818609E-02  0.8891481E-01
       -2   -1    0    0    0  501  0.00000000000E+00  0.00000000000E+00  0.27896190235E+03  0.27896190237E+03  0.25500000920E-02 0. -1.
        2   -1    0    0  501    0  0.00000000000E+00  0.00000000000E+00 -0.19882132529E+04  0.19882132529E+04  0.25500000920E-02 0.  1.
    10030    2    1    2    0    0  0.00000000000E+00  0.00000000000E+00 -0.17092513505E+04  0.22671751552E+04  0.14894774269E+04 0.  0.
        5    1    3    3  502    0  0.49997248104E+03 -0.53732972721E+03 -0.66258437789E+03  0.98880527171E+03  0.46999998093E+01 0. -1.
       -5    1    3    3    0  502 -0.49997248104E+03  0.53732972721E+03 -0.10466669726E+04  0.12783698835E+04  0.46999998093E+01 0.  1.
</event>
<event>
 5   0  0.4058874E-04  0.1503546E+04  0.7818609E-02  0.8882098E-01
        1   -1    0    0  501    0  0.00000000000E+00  0.00000000000E+00  0.10235752043E+04  0.10235752043E+04  0.50400001928E-02 0.  1.
       -1   -1    0    0    0  501  0.00000000000E+00  0.00000000000E+00 -0.55214562373E+03  0.55214562375E+03  0.50400001928E-02 0. -1.
    10030    2    1    2    0    0  0.00000000000E+00  0.00000000000E+00  0.47142958056E+03  0.15757208280E+04  0.15035459017E+04 0.  0.
        4    1    3    3  502    0  0.11083006321E+03 -0.73891784587E+03  0.14879955549E+03  0.76185681494E+03  0.12699999809E+01 0.  1.
       -4    1    3    3    0  502 -0.11083006321E+03  0.73891784587E+03  0.32263002506E+03  0.81386401311E+03  0.12699999809E+01 0. -1.
</event>
<event>
 5   0  0.4058874E-04  0.1439181E+04  0.7818609E-02  0.8925936E-01
       -1   -1    0    0    0  501  0.00000000000E+00  0.00000000000E+00  0.35751392160E+03  0.35751392163E+03  0.50400001928E-02 0. -1.
        1   -1    0    0  501    0  0.00000000000E+00  0.00000000000E+00 -0.14483648342E+04  0.14483648342E+04  0.50400001928E-02 0.  1.
    10030    2    1    2    0    0  0.00000000000E+00  0.00000000000E+00 -0.10908509126E+04  0.18058787558E+04  0.14391811447E+04 0.  0.
        4    1    3    3  502    0 -0.50924257656E+03 -0.33081148385E+03 -0.60994983466E+02  0.61031650849E+03  0.12699999809E+01 0. -1.
       -4    1    3    3    0  502  0.50924257656E+03  0.33081148385E+03 -0.10298559291E+04  0.11955622474E+04  0.12699999809E+01 0.  1.
</event>
<event>
 5   0  0.3907345E-04  0.1498062E+04  0.7818609E-02  0.8885743E-01
       -1   -1    0    0    0  501  0.00000000000E+00  0.00000000000E+00  0.47847999572E+03  0.47847999574E+03  0.50400001928E-02 0.  1.
        1   -1    0    0  501    0  0.00000000000E+00  0.00000000000E+00 -0.11725623635E+04  0.11725623635E+04  0.50400001928E-02 0. -1.
    10030    2    1    2    0    0  0.00000000000E+00  0.00000000000E+00 -0.69408236776E+03  0.16510423592E+04  0.14980622613E+04 0.  0.
        5    1    3    3  502    0 -0.14187943989E+03 -0.73371280913E+03 -0.29126392974E+03  0.80207295710E+03  0.46999998093E+01 0. -1.
       -5    1    3    3    0  502  0.14187943989E+03  0.73371280913E+03 -0.40281843802E+03  0.84896940213E+03  0.46999998093E+01 0.  1.
</event>
<event>
 5   0  0.4058874E-04  0.1497771E+04  0.7818609E-02  0.8885937E-01
       -1   -1    0    0    0  501  0.00000000000E+00  0.00000000000E+00  0.81674594240E+03  0.81674594242E+03  0.50400001928E-02 0.  1.
        1   -1    0    0  501    0  0.00000000000E+00  0.00000000000E+00 -0.68666333768E+03  0.68666333769E+03  0.50400001928E-02 0. -1.
    10030    2    1    2    0    0  0.00000000000E+00  0.00000000000E+00  0.13008260473E+03  0.15034092801E+04  0.14977710037E+04 0.  0.
        4    1    3    3  502    0 -0.51911127244E+03  0.15655411933E+03  0.58355358119E+03  0.79656895525E+03  0.12699999809E+01 0.  1.
       -4    1    3    3    0  502  0.51911127244E+03 -0.15655411933E+03 -0.45347097646E+03  0.70684032486E+03  0.12699999809E+01 0. -1.
</event>
<event>
 5   0  0.4058874E-04  0.1482265E+04  0.7818609E-02  0.8896333E-01
        1   -1    0    0  501    0  0.00000000000E+00  0.00000000000E+00  0.15954615454E+04  0.15954615454E+04  0.50400001928E-02 0.  1.
       -1   -1    0    0    0  501  0.00000000000E+00  0.00000000000E+00 -0.34427503563E+03  0.34427503566E+03  0.50400001928E-02 0. -1.
    10030    2    1    2    0    0  0.00000000000E+00  0.00000000000E+00  0.12511865098E+04  0.19397365811E+04  0.14822652670E+04 0.  0.
        4    1    3    3  502    0  0.40378778997E+03  0.46300956090E+03  0.83097856687E+02  0.61994298085E+03  0.12699999809E+01 0. -1.
       -4    1    3    3    0  502 -0.40378778997E+03 -0.46300956090E+03  0.11680886531E+04  0.13197936002E+04  0.12699999809E+01 0.  1.
</event>
<event>
 5   0  0.4058874E-04  0.1505509E+04  0.7818609E-02  0.8880798E-01
        1   -1    0    0  501    0  0.00000000000E+00  0.00000000000E+00  0.80285851023E+03  0.80285851025E+03  0.50400001928E-02 0.  1.
       -1   -1    0    0    0  501  0.00000000000E+00  0.00000000000E+00 -0.70577745973E+03  0.70577745974E+03  0.50400001928E-02 0. -1.
    10030    2    1    2    0    0  0.00000000000E+00  0.00000000000E+00  0.97081050504E+02  0.15086359700E+04  0.15055091363E+04 0.  0.
        4    1    3    3  502    0 -0.63323418541E+03  0.34282927306E+03  0.26835971378E+03  0.76846339725E+03  0.12699999809E+01 0.  1.
       -4    1    3    3    0  502  0.63323418541E+03 -0.34282927306E+03 -0.17127866328E+03  0.74017257274E+03  0.12699999809E+01 0. -1.
</event>
<event>
 5   0  0.4084462E-04  0.1256158E+04  0.7818609E-02  0.9065073E-01
       -1   -1    0    0    0  501  0.00000000000E+00  0.00000000000E+00  0.20601669366E+03  0.20601669373E+03  0.50400001928E-02 0.  1.
        1   -1    0    0  501    0  0.00000000000E+00  0.00000000000E+00 -0.19148133310E+04  0.19148133310E+04  0.50400001928E-02 0. -1.
    10030    2    1    2    0    0  0.00000000000E+00  0.00000000000E+00 -0.17087966373E+04  0.21208300247E+04  0.12561584478E+04 0.  0.
        1    1    3    3  502    0 -0.17560930013E+03 -0.49090377963E+03 -0.26309539788E+03  0.58399001323E+03  0.50400001928E-02 0.  1.
       -1    1    3    3    0  502  0.17560930013E+03  0.49090377963E+03 -0.14457012394E+04  0.15368400115E+04  0.50400001928E-02 0. -1.
</event>
<event>
 5   0  0.7634227E-04  0.1510229E+04  0.7818609E-02  0.8877679E-01
       -2   -1    0    0    0  501  0.00000000000E+00  0.00000000000E+00  0.10748201961E+04  0.10748201961E+04  0.25500000920E-02 0. -1.
        2   -1    0    0  501    0  0.00000000000E+00  0.00000000000E+00 -0.53050535839E+03  0.53050535840E+03  0.25500000920E-02 0.  1.
    10030    2    1    2    0    0  0.00000000000E+00  0.00000000000E+00  0.54431483773E+03  0.16053255545E+04  0.15102289540E+04 0.  0.
        2    1    3    3  502    0 -0.24799984111E+03  0.79872546394E+02 -0.48121221334E+03  0.54721909610E+03  0.25500000920E-02 0.  1.
       -2    1    3    3    0  502  0.24799984111E+03 -0.79872546394E+02  0.10255270511E+04  0.10581064584E+04  0.25500000920E-02 0. -1.
</event>
<event>
 5   0  0.4084462E-04  0.1521082E+04  0.7818609E-02  0.8870553E-01
       -1   -1    0    0    0  501  0.00000000000E+00  0.00000000000E+00  0.65789538747E+03  0.65789538749E+03  0.50400001928E-02 0.  1.
        1   -1    0    0  501    0  0.00000000000E+00  0.00000000000E+00 -0.87920189261E+03  0.87920189262E+03  0.50400001928E-02 0. -1.
    10030    2    1    2    0    0  0.00000000000E+00  0.00000000000E+00 -0.22130650513E+03  0.15370972801E+04  0.15210823381E+04 0.  0.
        1    1    3    3  502    0  0.44352779177E+03 -0.31933849271E+03  0.42380931687E+03  0.69159837484E+03  0.50400001928E-02 0.  1.
       -1    1    3    3    0  502 -0.44352779177E+03  0.31933849271E+03 -0.64511582200E+03  0.84549890527E+03  0.50400001928E-02 0. -1.
</event>
<event>
 5   0  0.4058874E-04  0.1493877E+04  0.7818609E-02  0.8888535E-01
        1   -1    0    0  501    0  0.00000000000E+00  0.00000000000E+00  0.13295187400E+04  0.13295187400E+04  0.50400001928E-02 0. -1.
       -1   -1    0    0    0  501  0.00000000000E+00  0.00000000000E+00 -0.41963825224E+03  0.41963825227E+03  0.50400001928E-02 0.  1.
    10030    2    1    2    0    0  0.00000000000E+00  0.00000000000E+00  0.90988048774E+03  0.17491569923E+04  0.14938767290E+04 0.  0.
        4    1    3    3  502    0  0.62768739265E+03 -0.63759391476E+01  0.92894340234E+03  0.11211465440E+04  0.12699999809E+01 0. -1.
       -4    1    3    3    0  502 -0.62768739265E+03  0.63759391476E+01 -0.19062914599E+02  0.62801044824E+03  0.12699999809E+01 0.  1.
</event>
<event>
 5   0  0.7672251E-04  0.1488965E+04  0.7818609E-02  0.8891824E-01
       -2   -1    0    0    0  501  0.00000000000E+00  0.00000000000E+00  0.23218209048E+03  0.23218209049E+03  0.25500000920E-02 0.  1.
        2   -1    0    0  501    0  0.00000000000E+00  0.00000000000E+00 -0.23871526538E+04  0.23871526538E+04  0.25500000920E-02 0. -1.
    10030    2    1    2    0    0  0.00000000000E+00  0.00000000000E+00 -0.21549705633E+04  0.26193347443E+04  0.14889648666E+04 0.  0.
        5    1    3    3  502    0 -0.26909626976E+02 -0.28148174176E+03 -0.22889815587E+04  0.23063856497E+04  0.46999998093E+01 0. -1.
       -5    1    3    3    0  502  0.26909626976E+02  0.28148174176E+03  0.13401099535E+03  0.31294909465E+03  0.46999998093E+01 0.  1.
</event>
<event>
 5   0  0.2800375E-04  0.1491062E+04  0.7818609E-02  0.8890418E-01
        4   -1    0    0  501    0  0.00000000000E+00  0.00000000000E+00  0.83125577993E+03  0.83125675009E+03  0.12699999809E+01 0.  1.
       -4   -1    0    0    0  501  0.00000000000E+00  0.00000000000E+00 -0.66864488142E+03  0.66864608751E+03  0.12699999809E+01 0. -1.
    10030    2    1    2    0    0  0.00000000000E+00  0.00000000000E+00  0.16261089851E+03  0.14999028376E+04  0.14910621107E+04 0.  0.
        1    1    3    3  502    0 -0.23294370089E+03 -0.21507491976E+03  0.76006285234E+03  0.82353841952E+03  0.50400001928E-02 0.  1.
       -1    1    3    3    0  502  0.23294370089E+03  0.21507491976E+03 -0.59745195382E+03  0.67636441808E+03  0.50400001928E-02 0. -1.
</event>
<event>
 5   0  0.4086710E-04  0.1501642E+04  0.7818609E-02  0.8883362E-01
       -1   -1    0    0    0  501  0.00000000000E+00  0.00000000000E+00  0.48274440633E+03  0.48274440636E+03  0.50400001928E-02 0.  1.
        1   -1    0    0  501    0  0.00000000000E+00  0.00000000000E+00 -0.11677658181E+04  0.11677658181E+04  0.50400001928E-02 0. -1.
    10030    2    1    2    0    0  0.00000000000E+00  0.00000000000E+00 -0.68502141177E+03  0.16505102245E+04  0.15016423231E+04 0.  0.
        3    1    3    3  502    0 -0.12738015492E+03  0.34516657249E+03  0.37687133290E+03  0.52668555932E+03  0.10100000352E+00 0.  1.
       -3    1    3    3    0  502  0.12738015492E+03 -0.34516657249E+03 -0.10618927447E+04  0.11238246652E+04  0.10100000352E+00 0. -1.
</event>
<event>
 5   0  0.4058874E-04  0.1500073E+04  0.7818609E-02  0.8884405E-01
       -1   -1    0    0    0  501  0.00000000000E+00  0.00000000000E+00  0.61752912946E+03  0.61752912948E+03  0.50400001928E-02 0.  1.
        1   -1    0    0  501    0  0.00000000000E+00  0.00000000000E+00 -0.91097649914E+03  0.91097649915E+03  0.50400001928E-02 0. -1.
    10030    2    1    2    0    0  0.00000000000E+00  0.00000000000E+00 -0.29344736968E+03  0.15285056286E+04  0.15000726976E+04 0.  0.
        4    1    3    3  502    0  0.16364303981E+03 -0.26703425543E+03  0.54771190108E+03  0.63093286294E+03  0.12699999809E+01 0.  1.
       -4    1    3    3    0  502 -0.16364303981E+03  0.26703425543E+03 -0.84115927075E+03  0.89757276570E+03  0.12699999809E+01 0. -1.
</event>
<event>
 5   0  0.4058874E-04  0.1484892E+04  0.7818609E-02  0.8894562E-01
        1   -1    0    0  501    0  0.00000000000E+00  0.00000000000E+00  0.17927523101E+04  0.17927523101E+04  0.50400001928E-02 0. -1.
       -1   -1    0    0    0  501  0.00000000000E+00  0.00000000000E+00 -0.30747479459E+03  0.30747479463E+03  0.50400001928E-02 0.  1.
    10030    2    1    2    0    0  0.00000000000E+00  0.00000000000E+00  0.14852775155E+04  0.21002271047E+04  0.14848921151E+04 0.  0.
        4    1    3    3  502    0 -0.61879523027E+03 -0.31090834042E+03  0.36403183207E+03  0.78236329209E+03  0.12699999809E+01 0.  1.
       -4    1    3    3    0  502  0.61879523027E+03  0.31090834042E+03  0.11212456834E+04  0.13178638127E+04  0.12699999809E+01 0. -1.
</event>
<event>
 5   0  0.7547580E-04  0.1521479E+04  0.7818609E-02  0.8870294E-01
       -2   -1    0    0    0  501  0.00000000000E+00  0.00000000000E+00  0.44954191471E+03  0.44954191472E+03  0.25500000920E-02 0. -1.
        2   -1    0    0  501    0  0.00000000000E+00  0.00000000000E+00 -0.12873659453E+04  0.12873659453E+04  0.25500000920E-02 0.  1.
    10030    2    1    2    0    0  0.00000000000E+00  0.00000000000E+00 -0.83782403062E+03  0.17369078601E+04  0.15214794800E+04 0.  0.
        4    1    3    3  502    0 -0.40987054795E+03 -0.53186746893E+03 -0.82709514296E+03  0.10653472950E+04  0.12699999809E+01 0. -1.
       -4    1    3    3    0  502  0.40987054795E+03  0.53186746893E+03 -0.10728887664E+02  0.67156056504E+03  0.12699999809E+01 0.  1.
</event>
<event>
 5   0  0.2800375E-04  0.1506246E+04  0.7818609E-02  0.8880310E-01
        3   -1    0    0  501    0  0.00000000000E+00  0.00000000000E+00  0.18136025572E+04  0.18136025600E+04  0.10100000352E+00 0.  1.
       -3   -1    0    0    0  501  0.00000000000E+00  0.00000000000E+00 -0.31274446598E+03  0.31274448229E+03  0.10100000352E+00 0. -1.
    10030    2    1    2    0    0  0.00000000000E+00  0.00000000000E+00  0.15008580912E+04  0.21263470423E+04  0.15062459077E+04 0.  0.
        4    1    3    3  502    0  0.28672810069E+03 -0.19831055551E+02  0.17331355524E+04  0.17568058317E+04  0.12699999809E+01 0.  1.
       -4    1    3    3    0  502 -0.28672810069E+03  0.19831055551E+02 -0.23227746114E+03  0.36954121062E+03  0.12699999809E+01 0. -1.
</event>
<event>
 5   0  0.4086710E-04  0.1503134E+04  0.7818609E-02  0.8882371E-01
       -1   -1    0    0    0  501  0.00000000000E+00  0.00000000000E+00  0.97365185497E+03  0.97365185498E+03  0.50400001928E-02 0. -1.
        1   -1    0    0  501    0  0.00000000000E+00  0.00000000000E+00 -0.58013859095E+03  0.58013859097E+03  0.50400001928E-02 0.  1.
    10030    2    1    2    0    0  0.00000000000E+00  0.00000000000E+00  0.39351326402E+03  0.15537904460E+04  0.15031340795E+04 0.  0.
        3    1    3    3  502    0  0.10403165595E+03  0.90345374749E+02 -0.56697116214E+03  0.58347337650E+03  0.10100000352E+00 0.  1.
       -3    1    3    3    0  502 -0.10403165595E+03 -0.90345374749E+02  0.96048442616E+03  0.97031706946E+03  0.10100000352E+00 0. -1.
</event>
<event>
 5   0  0.7634227E-04  0.1483174E+04  0.7818609E-02  0.8895719E-01
       -2   -1    0    0    0  501  0.00000000000E+00  0.00000000000E+00  0.73653996733E+03  0.73653996733E+03  0.25500000920E-02 0. -1.
        2   -1    0    0  501    0  0.00000000000E+00  0.00000000000E+00 -0.74666906459E+03  0.74666906459E+03  0.25500000920E-02 0.  1.
    10030    2    1    2    0    0  0.00000000000E+00  0.00000000000E+00 -0.10129097263E+02  0.14832090319E+04  0.14831744448E+04 0.  0.
        2    1    3    3  502    0  0.33905624416E+03  0.11751456579E+03  0.64393656266E+03  0.73717237239E+03  0.25500000920E-02 0. -1.
       -2    1    3    3    0  502 -0.33905624416E+03 -0.11751456579E+03 -0.65406565992E+03  0.74603665954E+03  0.25500000920E-02 0.  1.
</event>
<event>
 5   0  0.7672251E-04  0.1495376E+04  0.7818609E-02  0.8887533E-01
       -2   -1    0    0    0  501  0.00000000000E+00  0.00000000000E+00  0.79929008917E+03  0.79929008917E+03  0.25500000920E-02 0. -1.
        2   -1    0    0  501    0  0.00000000000E+00  0.00000000000E+00 -0.69941766340E+03  0.69941766341E+03  0.25500000920E-02 0.  1.
    10030    2    1    2    0    0  0.00000000000E+00  0.00000000000E+00  0.99872425761E+02  0.14987077526E+04  0.14953763494E+04 0.  0.
        5    1    3    3  502    0 -0.21775232473E+03  0.64689988536E+03 -0.25589927880E+03  0.72897329683E+03  0.46999998093E+01 0. -1.
       -5    1    3    3    0  502  0.21775232473E+03 -0.64689988536E+03  0.35577170456E+03  0.76973445575E+03  0.46999998093E+01 0.  1.
</event>
<event>
 5   0  0.7454828E-04  0.1499611E+04  0.7818609E-02  0.8884712E-01
        2   -1    0    0  501    0  0.00000000000E+00  0.00000000000E+00  0.17621035000E+04  0.17621035000E+04  0.25500000920E-02 0.  1.
       -2   -1    0    0    0  501  0.00000000000E+00  0.00000000000E+00 -0.31905508270E+03  0.31905508271E+03  0.25500000920E-02 0. -1.
    10030    2    1    2    0    0  0.00000000000E+00  0.00000000000E+00  0.14430484173E+04  0.20811585827E+04  0.14996107201E+04 0.  0.
        3    1    3    3  502    0 -0.57818255088E+03 -0.40370326096E+03  0.36787581692E+03  0.79536407508E+03  0.10100000352E+00 0. -1.
       -3    1    3    3    0  502  0.57818255088E+03  0.40370326096E+03  0.10751726004E+04  0.12857945076E+04  0.10100000352E+00 0.  1.
</event>
<event>
 5   0  0.4015204E-04  0.1515921E+04  0.7818609E-02  0.8873934E-01
        1   -1    0    0  501    0  0.00000000000E+00  0.00000000000E+00  0.14856209279E+04  0.14856209279E+04  0.50400001928E-02 0. -1.
       -1   -1    0    0    0  501  0.00000000000E+00  0.00000000000E+00 -0.38670967167E+03  0.38670967170E+03  0.50400001928E-02 0.  1.
    10030    2    1    2    0    0  0.00000000000E+00  0.00000000000E+00  0.10989112562E+04  0.18723305996E+04  0.15159208176E+04 0.  0.
        2    1    3    3  502    0 -0.51172934554E+03 -0.52333677958E+03  0.30630597106E+03  0.79345551599E+03  0.25500000920E-02 0.  1.
       -2    1    3    3    0  502  0.51172934554E+03  0.52333677958E+03  0.79260528515E+03  0.10788750836E+04  0.25500000920E-02 0. -1.
</event>
<event>
 5   0  0.7454828E-04  0.1504897E+04  0.7818609E-02  0.8881203E-01
       -2   -1    0    0    0  501  0.00000000000E+00  0.00000000000E+00  0.55964853867E+03  0.55964853867E+03  0.25500000920E-02 0. -1.
        2   -1    0    0  501    0  0.00000000000E+00  0.00000000000E+00 -0.10116679942E+04  0.10116679942E+04  0.25500000920E-02 0.  1.
    10030    2    1    2    0    0  0.00000000000E+00  0.00000000000E+00 -0.45201945550E+03  0.15713165328E+04  0.15048966935E+04 0.  0.
        3    1    3    3  502    0 -0.13935140360E+03 -0.40561897513E+02 -0.99691466765E+03  0.10074239157E+04  0.10100000352E+00 0.  1.
       -3    1    3    3    0  502  0.13935140360E+03  0.40561897513E+02  0.54489521214E+03  0.56389261711E+03  0.10100000352E+00 0. -1.
</event>
<event>
 5   0  0.3907345E-04  0.1485341E+04  0.7818609E-02  0.8894260E-01
        1   -1    0    0  501    0  0.00000000000E+00  0.00000000000E+00  0.13357052862E+04  0.13357052862E+04  0.50400001928E-02 0. -1.
       -1   -1    0    0    0  501  0.00000000000E+00  0.00000000000E+00 -0.41293487484E+03  0.41293487487E+03  0.50400001928E-02 0.  1.
    10030    2    1    2    0    0  0.00000000000E+00  0.00000000000E+00  0.92277041137E+03  0.17486401611E+04  0.14853407626E+04 0.  0.
        5    1    3    3  502    0 -0.24067562254E+03  0.69858835803E+03  0.37339097476E+03  0.82788487079E+03  0.46999998093E+01 0. -1.
       -5    1    3    3    0  502  0.24067562254E+03 -0.69858835803E+03  0.54937943661E+03  0.92075529031E+03  0.46999998093E+01 0.  1.
</event>
<event>
 5   0  0.4086710E-04  0.1479507E+04  0.7818609E-02  0.8898196E-01
       -1   -1    0    0    0  501  0.00000000000E+00  0.00000000000E+00  0.46061132857E+03  0.46061132860E+03  0.50400001928E-02 0.  1.
        1   -1    0    0  501    0  0.00000000000E+00  0.00000000000E+00 -0.11880634305E+04  0.11880634305E+04  0.50400001928E-02 0. -1.
    10030    2    1    2    0    0  0.00000000000E+00  0.00000000000E+00 -0.72745210189E+03  0.16486747591E+04  0.14795073169E+04 0.  0.
        3    1    3    3  502    0  0.59482207782E+03  0.43958095165E+03 -0.37911636464E+03  0.83112811615E+03  0.10100000352E+00 0.  1.
       -3    1    3    3    0  502 -0.59482207782E+03 -0.43958095165E+03 -0.34833573726E+03  0.81754664293E+03  0.10100000352E+00 0. -1.
</event>
<event>
 5   0  0.4058874E-04  0.1587602E+04  0.7818609E-02  0.8828201E-01
        1   -1    0    0  501    0  0.00000000000E+00  0.00000000000E+00  0.89511445480E+03  0.89511445482E+03  0.50400001928E-02 0.  1.
       -1   -1    0    0    0  501  0.00000000000E+00  0.00000000000E+00 -0.70395458058E+03  0.70395458060E+03  0.50400001928E-02 0. -1.
    10030    2    1    2    0    0  0.00000000000E+00  0.00000000000E+00  0.19115987422E+03  0.15990690354E+04  0.15876018652E+04 0.  0.
        4    1    3    3  502    0  0.47895744378E+03  0.43565355069E+03 -0.36700200252E+03  0.74423540089E+03  0.12699999809E+01 0. -1.
       -4    1    3    3    0  502 -0.47895744378E+03 -0.43565355069E+03  0.55816187674E+03  0.85483363453E+03  0.12699999809E+01 0.  1.
</event>
<event>
 5   0  0.7547580E-04  0.1495041E+04  0.7818609E-02  0.8887757E-01
        2   -1    0    0  501    0  0.00000000000E+00  0.00000000000E+00  0.17248339639E+04  0.17248339639E+04  0.25500000920E-02 0.  1.
       -2   -1    0    0    0  501  0.00000000000E+00  0.00000000000E+00 -0.32396570092E+03  0.32396570093E+03  0.25500000920E-02 0. -1.
    10030    2    1    2    0    0  0.00000000000E+00  0.00000000000E+00  0.14008682629E+04  0.20487996648E+04  0.14950411955E+04 0.  0.
        4    1    3    3  502    0  0.53849736877E+03  0.14097047371E+03  0.16699042490E+02  0.55689546734E+03  0.12699999809E+01 0. -1.
       -4    1    3    3    0  502 -0.53849736877E+03 -0.14097047371E+03  0.13841692204E+04  0.14919041974E+04  0.12699999809E+01 0.  1.
</event>
<event>
 5   0  0.4058874E-04  0.1498115E+04  0.7818609E-02  0.8885707E-01
        1   -1    0    0  501    0  0.00000000000E+00  0.00000000000E+00  0.61808958102E+03  0.61808958104E+03  0.50400001928E-02 0.  1.
       -1   -1    0    0    0  501  0.00000000000E+00  0.00000000000E+00 -0.90777675594E+03  0.90777675595E+03  0.50400001928E-02 0. -1.
    10030    2    1    2    0    0  0.00000000000E+00  0.00000000000E+00 -0.28968717491E+03  0.15258663370E+04  0.14981152890E+04 0.  0.
        4    1    3    3  502    0  0.30221174658E+03 -0.41727815351E+02  0.55194338859E+03  0.63064749857E+03  0.12699999809E+01 0.  1.
       -4    1    3    3    0  502 -0.30221174658E+03  0.41727815351E+02 -0.84163056350E+03  0.89521883842E+03  0.12699999809E+01 0. -1.
</event>
<event>
 5   0  0.2800375E-04  0.1466457E+04  0.7818609E-02  0.8907070E-01
       -4   -1    0    0    0  501  0.00000000000E+00  0.00000000000E+00  0.13435829282E+04  0.13435835284E+04  0.12699999809E+01 0. -1.
        4   -1    0    0  501    0  0.00000000000E+00  0.00000000000E+00 -0.40014034741E+03  0.40014236282E+03  0.12699999809E+01 0.  1.
    10030    2    1    2    0    0  0.00000000000E+00  0.00000000000E+00  0.94344258077E+03  0.17437258912E+04  0.14664569822E+04 0.  0.
        2    1    3    3  502    0  0.32616276344E+03 -0.65660489154E+03  0.45914359171E+03  0.86505778400E+03  0.25500000920E-02 0.  1.
       -2    1    3    3    0  502 -0.32616276344E+03  0.65660489154E+03  0.48429898906E+03  0.87866810723E+03  0.25500000920E-02 0. -1.
</event>
<event>
 5   0  0.4086710E-04  0.1499241E+04  0.7818609E-02  0.8884958E-01
       -1   -1    0    0    0  501  0.00000000000E+00  0.00000000000E+00  0.37807336463E+03  0.37807336466E+03  0.50400001928E-02 0. -1.
        1   -1    0    0  501    0  0.00000000000E+00  0.00000000000E+00 -0.14863018547E+04  0.14863018548E+04  0.50400001928E-02 0.  1.
    10030    2    1    2    0    0  0.00000000000E+00  0.00000000000E+00 -0.11082284901E+04  0.18643752194E+04  0.14992413323E+04 0.  0.
        3    1    3    3  502    0  0.21816056491E+03 -0.21630964514E+03 -0.14044188345E+04  0.14376286612E+04  0.10100000352E+00 0.  1.
       -3    1    3    3    0  502 -0.21816056491E+03  0.21630964514E+03  0.29619034435E+03  0.42674655822E+03  0.10100000352E+00 0. -1.
</event>
<event>
 5   0  0.7634227E-04  0.1511287E+04  0.7818609E-02  0.8876982E-01
       -2   -1    0    0    0  501  0.00000000000E+00  0.00000000000E+00  0.25365164206E+03  0.25365164207E+03  0.25500000920E-02 0.  1.
        2   -1    0    0  501    0  0.00000000000E+00  0.00000000000E+00 -0.22511078995E+04  0.22511078995E+04  0.25500000920E-02 0. -1.
    10030    2    1    2    0    0  0.00000000000E+00  0.00000000000E+00 -0.19974562575E+04  0.25047595416E+04  0.15112871536E+04 0.  0.
        2    1    3    3  502    0 -0.19079200609E+03 -0.49179525413E+03 -0.18954441526E+04  0.19674787666E+04  0.25500000920E-02 0. -1.
       -2    1    3    3    0  502  0.19079200609E+03  0.49179525413E+03 -0.10201210485E+03  0.53728077493E+03  0.25500000920E-02 0.  1.
</event>
<event>
 5   0  0.7547580E-04  0.1512854E+04  0.7818609E-02  0.8875950E-01
        2   -1    0    0  501    0  0.00000000000E+00  0.00000000000E+00  0.49357025124E+03  0.49357025124E+03  0.25500000920E-02 0.  1.
       -2   -1    0    0    0  501  0.00000000000E+00  0.00000000000E+00 -0.11592709361E+04  0.11592709361E+04  0.25500000920E-02 0. -1.
    10030    2    1    2    0    0  0.00000000000E+00  0.00000000000E+00 -0.66570068484E+03  0.16528411873E+04  0.15128537896E+04 0.  0.
        4    1    3    3  502    0  0.36718117493E+03 -0.43448573108E+03 -0.87756292596E+03  0.10458098143E+04  0.12699999809E+01 0. -1.
       -4    1    3    3    0  502 -0.36718117493E+03  0.43448573108E+03  0.21186224112E+03  0.60703137304E+03  0.12699999809E+01 0.  1.
</event>
<event>
 5   0  0.7634227E-04  0.1478710E+04  0.7818609E-02  0.8898735E-01
        2   -1    0    0  501    0  0.00000000000E+00  0.00000000000E+00  0.98159869250E+03  0.98159869250E+03  0.25500000920E-02 0. -1.
       -2   -1    0    0    0  501  0.00000000000E+00  0.00000000000E+00 -0.55689354109E+03  0.55689354109E+03  0.25500000920E-02 0.  1.
    10030    2    1    2    0    0  0.00000000000E+00  0.00000000000E+00  0.42470515141E+03  0.15384922336E+04  0.14787102107E+04 0.  0.
        2    1    3    3  502    0 -0.60869182880E+03 -0.41005511502E+03  0.11932272171E+03  0.74356496133E+03  0.25500000920E-02 0. -1.
       -2    1    3    3    0  502  0.60869182880E+03  0.41005511502E+03  0.30538242970E+03  0.79492727226E+03  0.25500000920E-02 0.  1.
</event>
<event>
 5   0  0.4058874E-04  0.1496978E+04  0.7818609E-02  0.8886465E-01
       -1   -1    0    0    0  501  0.00000000000E+00  0.00000000000E+00  0.17253005940E+04  0.17253005940E+04  0.50400001928E-02 0. -1.
        1   -1    0    0  501    0  0.00000000000E+00  0.00000000000E+00 -0.32471799763E+03  0.32471799767E+03  0.50400001928E-02 0.  1.
    10030    2    1    2    0    0  0.00000000000E+00  0.00000000000E+00  0.14005825964E+04  0.20500185917E+04  0.14969784958E+04 0.  0.
        4    1    3    3  502    0 -0.18364146070E+02  0.73376641730E+03  0.49956638966E+03  0.88787306953E+03  0.12699999809E+01 0. -1.
       -4    1    3    3    0  502  0.18364146070E+02 -0.73376641730E+03  0.90101620675E+03  0.11621455222E+04  0.12699999809E+01 0.  1.
</event>
<event>
 5   0  0.7672251E-04  0.1514169E+04  0.7818609E-02  0.8875085E-01
        2   -1    0    0  501    0  0.00000000000E+00  0.00000000000E+00  0.13669344809E+04  0.13669344809E+04  0.25500000920E-02 0.  1.
       -2   -1    0    0    0  501  0.00000000000E+00  0.00000000000E+00 -0.41931531804E+03  0.41931531805E+03  0.25500000920E-02 0. -1.
    10030    2    1    2    0    0  0.00000000000E+00  0.00000000000E+00  0.94761916289E+03  0.17862497990E+04  0.15141685066E+04 0.  0.
        5    1    3    3  502    0  0.27330913885E+03 -0.61536404898E+03  0.88209776108E+03  0.11097248976E+04  0.46999998093E+01 0.  1.
       -5    1    3    3    0  502 -0.27330913885E+03  0.61536404898E+03  0.65521401807E+02  0.67652490142E+03  0.46999998093E+01 0. -1.
</event>
<event>
 5   0  0.4015204E-04  0.1488875E+04  0.7818609E-02  0.8891885E-01
        1   -1    0    0  501    0  0.00000000000E+00  0.00000000000E+00  0.47316352374E+03  0.47316352376E+03  0.50400001928E-02 0. -1.
       -1   -1    0    0    0  501  0.00000000000E+00  0.00000000000E+00 -0.11712386211E+04  0.11712386211E+04  0.50400001928E-02 0.  1.
    10030    2    1    2    0    0  0.00000000000E+00  0.00000000000E+00 -0.69807509737E+03  0.16444021449E+04  0.14888752710E+04 0.  0.
        2    1    3    3  502    0  0.37228207236E+03 -0.55643296322E+03 -0.70858241200E+03  0.97483363635E+03  0.25500000920E-02 0.  1.
       -2    1    3    3    0  502 -0.37228207236E+03  0.55643296322E+03  0.10507314629E+02  0.66956850853E+03  0.25500000920E-02 0. -1.
</event>
<event>
 5   0  0.4084462E-04  0.1531147E+04  0.7818609E-02  0.8864000E-01
        1   -1    0    0  501    0  0.00000000000E+00  0.00000000000E+00  0.18846684857E+04  0.18846684857E+04  0.50400001928E-02 0.  1.
       -1   -1    0    0    0  501  0.00000000000E+00  0.00000000000E+00 -0.31098473213E+03  0.31098473217E+03  0.50400001928E-02 0. -1.
    10030    2    1    2    0    0  0.00000000000E+00  0.00000000000E+00  0.15736837536E+04  0.21956532179E+04  0.15311474445E+04 0.  0.
        1    1    3    3  502    0 -0.55084297405E+03 -0.22984987047E+03  0.99356460944E+02  0.60508730889E+03  0.50400001928E-02 0. -1.
       -1    1    3    3    0  502  0.55084297405E+03  0.22984987047E+03  0.14743272927E+04  0.15905659090E+04  0.50400001928E-02 0.  1.
</event>
<event>
 5   0  0.3907345E-04  0.1516992E+04  0.7818609E-02  0.8873231E-01
        1   -1    0    0  501    0  0.00000000000E+00  0.00000000000E+00  0.14338632323E+04  0.14338632323E+04  0.50400001928E-02 0.  1.
       -1   -1    0    0    0  501  0.00000000000E+00  0.00000000000E+00 -0.40123526344E+03  0.40123526348E+03  0.50400001928E-02 0. -1.
    10030    2    1    2    0    0  0.00000000000E+00  0.00000000000E+00  0.10326279688E+04  0.18350984957E+04  0.15169924084E+04 0.  0.
        5    1    3    3  502    0 -0.71009417058E+03 -0.21448725427E+03  0.70779727191E+03  0.10252987767E+04  0.46999998093E+01 0.  1.
       -5    1    3    3    0  502  0.71009417058E+03  0.21448725427E+03  0.32483069690E+03  0.80979971906E+03  0.46999998093E+01 0. -1.
</event>
<event>
 5   0  0.4058874E-04  0.1497450E+04  0.7818609E-02  0.8886150E-01
        1   -1    0    0  501    0  0.00000000000E+00  0.00000000000E+00  0.11325139462E+04  0.11325139462E+04  0.50400001928E-02 0. -1.
       -1   -1    0    0    0  501  0.00000000000E+00  0.00000000000E+00 -0.49499545780E+03  0.49499545783E+03  0.50400001928E-02 0.  1.
    10030    2    1    2    0    0  0.00000000000E+00  0.00000000000E+00  0.63751848837E+03  0.16275094040E+04  0.14974501785E+04 0.  0.
        4    1    3    3  502    0  0.27940626885E+03  0.72923873770E+02 -0.43203719314E+03  0.51965710194E+03  0.12699999809E+01 0.  1.
       -4    1    3    3    0  502 -0.27940626885E+03 -0.72923873770E+02  0.10695556815E+04  0.11078523021E+04  0.12699999809E+01 0. -1.
</event>
<event>
 5   0  0.7359897E-04  0.1427005E+04  0.7818609E-02  0.8934500E-01
       -2   -1    0    0    0  501  0.00000000000E+00  0.00000000000E+00  0.41303015952E+03  0.41303015953E+03  0.25500000920E-02 0. -1.
        2   -1    0    0  501    0  0.00000000000E+00  0.00000000000E+00 -0.12325624931E+04  0.12325624931E+04  0.25500000920E-02 0.  1.
    10030    2    1    2    0    0  0.00000000000E+00  0.00000000000E+00 -0.81953233355E+03  0.16455926526E+04  0.14270045314E+04 0.  0.
        1    1    3    3  502    0  0.21472949753E+03  0.42198821303E+02  0.37337444600E+03  0.43277936016E+03  0.50400001928E-02 0. -1.
       -1    1    3    3    0  502 -0.21472949753E+03 -0.42198821303E+02 -0.11929067795E+04  0.12128132924E+04  0.50400001928E-02 0.  1.
</event>
<event>
 5   0  0.4084462E-04  0.1494607E+04  0.7818609E-02  0.8888047E-01
       -1   -1    0    0    0  501  0.00000000000E+00  0.00000000000E+00  0.42249135732E+03  0.42249135735E+03  0.50400001928E-02 0.  1.
        1   -1    0    0  501    0  0.00000000000E+00  0.00000000000E+00 -0.13218311068E+04  0.13218311068E+04  0.50400001928E-02 0. -1.
    10030    2    1    2    0    0  0.00000000000E+00  0.00000000000E+00 -0.89933974950E+03  0.17443224642E+04  0.14946065951E+04 0.  0.
        1    1    3    3  502    0  0.28749663559E+03 -0.63265933846E+03 -0.12888247649E+03  0.70676930237E+03  0.50400001928E-02 0.  1.
       -1    1    3    3    0  502 -0.28749663559E+03  0.63265933846E+03 -0.77045727301E+03  0.10375531618E+04  0.50400001928E-02 0. -1.
</event>
<event>
 5   0  0.7454828E-04  0.1498027E+04  0.7818609E-02  0.8885766E-01
        2   -1    0    0  501    0  0.00000000000E+00  0.00000000000E+00  0.26800186722E+03  0.26800186723E+03  0.25500000920E-02 0.  1.
       -2   -1    0    0    0  501  0.00000000000E+00  0.00000000000E+00 -0.20933479937E+04  0.20933479937E+04  0.25500000920E-02 0. -1.
    10030    2    1    2    0    0  0.00000000000E+00  0.00000000000E+00 -0.18253461265E+04  0.23613498609E+04  0.14980269304E+04 0.  0.
        3    1    3    3  502    0  0.53714773688E+03 -0.52128552217E+03 -0.95598204269E+03  0.12141531876E+04  0.10100000352E+00 0. -1.
       -3    1    3    3    0  502 -0.53714773688E+03  0.52128552217E+03 -0.86936408378E+03  0.11471966733E+04  0.10100000352E+00 0.  1.
</event>
<event>
 5   0  0.7359897E-04  0.1494410E+04  0.7818609E-02  0.8888179E-01
       -2   -1    0    0    0  501  0.00000000000E+00  0.00000000000E+00  0.80650079718E+03  0.80650079718E+03  0.25500000920E-02 0.  1.
        2   -1    0    0  501    0  0.00000000000E+00  0.00000000000E+00 -0.69226835048E+03  0.69226835048E+03  0.25500000920E-02 0. -1.
    10030    2    1    2    0    0  0.00000000000E+00  0.00000000000E+00  0.11423244670E+03  0.14987691477E+04  0.14944095510E+04 0.  0.
        1    1    3    3  502    0 -0.18318225516E+03 -0.42484693943E+03  0.64556831992E+03  0.79423492511E+03  0.50400001928E-02 0.  1.
       -1    1    3    3    0  502  0.18318225516E+03  0.42484693943E+03 -0.53133587322E+03  0.70453422255E+03  0.50400001928E-02 0. -1.
</event>
<event>
 5   0  0.7359897E-04  0.1420064E+04  0.7818609E-02  0.8939422E-01
        2   -1    0    0  501    0  0.00000000000E+00  0.00000000000E+00  0.69650707508E+03  0.69650707509E+03  0.25500000920E-02 0. -1.
       -2   -1    0    0    0  501  0.00000000000E+00  0.00000000000E+00 -0.72381956579E+03  0.72381956579E+03  0.25500000920E-02 0.  1.
    10030    2    1    2    0    0  0.00000000000E+00  0.00000000000E+00 -0.27312490707E+02  0.14203266409E+04  0.14200640108E+04 0.  0.
        1    1    3    3  502    0 -0.53769855416E+01  0.75899471050E+02  0.69241751729E+03  0.69658571616E+03  0.50400001928E-02 0. -1.
       -1    1    3    3    0  502  0.53769855416E+01 -0.75899471050E+02 -0.71973000800E+03  0.72374092472E+03  0.50400001928E-02 0.  1.
</event>
<event>
 5   0  0.7672251E-04  0.1488166E+04  0.7818609E-02  0.8892361E-01
        2   -1    0    0  501    0  0.00000000000E+00  0.00000000000E+00  0.13874726450E+04  0.13874726450E+04  0.25500000920E-02 0.  1.
       -2   -1    0    0    0  501  0.00000000000E+00  0.00000000000E+00 -0.39904166624E+03  0.39904166624E+03  0.25500000920E-02 0. -1.
    10030    2    1    2    0    0  0.00000000000E+00  0.00000000000E+00  0.98843097873E+03  0.17865143112E+04  0.14881658457E+04 0.  0.
        5    1    3    3  502    0  0.57508534758E+03  0.29261935916E+03  0.49408553868E+02  0.64715727729E+03  0.46999998093E+01 0. -1.
       -5    1    3    3    0  502 -0.57508534758E+03 -0.29261935916E+03  0.93902242486E+03  0.11393570339E+04  0.46999998093E+01 0.  1.
</event>
<event>
 5   0  0.3907345E-04  0.1502484E+04  0.7818609E-02  0.8882803E-01
        1   -1    0    0  501    0  0.00000000000E+00  0.00000000000E+00  0.79967726241E+03  0.79967726243E+03  0.50400001928E-02 0.  1.
       -1   -1    0    0    0  501  0.00000000000E+00  0.00000000000E+00 -0.70574014423E+03  0.70574014425E+03  0.50400001928E-02 0. -1.
    10030    2    1    2    0    0  0.00000000000E+00  0.00000000000E+00  0.93937118185E+02  0.15054174067E+04  0.15024837391E+04 0.  0.
        5    1    3    3  502    0  0.15894360662E+03  0.32593890259E+03 -0.61222409836E+03  0.71157548786E+03  0.46999998093E+01 0. -1.
       -5    1    3    3    0  502 -0.15894360662E+03 -0.32593890259E+03  0.70616121655E+03  0.79384191881E+03  0.46999998093E+01 0.  1.
</event>
<event>
 5   0  0.7454828E-04  0.1487336E+04  0.7818609E-02  0.8892919E-01
       -2   -1    0    0    0  501  0.00000000000E+00  0.00000000000E+00  0.50225798977E+03  0.50225798978E+03  0.25500000920E-02 0. -1.
        2   -1    0    0  501    0  0.00000000000E+00  0.00000000000E+00 -0.11011109914E+04  0.11011109914E+04  0.25500000920E-02 0.  1.
    10030    2    1    2    0    0  0.00000000000E+00  0.00000000000E+00 -0.59885300158E+03  0.16033689811E+04  0.14873355950E+04 0.  0.
        3    1    3    3  502    0 -0.37703313361E+03  0.15080433326E+03 -0.97104396482E+03  0.10525313879E+04  0.10100000352E+00 0.  1.
       -3    1    3    3    0  502  0.37703313361E+03 -0.15080433326E+03  0.37219096324E+03  0.55083759321E+03  0.10100000352E+00 0. -1.
</event>
<event>
 5   0  0.4015204E-04  0.1513300E+04  0.7818609E-02  0.8875657E-01
       -1   -1    0    0    0  501  0.00000000000E+00  0.00000000000E+00  0.99868174442E+03  0.99868174443E+03  0.50400001928E-02 0.  1.
        1   -1    0    0  501    0  0.00000000000E+00  0.00000000000E+00 -0.57327478176E+03  0.57327478179E+03  0.50400001928E-02 0. -1.
    10030    2    1    2    0    0  0.00000000000E+00  0.00000000000E+00  0.42540696265E+03  0.15719565262E+04  0.15132997841E+04 0.  0.
        2    1    3    3  502    0  0.16210810340E+03 -0.71846981252E+03  0.32661476286E+02  0.73725482754E+03  0.25500000920E-02 0. -1.
       -2    1    3    3    0  502 -0.16210810340E+03  0.71846981252E+03  0.39274548637E+03  0.83470169867E+03  0.25500000920E-02 0.  1.
</event>
<event>
 5   0  0.4084462E-04  0.1502916E+04  0.7818609E-02  0.8882516E-01
        1   -1    0    0  501    0  0.00000000000E+00  0.00000000000E+00  0.84355599383E+03  0.84355599384E+03  0.50400001928E-02 0.  1.
       -1   -1    0    0    0  501  0.00000000000E+00  0.00000000000E+00 -0.66941502420E+03  0.66941502422E+03  0.50400001928E-02 0. -1.
    10030    2    1    2    0    0  0.00000000000E+00  0.00000000000E+00  0.17414096963E+03  0.15129710181E+04  0.15029159072E+04 0.  0.
        1    1    3    3  502    0  0.48502505313E+03 -0.98843886319E+02  0.65624654312E+03  0.82199692300E+03  0.50400001928E-02 0.  1.
       -1    1    3    3    0  502 -0.48502505313E+03  0.98843886319E+02 -0.48210557350E+03  0.69097409507E+03  0.50400001928E-02 0. -1.
</event>
<event>
 5   0  0.4086710E-04  0.1486524E+04  0.7818609E-02  0.8893464E-01
        1   -1    0    0  501    0  0.00000000000E+00  0.00000000000E+00  0.74960345846E+03  0.74960345848E+03  0.50400001928E-02 0. -1.
       -1   -1    0    0    0  501  0.00000000000E+00  0.00000000000E+00 -0.73697382824E+03  0.73697382826E+03  0.50400001928E-02 0.  1.
    10030    2    1    2    0    0  0.00000000000E+00  0.00000000000E+00  0.12629630222E+02  0.14865772867E+04  0.14865236365E+04 0.  0.
        3    1    3    3  502    0  0.73095182718E+03  0.27852914943E+02  0.13812155125E+03  0.74440844410E+03  0.10100000352E+00 0. -1.
       -3    1    3    3    0  502 -0.73095182718E+03 -0.27852914943E+02 -0.12549192102E+03  0.74216884263E+03  0.10100000352E+00 0.  1.
</event>
<event>
 5   0  0.4086710E-04  0.1507396E+04  0.7818609E-02  0.8879549E-01
        1   -1    0    0  501    0  0.00000000000E+00  0.00000000000E+00  0.23337346741E+04  0.23337346741E+04  0.50400001928E-02 0. -1.
       -1   -1    0    0    0  501  0.00000000000E+00  0.00000000000E+00 -0.24341272117E+03  0.24341272122E+03  0.50400001928E-02 0.  1.
    10030    2    1    2    0    0  0.00000000000E+00  0.00000000000E+00  0.20903219529E+04  0.25771473953E+04  0.15073960429E+04 0.  0.
        3    1    3    3  502    0  0.42186431001E+03 -0.51030160884E+03  0.42948217972E+03  0.78919717494E+03  0.10100000352E+00 0.  1.
       -3    1    3    3    0  502 -0.42186431001E+03  0.51030160884E+03  0.16608397732E+04  0.17879502204E+04  0.10100000352E+00 0. -1.
</event>
<event>
 5   0  0.7634227E-04  0.1524554E+04  0.7818609E-02  0.8868287E-01
       -2   -1    0    0    0  501  0.00000000000E+00  0.00000000000E+00  0.27205581196E+03  0.27205581197E+03  0.25500000920E-02 0. -1.
        2   -1    0    0  501    0  0.00000000000E+00  0.00000000000E+00 -0.21358338173E+04  0.21358338173E+04  0.25500000920E-02 0.  1.
    10030    2    1    2    0    0  0.00000000000E+00  0.00000000000E+00 -0.18637780053E+04  0.24078896292E+04  0.15245537096E+04 0.  0.
        2    1    3    3  502    0 -0.23385667024E+03  0.53464823291E+03 -0.17064880589E+04  0.18035074634E+04  0.25500000920E-02 0.  1.
       -2    1    3    3    0  502  0.23385667024E+03 -0.53464823291E+03 -0.15728994637E+03  0.60438216586E+03  0.25500000920E-02 0. -1.
</event>
<event>
 5   0  0.3907345E-04  0.1502910E+04  0.7818609E-02  0.8882520E-01
        1   -1    0    0  501    0  0.00000000000E+00  0.00000000000E+00  0.69215732759E+03  0.69215732761E+03  0.50400001928E-02 0. -1.
       -1   -1    0    0    0  501  0.00000000000E+00  0.00000000000E+00 -0.81583301630E+03  0.81583301631E+03  0.50400001928E-02 0.  1.
    10030    2    1    2    0    0  0.00000000000E+00  0.00000000000E+00 -0.12367568871E+03  0.15079903439E+04  0.15029102440E+04 0.  0.
        5    1    3    3  502    0 -0.73724995928E+03  0.98333606096E+02  0.45555290005E+02  0.74518747640E+03  0.46999998093E+01 0. -1.
       -5    1    3    3    0  502  0.73724995928E+03 -0.98333606096E+02 -0.16923097871E+03  0.76280286752E+03  0.46999998093E+01 0.  1.
</event>
<event>
 5   0  0.7672251E-04  0.1515259E+04  0.7818609E-02  0.8874369E-01
        2   -1    0    0  501    0  0.00000000000E+00  0.00000000000E+00  0.13681432657E+04  0.13681432657E+04  0.25500000920E-02 0.  1.
       -2   -1    0    0    0  501  0.00000000000E+00  0.00000000000E+00 -0.41954839723E+03  0.41954839724E+03  0.25500000920E-02 0. -1.
    10030    2    1    2    0    0  0.00000000000E+00  0.00000000000E+00  0.94859486850E+03  0.17876916630E+04  0.15152588087E+04 0.  0.
        5    1    3    3  502    0  0.27683893390E+03  0.97281317422E+02  0.12983612962E+04  0.13311151699E+04  0.46999998093E+01 0.  1.
       -5    1    3    3    0  502 -0.27683893390E+03 -0.97281317422E+02 -0.34976642773E+03  0.45657649305E+03  0.46999998093E+01 0. -1.
</event>
<event>
 5   0  0.4015204E-04  0.1491711E+04  0.7818609E-02  0.8889984E-01
        1   -1    0    0  501    0  0.00000000000E+00  0.00000000000E+00  0.14692543486E+04  0.14692543486E+04  0.50400001928E-02 0.  1.
       -1   -1    0    0    0  501  0.00000000000E+00  0.00000000000E+00 -0.37862780586E+03  0.37862780589E+03  0.50400001928E-02 0. -1.
    10030    2    1    2    0    0  0.00000000000E+00  0.00000000000E+00  0.10906265427E+04  0.18478821545E+04  0.14917111655E+04 0.  0.
        2    1    3    3  502    0 -0.11261054053E+03 -0.26394010166E+03  0.13981346986E+04  0.14272792812E+04  0.25500000920E-02 0.  1.
       -2    1    3    3    0  502  0.11261054053E+03  0.26394010166E+03 -0.30750815585E+03  0.42060287330E+03  0.25500000920E-02 0. -1.
</event>
<event>
 5   0  0.2800375E-04  0.1488368E+04  0.7818609E-02  0.8892225E-01
       -4   -1    0    0    0  501  0.00000000000E+00  0.00000000000E+00  0.60521858914E+03  0.60521992163E+03  0.12699999809E+01 0.  1.
        4   -1    0    0  501    0  0.00000000000E+00  0.00000000000E+00 -0.91505469245E+03  0.91505557376E+03  0.12699999809E+01 0. -1.
    10030    2    1    2    0    0  0.00000000000E+00  0.00000000000E+00 -0.30983610331E+03  0.15202754954E+04  0.14883679555E+04 0.  0.
        3    1    3    3  502    0 -0.65277597506E+03  0.27586035691E+03  0.77095392645E+02  0.71285280381E+03  0.10100000352E+00 0.  1.
       -3    1    3    3    0  502  0.65277597506E+03 -0.27586035691E+03 -0.38693149595E+03  0.80742269159E+03  0.10100000352E+00 0. -1.
</event>
<event>
 5   0  0.4084462E-04  0.1498301E+04  0.7818609E-02  0.8885583E-01
        1   -1    0    0  501    0  0.00000000000E+00  0.00000000000E+00  0.20114677814E+04  0.20114677814E+04  0.50400001928E-02 0. -1.
       -1   -1    0    0    0  501  0.00000000000E+00  0.00000000000E+00 -0.27901357589E+03  0.27901357593E+03  0.50400001928E-02 0.  1.
    10030    2    1    2    0    0  0.00000000000E+00  0.00000000000E+00  0.17324542055E+04  0.22904813574E+04  0.14983014630E+04 0.  0.
        1    1    3    3  502    0 -0.30765328707E+02  0.66958564194E+03  0.13776866019E+04  0.15320939300E+04  0.50400001928E-02 0. -1.
       -1    1    3    3    0  502  0.30765328707E+02 -0.66958564194E+03  0.35476760367E+03  0.75838742737E+03  0.50400001928E-02 0.  1.
</event>
<event>
 5   0  0.4015204E-04  0.1503661E+04  0.7818609E-02  0.8882022E-01
       -1   -1    0    0    0  501  0.00000000000E+00  0.00000000000E+00  0.11547879766E+04  0.11547879767E+04  0.50400001928E-02 0. -1.
        1   -1    0    0  501    0  0.00000000000E+00  0.00000000000E+00 -0.48948283292E+03  0.48948283295E+03  0.50400001928E-02 0.  1.
    10030    2    1    2    0    0  0.00000000000E+00  0.00000000000E+00  0.66530514373E+03  0.16442708096E+04  0.15036607201E+04 0.  0.
        2    1    3    3  502    0 -0.12406858728E+03  0.16091517855E+03  0.11241936585E+04  0.11424088983E+04  0.25500000920E-02 0. -1.
       -2    1    3    3    0  502  0.12406858728E+03 -0.16091517855E+03 -0.45888851478E+03  0.50186191132E+03  0.25500000920E-02 0.  1.
</event>
<event>
 5   0  0.7359897E-04  0.1483637E+04  0.7818609E-02  0.8895407E-01
        2   -1    0    0  501    0  0.00000000000E+00  0.00000000000E+00  0.24139132213E+04  0.24139132213E+04  0.25500000920E-02 0. -1.
       -2   -1    0    0    0  501  0.00000000000E+00  0.00000000000E+00 -0.22796801146E+03  0.22796801147E+03  0.25500000920E-02 0.  1.
    10030    2    1    2    0    0  0.00000000000E+00  0.00000000000E+00  0.21859452098E+04  0.26418812327E+04  0.14836374178E+04 0.  0.
        1    1    3    3  502    0 -0.14996357093E+03 -0.63708868069E+03  0.47120226497E+03  0.80647543930E+03  0.50400001928E-02 0.  1.
       -1    1    3    3    0  502  0.14996357093E+03  0.63708868069E+03  0.17147429448E+04  0.18354057934E+04  0.50400001928E-02 0. -1.
</event>
<event>
 5   0  0.7359897E-04  0.1506912E+04  0.7818609E-02  0.8879870E-01
       -2   -1    0    0    0  501  0.00000000000E+00  0.00000000000E+00  0.18569339046E+04  0.18569339046E+04  0.25500000920E-02 0.  1.
        2   -1    0    0  501    0  0.00000000000E+00  0.00000000000E+00 -0.30571670603E+03  0.30571670604E+03  0.25500000920E-02 0. -1.
    10030    2    1    2    0    0  0.00000000000E+00  0.00000000000E+00  0.15512171985E+04  0.21626506106E+04  0.15069116983E+04 0.  0.
        1    1    3    3  502    0 -0.47256848276E+03 -0.61342704293E+02 -0.61975480952E+02  0.48054641662E+03  0.50400001928E-02 0. -1.
       -1    1    3    3    0  502  0.47256848276E+03  0.61342704293E+02  0.16131926795E+04  0.16821041940E+04  0.50400001928E-02 0.  1.
</event>
<event>
 5   0  0.2800375E-04  0.1512552E+04  0.7818609E-02  0.8876148E-01
        3   -1    0    0  501    0  0.00000000000E+00  0.00000000000E+00  0.88990262666E+03  0.88990263239E+03  0.10100000352E+00 0. -1.
       -3   -1    0    0    0  501  0.00000000000E+00  0.00000000000E+00 -0.64271481693E+03  0.64271482486E+03  0.10100000352E+00 0.  1.
    10030    2    1    2    0    0  0.00000000000E+00  0.00000000000E+00  0.24718780973E+03  0.15326174573E+04  0.15125522989E+04 0.  0.
        4    1    3    3  502    0  0.26326226170E+03  0.37785038971E+03  0.73144701532E+03  0.86434616015E+03  0.12699999809E+01 0. -1.
       -4    1    3    3    0  502 -0.26326226170E+03 -0.37785038971E+03 -0.48425920559E+03  0.66827129710E+03  0.12699999809E+01 0.  1.
</event>
<event>
 5   0  0.4058874E-04  0.1505270E+04  0.7818609E-02  0.8880956E-01
        1   -1    0    0  501    0  0.00000000000E+00  0.00000000000E+00  0.61597421852E+03  0.61597421854E+03  0.50400001928E-02 0. -1.
       -1   -1    0    0    0  501  0.00000000000E+00  0.00000000000E+00 -0.91961570747E+03  0.91961570748E+03  0.50400001928E-02 0.  1.
    10030    2    1    2    0    0  0.00000000000E+00  0.00000000000E+00 -0.30364148895E+03  0.15355899260E+04  0.15052701642E+04 0.  0.
        4    1    3    3  502    0  0.38190028567E+03  0.48460892759E+03  0.28786455301E+03  0.68085332831E+03  0.12699999809E+01 0. -1.
       -4    1    3    3    0  502 -0.38190028567E+03 -0.48460892759E+03 -0.59150604196E+03  0.85473659771E+03  0.12699999809E+01 0.  1.
</event>
<event>
 5   0  0.7672251E-04  0.1493582E+04  0.7818609E-02  0.8888732E-01
        2   -1    0    0  501    0  0.00000000000E+00  0.00000000000E+00  0.25195549897E+04  0.25195549897E+04  0.25500000920E-02 0. -1.
       -2   -1    0    0    0  501  0.00000000000E+00  0.00000000000E+00 -0.22134720680E+03  0.22134720681E+03  0.25500000920E-02 0.  1.
    10030    2    1    2    0    0  0.00000000000E+00  0.00000000000E+00  0.22982077829E+04  0.27409021965E+04  0.14935815470E+04 0.  0.
        5    1    3    3  502    0 -0.20207070364E+03  0.66797557753E+03  0.16368816547E+04  0.17794458640E+04  0.46999998093E+01 0. -1.
       -5    1    3    3    0  502  0.20207070364E+03 -0.66797557753E+03  0.66132612814E+03  0.96145633245E+03  0.46999998093E+01 0.  1.
</event>
<event>
 5   0  0.3907345E-04  0.1478539E+04  0.7818609E-02  0.8898851E-01
        1   -1    0    0  501    0  0.00000000000E+00  0.00000000000E+00  0.93519986166E+03  0.93519986167E+03  0.50400001928E-02 0.  1.
       -1   -1    0    0    0  501  0.00000000000E+00  0.00000000000E+00 -0.58438779723E+03  0.58438779725E+03  0.50400001928E-02 0. -1.
    10030    2    1    2    0    0  0.00000000000E+00  0.00000000000E+00  0.35081206443E+03  0.15195876589E+04  0.14785389912E+04 0.  0.
        5    1    3    3  502    0 -0.44525368113E+03 -0.50835227082E+01  0.78189124239E+03  0.89980702802E+03  0.46999998093E+01 0.  1.
       -5    1    3    3    0  502  0.44525368113E+03  0.50835227082E+01 -0.43107917796E+03  0.61978063089E+03  0.46999998093E+01 0. -1.
</event>
<event>
 5   0  0.4015204E-04  0.1505954E+04  0.7818609E-02  0.8880503E-01
       -1   -1    0    0    0  501  0.00000000000E+00  0.00000000000E+00  0.42833196664E+03  0.42833196667E+03  0.50400001928E-02 0. -1.
        1   -1    0    0  501    0  0.00000000000E+00  0.00000000000E+00 -0.13236800341E+04  0.13236800341E+04  0.50400001928E-02 0.  1.
    10030    2    1    2    0    0  0.00000000000E+00  0.00000000000E+00 -0.89534806746E+03  0.17520120008E+04  0.15059541457E+04 0.  0.
        2    1    3    3  502    0 -0.43781713848E+03 -0.81586782378E+02  0.25868117764E+03  0.51503029181E+03  0.25500000920E-02 0. -1.
       -2    1    3    3    0  502  0.43781713848E+03  0.81586782378E+02 -0.11540292451E+04  0.12369817090E+04  0.25500000920E-02 0.  1.
</event>
<event>
 5   0  0.7672251E-04  0.1514576E+04  0.7818609E-02  0.8874817E-01
       -2   -1    0    0    0  501  0.00000000000E+00  0.00000000000E+00  0.25070718554E+03  0.25070718556E+03  0.25500000920E-02 0. -1.
        2   -1    0    0  501    0  0.00000000000E+00  0.00000000000E+00 -0.22874705557E+04  0.22874705557E+04  0.25500000920E-02 0.  1.
    10030    2    1    2    0    0  0.00000000000E+00  0.00000000000E+00 -0.20367633702E+04  0.25381777413E+04  0.15145762510E+04 0.  0.
        5    1    3    3  502    0 -0.60443371642E+03  0.24843911894E+03 -0.16595957810E+04  0.17836317893E+04  0.46999998093E+01 0.  1.
       -5    1    3    3    0  502  0.60443371642E+03 -0.24843911894E+03 -0.37716758916E+03  0.75454595200E+03  0.46999998093E+01 0. -1.
</event>
<event>
 5   0  0.7359897E-04  0.1451857E+04  0.7818609E-02  0.8917114E-01
       -2   -1    0    0    0  501  0.00000000000E+00  0.00000000000E+00  0.30881475608E+03  0.30881475609E+03  0.25500000920E-02 0. -1.
        2   -1    0    0  501    0  0.00000000000E+00  0.00000000000E+00 -0.17064345582E+04  0.17064345582E+04  0.25500000920E-02 0.  1.
    10030    2    1    2    0    0  0.00000000000E+00  0.00000000000E+00 -0.13976198021E+04  0.20152493143E+04  0.14518569790E+04 0.  0.
        1    1    3    3  502    0 -0.32428112084E+03 -0.17879356498E+02  0.20234775208E+03  0.38265196918E+03  0.50400001928E-02 0. -1.
       -1    1    3    3    0  502  0.32428112084E+03  0.17879356498E+02 -0.15999675542E+04  0.16325973451E+04  0.50400001928E-02 0.  1.
</event>
<event>
 5   0  0.4015204E-04  0.1496446E+04  0.7818609E-02  0.8886819E-01
        1   -1    0    0  501    0  0.00000000000E+00  0.00000000000E+00  0.70504132383E+03  0.70504132384E+03  0.50400001928E-02 0. -1.
       -1   -1    0    0    0  501  0.00000000000E+00  0.00000000000E+00 -0.79404986012E+03  0.79404986014E+03  0.50400001928E-02 0.  1.
    10030    2    1    2    0    0  0.00000000000E+00  0.00000000000E+00 -0.89008536293E+02  0.14990911840E+04  0.14964464101E+04 0.  0.
        2    1    3    3  502    0 -0.66071217656E+03 -0.35039657476E+03 -0.67339834463E+02  0.75090145370E+03  0.25500000920E-02 0. -1.
       -2    1    3    3    0  502  0.66071217656E+03  0.35039657476E+03 -0.21668701830E+02  0.74818973028E+03  0.25500000920E-02 0.  1.
</event>
<event>
 5   0  0.3907345E-04  0.1522848E+04  0.7818609E-02  0.8869400E-01
        1   -1    0    0  501    0  0.00000000000E+00  0.00000000000E+00  0.88897911996E+03  0.88897911998E+03  0.50400001928E-02 0. -1.
       -1   -1    0    0    0  501  0.00000000000E+00  0.00000000000E+00 -0.65217137828E+03  0.65217137830E+03  0.50400001928E-02 0.  1.
    10030    2    1    2    0    0  0.00000000000E+00  0.00000000000E+00  0.23680774169E+03  0.15411504983E+04  0.15228483023E+04 0.  0.
        5    1    3    3  502    0 -0.73209957813E+03  0.19477859764E+03  0.41091006631E+02  0.75869562752E+03  0.46999998093E+01 0.  1.
       -5    1    3    3    0  502  0.73209957813E+03 -0.19477859764E+03  0.19571673505E+03  0.78245487076E+03  0.46999998093E+01 0. -1.
</event>
<event>
 5   0  0.4086710E-04  0.1506188E+04  0.7818609E-02  0.8880349E-01
       -1   -1    0    0    0  501  0.00000000000E+00  0.00000000000E+00  0.46216984120E+03  0.46216984123E+03  0.50400001928E-02 0.  1.
        1   -1    0    0  501    0  0.00000000000E+00  0.00000000000E+00 -0.12271470554E+04  0.12271470554E+04  0.50400001928E-02 0. -1.
    10030    2    1    2    0    0  0.00000000000E+00  0.00000000000E+00 -0.76497721418E+03  0.16893168966E+04  0.15061877171E+04 0.  0.
        3    1    3    3  502    0  0.29369614763E+02 -0.53522499308E+03 -0.97578668115E+03  0.11133229652E+04  0.10100000352E+00 0. -1.
       -3    1    3    3    0  502 -0.29369614763E+02  0.53522499308E+03  0.21080946697E+03  0.57599393144E+03  0.10100000352E+00 0.  1.
</event>
<event>
 5   0  0.4086710E-04  0.1503850E+04  0.7818609E-02  0.8881897E-01
        1   -1    0    0  501    0  0.00000000000E+00  0.00000000000E+00  0.74304238319E+03  0.74304238321E+03  0.50400001928E-02 0.  1.
       -1   -1    0    0    0  501  0.00000000000E+00  0.00000000000E+00 -0.76091369009E+03  0.76091369011E+03  0.50400001928E-02 0. -1.
    10030    2    1    2    0    0  0.00000000000E+00  0.00000000000E+00 -0.17871306902E+02  0.15039560733E+04  0.15038498884E+04 0.  0.
        3    1    3    3  502    0  0.33041071827E+03 -0.13009338952E+03  0.65390491346E+03  0.74410159172E+03  0.10100000352E+00 0.  1.
       -3    1    3    3    0  502 -0.33041071827E+03  0.13009338952E+03 -0.67177622037E+03  0.75985448159E+03  0.10100000352E+00 0. -1.
</event>
<event>
 5   0  0.3907345E-04  0.1386011E+04  0.7818609E-02  0.8964008E-01
       -1   -1    0    0    0  501  0.00000000000E+00  0.00000000000E+00  0.47959136412E+03  0.47959136414E+03  0.50400001928E-02 0. -1.
        1   -1    0    0  501    0  0.00000000000E+00  0.00000000000E+00 -0.10013864809E+04  0.10013864809E+04  0.50400001928E-02 0.  1.
    10030    2    1    2    0    0  0.00000000000E+00  0.00000000000E+00 -0.52179511682E+03  0.14809778451E+04  0.13860105460E+04 0.  0.
        5    1    3    3  502    0 -0.68697301677E+03  0.86535576016E+02 -0.29138100112E+03  0.75122919905E+03  0.46999998093E+01 0.  1.
       -5    1    3    3    0  502  0.68697301677E+03 -0.86535576016E+02 -0.23041411570E+03  0.72974864604E+03  0.46999998093E+01 0. -1.
</event>
<event>
 5   0  0.4058874E-04  0.1464840E+04  0.7818609E-02  0.8908177E-01
       -1   -1    0    0    0  501  0.00000000000E+00  0.00000000000E+00  0.36953795185E+03  0.36953795188E+03  0.50400001928E-02 0.  1.
        1   -1    0    0  501    0  0.00000000000E+00  0.00000000000E+00 -0.14516471387E+04  0.14516471387E+04  0.50400001928E-02 0. -1.
    10030    2    1    2    0    0  0.00000000000E+00  0.00000000000E+00 -0.10821091868E+04  0.18211850906E+04  0.14648395277E+04 0.  0.
        4    1    3    3  502    0  0.36909747303E+02 -0.66343316556E+03 -0.15799307329E+03  0.68298559189E+03  0.12699999809E+01 0.  1.
       -4    1    3    3    0  502 -0.36909747303E+02  0.66343316556E+03 -0.92411611355E+03  0.11381994987E+04  0.12699999809E+01 0. -1.
</event>
<event>
 5   0  0.3907345E-04  0.1497097E+04  0.7818609E-02  0.8886385E-01
        1   -1    0    0  501    0  0.00000000000E+00  0.00000000000E+00  0.12591189473E+04  0.12591189473E+04  0.50400001928E-02 0.  1.
       -1   -1    0    0    0  501  0.00000000000E+00  0.00000000000E+00 -0.44501364051E+03  0.44501364054E+03  0.50400001928E-02 0. -1.
    10030    2    1    2    0    0  0.00000000000E+00  0.00000000000E+00  0.81410530678E+03  0.17041325878E+04  0.14970973336E+04 0.  0.
        5    1    3    3  502    0 -0.70499823143E+03 -0.15906189912E+03  0.62888752166E+03  0.95804216973E+03  0.46999998093E+01 0.  1.
       -5    1    3    3    0  502  0.70499823143E+03  0.15906189912E+03  0.18521778512E+03  0.74609041811E+03  0.46999998093E+01 0. -1.
</event>
<event>
 5   0  0.7547580E-04  0.1513703E+04  0.7818609E-02  0.8875391E-01
       -2   -1    0    0    0  501  0.00000000000E+00  0.00000000000E+00  0.37501575254E+03  0.37501575254E+03  0.25500000920E-02 0.  1.
        2   -1    0    0  501    0  0.00000000000E+00  0.00000000000E+00 -0.15274670287E+04  0.15274670287E+04  0.25500000920E-02 0. -1.
    10030    2    1    2    0    0  0.00000000000E+00  0.00000000000E+00 -0.11524512762E+04  0.19024827813E+04  0.15137030056E+04 0.  0.
        4    1    3    3  502    0  0.17168154089E+03 -0.12509837408E+03 -0.14892302314E+04  0.15043046399E+04  0.12699999809E+01 0. -1.
       -4    1    3    3    0  502 -0.17168154089E+03  0.12509837408E+03  0.33677895521E+03  0.39817814135E+03  0.12699999809E+01 0.  1.
</event>
<event>
 5   0  0.3907345E-04  0.1492351E+04  0.7818609E-02  0.8889556E-01
        1   -1    0    0  501    0  0.00000000000E+00  0.00000000000E+00  0.25430099778E+03  0.25430099783E+03  0.50400001928E-02 0.  1.
       -1   -1    0    0    0  501  0.00000000000E+00  0.00000000000E+00 -0.21894436069E+04  0.21894436069E+04  0.50400001928E-02 0. -1.
    10030    2    1    2    0    0  0.00000000000E+00  0.00000000000E+00 -0.19351426091E+04  0.24437446047E+04  0.14923507549E+04 0.  0.
        5    1    3    3  502    0 -0.55995018256E+03 -0.46386180616E+03 -0.69334951763E+03  0.10047226611E+04  0.46999998093E+01 0.  1.
       -5    1    3    3    0  502  0.55995018256E+03  0.46386180616E+03 -0.12417930914E+04  0.14390219436E+04  0.46999998093E+01 0. -1.
</event>
<event>
 5   0  0.7454828E-04  0.1503265E+04  0.7818609E-02  0.8882285E-01
       -2   -1    0    0    0  501  0.00000000000E+00  0.00000000000E+00  0.31799432723E+03  0.31799432724E+03  0.25500000920E-02 0. -1.
        2   -1    0    0  501    0  0.00000000000E+00  0.00000000000E+00 -0.17766086654E+04  0.17766086654E+04  0.25500000920E-02 0.  1.
    10030    2    1    2    0    0  0.00000000000E+00  0.00000000000E+00 -0.14586143382E+04  0.20946029927E+04  0.15032650829E+04 0.  0.
        3    1    3    3  502    0 -0.17454318863E+03  0.50553900570E+02 -0.17455408249E+04  0.17549740178E+04  0.10100000352E+00 0.  1.
       -3    1    3    3    0  502  0.17454318863E+03 -0.50553900570E+02  0.28692648673E+03  0.33962897484E+03  0.10100000352E+00 0. -1.
</event>
<event>
 5   0  0.7454828E-04  0.1525344E+04  0.7818609E-02  0.8867772E-01
        2   -1    0    0  501    0  0.00000000000E+00  0.00000000000E+00  0.11616515028E+04  0.11616515028E+04  0.25500000920E-02 0. -1.
       -2   -1    0    0    0  501  0.00000000000E+00  0.00000000000E+00 -0.50072533072E+03  0.50072533073E+03  0.25500000920E-02 0.  1.
    10030    2    1    2    0    0  0.00000000000E+00  0.00000000000E+00  0.66092617204E+03  0.16623768335E+04  0.15253436766E+04 0.  0.
        3    1    3    3  502    0  0.26691463676E+02  0.63479634548E+03 -0.12932630805E+03  0.64838579459E+03  0.10100000352E+00 0.  1.
       -3    1    3    3    0  502 -0.26691463676E+02 -0.63479634548E+03  0.79025248009E+03  0.10139910389E+04  0.10100000352E+00 0. -1.
</event>
<event>
 5   0  0.2800375E-04  0.1503890E+04  0.7818609E-02  0.8881870E-01
       -4   -1    0    0    0  501  0.00000000000E+00  0.00000000000E+00  0.20261673551E+04  0.20261677532E+04  0.12699999809E+01 0. -1.
        4   -1    0    0  501    0  0.00000000000E+00  0.00000000000E+00 -0.27905761635E+03  0.27906050624E+03  0.12699999809E+01 0.  1.
    10030    2    1    2    0    0  0.00000000000E+00  0.00000000000E+00  0.17471097388E+04  0.23052282594E+04  0.15038899190E+04 0.  0.
        5    1    3    3  502    0  0.26858774087E+03  0.56891156639E+03  0.24229231826E+03  0.67418647450E+03  0.46999998093E+01 0.  1.
       -5    1    3    3    0  502 -0.26858774087E+03 -0.56891156639E+03  0.15048174205E+04  0.16310417849E+04  0.46999998093E+01 0. -1.
</event>
<event>
 5   0  0.7672251E-04  0.1495967E+04  0.7818609E-02  0.8887139E-01
       -2   -1    0    0    0  501  0.00000000000E+00  0.00000000000E+00  0.29400875190E+03  0.29400875191E+03  0.25500000920E-02 0. -1.
        2   -1    0    0  501    0  0.00000000000E+00  0.00000000000E+00 -0.19029345589E+04  0.19029345589E+04  0.25500000920E-02 0.  1.
    10030    2    1    2    0    0  0.00000000000E+00  0.00000000000E+00 -0.16089258070E+04  0.21969433108E+04  0.14959671315E+04 0.  0.
        5    1    3    3  502    0  0.59196124465E+03  0.37117277579E+03 -0.11965207206E+04  0.13855941936E+04  0.46999998093E+01 0.  1.
       -5    1    3    3    0  502 -0.59196124465E+03 -0.37117277579E+03 -0.41240508644E+03  0.81134911719E+03  0.46999998093E+01 0. -1.
</event>
<event>
 5   0  0.3907345E-04  0.1505860E+04  0.7818609E-02  0.8880565E-01
       -1   -1    0    0    0  501  0.00000000000E+00  0.00000000000E+00  0.38344795491E+03  0.38344795495E+03  0.50400001928E-02 0.  1.
        1   -1    0    0  501    0  0.00000000000E+00  0.00000000000E+00 -0.14784375269E+04  0.14784375269E+04  0.50400001928E-02 0. -1.
    10030    2    1    2    0    0  0.00000000000E+00  0.00000000000E+00 -0.10949895720E+04  0.18618854818E+04  0.15058603470E+04 0.  0.
        5    1    3    3  502    0 -0.37551029766E+03  0.50634550653E+03 -0.10565181846E+04  0.12303034260E+04  0.46999998093E+01 0. -1.
       -5    1    3    3    0  502  0.37551029766E+03 -0.50634550653E+03 -0.38471387389E+02  0.63158205585E+03  0.46999998093E+01 0.  1.
</event>
<event>
 5   0  0.4015204E-04  0.1476106E+04  0.7818609E-02  0.8900500E-01
       -1   -1    0    0    0  501  0.00000000000E+00  0.00000000000E+00  0.26303948904E+03  0.26303948909E+03  0.50400001928E-02 0.  1.
        1   -1    0    0  501    0  0.00000000000E+00  0.00000000000E+00 -0.20708752354E+04  0.20708752354E+04  0.50400001928E-02 0. -1.
    10030    2    1    2    0    0  0.00000000000E+00  0.00000000000E+00 -0.18078357464E+04  0.23339147245E+04  0.14761056383E+04 0.  0.
        2    1    3    3  502    0 -0.25288349723E+03  0.98104684872E+02 -0.19892081973E+04  0.20076164586E+04  0.25500000920E-02 0. -1.
       -2    1    3    3    0  502  0.25288349723E+03 -0.98104684872E+02  0.18137245098E+03  0.32629826593E+03  0.25500000920E-02 0.  1.
</event>
<event>
 5   0  0.7672251E-04  0.1472493E+04  0.7818609E-02  0.8902954E-01
        2   -1    0    0  501    0  0.00000000000E+00  0.00000000000E+00  0.12057163467E+04  0.12057163467E+04  0.25500000920E-02 0. -1.
       -2   -1    0    0    0  501  0.00000000000E+00  0.00000000000E+00 -0.44957390606E+03  0.44957390606E+03  0.25500000920E-02 0.  1.
    10030    2    1    2    0    0  0.00000000000E+00  0.00000000000E+00  0.75614244062E+03  0.16552902527E+04  0.14724925909E+04 0.  0.
        5    1    3    3  502    0 -0.26671665799E+03  0.68334283727E+03  0.30749778393E+03  0.79540693108E+03  0.46999998093E+01 0.  1.
       -5    1    3    3    0  502  0.26671665799E+03 -0.68334283727E+03  0.44864465669E+03  0.85988332166E+03  0.46999998093E+01 0. -1.
</event>
<event>
 5   0  0.7359897E-04  0.1502158E+04  0.7818609E-02  0.8883019E-01
       -2   -1    0    0    0  501  0.00000000000E+00  0.00000000000E+00  0.44125783849E+03  0.44125783850E+03  0.25500000920E-02 0.  1.
        2   -1    0    0  501    0  0.00000000000E+00  0.00000000000E+00 -0.12784352533E+04  0.12784352533E+04  0.25500000920E-02 0. -1.
    10030    2    1    2    0    0  0.00000000000E+00  0.00000000000E+00 -0.83717741478E+03  0.17196930918E+04  0.15021578832E+04 0.  0.
        1    1    3    3  502    0 -0.36523133927E+03  0.57961852030E+03 -0.77101334369E+03  0.10314131745E+04  0.50400001928E-02 0. -1.
       -1    1    3    3    0  502  0.36523133927E+03 -0.57961852030E+03 -0.66164071086E+02  0.68827991732E+03  0.50400001928E-02 0.  1.
</event>
<event>
 5   0  0.4015204E-04  0.1506207E+04  0.7818609E-02  0.8880336E-01
        1   -1    0    0  501    0  0.00000000000E+00  0.00000000000E+00  0.56136083712E+03  0.56136083714E+03  0.50400001928E-02 0. -1.
       -1   -1    0    0    0  501  0.00000000000E+00  0.00000000000E+00 -0.10103393176E+04  0.10103393176E+04  0.50400001928E-02 0.  1.
    10030    2    1    2    0    0  0.00000000000E+00  0.00000000000E+00 -0.44897848050E+03  0.15717001548E+04  0.15062070577E+04 0.  0.
        2    1    3    3  502    0  0.49445111707E+03  0.74748611302E+02  0.36310857015E+03  0.61799441404E+03  0.25500000920E-02 0. -1.
       -2    1    3    3    0  502 -0.49445111707E+03 -0.74748611302E+02 -0.81208705065E+03  0.95370574073E+03  0.25500000920E-02 0.  1.
</event>
<event>
 5   0  0.7359897E-04  0.1491184E+04  0.7818609E-02  0.8890337E-01
       -2   -1    0    0    0  501  0.00000000000E+00  0.00000000000E+00  0.24586348254E+03  0.24586348255E+03  0.25500000920E-02 0. -1.
        2   -1    0    0  501    0  0.00000000000E+00  0.00000000000E+00 -0.22610408392E+04  0.22610408392E+04  0.25500000920E-02 0.  1.
    10030    2    1    2    0    0  0.00000000000E+00  0.00000000000E+00 -0.20151773566E+04  0.25069043217E+04  0.14911839255E+04 0.  0.
        1    1    3    3  502    0 -0.46100658073E+03 -0.51146857829E+03 -0.14883512304E+04  0.16399135828E+04  0.50400001928E-02 0.  1.
       -1    1    3    3    0  502  0.46100658073E+03  0.51146857829E+03 -0.52682612624E+03  0.86699073892E+03  0.50400001928E-02 0. -1.
</event>
<event>
 5   0  0.4058874E-04  0.1493759E+04  0.7818609E-02  0.8888614E-01
       -1   -1    0    0    0  501  0.00000000000E+00  0.00000000000E+00  0.77492856110E+03  0.77492856112E+03  0.50400001928E-02 0. -1.
        1   -1    0    0  501    0  0.00000000000E+00  0.00000000000E+00 -0.71984559922E+03  0.71984559924E+03  0.50400001928E-02 0.  1.
    10030    2    1    2    0    0  0.00000000000E+00  0.00000000000E+00  0.55082961877E+02  0.14947741604E+04  0.14937589022E+04 0.  0.
        4    1    3    3  502    0 -0.40171367192E+03  0.98997349965E+02 -0.59469538789E+03  0.72445742924E+03  0.12699999809E+01 0.  1.
       -4    1    3    3    0  502  0.40171367192E+03 -0.98997349965E+02  0.64977834977E+03  0.77031673111E+03  0.12699999809E+01 0. -1.
</event>
<event>
 5   0  0.7454828E-04  0.1504481E+04  0.7818609E-02  0.8881478E-01
        2   -1    0    0  501    0  0.00000000000E+00  0.00000000000E+00  0.18227883351E+04  0.18227883351E+04  0.25500000920E-02 0.  1.
       -2   -1    0    0    0  501  0.00000000000E+00  0.00000000000E+00 -0.31043974788E+03  0.31043974789E+03  0.25500000920E-02 0. -1.
    10030    2    1    2    0    0  0.00000000000E+00  0.00000000000E+00  0.15123485873E+04  0.21332280830E+04  0.15044812411E+04 0.  0.
        3    1    3    3  502    0 -0.52260205005E+03  0.53557605471E+03  0.64715759126E+03  0.98932682730E+03  0.10100000352E+00 0.  1.
       -3    1    3    3    0  502  0.52260205005E+03 -0.53557605471E+03  0.86519099599E+03  0.11439012557E+04  0.10100000352E+00 0. -1.
</event>
<event>
 5   0  0.4058874E-04  0.1517134E+04  0.7818609E-02  0.8873138E-01
       -1   -1    0    0    0  501  0.00000000000E+00  0.00000000000E+00  0.65465000198E+03  0.65465000200E+03  0.50400001928E-02 0.  1.
        1   -1    0    0  501    0  0.00000000000E+00  0.00000000000E+00 -0.87897996529E+03  0.87897996530E+03  0.50400001928E-02 0. -1.
    10030    2    1    2    0    0  0.00000000000E+00  0.00000000000E+00 -0.22432996331E+03  0.15336299673E+04  0.15171344516E+04 0.  0.
        4    1    3    3  502    0  0.38045947472E+02 -0.72015008800E+03  0.12567811709E+03  0.73202475735E+03  0.12699999809E+01 0.  1.
       -4    1    3    3    0  502 -0.38045947472E+02  0.72015008800E+03 -0.35000808039E+03  0.80160520994E+03  0.12699999809E+01 0. -1.
</event>
<event>
 5   0  0.7454828E-04  0.1494330E+04  0.7818609E-02  0.8888232E-01
       -2   -1    0    0    0  501  0.00000000000E+00  0.00000000000E+00  0.19686371863E+03  0.19686371865E+03  0.25500000920E-02 0. -1.
        2   -1    0    0  501    0  0.00000000000E+00  0.00000000000E+00 -0.28357472391E+04  0.28357472391E+04  0.25500000920E-02 0.  1.
    10030    2    1    2    0    0  0.00000000000E+00  0.00000000000E+00 -0.26388835205E+04  0.30326109578E+04  0.14943302803E+04 0.  0.
        3    1    3    3  502    0  0.23934476140E+03 -0.59411413718E+03 -0.53871630477E+03  0.83694252493E+03  0.10100000352E+00 0. -1.
       -3    1    3    3    0  502 -0.23934476140E+03  0.59411413718E+03 -0.21001672157E+04  0.21956684328E+04  0.10100000352E+00 0.  1.
</event>
<event>
 5   0  0.7547580E-04  0.1487707E+04  0.7818609E-02  0.8892669E-01
       -2   -1    0    0    0  501  0.00000000000E+00  0.00000000000E+00  0.40147521196E+03  0.40147521197E+03  0.25500000920E-02 0.  1.
        2   -1    0    0  501    0  0.00000000000E+00  0.00000000000E+00 -0.13782113070E+04  0.13782113070E+04  0.25500000920E-02 0. -1.
    10030    2    1    2    0    0  0.00000000000E+00  0.00000000000E+00 -0.97673609507E+03  0.17796865190E+04  0.14877065257E+04 0.  0.
        4    1    3    3  502    0  0.46727744596E+03 -0.57876285546E+03 -0.48694788393E+03  0.88906383850E+03  0.12699999809E+01 0.  1.
       -4    1    3    3    0  502 -0.46727744596E+03  0.57876285546E+03 -0.48978821114E+03  0.89062268051E+03  0.12699999809E+01 0. -1.
</event>
<event>
 5   0  0.7634227E-04  0.1491678E+04  0.7818609E-02  0.8890006E-01
        2   -1    0    0  501    0  0.00000000000E+00  0.00000000000E+00  0.94607352471E+03  0.94607352471E+03  0.25500000920E-02 0. -1.
       -2   -1    0    0    0  501  0.00000000000E+00  0.00000000000E+00 -0.58798391560E+03  0.58798391561E+03  0.25500000920E-02 0.  1.
    10030    2    1    2    0    0  0.00000000000E+00  0.00000000000E+00  0.35808960910E+03  0.15340574403E+04  0.14916782703E+04 0.  0.
        2    1    3    3  502    0 -0.67576066768E+03 -0.31708305680E+02  0.50200188858E+03  0.84241545141E+03  0.25500000920E-02 0. -1.
       -2    1    3    3    0  502  0.67576066768E+03  0.31708305680E+02 -0.14391227948E+03  0.69164198891E+03  0.25500000920E-02 0.  1.
</event>
<event>
 5   0  0.7634227E-04  0.1496053E+04  0.7818609E-02  0.8887082E-01
        2   -1    0    0  501    0  0.00000000000E+00  0.00000000000E+00  0.55053282397E+03  0.55053282398E+03  0.25500000920E-02 0. -1.
       -2   -1    0    0    0  501  0.00000000000E+00  0.00000000000E+00 -0.10163679915E+04  0.10163679915E+04  0.25500000920E-02 0.  1.
    10030    2    1    2    0    0  0.00000000000E+00  0.00000000000E+00 -0.46583516754E+03  0.15669008155E+04  0.14960533955E+04 0.  0.
        2    1    3    3  502    0 -0.63750113692E+03  0.33230521503E+03 -0.16468087244E+02  0.71910058644E+03  0.25500000920E-02 0. -1.
       -2    1    3    3    0  502  0.63750113692E+03 -0.33230521503E+03 -0.44936708029E+03  0.84780022905E+03  0.25500000920E-02 0.  1.
</event>
<event>
 5   0  0.4058874E-04  0.1522223E+04  0.7818609E-02  0.8869808E-01
       -1   -1    0    0    0  501  0.00000000000E+00  0.00000000000E+00  0.43062895709E+03  0.43062895712E+03  0.50400001928E-02 0. -1.
        1   -1    0    0  501    0  0.00000000000E+00  0.00000000000E+00 -0.13452196007E+04  0.13452196007E+04  0.50400001928E-02 0.  1.
    10030    2    1    2    0    0  0.00000000000E+00  0.00000000000E+00 -0.91459064364E+03  0.17758485579E+04  0.15222227350E+04 0.  0.
        4    1    3    3  502    0  0.54427192980E+03  0.12512926468E+03  0.14596967564E+03  0.57723307732E+03  0.12699999809E+01 0. -1.
       -4    1    3    3    0  502 -0.54427192980E+03 -0.12512926468E+03 -0.10605603193E+04  0.11986154805E+04  0.12699999809E+01 0.  1.
</event>
<event>
 5   0  0.7634227E-04  0.1494627E+04  0.7818609E-02  0.8888034E-01
        2   -1    0    0  501    0  0.00000000000E+00  0.00000000000E+00  0.30400056863E+04  0.30400056863E+04  0.25500000920E-02 0.  1.
       -2   -1    0    0    0  501  0.00000000000E+00  0.00000000000E+00 -0.18370942213E+03  0.18370942215E+03  0.25500000920E-02 0. -1.
    10030    2    1    2    0    0  0.00000000000E+00  0.00000000000E+00  0.28562962642E+04  0.32237151085E+04  0.14946272953E+04 0.  0.
        2    1    3    3  502    0  0.12522513184E+03  0.49496060186E+03  0.25110156785E+03  0.56896338056E+03  0.25500000920E-02 0. -1.
       -2    1    3    3    0  502 -0.12522513184E+03 -0.49496060186E+03  0.26051946963E+04  0.26547517279E+04  0.25500000920E-02 0.  1.
</event>
<event>
 5   0  0.7672251E-04  0.1506920E+04  0.7818609E-02  0.8879864E-01
       -2   -1    0    0    0  501  0.00000000000E+00  0.00000000000E+00  0.70629329407E+03  0.70629329408E+03  0.25500000920E-02 0. -1.
        2   -1    0    0  501    0  0.00000000000E+00  0.00000000000E+00 -0.80377658419E+03  0.80377658419E+03  0.25500000920E-02 0.  1.
    10030    2    1    2    0    0  0.00000000000E+00  0.00000000000E+00 -0.97483290113E+02  0.15100698783E+04  0.15069200528E+04 0.  0.
        5    1    3    3  502    0  0.51010895959E+03  0.27776513537E+03  0.43217324901E+03  0.72398924594E+03  0.46999998093E+01 0. -1.
       -5    1    3    3    0  502 -0.51010895959E+03 -0.27776513537E+03 -0.52965653912E+03  0.78608063232E+03  0.46999998093E+01 0.  1.
</event>
<event>
 5   0  0.7672251E-04  0.1501066E+04  0.7818609E-02  0.8883744E-01
        2   -1    0    0  501    0  0.00000000000E+00  0.00000000000E+00  0.24935623726E+04  0.24935623726E+04  0.25500000920E-02 0. -1.
       -2   -1    0    0    0  501  0.00000000000E+00  0.00000000000E+00 -0.22590155901E+03  0.22590155903E+03  0.25500000920E-02 0.  1.
    10030    2    1    2    0    0  0.00000000000E+00  0.00000000000E+00  0.22676608136E+04  0.27194639316E+04  0.15010657913E+04 0.  0.
        5    1    3    3  502    0 -0.44227442237E+03 -0.48456806253E+03  0.17942019112E+04  0.19103914416E+04  0.46999998093E+01 0. -1.
       -5    1    3    3    0  502  0.44227442237E+03  0.48456806253E+03  0.47345890238E+03  0.80907249005E+03  0.46999998093E+01 0.  1.
</event>
<event>
 5   0  0.7454828E-04  0.1436480E+04  0.7818609E-02  0.8927828E-01
       -2   -1    0    0    0  501  0.00000000000E+00  0.00000000000E+00  0.17489007906E+03  0.17489007907E+03  0.25500000920E-02 0. -1.
        2   -1    0    0  501    0  0.00000000000E+00  0.00000000000E+00 -0.29496747715E+04  0.29496747715E+04  0.25500000920E-02 0.  1.
    10030    2    1    2    0    0  0.00000000000E+00  0.00000000000E+00 -0.27747846925E+04  0.31245648506E+04  0.14364802178E+04 0.  0.
        3    1    3    3  502    0  0.28516543766E+03 -0.21426671943E+03 -0.31381243876E+02  0.35807030952E+03  0.10100000352E+00 0. -1.
       -3    1    3    3    0  502 -0.28516543766E+03  0.21426671943E+03 -0.27434034486E+04  0.27664945411E+04  0.10100000352E+00 0.  1.
</event>
<event>
 5   0  0.3907345E-04  0.1482786E+04  0.7818609E-02  0.8895981E-01
       -1   -1    0    0    0  501  0.00000000000E+00  0.00000000000E+00  0.48891596354E+03  0.48891596357E+03  0.50400001928E-02 0.  1.
        1   -1    0    0  501    0  0.00000000000E+00  0.00000000000E+00 -0.11242502183E+04  0.11242502183E+04  0.50400001928E-02 0. -1.
    10030    2    1    2    0    0  0.00000000000E+00  0.00000000000E+00 -0.63533425471E+03  0.16131661818E+04  0.14827864024E+04 0.  0.
        5    1    3    3  502    0 -0.48688618278E+03  0.39508363876E+03  0.11270818494E+03  0.63708277448E+03  0.46999998093E+01 0.  1.
       -5    1    3    3    0  502  0.48688618278E+03 -0.39508363876E+03 -0.74804243966E+03  0.97608340736E+03  0.46999998093E+01 0. -1.
</event>
<event>
 5   0  0.4084462E-04  0.1270952E+04  0.7818609E-02  0.9052923E-01
        1   -1    0    0  501    0  0.00000000000E+00  0.00000000000E+00  0.69453072250E+03  0.69453072252E+03  0.50400001928E-02 0. -1.
       -1   -1    0    0    0  501  0.00000000000E+00  0.00000000000E+00 -0.58144304275E+03  0.58144304278E+03  0.50400001928E-02 0.  1.
    10030    2    1    2    0    0  0.00000000000E+00  0.00000000000E+00  0.11308767975E+03  0.12759737653E+04  0.12709524879E+04 0.  0.
        1    1    3    3  502    0  0.21434443945E+03  0.90485147003E+02  0.65023365347E+03  0.69060473839E+03  0.50400001928E-02 0. -1.
       -1    1    3    3    0  502 -0.21434443945E+03 -0.90485147003E+02 -0.53714597372E+03  0.58536902691E+03  0.50400001928E-02 0.  1.
</event>
<event>
 5   0  0.7454828E-04  0.1499471E+04  0.7818609E-02  0.8884804E-01
       -2   -1    0    0    0  501  0.00000000000E+00  0.00000000000E+00  0.99907910315E+03  0.99907910315E+03  0.25500000920E-02 0.  1.
        2   -1    0    0  501    0  0.00000000000E+00  0.00000000000E+00 -0.56262179500E+03  0.56262179500E+03  0.25500000920E-02 0. -1.
    10030    2    1    2    0    0  0.00000000000E+00  0.00000000000E+00  0.43645730815E+03  0.15617008982E+04  0.14994714780E+04 0.  0.
        3    1    3    3  502    0  0.40303073251E+03 -0.52486971973E+03  0.58524753438E+03  0.88342327383E+03  0.10100000352E+00 0.  1.
       -3    1    3    3    0  502 -0.40303073251E+03  0.52486971973E+03 -0.14879022624E+03  0.67827762432E+03  0.10100000352E+00 0. -1.
</event>
<event>
 5   0  0.4015204E-04  0.1573707E+04  0.7818609E-02  0.8836866E-01
       -1   -1    0    0    0  501  0.00000000000E+00  0.00000000000E+00  0.52684056755E+03  0.52684056757E+03  0.50400001928E-02 0. -1.
        1   -1    0    0  501    0  0.00000000000E+00  0.00000000000E+00 -0.11751912598E+04  0.11751912598E+04  0.50400001928E-02 0.  1.
    10030    2    1    2    0    0  0.00000000000E+00  0.00000000000E+00 -0.64835069225E+03  0.17020318274E+04  0.15737069998E+04 0.  0.
        2    1    3    3  502    0 -0.55333107015E+03  0.41722832353E+03 -0.72723507937E+03  0.10045524415E+04  0.25500000920E-02 0.  1.
       -2    1    3    3    0  502  0.55333107015E+03 -0.41722832353E+03  0.78884387114E+02  0.69747938584E+03  0.25500000920E-02 0. -1.
</event>
<event>
 5   0  0.7547580E-04  0.1501878E+04  0.7818609E-02  0.8883205E-01
        2   -1    0    0  501    0  0.00000000000E+00  0.00000000000E+00  0.77253648479E+03  0.77253648480E+03  0.25500000920E-02 0.  1.
       -2   -1    0    0    0  501  0.00000000000E+00  0.00000000000E+00 -0.72994492964E+03  0.72994492964E+03  0.25500000920E-02 0. -1.
    10030    2    1    2    0    0  0.00000000000E+00  0.00000000000E+00  0.42591555155E+02  0.15024814144E+04  0.15018776116E+04 0.  0.
        4    1    3    3  502    0  0.68918053872E+03  0.10125815806E+03  0.30191603285E+03  0.75919558305E+03  0.12699999809E+01 0.  1.
       -4    1    3    3    0  502 -0.68918053872E+03 -0.10125815806E+03 -0.25932447769E+03  0.74328583140E+03  0.12699999809E+01 0. -1.
</event>
<event>
 5   0  0.4058874E-04  0.1502448E+04  0.7818609E-02  0.8882827E-01
       -1   -1    0    0    0  501  0.00000000000E+00  0.00000000000E+00  0.27297342009E+03  0.27297342013E+03  0.50400001928E-02 0. -1.
        1   -1    0    0  501    0  0.00000000000E+00  0.00000000000E+00 -0.20673711976E+04  0.20673711976E+04  0.50400001928E-02 0.  1.
    10030    2    1    2    0    0  0.00000000000E+00  0.00000000000E+00 -0.17943977775E+04  0.23403446177E+04  0.15024478513E+04 0.  0.
        4    1    3    3  502    0 -0.18315740523E+01  0.69049426552E+02  0.26801464317E+03  0.27677543212E+03  0.12699999809E+01 0. -1.
       -4    1    3    3    0  502  0.18315740523E+01 -0.69049426552E+02 -0.20624124207E+04  0.20635691856E+04  0.12699999809E+01 0.  1.
</event>
<event>
 5   0  0.7547580E-04  0.1510787E+04  0.7818609E-02  0.8877311E-01
       -2   -1    0    0    0  501  0.00000000000E+00  0.00000000000E+00  0.21912570841E+03  0.21912570843E+03  0.25500000920E-02 0.  1.
        2   -1    0    0  501    0  0.00000000000E+00  0.00000000000E+00 -0.26040741334E+04  0.26040741334E+04  0.25500000920E-02 0. -1.
    10030    2    1    2    0    0  0.00000000000E+00  0.00000000000E+00 -0.23849484250E+04  0.28231998418E+04  0.15107873302E+04 0.  0.
        4    1    3    3  502    0  0.32971868545E+03  0.59750828602E+03 -0.58727274309E+03  0.90034518440E+03  0.12699999809E+01 0.  1.
       -4    1    3    3    0  502 -0.32971868545E+03 -0.59750828602E+03 -0.17976756819E+04  0.19228546574E+04  0.12699999809E+01 0. -1.
</event>
<event>
 5   0  0.7359897E-04  0.1499831E+04  0.7818609E-02  0.8884566E-01
        2   -1    0    0  501    0  0.00000000000E+00  0.00000000000E+00  0.12808448283E+04  0.12808448283E+04  0.25500000920E-02 0. -1.
       -2   -1    0    0    0  501  0.00000000000E+00  0.00000000000E+00 -0.43906409994E+03  0.43906409995E+03  0.25500000920E-02 0.  1.
    10030    2    1    2    0    0  0.00000000000E+00  0.00000000000E+00  0.84178072832E+03  0.17199089282E+04  0.14998306327E+04 0.  0.
        1    1    3    3  502    0 -0.70164505436E+02 -0.61980718793E+03  0.89825330050E+03  0.10935917885E+04  0.50400001928E-02 0. -1.
       -1    1    3    3    0  502  0.70164505436E+02  0.61980718793E+03 -0.56472572181E+02  0.62631713969E+03  0.50400001928E-02 0.  1.
</event>
<event>
 5   0  0.7634227E-04  0.1505989E+04  0.7818609E-02  0.8880480E-01
       -2   -1    0    0    0  501  0.00000000000E+00  0.00000000000E+00  0.28874217558E+03  0.28874217560E+03  0.25500000920E-02 0. -1.
        2   -1    0    0  501    0  0.00000000000E+00  0.00000000000E+00 -0.19636926426E+04  0.19636926426E+04  0.25500000920E-02 0.  1.
    10030    2    1    2    0    0  0.00000000000E+00  0.00000000000E+00 -0.16749504670E+04  0.22524348182E+04  0.15059892242E+04 0.  0.
        2    1    3    3  502    0 -0.64083061333E+03 -0.36949425973E+03 -0.62695996614E+03  0.96967452380E+03  0.25500000920E-02 0.  1.
       -2    1    3    3    0  502  0.64083061333E+03  0.36949425973E+03 -0.10479905009E+04  0.12827602944E+04  0.25500000920E-02 0. -1.
</event>
<event>
 5   0  0.4086710E-04  0.1507378E+04  0.7818609E-02  0.8879562E-01
        1   -1    0    0  501    0  0.00000000000E+00  0.00000000000E+00  0.11438664361E+04  0.11438664361E+04  0.50400001928E-02 0. -1.
       -1   -1    0    0    0  501  0.00000000000E+00  0.00000000000E+00 -0.49660235905E+03  0.49660235907E+03  0.50400001928E-02 0.  1.
    10030    2    1    2    0    0  0.00000000000E+00  0.00000000000E+00  0.64726407701E+03  0.16404687951E+04  0.15073775514E+04 0.  0.
        3    1    3    3  502    0  0.17996656878E+03 -0.11833788802E+03 -0.46239519290E+03  0.51009915334E+03  0.10100000352E+00 0.  1.
       -3    1    3    3    0  502 -0.17996656878E+03  0.11833788802E+03  0.11096592699E+04  0.11303696418E+04  0.10100000352E+00 0. -1.
</event>
<event>
 5   0  0.2800375E-04  0.1504862E+04  0.7818609E-02  0.8881226E-01
       -3   -1    0    0    0  501  0.00000000000E+00  0.00000000000E+00  0.76536346996E+03  0.76536347662E+03  0.10100000352E+00 0.  1.
        3   -1    0    0  501    0  0.00000000000E+00  0.00000000000E+00 -0.73971745261E+03  0.73971745950E+03  0.10100000352E+00 0. -1.
    10030    2    1    2    0    0  0.00000000000E+00  0.00000000000E+00  0.25646017347E+02  0.15050809361E+04  0.15048624210E+04 0.  0.
        5    1    3    3  502    0 -0.43774412429E+02 -0.73620694980E+03  0.16188747801E+03  0.75508047098E+03  0.46999998093E+01 0.  1.
       -5    1    3    3    0  502  0.43774412429E+02  0.73620694980E+03 -0.13624146067E+03  0.75000046515E+03  0.46999998093E+01 0. -1.
</event>
<event>
 5   0  0.4084462E-04  0.1486929E+04  0.7818609E-02  0.8893192E-01
        1   -1    0    0  501    0  0.00000000000E+00  0.00000000000E+00  0.12477955182E+04  0.12477955182E+04  0.50400001928E-02 0. -1.
       -1   -1    0    0    0  501  0.00000000000E+00  0.00000000000E+00 -0.44297289535E+03  0.44297289538E+03  0.50400001928E-02 0.  1.
    10030    2    1    2    0    0  0.00000000000E+00  0.00000000000E+00  0.80482262289E+03  0.16907684136E+04  0.14869291759E+04 0.  0.
        1    1    3    3  502    0  0.90921106410E+01 -0.35246799716E+03 -0.34185841199E+03  0.49110439763E+03  0.50400001928E-02 0.  1.
       -1    1    3    3    0  502 -0.90921106410E+01  0.35246799716E+03  0.11466810349E+04  0.11996640160E+04  0.50400001928E-02 0. -1.
</event>
<event>
 5   0  0.4015204E-04  0.1508386E+04  0.7818609E-02  0.8878896E-01
        1   -1    0    0  501    0  0.00000000000E+00  0.00000000000E+00  0.10477761794E+04  0.10477761794E+04  0.50400001928E-02 0. -1.
       -1   -1    0    0    0  501  0.00000000000E+00  0.00000000000E+00 -0.54287053726E+03  0.54287053728E+03  0.50400001928E-02 0.  1.
    10030    2    1    2    0    0  0.00000000000E+00  0.00000000000E+00  0.50490564215E+03  0.15906467167E+04  0.15083856503E+04 0.  0.
        2    1    3    3  502    0  0.75071851145E+03 -0.62812215863E+02  0.29022757759E+03  0.80731388239E+03  0.25500000920E-02 0. -1.
       -2    1    3    3    0  502 -0.75071851145E+03  0.62812215863E+02  0.21467806456E+03  0.78333283431E+03  0.25500000920E-02 0.  1.
</event>
<event>
 5   0  0.7634227E-04  0.1499214E+04  0.7818609E-02  0.8884976E-01
       -2   -1    0    0    0  501  0.00000000000E+00  0.00000000000E+00  0.45713264765E+03  0.45713264765E+03  0.25500000920E-02 0. -1.
        2   -1    0    0  501    0  0.00000000000E+00  0.00000000000E+00 -0.12292070399E+04  0.12292070399E+04  0.25500000920E-02 0.  1.
    10030    2    1    2    0    0  0.00000000000E+00  0.00000000000E+00 -0.77207439228E+03  0.16863396876E+04  0.14992140190E+04 0.  0.
        2    1    3    3  502    0  0.13436356590E+03  0.28480886308E+03  0.37911956953E+03  0.49285018447E+03  0.25500000920E-02 0. -1.
       -2    1    3    3    0  502 -0.13436356590E+03 -0.28480886308E+03 -0.11511939618E+04  0.11934895031E+04  0.25500000920E-02 0.  1.
</event>
<event>
 5   0  0.7672251E-04  0.1511026E+04  0.7818609E-02  0.8877154E-01
        2   -1    0    0  501    0  0.00000000000E+00  0.00000000000E+00  0.85396439612E+03  0.85396439613E+03  0.25500000920E-02 0. -1.
       -2   -1    0    0    0  501  0.00000000000E+00  0.00000000000E+00 -0.66841181856E+03  0.66841181857E+03  0.25500000920E-02 0.  1.
    10030    2    1    2    0    0  0.00000000000E+00  0.00000000000E+00  0.18555257756E+03  0.15223762147E+04  0.15110260024E+04 0.  0.
        5    1    3    3  502    0 -0.48912419020E+03  0.55909817969E+03 -0.45896828912E+02  0.74428613911E+03  0.46999998093E+01 0.  1.
       -5    1    3    3    0  502  0.48912419020E+03 -0.55909817969E+03  0.23144940647E+03  0.77809007558E+03  0.46999998093E+01 0. -1.
</event>
<event>
 5   0  0.4084462E-04  0.1497622E+04  0.7818609E-02  0.8886036E-01
       -1   -1    0    0    0  501  0.00000000000E+00  0.00000000000E+00  0.12133020844E+04  0.12133020844E+04  0.50400001928E-02 0.  1.
        1   -1    0    0  501    0  0.00000000000E+00  0.00000000000E+00 -0.46214189140E+03  0.46214189143E+03  0.50400001928E-02 0. -1.
    10030    2    1    2    0    0  0.00000000000E+00  0.00000000000E+00  0.75116019302E+03  0.16754439759E+04  0.14976217415E+04 0.  0.
        1    1    3    3  502    0  0.16182677953E+03  0.29799508469E+03  0.11224811885E+04  0.11725838971E+04  0.50400001928E-02 0.  1.
       -1    1    3    3    0  502 -0.16182677953E+03 -0.29799508469E+03 -0.37132099552E+03  0.50286007876E+03  0.50400001928E-02 0. -1.
</event>
<event>
 5   0  0.7359897E-04  0.1500494E+04  0.7818609E-02  0.8884125E-01
        2   -1    0    0  501    0  0.00000000000E+00  0.00000000000E+00  0.63062732527E+03  0.63062732528E+03  0.25500000920E-02 0.  1.
       -2   -1    0    0    0  501  0.00000000000E+00  0.00000000000E+00 -0.89255652516E+03  0.89255652516E+03  0.25500000920E-02 0. -1.
    10030    2    1    2    0    0  0.00000000000E+00  0.00000000000E+00 -0.26192919989E+03  0.15231838504E+04  0.15004939642E+04 0.  0.
        1    1    3    3  502    0 -0.58080614105E+03 -0.10414696296E+03 -0.60131566464E+03  0.84247426782E+03  0.50400001928E-02 0. -1.
       -1    1    3    3    0  502  0.58080614105E+03  0.10414696296E+03  0.33938646476E+03  0.68070958261E+03  0.50400001928E-02 0.  1.
</event>
<event>
 5   0  0.4084462E-04  0.1522912E+04  0.7818609E-02  0.8869358E-01
        1   -1    0    0  501    0  0.00000000000E+00  0.00000000000E+00  0.12396328118E+04  0.12396328118E+04  0.50400001928E-02 0. -1.
       -1   -1    0    0    0  501  0.00000000000E+00  0.00000000000E+00 -0.46773142900E+03  0.46773142903E+03  0.50400001928E-02 0.  1.
    10030    2    1    2    0    0  0.00000000000E+00  0.00000000000E+00  0.77190138276E+03  0.17073642408E+04  0.15229119824E+04 0.  0.
        1    1    3    3  502    0 -0.72911981079E+03 -0.19275534706E+03  0.50377430919E+03  0.90695031668E+03  0.50400001928E-02 0. -1.
       -1    1    3    3    0  502  0.72911981079E+03  0.19275534706E+03  0.26812707357E+03  0.80041392411E+03  0.50400001928E-02 0.  1.
</event>
<event>
 5   0  0.7672251E-04  0.1516863E+04  0.7818609E-02  0.8873316E-01
        2   -1    0    0  501    0  0.00000000000E+00  0.00000000000E+00  0.10293859350E+04  0.10293859351E+04  0.25500000920E-02 0. -1.
       -2   -1    0    0    0  501  0.00000000000E+00  0.00000000000E+00 -0.55879769877E+03  0.55879769877E+03  0.25500000920E-02 0.  1.
    10030    2    1    2    0    0  0.00000000000E+00  0.00000000000E+00  0.47058823628E+03  0.15881836338E+04  0.15168631997E+04 0.  0.
        5    1    3    3  502    0 -0.25000467010E+02 -0.50326481428E+03 -0.35818698653E+03  0.61823984340E+03  0.46999998093E+01 0.  1.
       -5    1    3    3    0  502  0.25000467010E+02  0.50326481428E+03  0.82877522281E+03  0.96994379043E+03  0.46999998093E+01 0. -1.
</event>
<event>
 5   0  0.7359897E-04  0.1487616E+04  0.7818609E-02  0.8892730E-01
       -2   -1    0    0    0  501  0.00000000000E+00  0.00000000000E+00  0.41182198431E+03  0.41182198431E+03  0.25500000920E-02 0. -1.
        2   -1    0    0  501    0  0.00000000000E+00  0.00000000000E+00 -0.13434218606E+04  0.13434218606E+04  0.25500000920E-02 0.  1.
    10030    2    1    2    0    0  0.00000000000E+00  0.00000000000E+00 -0.93159987626E+03  0.17552438449E+04  0.14876164242E+04 0.  0.
        1    1    3    3  502    0 -0.41342597002E+03  0.78174101737E+02  0.25791332127E+03  0.49350937599E+03  0.50400001928E-02 0. -1.
       -1    1    3    3    0  502  0.41342597002E+03 -0.78174101737E+02 -0.11895131975E+04  0.12617344689E+04  0.50400001928E-02 0.  1.
</event>
<event>
 5   0  0.7672251E-04  0.1501723E+04  0.7818609E-02  0.8883308E-01
       -2   -1    0    0    0  501  0.00000000000E+00  0.00000000000E+00  0.54989884934E+03  0.54989884934E+03  0.25500000920E-02 0.  1.
        2   -1    0    0  501    0  0.00000000000E+00  0.00000000000E+00 -0.10252666498E+04  0.10252666498E+04  0.25500000920E-02 0. -1.
    10030    2    1    2    0    0  0.00000000000E+00  0.00000000000E+00 -0.47536780048E+03  0.15751654992E+04  0.15017229452E+04 0.  0.
        5    1    3    3  502    0 -0.24369298639E+03  0.58878984835E+03 -0.65423425641E+03  0.91329311253E+03  0.46999998093E+01 0. -1.
       -5    1    3    3    0  502  0.24369298639E+03 -0.58878984835E+03  0.17886645593E+03  0.66187238663E+03  0.46999998093E+01 0.  1.
</event>
<event>
 5   0  0.7672251E-04  0.1499606E+04  0.7818609E-02  0.8884715E-01
       -2   -1    0    0    0  501  0.00000000000E+00  0.00000000000E+00  0.46792631202E+03  0.46792631202E+03  0.25500000920E-02 0. -1.
        2   -1    0    0  501    0  0.00000000000E+00  0.00000000000E+00 -0.12014803825E+04  0.12014803825E+04  0.25500000920E-02 0.  1.
    10030    2    1    2    0    0  0.00000000000E+00  0.00000000000E+00 -0.73355407053E+03  0.16694066946E+04  0.14996056607E+04 0.  0.
        5    1    3    3  502    0 -0.59695044045E+03  0.35984760384E+03 -0.59190698507E+02  0.69954682126E+03  0.46999998093E+01 0. -1.
       -5    1    3    3    0  502  0.59695044045E+03 -0.35984760384E+03 -0.67436337202E+03  0.96985987331E+03  0.46999998093E+01 0.  1.
</event>
<event>
 5   0  0.2800375E-04  0.1516649E+04  0.7818609E-02  0.8873456E-01
        4   -1    0    0  501    0  0.00000000000E+00  0.00000000000E+00  0.69817612005E+03  0.69817727513E+03  0.12699999809E+01 0. -1.
       -4   -1    0    0    0  501  0.00000000000E+00  0.00000000000E+00 -0.82365260281E+03  0.82365358193E+03  0.12699999809E+01 0.  1.
    10030    2    1    2    0    0  0.00000000000E+00  0.00000000000E+00 -0.12547648276E+03  0.15218308571E+04  0.15166492046E+04 0.  0.
        3    1    3    3  502    0 -0.59373726712E+03 -0.34464239733E+03 -0.38594720147E+03  0.78756433193E+03  0.10100000352E+00 0.  1.
       -3    1    3    3    0  502  0.59373726712E+03  0.34464239733E+03  0.26047071870E+03  0.73426652512E+03  0.10100000352E+00 0. -1.
</event>
<event>
 5   0  0.7359897E-04  0.1508296E+04  0.7818609E-02  0.8878955E-01
        2   -1    0    0  501    0  0.00000000000E+00  0.00000000000E+00  0.15202936101E+04  0.15202936101E+04  0.25500000920E-02 0.  1.
       -2   -1    0    0    0  501  0.00000000000E+00  0.00000000000E+00 -0.37409818838E+03  0.37409818839E+03  0.25500000920E-02 0. -1.
    10030    2    1    2    0    0  0.00000000000E+00  0.00000000000E+00  0.11461954218E+04  0.18943917985E+04  0.15082958402E+04 0.  0.
        1    1    3    3  502    0 -0.41115240868E+03 -0.63568230523E+02 -0.21692555023E+03  0.46919496743E+03  0.50400001928E-02 0. -1.
       -1    1    3    3    0  502  0.41115240868E+03  0.63568230523E+02  0.13631209720E+04  0.14251968311E+04  0.50400001928E-02 0.  1.
</event>
<event>
 5   0  0.4015204E-04  0.1516149E+04  0.7818609E-02  0.8873784E-01
       -1   -1    0    0    0  501  0.00000000000E+00  0.00000000000E+00  0.56245549568E+03  0.56245549570E+03  0.50400001928E-02 0.  1.
        1   -1    0    0  501    0  0.00000000000E+00  0.00000000000E+00 -0.10217293053E+04  0.10217293054E+04  0.50400001928E-02 0. -1.
    10030    2    1    2    0    0  0.00000000000E+00  0.00000000000E+00 -0.45927380967E+03  0.15841848011E+04  0.15161494160E+04 0.  0.
        2    1    3    3  502    0  0.39646348183E+03  0.42912209609E+03 -0.73437497655E+03  0.93842190510E+03  0.25500000920E-02 0. -1.
       -2    1    3    3    0  502 -0.39646348183E+03 -0.42912209609E+03  0.27510116688E+03  0.64576289597E+03  0.25500000920E-02 0.  1.
</event>
<event>
 5   0  0.7547580E-04  0.1560543E+04  0.7818609E-02  0.8845161E-01
       -2   -1    0    0    0  501  0.00000000000E+00  0.00000000000E+00  0.53018779633E+03  0.53018779634E+03  0.25500000920E-02 0.  1.
        2   -1    0    0  501    0  0.00000000000E+00  0.00000000000E+00 -0.11483168739E+04  0.11483168739E+04  0.25500000920E-02 0. -1.
    10030    2    1    2    0    0  0.00000000000E+00  0.00000000000E+00 -0.61812907755E+03  0.16785046702E+04  0.15605429733E+04 0.  0.
        4    1    3    3  502    0  0.25621503169E+03  0.72076021518E+03 -0.14354749867E+03  0.77829873925E+03  0.12699999809E+01 0.  1.
       -4    1    3    3    0  502 -0.25621503169E+03 -0.72076021518E+03 -0.47458157888E+03  0.90020593098E+03  0.12699999809E+01 0. -1.
</event>
<event>
 5   0  0.4086710E-04  0.1497275E+04  0.7818609E-02  0.8886267E-01
        1   -1    0    0  501    0  0.00000000000E+00  0.00000000000E+00  0.11601099684E+04  0.11601099685E+04  0.50400001928E-02 0. -1.
       -1   -1    0    0    0  501  0.00000000000E+00  0.00000000000E+00 -0.48310757479E+03  0.48310757482E+03  0.50400001928E-02 0.  1.
    10030    2    1    2    0    0  0.00000000000E+00  0.00000000000E+00  0.67700239365E+03  0.16432175433E+04  0.14972747422E+04 0.  0.
        3    1    3    3  502    0 -0.35274394705E+02 -0.31960133773E+03  0.10804676338E+04  0.11272974833E+04  0.10100000352E+00 0. -1.
       -3    1    3    3    0  502  0.35274394705E+02  0.31960133773E+03 -0.40346524018E+03  0.51592005993E+03  0.10100000352E+00 0.  1.
</event>
<event>
 5   0  0.7454828E-04  0.1534708E+04  0.7818609E-02  0.8861695E-01
       -2   -1    0    0    0  501  0.00000000000E+00  0.00000000000E+00  0.11487739064E+04  0.11487739064E+04  0.25500000920E-02 0.  1.
        2   -1    0    0  501    0  0.00000000000E+00  0.00000000000E+00 -0.51257463511E+03  0.51257463511E+03  0.25500000920E-02 0. -1.
    10030    2    1    2    0    0  0.00000000000E+00  0.00000000000E+00  0.63619927134E+03  0.16613485416E+04  0.15347082666E+04 0.  0.
        3    1    3    3  502    0 -0.14744550301E+03 -0.48968694788E+03  0.93740832953E+03  0.10678332593E+04  0.10100000352E+00 0.  1.
       -3    1    3    3    0  502  0.14744550301E+03  0.48968694788E+03 -0.30120905820E+03  0.59351528221E+03  0.10100000352E+00 0. -1.
</event>
<event>
 5   0  0.4058874E-04  0.1517496E+04  0.7818609E-02  0.8872901E-01
       -1   -1    0    0    0  501  0.00000000000E+00  0.00000000000E+00  0.42766261632E+03  0.42766261635E+03  0.50400001928E-02 0. -1.
        1   -1    0    0  501    0  0.00000000000E+00  0.00000000000E+00 -0.13461510198E+04  0.13461510198E+04  0.50400001928E-02 0.  1.
    10030    2    1    2    0    0  0.00000000000E+00  0.00000000000E+00 -0.91848840348E+03  0.17738136362E+04  0.15174959204E+04 0.  0.
        4    1    3    3  502    0  0.73043399273E+03 -0.47447791021E+02 -0.69276781814E+03  0.10078263607E+04  0.12699999809E+01 0.  1.
       -4    1    3    3    0  502 -0.73043399273E+03  0.47447791021E+02 -0.22572058535E+03  0.76598727545E+03  0.12699999809E+01 0. -1.
</event>
<event>
 5   0  0.7359897E-04  0.1471794E+04  0.7818609E-02  0.8903429E-01
       -2   -1    0    0    0  501  0.00000000000E+00  0.00000000000E+00  0.10133763560E+04  0.10133763560E+04  0.25500000920E-02 0. -1.
        2   -1    0    0  501    0  0.00000000000E+00  0.00000000000E+00 -0.53439625664E+03  0.53439625665E+03  0.25500000920E-02 0.  1.
    10030    2    1    2    0    0  0.00000000000E+00  0.00000000000E+00  0.47898009934E+03  0.15477726126E+04  0.14717941856E+04 0.  0.
        1    1    3    3  502    0  0.12020333756E+03  0.27828895252E+03  0.94466655021E+03  0.99211313597E+03  0.50400001928E-02 0. -1.
       -1    1    3    3    0  502 -0.12020333756E+03 -0.27828895252E+03 -0.46568645087E+03  0.55565947666E+03  0.50400001928E-02 0.  1.
</event>
<event>
 5   0  0.3907345E-04  0.1492134E+04  0.7818609E-02  0.8889701E-01
        1   -1    0    0  501    0  0.00000000000E+00  0.00000000000E+00  0.12440224393E+04  0.12440224393E+04  0.50400001928E-02 0. -1.
       -1   -1    0    0    0  501  0.00000000000E+00  0.00000000000E+00 -0.44743219701E+03  0.44743219704E+03  0.50400001928E-02 0.  1.
    10030    2    1    2    0    0  0.00000000000E+00  0.00000000000E+00  0.79659024231E+03  0.16914546364E+04  0.14921336310E+04 0.  0.
        5    1    3    3  502    0  0.34246150872E+03 -0.24310172030E+03 -0.30068916783E+03  0.51654079898E+03  0.46999998093E+01 0.  1.
       -5    1    3    3    0  502 -0.34246150872E+03  0.24310172030E+03  0.10972794101E+04  0.11749138374E+04  0.46999998093E+01 0. -1.
</event>
<event>
 5   0  0.4058874E-04  0.1498456E+04  0.7818609E-02  0.8885481E-01
        1   -1    0    0  501    0  0.00000000000E+00  0.00000000000E+00  0.21247431620E+04  0.21247431620E+04  0.50400001928E-02 0.  1.
       -1   -1    0    0    0  501  0.00000000000E+00  0.00000000000E+00 -0.26419302678E+03  0.26419302683E+03  0.50400001928E-02 0. -1.
    10030    2    1    2    0    0  0.00000000000E+00  0.00000000000E+00  0.18605501352E+04  0.23889361888E+04  0.14984556412E+04 0.  0.
        4    1    3    3  502    0 -0.40194258922E+03  0.33172655717E+03  0.17884289200E+04  0.18628150656E+04  0.12699999809E+01 0.  1.
       -4    1    3    3    0  502  0.40194258922E+03 -0.33172655717E+03  0.72121215224E+02  0.52612112327E+03  0.12699999809E+01 0. -1.
</event>
<event>
 5   0  0.7454828E-04  0.1500287E+04  0.7818609E-02  0.8884262E-01
       -2   -1    0    0    0  501  0.00000000000E+00  0.00000000000E+00  0.82463435509E+03  0.82463435509E+03  0.25500000920E-02 0. -1.
        2   -1    0    0  501    0  0.00000000000E+00  0.00000000000E+00 -0.68238154256E+03  0.68238154256E+03  0.25500000920E-02 0.  1.
    10030    2    1    2    0    0  0.00000000000E+00  0.00000000000E+00  0.14225281253E+03  0.15070158977E+04  0.15002869903E+04 0.  0.
        3    1    3    3  502    0  0.11544230399E+03  0.55922277535E+03 -0.41753077192E+03  0.70738178780E+03  0.10100000352E+00 0.  1.
       -3    1    3    3    0  502 -0.11544230399E+03 -0.55922277535E+03  0.55978358445E+03  0.79963410985E+03  0.10100000352E+00 0. -1.
</event>
<event>
 5   0  0.3907345E-04  0.1502609E+04  0.7818609E-02  0.8882720E-01
        1   -1    0    0  501    0  0.00000000000E+00  0.00000000000E+00  0.81670766904E+03  0.81670766905E+03  0.50400001928E-02 0. -1.
       -1   -1    0    0    0  501  0.00000000000E+00  0.00000000000E+00 -0.69113930828E+03  0.69113930830E+03  0.50400001928E-02 0.  1.
    10030    2    1    2    0    0  0.00000000000E+00  0.00000000000E+00  0.12556836076E+03  0.15078469773E+04  0.15026094283E+04 0.  0.
        5    1    3    3  502    0  0.14796636221E+03 -0.50138165698E+03 -0.47868821927E+03  0.70883151141E+03  0.46999998093E+01 0.  1.
       -5    1    3    3    0  502 -0.14796636221E+03  0.50138165698E+03  0.60425658003E+03  0.79901546594E+03  0.46999998093E+01 0. -1.
</event>
<event>
 5   0  0.4086710E-04  0.1489798E+04  0.7818609E-02  0.8891266E-01
       -1   -1    0    0    0  501  0.00000000000E+00  0.00000000000E+00  0.32852516232E+03  0.32852516236E+03  0.50400001928E-02 0.  1.
        1   -1    0    0  501    0  0.00000000000E+00  0.00000000000E+00 -0.16889863807E+04  0.16889863807E+04  0.50400001928E-02 0. -1.
    10030    2    1    2    0    0  0.00000000000E+00  0.00000000000E+00 -0.13604612183E+04  0.20175115430E+04  0.14897980063E+04 0.  0.
        3    1    3    3  502    0 -0.11203331794E+03 -0.45160961244E+03 -0.14679757367E+04  0.15399530773E+04  0.10100000352E+00 0. -1.
       -3    1    3    3    0  502  0.11203331794E+03  0.45160961244E+03  0.10751451837E+03  0.47755846578E+03  0.10100000352E+00 0.  1.
</event>
<event>
 5   0  0.4015204E-04  0.1480888E+04  0.7818609E-02  0.8897263E-01
       -1   -1    0    0    0  501  0.00000000000E+00  0.00000000000E+00  0.21206530638E+03  0.21206530644E+03  0.50400001928E-02 0. -1.
        1   -1    0    0  501    0  0.00000000000E+00  0.00000000000E+00 -0.25853221928E+04  0.25853221928E+04  0.50400001928E-02 0.  1.
    10030    2    1    2    0    0  0.00000000000E+00  0.00000000000E+00 -0.23732568864E+04  0.27973874993E+04  0.14808877648E+04 0.  0.
        2    1    3    3  502    0 -0.17172040494E+03 -0.71794070382E+03 -0.12956413997E+04  0.14911785233E+04  0.25500000920E-02 0.  1.
       -2    1    3    3    0  502  0.17172040494E+03  0.71794070382E+03 -0.10776154867E+04  0.13062089760E+04  0.25500000920E-02 0. -1.
</event>
<event>
 5   0  0.7634227E-04  0.1506153E+04  0.7818609E-02  0.8880371E-01
       -2   -1    0    0    0  501  0.00000000000E+00  0.00000000000E+00  0.52909777253E+03  0.52909777254E+03  0.25500000920E-02 0. -1.
        2   -1    0    0  501    0  0.00000000000E+00  0.00000000000E+00 -0.10718706523E+04  0.10718706523E+04  0.25500000920E-02 0.  1.
    10030    2    1    2    0    0  0.00000000000E+00  0.00000000000E+00 -0.54277287972E+03  0.16009684248E+04  0.15061532121E+04 0.  0.
        2    1    3    3  502    0  0.13050380245E+03 -0.38050642253E+03  0.40532917749E+03  0.57105877296E+03  0.25500000920E-02 0. -1.
       -2    1    3    3    0  502 -0.13050380245E+03  0.38050642253E+03 -0.94810205721E+03  0.10299096518E+04  0.25500000920E-02 0.  1.
</event>
<event>
 5   0  0.4015204E-04  0.1504596E+04  0.7818609E-02  0.8881403E-01
        1   -1    0    0  501    0  0.00000000000E+00  0.00000000000E+00  0.61221859416E+03  0.61221859418E+03  0.50400001928E-02 0.  1.
       -1   -1    0    0    0  501  0.00000000000E+00  0.00000000000E+00 -0.92442805951E+03  0.92442805953E+03  0.50400001928E-02 0. -1.
    10030    2    1    2    0    0  0.00000000000E+00  0.00000000000E+00 -0.31220946535E+03  0.15366466537E+04  0.15045956892E+04 0.  0.
        2    1    3    3  502    0  0.38887511986E+03 -0.89815311364E+02  0.49517966766E+03  0.63599807568E+03  0.25500000920E-02 0.  1.
       -2    1    3    3    0  502 -0.38887511986E+03  0.89815311364E+02 -0.80738913301E+03  0.90064857803E+03  0.25500000920E-02 0. -1.
</event>
<event>
 5   0  0.4015204E-04  0.1526352E+04  0.7818609E-02  0.8867116E-01
        1   -1    0    0  501    0  0.00000000000E+00  0.00000000000E+00  0.10264559958E+04  0.10264559959E+04  0.50400001928E-02 0.  1.
       -1   -1    0    0    0  501  0.00000000000E+00  0.00000000000E+00 -0.56742546577E+03  0.56742546580E+03  0.50400001928E-02 0. -1.
    10030    2    1    2    0    0  0.00000000000E+00  0.00000000000E+00  0.45903053007E+03  0.15938814617E+04  0.15263515605E+04 0.  0.
        2    1    3    3  502    0  0.67487095318E+03  0.35630314829E+03  0.22337864987E+03  0.79517341388E+03  0.25500000920E-02 0. -1.
       -2    1    3    3    0  502 -0.67487095318E+03 -0.35630314829E+03  0.23565188020E+03  0.79870804777E+03  0.25500000920E-02 0.  1.
</event>
<event>
 5   0  0.4086710E-04  0.1503460E+04  0.7818609E-02  0.8882156E-01
        1   -1    0    0  501    0  0.00000000000E+00  0.00000000000E+00  0.67888560080E+03  0.67888560081E+03  0.50400001928E-02 0. -1.
       -1   -1    0    0    0  501  0.00000000000E+00  0.00000000000E+00 -0.83239007677E+03  0.83239007678E+03  0.50400001928E-02 0.  1.
    10030    2    1    2    0    0  0.00000000000E+00  0.00000000000E+00 -0.15350447597E+03  0.15112756776E+04  0.15034595271E+04 0.  0.
        3    1    3    3  502    0 -0.44003214463E+03  0.12936961824E+03 -0.67544312814E+03  0.81644853848E+03  0.10100000352E+00 0.  1.
       -3    1    3    3    0  502  0.44003214463E+03 -0.12936961824E+03  0.52193865217E+03  0.69482713912E+03  0.10100000352E+00 0. -1.
</event>
<event>
 5   0  0.7359897E-04  0.1486683E+04  0.7818609E-02  0.8893357E-01
       -2   -1    0    0    0  501  0.00000000000E+00  0.00000000000E+00  0.51994355056E+03  0.51994355056E+03  0.25500000920E-02 0. -1.
        2   -1    0    0  501    0  0.00000000000E+00  0.00000000000E+00 -0.10627240562E+04  0.10627240562E+04  0.25500000920E-02 0.  1.
    10030    2    1    2    0    0  0.00000000000E+00  0.00000000000E+00 -0.54278050561E+03  0.15826676067E+04  0.14866829104E+04 0.  0.
        1    1    3    3  502    0  0.17110589597E+03  0.65004567450E+03  0.66463723076E+02  0.67546578972E+03  0.50400001928E-02 0. -1.
       -1    1    3    3    0  502 -0.17110589597E+03 -0.65004567450E+03 -0.60924422869E+03  0.90720181701E+03  0.50400001928E-02 0.  1.
</event>
<event>
 5   0  0.7547580E-04  0.1515184E+04  0.7818609E-02  0.8874418E-01
       -2   -1    0    0    0  501  0.00000000000E+00  0.00000000000E+00  0.14318482468E+04  0.14318482468E+04  0.25500000920E-02 0. -1.
        2   -1    0    0  501    0  0.00000000000E+00  0.00000000000E+00 -0.40084235448E+03  0.40084235449E+03  0.25500000920E-02 0.  1.
    10030    2    1    2    0    0  0.00000000000E+00  0.00000000000E+00  0.10310058923E+04  0.18326906013E+04  0.15151837149E+04 0.  0.
        4    1    3    3  502    0  0.70465374721E+03  0.25312733908E+03  0.65517040467E+03  0.99491719520E+03  0.12699999809E+01 0.  1.
       -4    1    3    3    0  502 -0.70465374721E+03 -0.25312733908E+03  0.37583548763E+03  0.83777340607E+03  0.12699999809E+01 0. -1.
</event>
<event>
 5   0  0.4084462E-04  0.1508460E+04  0.7818609E-02  0.8878846E-01
       -1   -1    0    0    0  501  0.00000000000E+00  0.00000000000E+00  0.98794418974E+03  0.98794418975E+03  0.50400001928E-02 0. -1.
        1   -1    0    0  501    0  0.00000000000E+00  0.00000000000E+00 -0.57580483093E+03  0.57580483095E+03  0.50400001928E-02 0.  1.
    10030    2    1    2    0    0  0.00000000000E+00  0.00000000000E+00  0.41213935881E+03  0.15637490207E+04  0.15084601913E+04 0.  0.
        1    1    3    3  502    0 -0.55550947262E+03 -0.14153227045E+03  0.71417840349E+03  0.91579088758E+03  0.50400001928E-02 0. -1.
       -1    1    3    3    0  502  0.55550947262E+03  0.14153227045E+03 -0.30203904468E+03  0.64795813312E+03  0.50400001928E-02 0.  1.
</event>
<event>
 5   0  0.7359897E-04  0.1492497E+04  0.7818609E-02  0.8889458E-01
       -2   -1    0    0    0  501  0.00000000000E+00  0.00000000000E+00  0.44123699325E+03  0.44123699325E+03  0.25500000920E-02 0.  1.
        2   -1    0    0  501    0  0.00000000000E+00  0.00000000000E+00 -0.12621039965E+04  0.12621039965E+04  0.25500000920E-02 0. -1.
    10030    2    1    2    0    0  0.00000000000E+00  0.00000000000E+00 -0.82086700322E+03  0.17033409897E+04  0.14924971994E+04 0.  0.
        1    1    3    3  502    0 -0.77665648080E+02  0.45368736761E+03 -0.10807994800E+04  0.11747304782E+04  0.50400001928E-02 0.  1.
       -1    1    3    3    0  502  0.77665648080E+02 -0.45368736761E+03  0.25993247675E+03  0.52861051155E+03  0.50400001928E-02 0. -1.
</event>
<event>
 5   0  0.7547580E-04  0.1509727E+04  0.7818609E-02  0.8878010E-01
        2   -1    0    0  501    0  0.00000000000E+00  0.00000000000E+00  0.22886133551E+04  0.22886133551E+04  0.25500000920E-02 0. -1.
       -2   -1    0    0    0  501  0.00000000000E+00  0.00000000000E+00 -0.24897993176E+03  0.24897993177E+03  0.25500000920E-02 0.  1.
    10030    2    1    2    0    0  0.00000000000E+00  0.00000000000E+00  0.20396334233E+04  0.25375932868E+04  0.15097268587E+04 0.  0.
        4    1    3    3  502    0  0.52604634589E+03 -0.45928003427E+03  0.15015855683E+04  0.16560264912E+04  0.12699999809E+01 0. -1.
       -4    1    3    3    0  502 -0.52604634589E+03  0.45928003427E+03  0.53804785500E+03  0.88156679558E+03  0.12699999809E+01 0.  1.
</event>
<event>
 5   0  0.7672251E-04  0.1380726E+04  0.7818609E-02  0.8967890E-01
       -2   -1    0    0    0  501  0.00000000000E+00  0.00000000000E+00  0.42086576006E+03  0.42086576007E+03  0.25500000920E-02 0. -1.
        2   -1    0    0  501    0  0.00000000000E+00  0.00000000000E+00 -0.11324297529E+04  0.11324297529E+04  0.25500000920E-02 0.  1.
    10030    2    1    2    0    0  0.00000000000E+00  0.00000000000E+00 -0.71156399286E+03  0.15532955130E+04  0.13807257638E+04 0.  0.
        5    1    3    3  502    0 -0.13324282301E+03  0.35185856204E+03  0.29537017562E+03  0.47835523223E+03  0.46999998093E+01 0. -1.
       -5    1    3    3    0  502  0.13324282301E+03 -0.35185856204E+03 -0.10069341685E+04  0.10749402808E+04  0.46999998093E+01 0.  1.
</event>
<event>
 5   0  0.7359897E-04  0.1500813E+04  0.7818609E-02  0.8883913E-01
        2   -1    0    0  501    0  0.00000000000E+00  0.00000000000E+00  0.61671335125E+03  0.61671335126E+03  0.25500000920E-02 0.  1.
       -2   -1    0    0    0  501  0.00000000000E+00  0.00000000000E+00 -0.91308184280E+03  0.91308184281E+03  0.25500000920E-02 0. -1.
    10030    2    1    2    0    0  0.00000000000E+00  0.00000000000E+00 -0.29636849155E+03  0.15297951941E+04  0.15008127975E+04 0.  0.
        1    1    3    3  502    0 -0.35829855676E+03  0.22909130969E+02 -0.81985311178E+03  0.89502056343E+03  0.50400001928E-02 0. -1.
       -1    1    3    3    0  502  0.35829855676E+03 -0.22909130969E+02  0.52348462022E+03  0.63477463063E+03  0.50400001928E-02 0.  1.
</event>
<event>
 5   0  0.7672251E-04  0.1489094E+04  0.7818609E-02  0.8891738E-01
        2   -1    0    0  501    0  0.00000000000E+00  0.00000000000E+00  0.48031660791E+03  0.48031660792E+03  0.25500000920E-02 0. -1.
       -2   -1    0    0    0  501  0.00000000000E+00  0.00000000000E+00 -0.11541357206E+04  0.11541357206E+04  0.25500000920E-02 0.  1.
    10030    2    1    2    0    0  0.00000000000E+00  0.00000000000E+00 -0.67381911265E+03  0.16344523285E+04  0.14890944287E+04 0.  0.
        5    1    3    3  502    0 -0.14554863329E+03 -0.40855335144E+03  0.32733181538E+03  0.54338609937E+03  0.46999998093E+01 0. -1.
       -5    1    3    3    0  502  0.14554863329E+03  0.40855335144E+03 -0.10011509280E+04  0.10910662291E+04  0.46999998093E+01 0.  1.
</event>
<event>
 5   0  0.7359897E-04  0.1449881E+04  0.7818609E-02  0.8918483E-01
       -2   -1    0    0    0  501  0.00000000000E+00  0.00000000000E+00  0.93858281371E+03  0.93858281371E+03  0.25500000920E-02 0. -1.
        2   -1    0    0  501    0  0.00000000000E+00  0.00000000000E+00 -0.55992777677E+03  0.55992777678E+03  0.25500000920E-02 0.  1.
    10030    2    1    2    0    0  0.00000000000E+00  0.00000000000E+00  0.37865503694E+03  0.14985105905E+04  0.14498808064E+04 0.  0.
        1    1    3    3  502    0  0.28721612505E+03  0.12268050787E+03  0.86548343539E+03  0.92011150762E+03  0.50400001928E-02 0. -1.
       -1    1    3    3    0  502 -0.28721612505E+03 -0.12268050787E+03 -0.48682839845E+03  0.57839908287E+03  0.50400001928E-02 0.  1.
</event>
<event>
 5   0  0.4058874E-04  0.1289904E+04  0.7818609E-02  0.9037610E-01
        1   -1    0    0  501    0  0.00000000000E+00  0.00000000000E+00  0.14303935309E+04  0.14303935309E+04  0.50400001928E-02 0. -1.
       -1   -1    0    0    0  501  0.00000000000E+00  0.00000000000E+00 -0.29080342657E+03  0.29080342661E+03  0.50400001928E-02 0.  1.
    10030    2    1    2    0    0  0.00000000000E+00  0.00000000000E+00  0.11395901043E+04  0.17211969575E+04  0.12899043998E+04 0.  0.
        4    1    3    3  502    0  0.10372310514E+03  0.57918623185E+03  0.92219385288E+03  0.10939187762E+04  0.12699999809E+01 0. -1.
       -4    1    3    3    0  502 -0.10372310514E+03 -0.57918623185E+03  0.21739625141E+03  0.62727818129E+03  0.12699999809E+01 0.  1.
</event>
<event>
 5   0  0.4086710E-04  0.1465575E+04  0.7818609E-02  0.8907673E-01
        1   -1    0    0  501    0  0.00000000000E+00  0.00000000000E+00  0.16593704065E+04  0.16593704065E+04  0.50400001928E-02 0. -1.
       -1   -1    0    0    0  501  0.00000000000E+00  0.00000000000E+00 -0.32360336168E+03  0.32360336172E+03  0.50400001928E-02 0.  1.
    10030    2    1    2    0    0  0.00000000000E+00  0.00000000000E+00  0.13357670448E+04  0.19829737682E+04  0.14655754390E+04 0.  0.
        3    1    3    3  502    0 -0.27085575019E+03  0.42289362414E+03 -0.54155161848E+02  0.50510854922E+03  0.10100000352E+00 0.  1.
       -3    1    3    3    0  502  0.27085575019E+03 -0.42289362414E+03  0.13899222067E+04  0.14778652190E+04  0.10100000352E+00 0. -1.
</event>
<event>
 5   0  0.7359897E-04  0.1438633E+04  0.7818609E-02  0.8926319E-01
       -2   -1    0    0    0  501  0.00000000000E+00  0.00000000000E+00  0.32739938916E+03  0.32739938917E+03  0.25500000920E-02 0.  1.
        2   -1    0    0  501    0  0.00000000000E+00  0.00000000000E+00 -0.15803822570E+04  0.15803822570E+04  0.25500000920E-02 0. -1.
    10030    2    1    2    0    0  0.00000000000E+00  0.00000000000E+00 -0.12529828678E+04  0.19077816462E+04  0.14386329422E+04 0.  0.
        1    1    3    3  502    0 -0.11039768360E+03  0.39900319640E+03 -0.14065593138E+04  0.14662197320E+04  0.50400001928E-02 0. -1.
       -1    1    3    3    0  502  0.11039768360E+03 -0.39900319640E+03  0.15357644594E+03  0.44156191418E+03  0.50400001928E-02 0.  1.
</event>
<event>
 5   0  0.4015204E-04  0.1517830E+04  0.7818609E-02  0.8872682E-01
       -1   -1    0    0    0  501  0.00000000000E+00  0.00000000000E+00  0.86215096741E+03  0.86215096743E+03  0.50400001928E-02 0.  1.
        1   -1    0    0  501    0  0.00000000000E+00  0.00000000000E+00 -0.66804038049E+03  0.66804038051E+03  0.50400001928E-02 0. -1.
    10030    2    1    2    0    0  0.00000000000E+00  0.00000000000E+00  0.19411058692E+03  0.15301913479E+04  0.15178295824E+04 0.  0.
        2    1    3    3  502    0 -0.73436873234E+03  0.61130876835E+02 -0.85853440554E+02  0.74189300604E+03  0.25500000920E-02 0. -1.
       -2    1    3    3    0  502  0.73436873234E+03 -0.61130876835E+02  0.27996402748E+03  0.78829834189E+03  0.25500000920E-02 0.  1.
</event>
<event>
 5   0  0.7634227E-04  0.1526236E+04  0.7818609E-02  0.8867191E-01
        2   -1    0    0  501    0  0.00000000000E+00  0.00000000000E+00  0.14792884987E+04  0.14792884987E+04  0.25500000920E-02 0.  1.
       -2   -1    0    0    0  501  0.00000000000E+00  0.00000000000E+00 -0.39366850595E+03  0.39366850596E+03  0.25500000920E-02 0. -1.
    10030    2    1    2    0    0  0.00000000000E+00  0.00000000000E+00  0.10856199928E+04  0.18729570047E+04  0.15262362768E+04 0.  0.
        2    1    3    3  502    0 -0.21776369027E+03 -0.36074653458E+03 -0.23795625739E+03  0.48392382402E+03  0.25500000920E-02 0. -1.
       -2    1    3    3    0  502  0.21776369027E+03  0.36074653458E+03  0.13235762502E+04  0.13890331807E+04  0.25500000920E-02 0.  1.
</event>
<event>
 5   0  0.4058874E-04  0.1520424E+04  0.7818609E-02  0.8870984E-01
       -1   -1    0    0    0  501  0.00000000000E+00  0.00000000000E+00  0.39356698849E+03  0.39356698853E+03  0.50400001928E-02 0. -1.
        1   -1    0    0  501    0  0.00000000000E+00  0.00000000000E+00 -0.14684210895E+04  0.14684210895E+04  0.50400001928E-02 0.  1.
    10030    2    1    2    0    0  0.00000000000E+00  0.00000000000E+00 -0.10748541010E+04  0.18619880780E+04  0.15204237121E+04 0.  0.
        4    1    3    3  502    0  0.26176382138E+03  0.70667065983E+03 -0.41485955214E+03  0.86024053645E+03  0.12699999809E+01 0. -1.
       -4    1    3    3    0  502 -0.26176382138E+03 -0.70667065983E+03 -0.65999454888E+03  0.10017475416E+04  0.12699999809E+01 0.  1.
</event>
<event>
 5   0  0.7672251E-04  0.1504321E+04  0.7818609E-02  0.8881585E-01
       -2   -1    0    0    0  501  0.00000000000E+00  0.00000000000E+00  0.28759790372E+03  0.28759790373E+03  0.25500000920E-02 0.  1.
        2   -1    0    0  501    0  0.00000000000E+00  0.00000000000E+00 -0.19671401303E+04  0.19671401303E+04  0.25500000920E-02 0. -1.
    10030    2    1    2    0    0  0.00000000000E+00  0.00000000000E+00 -0.16795422265E+04  0.22547380340E+04  0.15043209469E+04 0.  0.
        5    1    3    3  502    0 -0.98611710253E+00 -0.18988991965E+03  0.25105586601E+03  0.31481787095E+03  0.46999998093E+01 0.  1.
       -5    1    3    3    0  502  0.98611710253E+00  0.18988991965E+03 -0.19305980926E+04  0.19399201630E+04  0.46999998093E+01 0. -1.
</event>
<event>
 5   0  0.4058874E-04  0.1406807E+04  0.7818609E-02  0.8948906E-01
        1   -1    0    0  501    0  0.00000000000E+00  0.00000000000E+00  0.11039985678E+04  0.11039985678E+04  0.50400001928E-02 0.  1.
       -1   -1    0    0    0  501  0.00000000000E+00  0.00000000000E+00 -0.44816766548E+03  0.44816766551E+03  0.50400001928E-02 0. -1.
    10030    2    1    2    0    0  0.00000000000E+00  0.00000000000E+00  0.65583090236E+03  0.15521662334E+04  0.14068069674E+04 0.  0.
        4    1    3    3  502    0  0.21205693316E+03 -0.52649468408E+03 -0.13047626782E+03  0.58240060494E+03  0.12699999809E+01 0. -1.
       -4    1    3    3    0  502 -0.21205693316E+03  0.52649468408E+03  0.78630717018E+03  0.96976562841E+03  0.12699999809E+01 0.  1.
</event>
<event>
 5   0  0.7359897E-04  0.1509086E+04  0.7818609E-02  0.8878433E-01
        2   -1    0    0  501    0  0.00000000000E+00  0.00000000000E+00  0.52190306942E+03  0.52190306943E+03  0.25500000920E-02 0. -1.
       -2   -1    0    0    0  501  0.00000000000E+00  0.00000000000E+00 -0.10908829435E+04  0.10908829435E+04  0.25500000920E-02 0.  1.
    10030    2    1    2    0    0  0.00000000000E+00  0.00000000000E+00 -0.56897987404E+03  0.16127860129E+04  0.15090860235E+04 0.  0.
        1    1    3    3  502    0 -0.58608318221E+03 -0.27487461074E+03 -0.69879615223E+03  0.95255740535E+03  0.50400001928E-02 0.  1.
       -1    1    3    3    0  502  0.58608318221E+03  0.27487461074E+03  0.12981627819E+03  0.66022860754E+03  0.50400001928E-02 0. -1.
</event>
<event>
 5   0  0.4015204E-04  0.1505472E+04  0.7818609E-02  0.8880822E-01
       -1   -1    0    0    0  501  0.00000000000E+00  0.00000000000E+00  0.21368319429E+03  0.21368319435E+03  0.50400001928E-02 0. -1.
        1   -1    0    0  501    0  0.00000000000E+00  0.00000000000E+00 -0.26516418914E+04  0.26516418914E+04  0.50400001928E-02 0.  1.
    10030    2    1    2    0    0  0.00000000000E+00  0.00000000000E+00 -0.24379586971E+04  0.28653250857E+04  0.15054717660E+04 0.  0.
        2    1    3    3  502    0 -0.33894528633E+03 -0.66288945017E+03 -0.14301053537E+04  0.16122988721E+04  0.25500000920E-02 0.  1.
       -2    1    3    3    0  502  0.33894528633E+03  0.66288945017E+03 -0.10078533434E+04  0.12530262136E+04  0.25500000920E-02 0. -1.
</event>
<event>
 5   0  0.4015204E-04  0.1530070E+04  0.7818609E-02  0.8864700E-01
       -1   -1    0    0    0  501  0.00000000000E+00  0.00000000000E+00  0.49579087982E+03  0.49579087984E+03  0.50400001928E-02 0.  1.
        1   -1    0    0  501    0  0.00000000000E+00  0.00000000000E+00 -0.11804942439E+04  0.11804942439E+04  0.50400001928E-02 0. -1.
    10030    2    1    2    0    0  0.00000000000E+00  0.00000000000E+00 -0.68470336406E+03  0.16762851237E+04  0.15300696452E+04 0.  0.
        2    1    3    3  502    0  0.31533176914E+03  0.58553148661E+02  0.41858303859E+03  0.52732756049E+03  0.25500000920E-02 0.  1.
       -2    1    3    3    0  502 -0.31533176914E+03 -0.58553148661E+02 -0.11032864026E+04  0.11489575632E+04  0.25500000920E-02 0. -1.
</event>
<event>
 5   0  0.4086710E-04  0.1510034E+04  0.7818609E-02  0.8877808E-01
       -1   -1    0    0    0  501  0.00000000000E+00  0.00000000000E+00  0.30973491265E+03  0.30973491269E+03  0.50400001928E-02 0. -1.
        1   -1    0    0  501    0  0.00000000000E+00  0.00000000000E+00 -0.18404458594E+04  0.18404458594E+04  0.50400001928E-02 0.  1.
    10030    2    1    2    0    0  0.00000000000E+00  0.00000000000E+00 -0.15307109468E+04  0.21501807721E+04  0.15100335593E+04 0.  0.
        3    1    3    3  502    0 -0.49248500376E+03  0.56963442393E+03 -0.68703326810E+03  0.10193329081E+04  0.10100000352E+00 0. -1.
       -3    1    3    3    0  502  0.49248500376E+03 -0.56963442393E+03 -0.84367767868E+03  0.11308478640E+04  0.10100000352E+00 0.  1.
</event>
<event>
 5   0  0.3907345E-04  0.1507777E+04  0.7818609E-02  0.8879298E-01
       -1   -1    0    0    0  501  0.00000000000E+00  0.00000000000E+00  0.40703878091E+03  0.40703878094E+03  0.50400001928E-02 0. -1.
        1   -1    0    0  501    0  0.00000000000E+00  0.00000000000E+00 -0.13962990322E+04  0.13962990322E+04  0.50400001928E-02 0.  1.
    10030    2    1    2    0    0  0.00000000000E+00  0.00000000000E+00 -0.98926025131E+03  0.18033378132E+04  0.15077769807E+04 0.  0.
        5    1    3    3  502    0 -0.52062523475E+02  0.31422436758E+03  0.32259522097E+03  0.45336213574E+03  0.46999998093E+01 0. -1.
       -5    1    3    3    0  502  0.52062523475E+02 -0.31422436758E+03 -0.13118554723E+04  0.13499756774E+04  0.46999998093E+01 0.  1.
</event>
<event>
 5   0  0.4058874E-04  0.1514228E+04  0.7818609E-02  0.8875046E-01
        1   -1    0    0  501    0  0.00000000000E+00  0.00000000000E+00  0.54217142321E+03  0.54217142324E+03  0.50400001928E-02 0.  1.
       -1   -1    0    0    0  501  0.00000000000E+00  0.00000000000E+00 -0.10572706480E+04  0.10572706480E+04  0.50400001928E-02 0. -1.
    10030    2    1    2    0    0  0.00000000000E+00  0.00000000000E+00 -0.51509922476E+03  0.15994420712E+04  0.15142284266E+04 0.  0.
        4    1    3    3  502    0 -0.16967069975E+03 -0.29752975342E+03  0.45565777189E+03  0.57003308545E+03  0.12699999809E+01 0.  1.
       -4    1    3    3    0  502  0.16967069975E+03  0.29752975342E+03 -0.97075699665E+03  0.10294089858E+04  0.12699999809E+01 0. -1.
</event>
<event>
 5   0  0.7547580E-04  0.1513555E+04  0.7818609E-02  0.8875488E-01
        2   -1    0    0  501    0  0.00000000000E+00  0.00000000000E+00  0.48104264433E+03  0.48104264434E+03  0.25500000920E-02 0. -1.
       -2   -1    0    0    0  501  0.00000000000E+00  0.00000000000E+00 -0.11905648618E+04  0.11905648618E+04  0.25500000920E-02 0.  1.
    10030    2    1    2    0    0  0.00000000000E+00  0.00000000000E+00 -0.70952221750E+03  0.16716075062E+04  0.15135553764E+04 0.  0.
        4    1    3    3  502    0 -0.32074082118E+03  0.62663116544E+02  0.39909210029E+03  0.51582696513E+03  0.12699999809E+01 0. -1.
       -4    1    3    3    0  502  0.32074082118E+03 -0.62663116544E+02 -0.11086143178E+04  0.11557805410E+04  0.12699999809E+01 0.  1.
</event>
<event>
 5   0  0.7359897E-04  0.1512835E+04  0.7818609E-02  0.8875963E-01
        2   -1    0    0  501    0  0.00000000000E+00  0.00000000000E+00  0.11539124400E+04  0.11539124400E+04  0.25500000920E-02 0. -1.
       -2   -1    0    0    0  501  0.00000000000E+00  0.00000000000E+00 -0.49584984269E+03  0.49584984270E+03  0.25500000920E-02 0.  1.
    10030    2    1    2    0    0  0.00000000000E+00  0.00000000000E+00  0.65806259726E+03  0.16497622827E+04  0.15128348249E+04 0.  0.
        1    1    3    3  502    0  0.50657826728E+03  0.41627429863E+03 -0.82282710879E+02  0.66081485843E+03  0.50400001928E-02 0.  1.
       -1    1    3    3    0  502 -0.50657826728E+03 -0.41627429863E+03  0.74034530814E+03  0.98894742423E+03  0.50400001928E-02 0. -1.
</event>
<event>
 5   0  0.7672251E-04  0.1472280E+04  0.7818609E-02  0.8903098E-01
        2   -1    0    0  501    0  0.00000000000E+00  0.00000000000E+00  0.11619086012E+04  0.11619086012E+04  0.25500000920E-02 0. -1.
       -2   -1    0    0    0  501  0.00000000000E+00  0.00000000000E+00 -0.46638965883E+03  0.46638965883E+03  0.25500000920E-02 0.  1.
    10030    2    1    2    0    0  0.00000000000E+00  0.00000000000E+00  0.69551894238E+03  0.16282982600E+04  0.14722800768E+04 0.  0.
        5    1    3    3  502    0 -0.50775270449E+03 -0.42653737182E+03  0.70120853806E+03  0.96512301927E+03  0.46999998093E+01 0. -1.
       -5    1    3    3    0  502  0.50775270449E+03  0.42653737182E+03 -0.56895956826E+01  0.66317524077E+03  0.46999998093E+01 0.  1.
</event>
<event>
 5   0  0.7634227E-04  0.1507203E+04  0.7818609E-02  0.8879677E-01
        2   -1    0    0  501    0  0.00000000000E+00  0.00000000000E+00  0.64984898181E+03  0.64984898181E+03  0.25500000920E-02 0.  1.
       -2   -1    0    0    0  501  0.00000000000E+00  0.00000000000E+00 -0.87391875248E+03  0.87391875249E+03  0.25500000920E-02 0. -1.
    10030    2    1    2    0    0  0.00000000000E+00  0.00000000000E+00 -0.22406977068E+03  0.15237677343E+04  0.15072029876E+04 0.  0.
        2    1    3    3  502    0 -0.54626304036E+03 -0.47746654246E+03  0.94012801210E+02  0.73158459198E+03  0.25500000920E-02 0.  1.
       -2    1    3    3    0  502  0.54626304036E+03  0.47746654246E+03 -0.31808257189E+03  0.79218314232E+03  0.25500000920E-02 0. -1.
</event>
<event>
 5   0  0.4015204E-04  0.1501783E+04  0.7818609E-02  0.8883268E-01
       -1   -1    0    0    0  501  0.00000000000E+00  0.00000000000E+00  0.59771441652E+03  0.59771441654E+03  0.50400001928E-02 0. -1.
        1   -1    0    0  501    0  0.00000000000E+00  0.00000000000E+00 -0.94332358453E+03  0.94332358454E+03  0.50400001928E-02 0.  1.
    10030    2    1    2    0    0  0.00000000000E+00  0.00000000000E+00 -0.34560916801E+03  0.15410380011E+04  0.15017830815E+04 0.  0.
        2    1    3    3  502    0  0.30352393271E+03 -0.60289964868E+03 -0.51037673502E+03  0.84622643292E+03  0.25500000920E-02 0.  1.
       -2    1    3    3    0  502 -0.30352393271E+03  0.60289964868E+03  0.16476756701E+03  0.69481156816E+03  0.25500000920E-02 0. -1.
</event>
<event>
 5   0  0.4084462E-04  0.1503906E+04  0.7818609E-02  0.8881859E-01
        1   -1    0    0  501    0  0.00000000000E+00  0.00000000000E+00  0.66360395647E+03  0.66360395649E+03  0.50400001928E-02 0.  1.
       -1   -1    0    0    0  501  0.00000000000E+00  0.00000000000E+00 -0.85206478467E+03  0.85206478469E+03  0.50400001928E-02 0. -1.
    10030    2    1    2    0    0  0.00000000000E+00  0.00000000000E+00 -0.18846082820E+03  0.15156687412E+04  0.15039063299E+04 0.  0.
        1    1    3    3  502    0  0.51611654980E+03 -0.39369396370E+03  0.28829362010E+03  0.71027068181E+03  0.50400001928E-02 0.  1.
       -1    1    3    3    0  502 -0.51611654980E+03  0.39369396370E+03 -0.47675444829E+03  0.80539805936E+03  0.50400001928E-02 0. -1.
</event>
<event>
 5   0  0.7672251E-04  0.1519135E+04  0.7818609E-02  0.8871827E-01
        2   -1    0    0  501    0  0.00000000000E+00  0.00000000000E+00  0.62373819787E+03  0.62373819788E+03  0.25500000920E-02 0.  1.
       -2   -1    0    0    0  501  0.00000000000E+00  0.00000000000E+00 -0.92497603484E+03  0.92497603485E+03  0.25500000920E-02 0. -1.
    10030    2    1    2    0    0  0.00000000000E+00  0.00000000000E+00 -0.30123783697E+03  0.15487142327E+04  0.15191351290E+04 0.  0.
        5    1    3    3  502    0  0.67970000385E+03  0.12779483014E+03  0.16949689793E+03  0.71209191980E+03  0.46999998093E+01 0.  1.
       -5    1    3    3    0  502 -0.67970000385E+03 -0.12779483014E+03 -0.47073473489E+03  0.83662231292E+03  0.46999998093E+01 0. -1.
</event>
<event>
 5   0  0.7359897E-04  0.1498645E+04  0.7818609E-02  0.8885354E-01
        2   -1    0    0  501    0  0.00000000000E+00  0.00000000000E+00  0.82780895859E+03  0.82780895860E+03  0.25500000920E-02 0. -1.
       -2   -1    0    0    0  501  0.00000000000E+00  0.00000000000E+00 -0.67827771922E+03  0.67827771923E+03  0.25500000920E-02 0.  1.
    10030    2    1    2    0    0  0.00000000000E+00  0.00000000000E+00  0.14953123937E+03  0.15060866778E+04  0.14986452180E+04 0.  0.
        1    1    3    3  502    0  0.55804373398E+03 -0.68975768381E+02 -0.42298546959E+03  0.70362431252E+03  0.50400001928E-02 0.  1.
       -1    1    3    3    0  502 -0.55804373398E+03  0.68975768381E+02  0.57251670896E+03  0.80246236530E+03  0.50400001928E-02 0. -1.
</event>
<event>
 5   0  0.3907345E-04  0.1494487E+04  0.7818609E-02  0.8888127E-01
        1   -1    0    0  501    0  0.00000000000E+00  0.00000000000E+00  0.78590233862E+03  0.78590233863E+03  0.50400001928E-02 0.  1.
       -1   -1    0    0    0  501  0.00000000000E+00  0.00000000000E+00 -0.71048665952E+03  0.71048665954E+03  0.50400001928E-02 0. -1.
    10030    2    1    2    0    0  0.00000000000E+00  0.00000000000E+00  0.75415679098E+02  0.14963889982E+04  0.14944873734E+04 0.  0.
        5    1    3    3  502    0  0.31656264320E+03  0.42132750638E+03  0.56811981071E+03  0.77492643781E+03  0.46999998093E+01 0.  1.
       -5    1    3    3    0  502 -0.31656264320E+03 -0.42132750638E+03 -0.49270413161E+03  0.72146256036E+03  0.46999998093E+01 0. -1.
</event>
<event>
 5   0  0.4086710E-04  0.1488787E+04  0.7818609E-02  0.8891944E-01
       -1   -1    0    0    0  501  0.00000000000E+00  0.00000000000E+00  0.58690843977E+03  0.58690843979E+03  0.50400001928E-02 0.  1.
        1   -1    0    0  501    0  0.00000000000E+00  0.00000000000E+00 -0.94413710011E+03  0.94413710012E+03  0.50400001928E-02 0. -1.
    10030    2    1    2    0    0  0.00000000000E+00  0.00000000000E+00 -0.35722866034E+03  0.15310455399E+04  0.14887874696E+04 0.  0.
        3    1    3    3  502    0  0.30840974308E+03 -0.63480530202E+03 -0.42203459342E+03  0.82231839901E+03  0.10100000352E+00 0. -1.
       -3    1    3    3    0  502 -0.30840974308E+03  0.63480530202E+03  0.64805933087E+02  0.70872714091E+03  0.10100000352E+00 0.  1.
</event>
<event>
 5   0  0.7672251E-04  0.1481783E+04  0.7818609E-02  0.8896658E-01
        2   -1    0    0  501    0  0.00000000000E+00  0.00000000000E+00  0.10717198752E+04  0.10717198752E+04  0.25500000920E-02 0.  1.
       -2   -1    0    0    0  501  0.00000000000E+00  0.00000000000E+00 -0.51218627700E+03  0.51218627701E+03  0.25500000920E-02 0. -1.
    10030    2    1    2    0    0  0.00000000000E+00  0.00000000000E+00  0.55953359817E+03  0.15839061522E+04  0.14817829974E+04 0.  0.
        5    1    3    3  502    0 -0.51968686492E+03 -0.17885438269E+03  0.81083222518E+03  0.97955822449E+03  0.46999998093E+01 0.  1.
       -5    1    3    3    0  502  0.51968686492E+03  0.17885438269E+03 -0.25129862701E+03  0.60434792769E+03  0.46999998093E+01 0. -1.
</event>
<event>
 5   0  0.4086710E-04  0.1507485E+04  0.7818609E-02  0.8879490E-01
       -1   -1    0    0    0  501  0.00000000000E+00  0.00000000000E+00  0.68973928348E+03  0.68973928350E+03  0.50400001928E-02 0. -1.
        1   -1    0    0  501    0  0.00000000000E+00  0.00000000000E+00 -0.82368532859E+03  0.82368532860E+03  0.50400001928E-02 0.  1.
    10030    2    1    2    0    0  0.00000000000E+00  0.00000000000E+00 -0.13394604510E+03  0.15134246121E+04  0.15074854936E+04 0.  0.
        3    1    3    3  502    0  0.11373296421E+03  0.48125041061E+03 -0.63806472458E+03  0.80725692801E+03  0.10100000352E+00 0.  1.
       -3    1    3    3    0  502 -0.11373296421E+03 -0.48125041061E+03  0.50411867948E+03  0.70616768410E+03  0.10100000352E+00 0. -1.
</event>
<event>
 5   0  0.7672251E-04  0.1502363E+04  0.7818609E-02  0.8882883E-01
       -2   -1    0    0    0  501  0.00000000000E+00  0.00000000000E+00  0.61163121593E+03  0.61163121594E+03  0.25500000920E-02 0. -1.
        2   -1    0    0  501    0  0.00000000000E+00  0.00000000000E+00 -0.92257124432E+03  0.92257124432E+03  0.25500000920E-02 0.  1.
    10030    2    1    2    0    0  0.00000000000E+00  0.00000000000E+00 -0.31094002839E+03  0.15342024603E+04  0.15023626353E+04 0.  0.
        5    1    3    3  502    0  0.56011200912E+03 -0.46742783673E+03  0.27312257220E+02  0.73005636406E+03  0.46999998093E+01 0. -1.
       -5    1    3    3    0  502 -0.56011200912E+03  0.46742783673E+03 -0.33825228561E+03  0.80414609620E+03  0.46999998093E+01 0.  1.
</event>
<event>
 5   0  0.4015204E-04  0.1492821E+04  0.7818609E-02  0.8889241E-01
       -1   -1    0    0    0  501  0.00000000000E+00  0.00000000000E+00  0.46433411199E+03  0.46433411202E+03  0.50400001928E-02 0.  1.
        1   -1    0    0  501    0  0.00000000000E+00  0.00000000000E+00 -0.11998450434E+04  0.11998450434E+04  0.50400001928E-02 0. -1.
    10030    2    1    2    0    0  0.00000000000E+00  0.00000000000E+00 -0.73551093143E+03  0.16641791555E+04  0.14928214666E+04 0.  0.
        2    1    3    3  502    0  0.53110048162E+03  0.48265037078E+03 -0.13899329314E+03  0.73098443044E+03  0.25500000920E-02 0.  1.
       -2    1    3    3    0  502 -0.53110048162E+03 -0.48265037078E+03 -0.59651763829E+03  0.93319472502E+03  0.25500000920E-02 0. -1.
</event>
<event>
 5   0  0.7359897E-04  0.1388322E+04  0.7818609E-02  0.8962315E-01
       -2   -1    0    0    0  501  0.00000000000E+00  0.00000000000E+00  0.98479923036E+03  0.98479923036E+03  0.25500000920E-02 0. -1.
        2   -1    0    0  501    0  0.00000000000E+00  0.00000000000E+00 -0.48929710630E+03  0.48929710631E+03  0.25500000920E-02 0.  1.
    10030    2    1    2    0    0  0.00000000000E+00  0.00000000000E+00  0.49550212405E+03  0.14740963367E+04  0.13883218844E+04 0.  0.
        1    1    3    3  502    0  0.29106497370E+03  0.60192429147E+03  0.44590301509E+03  0.80365488269E+03  0.50400001928E-02 0.  1.
       -1    1    3    3    0  502 -0.29106497370E+03 -0.60192429147E+03  0.49599108962E+02  0.67044145398E+03  0.50400001928E-02 0. -1.
</event>
<event>
 5   0  0.4015204E-04  0.1500550E+04  0.7818609E-02  0.8884087E-01
       -1   -1    0    0    0  501  0.00000000000E+00  0.00000000000E+00  0.45843459913E+03  0.45843459916E+03  0.50400001928E-02 0. -1.
        1   -1    0    0  501    0  0.00000000000E+00  0.00000000000E+00 -0.12279014152E+04  0.12279014153E+04  0.50400001928E-02 0.  1.
    10030    2    1    2    0    0  0.00000000000E+00  0.00000000000E+00 -0.76946681611E+03  0.16863360144E+04  0.15005498900E+04 0.  0.
        2    1    3    3  502    0 -0.23652097552E+03 -0.59048525123E+03  0.62393379289E+02  0.63914625679E+03  0.25500000920E-02 0. -1.
       -2    1    3    3    0  502  0.23652097552E+03  0.59048525123E+03 -0.83186019540E+03  0.10471897576E+04  0.25500000920E-02 0.  1.
</event>
<event>
 5   0  0.7547580E-04  0.1547036E+04  0.7818609E-02  0.8853763E-01
       -2   -1    0    0    0  501  0.00000000000E+00  0.00000000000E+00  0.53463343790E+03  0.53463343791E+03  0.25500000920E-02 0. -1.
        2   -1    0    0  501    0  0.00000000000E+00  0.00000000000E+00 -0.11191408102E+04  0.11191408102E+04  0.25500000920E-02 0.  1.
    10030    2    1    2    0    0  0.00000000000E+00  0.00000000000E+00 -0.58450737232E+03  0.16537742481E+04  0.15470360033E+04 0.  0.
        4    1    3    3  502    0 -0.14289471211E+03  0.40485055323E+03  0.39557284036E+03  0.58378279705E+03  0.12699999809E+01 0. -1.
       -4    1    3    3    0  502  0.14289471211E+03 -0.40485055323E+03 -0.98008021268E+03  0.10699914511E+04  0.12699999809E+01 0.  1.
</event>
<event>
 5   0  0.4058874E-04  0.1529045E+04  0.7818609E-02  0.8865365E-01
       -1   -1    0    0    0  501  0.00000000000E+00  0.00000000000E+00  0.65411733592E+03  0.65411733594E+03  0.50400001928E-02 0. -1.
        1   -1    0    0  501    0  0.00000000000E+00  0.00000000000E+00 -0.89356229836E+03  0.89356229837E+03  0.50400001928E-02 0.  1.
    10030    2    1    2    0    0  0.00000000000E+00  0.00000000000E+00 -0.23944496243E+03  0.15476796343E+04  0.15290449177E+04 0.  0.
        4    1    3    3  502    0  0.27890246817E+03 -0.57459933068E+03  0.30556719938E+03  0.70804230368E+03  0.12699999809E+01 0. -1.
       -4    1    3    3    0  502 -0.27890246817E+03  0.57459933068E+03 -0.54501216181E+03  0.83963733063E+03  0.12699999809E+01 0.  1.
</event>
<event>
 5   0  0.2800375E-04  0.1689046E+04  0.7818609E-02  0.8767636E-01
       -4   -1    0    0    0  501  0.00000000000E+00  0.00000000000E+00  0.67794089868E+03  0.67794208824E+03  0.12699999809E+01 0. -1.
        4   -1    0    0  501    0  0.00000000000E+00  0.00000000000E+00 -0.10520353339E+04  0.10520361005E+04  0.12699999809E+01 0.  1.
    10030    2    1    2    0    0  0.00000000000E+00  0.00000000000E+00 -0.37409443524E+03  0.17299781887E+04  0.16890464431E+04 0.  0.
        5    1    3    3  502    0 -0.32193778816E+03 -0.40252965362E+03  0.49813624410E+03  0.71682345746E+03  0.46999998093E+01 0. -1.
       -5    1    3    3    0  502  0.32193778816E+03  0.40252965362E+03 -0.87223067934E+03  0.10131547313E+04  0.46999998093E+01 0.  1.
</event>
<event>
 5   0  0.3907345E-04  0.1498891E+04  0.7818609E-02  0.8885191E-01
       -1   -1    0    0    0  501  0.00000000000E+00  0.00000000000E+00  0.53561658509E+03  0.53561658511E+03  0.50400001928E-02 0.  1.
        1   -1    0    0  501    0  0.00000000000E+00  0.00000000000E+00 -0.10486389762E+04  0.10486389762E+04  0.50400001928E-02 0. -1.
    10030    2    1    2    0    0  0.00000000000E+00  0.00000000000E+00 -0.51302239112E+03  0.15842555613E+04  0.14988908265E+04 0.  0.
        5    1    3    3  502    0 -0.52288683709E+03 -0.28102833828E+03 -0.74001185283E+03  0.94869763553E+03  0.46999998093E+01 0. -1.
       -5    1    3    3    0  502  0.52288683709E+03  0.28102833828E+03  0.22698946171E+03  0.63555792580E+03  0.46999998093E+01 0.  1.
</event>
<event>
 5   0  0.4015204E-04  0.1504539E+04  0.7818609E-02  0.8881440E-01
       -1   -1    0    0    0  501  0.00000000000E+00  0.00000000000E+00  0.12018216536E+04  0.12018216536E+04  0.50400001928E-02 0.  1.
        1   -1    0    0  501    0  0.00000000000E+00  0.00000000000E+00 -0.47087661995E+03  0.47087661998E+03  0.50400001928E-02 0. -1.
    10030    2    1    2    0    0  0.00000000000E+00  0.00000000000E+00  0.73094503361E+03  0.16726982736E+04  0.15045394219E+04 0.  0.
        2    1    3    3  502    0  0.53857269906E+03 -0.45193940386E+03  0.66296114538E+03  0.96634737917E+03  0.25500000920E-02 0.  1.
       -2    1    3    3    0  502 -0.53857269906E+03  0.45193940386E+03  0.67983888227E+02  0.70635089439E+03  0.25500000920E-02 0. -1.
</event>
<event>
 5   0  0.4086710E-04  0.1522411E+04  0.7818609E-02  0.8869685E-01
        1   -1    0    0  501    0  0.00000000000E+00  0.00000000000E+00  0.22693860571E+04  0.22693860571E+04  0.50400001928E-02 0.  1.
       -1   -1    0    0    0  501  0.00000000000E+00  0.00000000000E+00 -0.25532624277E+03  0.25532624282E+03  0.50400001928E-02 0. -1.
    10030    2    1    2    0    0  0.00000000000E+00  0.00000000000E+00  0.20140598143E+04  0.25247122999E+04  0.15224110029E+04 0.  0.
        3    1    3    3  502    0 -0.52611062287E+03  0.42505918680E+03  0.42786857285E+03  0.80033694505E+03  0.10100000352E+00 0. -1.
       -3    1    3    3    0  502  0.52611062287E+03 -0.42505918680E+03  0.15861912415E+04  0.17243753549E+04  0.10100000352E+00 0.  1.
</event>
<event>
 5   0  0.3907345E-04  0.1272383E+04  0.7818609E-02  0.9051757E-01
        1   -1    0    0  501    0  0.00000000000E+00  0.00000000000E+00  0.80806870115E+03  0.80806870116E+03  0.50400001928E-02 0.  1.
       -1   -1    0    0    0  501  0.00000000000E+00  0.00000000000E+00 -0.50087287401E+03  0.50087287404E+03  0.50400001928E-02 0. -1.
    10030    2    1    2    0    0  0.00000000000E+00  0.00000000000E+00  0.30719582713E+03  0.13089415752E+04  0.12723831070E+04 0.  0.
        5    1    3    3  502    0 -0.29334200406E+02 -0.61356630731E+03  0.32386318784E+03  0.69443038759E+03  0.46999998093E+01 0.  1.
       -5    1    3    3    0  502  0.29334200406E+02  0.61356630731E+03 -0.16667360703E+02  0.61451118760E+03  0.46999998093E+01 0. -1.
</event>
<event>
 5   0  0.3907345E-04  0.1506634E+04  0.7818609E-02  0.8880053E-01
       -1   -1    0    0    0  501  0.00000000000E+00  0.00000000000E+00  0.44110680915E+03  0.44110680918E+03  0.50400001928E-02 0.  1.
        1   -1    0    0  501    0  0.00000000000E+00  0.00000000000E+00 -0.12865061793E+04  0.12865061793E+04  0.50400001928E-02 0. -1.
    10030    2    1    2    0    0  0.00000000000E+00  0.00000000000E+00 -0.84539937013E+03  0.17276129885E+04  0.15066341769E+04 0.  0.
        5    1    3    3  502    0  0.58594567109E+03  0.13796675053E+02 -0.96533280032E+03  0.11293414821E+04  0.46999998093E+01 0. -1.
       -5    1    3    3    0  502 -0.58594567109E+03 -0.13796675053E+02  0.11993343018E+03  0.59827150642E+03  0.46999998093E+01 0.  1.
</event>
<event>
 5   0  0.3907345E-04  0.1501346E+04  0.7818609E-02  0.8883558E-01
       -1   -1    0    0    0  501  0.00000000000E+00  0.00000000000E+00  0.61982734559E+03  0.61982734561E+03  0.50400001928E-02 0. -1.
        1   -1    0    0  501    0  0.00000000000E+00  0.00000000000E+00 -0.90914018210E+03  0.90914018211E+03  0.50400001928E-02 0.  1.
    10030    2    1    2    0    0  0.00000000000E+00  0.00000000000E+00 -0.28931283651E+03  0.15289675277E+04  0.15013459906E+04 0.  0.
        5    1    3    3  502    0 -0.73671876395E+03  0.14035481669E+03 -0.11191141731E+03  0.75828772050E+03  0.46999998093E+01 0. -1.
       -5    1    3    3    0  502  0.73671876395E+03 -0.14035481669E+03 -0.17740141919E+03  0.77067980722E+03  0.46999998093E+01 0.  1.
</event>
<event>
 5   0  0.7547580E-04  0.1497117E+04  0.7818609E-02  0.8886372E-01
        2   -1    0    0  501    0  0.00000000000E+00  0.00000000000E+00  0.10156180464E+04  0.10156180464E+04  0.25500000920E-02 0. -1.
       -2   -1    0    0    0  501  0.00000000000E+00  0.00000000000E+00 -0.55172298893E+03  0.55172298894E+03  0.25500000920E-02 0.  1.
    10030    2    1    2    0    0  0.00000000000E+00  0.00000000000E+00  0.46389505743E+03  0.15673410353E+04  0.14971169950E+04 0.  0.
        4    1    3    3  502    0 -0.62079403845E+03  0.40860480918E+03  0.13833817390E+03  0.75596441154E+03  0.12699999809E+01 0.  1.
       -4    1    3    3    0  502  0.62079403845E+03 -0.40860480918E+03  0.32555688353E+03  0.81137662375E+03  0.12699999809E+01 0. -1.
</event>
<event>
 5   0  0.4058874E-04  0.1336111E+04  0.7818609E-02  0.9001409E-01
        1   -1    0    0  501    0  0.00000000000E+00  0.00000000000E+00  0.60356499197E+03  0.60356499199E+03  0.50400001928E-02 0. -1.
       -1   -1    0    0    0  501  0.00000000000E+00  0.00000000000E+00 -0.73943654779E+03  0.73943654781E+03  0.50400001928E-02 0.  1.
    10030    2    1    2    0    0  0.00000000000E+00  0.00000000000E+00 -0.13587155582E+03  0.13430015398E+04  0.13361107949E+04 0.  0.
        4    1    3    3  502    0  0.26168449531E+03 -0.28781795251E+03  0.47798444701E+03  0.61626998415E+03  0.12699999809E+01 0. -1.
       -4    1    3    3    0  502 -0.26168449531E+03  0.28781795251E+03 -0.61385600283E+03  0.72673155565E+03  0.12699999809E+01 0.  1.
</event>
<event>
 5   0  0.7454828E-04  0.1505667E+04  0.7818609E-02  0.8880693E-01
       -2   -1    0    0    0  501  0.00000000000E+00  0.00000000000E+00  0.20005754954E+03  0.20005754955E+03  0.25500000920E-02 0. -1.
        2   -1    0    0  501    0  0.00000000000E+00  0.00000000000E+00 -0.28329761335E+04  0.28329761335E+04  0.25500000920E-02 0.  1.
    10030    2    1    2    0    0  0.00000000000E+00  0.00000000000E+00 -0.26329185840E+04  0.30330336830E+04  0.15056669794E+04 0.  0.
        3    1    3    3  502    0  0.43738456890E+03  0.31265181143E+03 -0.23780025181E+04  0.24380222318E+04  0.10100000352E+00 0.  1.
       -3    1    3    3    0  502 -0.43738456890E+03 -0.31265181143E+03 -0.25491606583E+03  0.59501145125E+03  0.10100000352E+00 0. -1.
</event>
<event>
 5   0  0.7359897E-04  0.1489806E+04  0.7818609E-02  0.8891260E-01
       -2   -1    0    0    0  501  0.00000000000E+00  0.00000000000E+00  0.17084296323E+04  0.17084296323E+04  0.25500000920E-02 0. -1.
        2   -1    0    0  501    0  0.00000000000E+00  0.00000000000E+00 -0.32478997743E+03  0.32478997744E+03  0.25500000920E-02 0.  1.
    10030    2    1    2    0    0  0.00000000000E+00  0.00000000000E+00  0.13836396549E+04  0.20332196098E+04  0.14898064596E+04 0.  0.
        1    1    3    3  502    0  0.37557747981E+03 -0.64323326785E+03  0.70350753583E+03  0.10245634842E+04  0.50400001928E-02 0.  1.
       -1    1    3    3    0  502 -0.37557747981E+03  0.64323326785E+03  0.68013211907E+03  0.10086561256E+04  0.50400001928E-02 0. -1.
</event>
<event>
 5   0  0.4058874E-04  0.1502114E+04  0.7818609E-02  0.8883049E-01
        1   -1    0    0  501    0  0.00000000000E+00  0.00000000000E+00  0.70942142295E+03  0.70942142296E+03  0.50400001928E-02 0.  1.
       -1   -1    0    0    0  501  0.00000000000E+00  0.00000000000E+00 -0.79513564750E+03  0.79513564752E+03  0.50400001928E-02 0. -1.
    10030    2    1    2    0    0  0.00000000000E+00  0.00000000000E+00 -0.85714224559E+02  0.15045570705E+04  0.15021135277E+04 0.  0.
        4    1    3    3  502    0 -0.24770244728E+03  0.38535239970E+03 -0.63899895429E+03  0.78624058076E+03  0.12699999809E+01 0. -1.
       -4    1    3    3    0  502  0.24770244728E+03 -0.38535239970E+03  0.55328472974E+03  0.71831648972E+03  0.12699999809E+01 0.  1.
</event>
<event>
 5   0  0.7359897E-04  0.1519712E+04  0.7818609E-02  0.8871450E-01
        2   -1    0    0  501    0  0.00000000000E+00  0.00000000000E+00  0.16570199355E+04  0.16570199355E+04  0.25500000920E-02 0. -1.
       -2   -1    0    0    0  501  0.00000000000E+00  0.00000000000E+00 -0.34844543285E+03  0.34844543286E+03  0.25500000920E-02 0.  1.
    10030    2    1    2    0    0  0.00000000000E+00  0.00000000000E+00  0.13085745026E+04  0.20054653683E+04  0.15197118525E+04 0.  0.
        1    1    3    3  502    0 -0.13930586698E+03  0.48395844837E+03  0.14051575477E+04  0.14926786788E+04  0.50400001928E-02 0. -1.
       -1    1    3    3    0  502  0.13930586698E+03 -0.48395844837E+03 -0.96583045071E+02  0.51278668951E+03  0.50400001928E-02 0.  1.
</event>
<event>
 5   0  0.7454828E-04  0.1414816E+04  0.7818609E-02  0.8943164E-01
       -2   -1    0    0    0  501  0.00000000000E+00  0.00000000000E+00  0.38192480826E+03  0.38192480826E+03  0.25500000920E-02 0. -1.
        2   -1    0    0  501    0  0.00000000000E+00  0.00000000000E+00 -0.13102731189E+04  0.13102731189E+04  0.25500000920E-02 0.  1.
    10030    2    1    2    0    0  0.00000000000E+00  0.00000000000E+00 -0.92834831068E+03  0.16921979272E+04  0.14148156201E+04 0.  0.
        3    1    3    3  502    0  0.21914249006E+03  0.66783327288E+03 -0.55986672535E+03  0.89859638975E+03  0.10100000352E+00 0.  1.
       -3    1    3    3    0  502 -0.21914249006E+03 -0.66783327288E+03 -0.36848158533E+03  0.79360153745E+03  0.10100000352E+00 0. -1.
</event>
<event>
 5   0  0.4015204E-04  0.1491883E+04  0.7818609E-02  0.8889868E-01
        1   -1    0    0  501    0  0.00000000000E+00  0.00000000000E+00  0.67989887143E+03  0.67989887145E+03  0.50400001928E-02 0. -1.
       -1   -1    0    0    0  501  0.00000000000E+00  0.00000000000E+00 -0.81839950076E+03  0.81839950077E+03  0.50400001928E-02 0.  1.
    10030    2    1    2    0    0  0.00000000000E+00  0.00000000000E+00 -0.13850062933E+03  0.14982983722E+04  0.14918832353E+04 0.  0.
        2    1    3    3  502    0 -0.36200384529E+03  0.34326326410E+03  0.48770847941E+03  0.69766468548E+03  0.25500000920E-02 0. -1.
       -2    1    3    3    0  502  0.36200384529E+03 -0.34326326410E+03 -0.62620910873E+03  0.80063368674E+03  0.25500000920E-02 0.  1.
</event>
<event>
 5   0  0.7454828E-04  0.1517045E+04  0.7818609E-02  0.8873196E-01
        2   -1    0    0  501    0  0.00000000000E+00  0.00000000000E+00  0.14938157237E+04  0.14938157237E+04  0.25500000920E-02 0. -1.
       -2   -1    0    0    0  501  0.00000000000E+00  0.00000000000E+00 -0.38515907477E+03  0.38515907478E+03  0.25500000920E-02 0.  1.
    10030    2    1    2    0    0  0.00000000000E+00  0.00000000000E+00  0.11086566489E+04  0.18789747985E+04  0.15170453942E+04 0.  0.
        3    1    3    3  502    0 -0.25409353116E+03 -0.40077207207E+03 -0.17860569949E+03  0.50703232878E+03  0.10100000352E+00 0.  1.
       -3    1    3    3    0  502  0.25409353116E+03  0.40077207207E+03  0.12872623484E+04  0.13719424697E+04  0.10100000352E+00 0. -1.
</event>
<event>
 5   0  0.4058874E-04  0.1490677E+04  0.7818609E-02  0.8890676E-01
        1   -1    0    0  501    0  0.00000000000E+00  0.00000000000E+00  0.35334080822E+03  0.35334080825E+03  0.50400001928E-02 0.  1.
       -1   -1    0    0    0  501  0.00000000000E+00  0.00000000000E+00 -0.15722205744E+04  0.15722205744E+04  0.50400001928E-02 0. -1.
    10030    2    1    2    0    0  0.00000000000E+00  0.00000000000E+00 -0.12188797662E+04  0.19255613827E+04  0.14906772803E+04 0.  0.
        4    1    3    3  502    0  0.43472802984E+03  0.12284945290E+03 -0.13752199247E+04  0.14475192234E+04  0.12699999809E+01 0. -1.
       -4    1    3    3    0  502 -0.43472802984E+03 -0.12284945290E+03  0.15634015846E+03  0.47804215929E+03  0.12699999809E+01 0.  1.
</event>
<event>
 5   0  0.4015204E-04  0.1490645E+04  0.7818609E-02  0.8890698E-01
       -1   -1    0    0    0  501  0.00000000000E+00  0.00000000000E+00  0.37072589345E+03  0.37072589348E+03  0.50400001928E-02 0. -1.
        1   -1    0    0  501    0  0.00000000000E+00  0.00000000000E+00 -0.14984260820E+04  0.14984260820E+04  0.50400001928E-02 0.  1.
    10030    2    1    2    0    0  0.00000000000E+00  0.00000000000E+00 -0.11277001885E+04  0.18691519755E+04  0.14906446230E+04 0.  0.
        2    1    3    3  502    0 -0.25869674086E+02 -0.72232499077E+03 -0.33577856602E+03  0.79697545617E+03  0.25500000920E-02 0. -1.
       -2    1    3    3    0  502  0.25869674086E+02  0.72232499077E+03 -0.79192162249E+03  0.10721765193E+04  0.25500000920E-02 0.  1.
</event>
<event>
 5   0  0.4084462E-04  0.1529593E+04  0.7818609E-02  0.8865009E-01
       -1   -1    0    0    0  501  0.00000000000E+00  0.00000000000E+00  0.53438869555E+03  0.53438869557E+03  0.50400001928E-02 0. -1.
        1   -1    0    0  501    0  0.00000000000E+00  0.00000000000E+00 -0.10945474502E+04  0.10945474502E+04  0.50400001928E-02 0.  1.
    10030    2    1    2    0    0  0.00000000000E+00  0.00000000000E+00 -0.56015875463E+03  0.16289361458E+04  0.15295931278E+04 0.  0.
        1    1    3    3  502    0  0.48565087547E+03  0.65010976360E+02  0.34528195696E+03  0.59941874322E+03  0.50400001928E-02 0. -1.
       -1    1    3    3    0  502 -0.48565087547E+03 -0.65010976360E+02 -0.90544071159E+03  0.10295174025E+04  0.50400001928E-02 0.  1.
</event>
<event>
 5   0  0.7359897E-04  0.1447389E+04  0.7818609E-02  0.8920213E-01
        2   -1    0    0  501    0  0.00000000000E+00  0.00000000000E+00  0.58161925533E+03  0.58161925534E+03  0.25500000920E-02 0. -1.
       -2   -1    0    0    0  501  0.00000000000E+00  0.00000000000E+00 -0.90047484671E+03  0.90047484671E+03  0.25500000920E-02 0.  1.
    10030    2    1    2    0    0  0.00000000000E+00  0.00000000000E+00 -0.31885559137E+03  0.14820941020E+04  0.14473886966E+04 0.  0.
        1    1    3    3  502    0 -0.36823814203E+03  0.49039611979E+03  0.23403274966E+03  0.65639851575E+03  0.50400001928E-02 0. -1.
       -1    1    3    3    0  502  0.36823814203E+03 -0.49039611979E+03 -0.55288834103E+03  0.82569558629E+03  0.50400001928E-02 0.  1.
</event>
<event>
 5   0  0.4084462E-04  0.1504800E+04  0.7818609E-02  0.8881267E-01
        1   -1    0    0  501    0  0.00000000000E+00  0.00000000000E+00  0.98130271212E+03  0.98130271213E+03  0.50400001928E-02 0.  1.
       -1   -1    0    0    0  501  0.00000000000E+00  0.00000000000E+00 -0.57689241650E+03  0.57689241653E+03  0.50400001928E-02 0. -1.
    10030    2    1    2    0    0  0.00000000000E+00  0.00000000000E+00  0.40441029562E+03  0.15581951287E+04  0.15048004425E+04 0.  0.
        1    1    3    3  502    0 -0.60528075841E+03  0.30150888960E+03 -0.13940015283E+03  0.69043812876E+03  0.50400001928E-02 0. -1.
       -1    1    3    3    0  502  0.60528075841E+03 -0.30150888960E+03  0.54381044845E+03  0.86775699990E+03  0.50400001928E-02 0.  1.
</event>
<event>
 5   0  0.4058874E-04  0.1502329E+04  0.7818609E-02  0.8882906E-01
       -1   -1    0    0    0  501  0.00000000000E+00  0.00000000000E+00  0.19096384332E+04  0.19096384332E+04  0.50400001928E-02 0.  1.
        1   -1    0    0  501    0  0.00000000000E+00  0.00000000000E+00 -0.29547373519E+03  0.29547373523E+03  0.50400001928E-02 0. -1.
    10030    2    1    2    0    0  0.00000000000E+00  0.00000000000E+00  0.16141646980E+04  0.22051121685E+04  0.15023288598E+04 0.  0.
        4    1    3    3  502    0  0.23136003342E+03 -0.57625810535E+03  0.18669670563E+03  0.64842743761E+03  0.12699999809E+01 0. -1.
       -4    1    3    3    0  502 -0.23136003342E+03  0.57625810535E+03  0.14274679924E+04  0.15566847309E+04  0.12699999809E+01 0.  1.
</event>
<event>
 5   0  0.7634227E-04  0.1501688E+04  0.7818609E-02  0.8883331E-01
        2   -1    0    0  501    0  0.00000000000E+00  0.00000000000E+00  0.88376469599E+03  0.88376469600E+03  0.25500000920E-02 0. -1.
       -2   -1    0    0    0  501  0.00000000000E+00  0.00000000000E+00 -0.63791527568E+03  0.63791527568E+03  0.25500000920E-02 0.  1.
    10030    2    1    2    0    0  0.00000000000E+00  0.00000000000E+00  0.24584942031E+03  0.15216799717E+04  0.15016883827E+04 0.  0.
        2    1    3    3  502    0 -0.30810706007E+03 -0.41628183654E+03  0.67380393346E+03  0.84984249638E+03  0.25500000920E-02 0. -1.
       -2    1    3    3    0  502  0.30810706007E+03  0.41628183654E+03 -0.42795451314E+03  0.67183747531E+03  0.25500000920E-02 0.  1.
</event>
<event>
 5   0  0.7634227E-04  0.1496756E+04  0.7818609E-02  0.8886613E-01
       -2   -1    0    0    0  501  0.00000000000E+00  0.00000000000E+00  0.44960131936E+03  0.44960131937E+03  0.25500000920E-02 0.  1.
        2   -1    0    0  501    0  0.00000000000E+00  0.00000000000E+00 -0.12457024452E+04  0.12457024452E+04  0.25500000920E-02 0. -1.
    10030    2    1    2    0    0  0.00000000000E+00  0.00000000000E+00 -0.79610112582E+03  0.16953037646E+04  0.14967557755E+04 0.  0.
        2    1    3    3  502    0  0.67615700859E+03 -0.27845937786E+03 -0.21774336506E+03  0.76298106033E+03  0.25500000920E-02 0. -1.
       -2    1    3    3    0  502 -0.67615700859E+03  0.27845937786E+03 -0.57835776076E+03  0.93232270423E+03  0.25500000920E-02 0.  1.
</event>
<event>
 5   0  0.2800375E-04  0.1502217E+04  0.7818609E-02  0.8882980E-01
        4   -1    0    0  501    0  0.00000000000E+00  0.00000000000E+00  0.40109710446E+03  0.40109911506E+03  0.12699999809E+01 0.  1.
       -4   -1    0    0    0  501  0.00000000000E+00  0.00000000000E+00 -0.14065458709E+04  0.14065464442E+04  0.12699999809E+01 0. -1.
    10030    2    1    2    0    0  0.00000000000E+00  0.00000000000E+00 -0.10054487664E+04  0.18076455593E+04  0.15022167773E+04 0.  0.
        2    1    3    3  502    0  0.27764712570E+03 -0.49856916255E+03  0.84939660149E+02  0.57695223557E+03  0.25500000920E-02 0.  1.
       -2    1    3    3    0  502 -0.27764712570E+03  0.49856916255E+03 -0.10903884265E+04  0.12306933237E+04  0.25500000920E-02 0. -1.
</event>
<event>
 5   0  0.7359897E-04  0.1449288E+04  0.7818609E-02  0.8918894E-01
        2   -1    0    0  501    0  0.00000000000E+00  0.00000000000E+00  0.10323477239E+04  0.10323477239E+04  0.25500000920E-02 0.  1.
       -2   -1    0    0    0  501  0.00000000000E+00  0.00000000000E+00 -0.50865486766E+03  0.50865486766E+03  0.25500000920E-02 0. -1.
    10030    2    1    2    0    0  0.00000000000E+00  0.00000000000E+00  0.52369285627E+03  0.15410025916E+04  0.14492876801E+04 0.  0.
        1    1    3    3  502    0  0.70472829166E+03 -0.39549825914E+02  0.43624600235E+03  0.82976908136E+03  0.50400001928E-02 0. -1.
       -1    1    3    3    0  502 -0.70472829166E+03  0.39549825914E+02  0.87446853917E+02  0.71123351023E+03  0.50400001928E-02 0.  1.
</event>
<event>
 5   0  0.4086710E-04  0.1500028E+04  0.7818609E-02  0.8884435E-01
        1   -1    0    0  501    0  0.00000000000E+00  0.00000000000E+00  0.16100976635E+04  0.16100976635E+04  0.50400001928E-02 0.  1.
       -1   -1    0    0    0  501  0.00000000000E+00  0.00000000000E+00 -0.34937057377E+03  0.34937057380E+03  0.50400001928E-02 0. -1.
    10030    2    1    2    0    0  0.00000000000E+00  0.00000000000E+00  0.12607270897E+04  0.19594682373E+04  0.15000276592E+04 0.  0.
        3    1    3    3  502    0  0.68685815092E+03  0.15021445478E+03  0.28926916053E+03  0.76027308209E+03  0.10100000352E+00 0. -1.
       -3    1    3    3    0  502 -0.68685815092E+03 -0.15021445478E+03  0.97145792920E+03  0.11991951552E+04  0.10100000352E+00 0.  1.
</event>
<event>
 5   0  0.7547580E-04  0.1505824E+04  0.7818609E-02  0.8880589E-01
       -2   -1    0    0    0  501  0.00000000000E+00  0.00000000000E+00  0.27786424020E+03  0.27786424021E+03  0.25500000920E-02 0.  1.
        2   -1    0    0  501    0  0.00000000000E+00  0.00000000000E+00 -0.20401215767E+04  0.20401215767E+04  0.25500000920E-02 0. -1.
    10030    2    1    2    0    0  0.00000000000E+00  0.00000000000E+00 -0.17622573365E+04  0.23179858169E+04  0.15058244677E+04 0.  0.
        4    1    3    3  502    0 -0.29744880705E+03  0.79845115115E+02 -0.19387216245E+04  0.19630318860E+04  0.12699999809E+01 0. -1.
       -4    1    3    3    0  502  0.29744880705E+03 -0.79845115115E+02  0.17646428802E+03  0.35495393091E+03  0.12699999809E+01 0.  1.
</event>
<event>
 5   0  0.7672251E-04  0.1491130E+04  0.7818609E-02  0.8890373E-01
        2   -1    0    0  501    0  0.00000000000E+00  0.00000000000E+00  0.16647984515E+04  0.16647984515E+04  0.25500000920E-02 0.  1.
       -2   -1    0    0    0  501  0.00000000000E+00  0.00000000000E+00 -0.33389435407E+03  0.33389435408E+03  0.25500000920E-02 0. -1.
    10030    2    1    2    0    0  0.00000000000E+00  0.00000000000E+00  0.13309040974E+04  0.19986928056E+04  0.14911295096E+04 0.  0.
        5    1    3    3  502    0  0.53518943890E+03 -0.13356211441E+03  0.13377582774E+04  0.14470265626E+04  0.46999998093E+01 0.  1.
       -5    1    3    3    0  502 -0.53518943890E+03  0.13356211441E+03 -0.68541799961E+01  0.55166624303E+03  0.46999998093E+01 0. -1.
</event>
<event>
 5   0  0.7454828E-04  0.1485079E+04  0.7818609E-02  0.8894436E-01
       -2   -1    0    0    0  501  0.00000000000E+00  0.00000000000E+00  0.38977191230E+03  0.38977191231E+03  0.25500000920E-02 0.  1.
        2   -1    0    0  501    0  0.00000000000E+00  0.00000000000E+00 -0.14145830142E+04  0.14145830142E+04  0.25500000920E-02 0. -1.
    10030    2    1    2    0    0  0.00000000000E+00  0.00000000000E+00 -0.10248111019E+04  0.18043549265E+04  0.14850787542E+04 0.  0.
        3    1    3    3  502    0 -0.12300745279E+03 -0.44135164290E+03  0.19755030145E+03  0.49894712940E+03  0.10100000352E+00 0.  1.
       -3    1    3    3    0  502  0.12300745279E+03  0.44135164290E+03 -0.12223614033E+04  0.13054077971E+04  0.10100000352E+00 0. -1.
</event>
<event>
 5   0  0.4084462E-04  0.1498170E+04  0.7818609E-02  0.8885671E-01
       -1   -1    0    0    0  501  0.00000000000E+00  0.00000000000E+00  0.10412632523E+04  0.10412632523E+04  0.50400001928E-02 0. -1.
        1   -1    0    0  501    0  0.00000000000E+00  0.00000000000E+00 -0.53889210199E+03  0.53889210201E+03  0.50400001928E-02 0.  1.
    10030    2    1    2    0    0  0.00000000000E+00  0.00000000000E+00  0.50237115029E+03  0.15801553543E+04  0.14981702744E+04 0.  0.
        1    1    3    3  502    0 -0.51924473620E+03 -0.21202305561E+03 -0.27253499472E+03  0.62357372904E+03  0.50400001928E-02 0.  1.
       -1    1    3    3    0  502  0.51924473620E+03  0.21202305561E+03  0.77490614501E+03  0.95658162525E+03  0.50400001928E-02 0. -1.
</event>
<event>
 5   0  0.2800375E-04  0.1476951E+04  0.7818609E-02  0.8899926E-01
        4   -1    0    0  501    0  0.00000000000E+00  0.00000000000E+00  0.57673140311E+03  0.57673280142E+03  0.12699999809E+01 0. -1.
       -4   -1    0    0    0  501  0.00000000000E+00  0.00000000000E+00 -0.94557819455E+03  0.94557904741E+03  0.12699999809E+01 0.  1.
    10030    2    1    2    0    0  0.00000000000E+00  0.00000000000E+00 -0.36884679144E+03  0.15223118488E+04  0.14769513904E+04 0.  0.
        5    1    3    3  502    0  0.19759327503E+03 -0.58208338860E+03  0.23736350148E+03  0.65895955524E+03  0.46999998093E+01 0. -1.
       -5    1    3    3    0  502 -0.19759327503E+03  0.58208338860E+03 -0.60621029292E+03  0.86335229359E+03  0.46999998093E+01 0.  1.
</event>
<event>
 5   0  0.4015204E-04  0.1442445E+04  0.7818609E-02  0.8923655E-01
        1   -1    0    0  501    0  0.00000000000E+00  0.00000000000E+00  0.73744361478E+03  0.73744361480E+03  0.50400001928E-02 0.  1.
       -1   -1    0    0    0  501  0.00000000000E+00  0.00000000000E+00 -0.70535844907E+03  0.70535844908E+03  0.50400001928E-02 0. -1.
    10030    2    1    2    0    0  0.00000000000E+00  0.00000000000E+00  0.32085165715E+02  0.14428020639E+04  0.14424452633E+04 0.  0.
        2    1    3    3  502    0  0.30965248395E+03  0.26719159351E+03  0.61023167399E+03  0.73461466390E+03  0.25500000920E-02 0.  1.
       -2    1    3    3    0  502 -0.30965248395E+03 -0.26719159351E+03 -0.57814650828E+03  0.70818739999E+03  0.25500000920E-02 0. -1.
</event>
<event>
 5   0  0.7634227E-04  0.1337706E+04  0.7818609E-02  0.9000187E-01
        2   -1    0    0  501    0  0.00000000000E+00  0.00000000000E+00  0.14437292158E+04  0.14437292158E+04  0.25500000920E-02 0.  1.
       -2   -1    0    0    0  501  0.00000000000E+00  0.00000000000E+00 -0.30986740384E+03  0.30986740385E+03  0.25500000920E-02 0. -1.
    10030    2    1    2    0    0  0.00000000000E+00  0.00000000000E+00  0.11338618120E+04  0.17535966197E+04  0.13377064311E+04 0.  0.
        2    1    3    3  502    0  0.24815177410E+03 -0.36767048902E+02 -0.24586124366E+03  0.35125328470E+03  0.25500000920E-02 0. -1.
       -2    1    3    3    0  502 -0.24815177410E+03  0.36767048902E+02  0.13797230557E+04  0.14023433350E+04  0.25500000920E-02 0.  1.
</event>
<event>
 5   0  0.7547580E-04  0.1489122E+04  0.7818609E-02  0.8891719E-01
        2   -1    0    0  501    0  0.00000000000E+00  0.00000000000E+00  0.31876134644E+03  0.31876134645E+03  0.25500000920E-02 0. -1.
       -2   -1    0    0    0  501  0.00000000000E+00  0.00000000000E+00 -0.17391418370E+04  0.17391418370E+04  0.25500000920E-02 0.  1.
    10030    2    1    2    0    0  0.00000000000E+00  0.00000000000E+00 -0.14203804905E+04  0.20579031834E+04  0.14891221489E+04 0.  0.
        4    1    3    3  502    0 -0.25319692176E+03  0.35847340793E+03 -0.15413863835E+04  0.16026495130E+04  0.12699999809E+01 0.  1.
       -4    1    3    3    0  502  0.25319692176E+03 -0.35847340793E+03  0.12100589298E+03  0.45525367040E+03  0.12699999809E+01 0. -1.
</event>
<event>
 5   0  0.7672251E-04  0.1505479E+04  0.7818609E-02  0.8880817E-01
       -2   -1    0    0    0  501  0.00000000000E+00  0.00000000000E+00  0.83466043674E+03  0.83466043674E+03  0.25500000920E-02 0. -1.
        2   -1    0    0  501    0  0.00000000000E+00  0.00000000000E+00 -0.67885928086E+03  0.67885928087E+03  0.25500000920E-02 0.  1.
    10030    2    1    2    0    0  0.00000000000E+00  0.00000000000E+00  0.15580115587E+03  0.15135197176E+04  0.15054793042E+04 0.  0.
        5    1    3    3  502    0  0.53382613859E+03 -0.36009770336E+02 -0.45438709914E+03  0.70196636363E+03  0.46999998093E+01 0.  1.
       -5    1    3    3    0  502 -0.53382613859E+03  0.36009770336E+02  0.61018825501E+03  0.81155335398E+03  0.46999998093E+01 0. -1.
</event>
<event>
 5   0  0.4084462E-04  0.1478029E+04  0.7818609E-02  0.8899197E-01
       -1   -1    0    0    0  501  0.00000000000E+00  0.00000000000E+00  0.74529246171E+03  0.74529246172E+03  0.50400001928E-02 0. -1.
        1   -1    0    0  501    0  0.00000000000E+00  0.00000000000E+00 -0.73278894165E+03  0.73278894166E+03  0.50400001928E-02 0.  1.
    10030    2    1    2    0    0  0.00000000000E+00  0.00000000000E+00  0.12503520061E+02  0.14780814034E+04  0.14780285170E+04 0.  0.
        1    1    3    3  502    0 -0.63239762456E+03 -0.26787204598E+03 -0.26663139145E+03  0.73673230383E+03  0.50400001928E-02 0. -1.
       -1    1    3    3    0  502  0.63239762456E+03  0.26787204598E+03  0.27913491151E+03  0.74134909956E+03  0.50400001928E-02 0.  1.
</event>
<event>
 5   0  0.4058874E-04  0.1557818E+04  0.7818609E-02  0.8846890E-01
        1   -1    0    0  501    0  0.00000000000E+00  0.00000000000E+00  0.57061755816E+03  0.57061755818E+03  0.50400001928E-02 0.  1.
       -1   -1    0    0    0  501  0.00000000000E+00  0.00000000000E+00 -0.10632325344E+04  0.10632325344E+04  0.50400001928E-02 0. -1.
    10030    2    1    2    0    0  0.00000000000E+00  0.00000000000E+00 -0.49261497622E+03  0.16338500926E+04  0.15578179002E+04 0.  0.
        4    1    3    3  502    0  0.15478119093E+03  0.23278032669E+03 -0.10088078464E+04  0.10468231854E+04  0.12699999809E+01 0. -1.
       -4    1    3    3    0  502 -0.15478119093E+03 -0.23278032669E+03  0.51619287023E+03  0.58702690716E+03  0.12699999809E+01 0.  1.
</event>
<event>
 5   0  0.7634227E-04  0.1498611E+04  0.7818609E-02  0.8885377E-01
        2   -1    0    0  501    0  0.00000000000E+00  0.00000000000E+00  0.85878912924E+03  0.85878912925E+03  0.25500000920E-02 0.  1.
       -2   -1    0    0    0  501  0.00000000000E+00  0.00000000000E+00 -0.65377917248E+03  0.65377917249E+03  0.25500000920E-02 0. -1.
    10030    2    1    2    0    0  0.00000000000E+00  0.00000000000E+00  0.20500995676E+03  0.15125683017E+04  0.14986106182E+04 0.  0.
        2    1    3    3  502    0 -0.48188078869E+03 -0.43382438666E+03 -0.27655348412E+03  0.70490745673E+03  0.25500000920E-02 0. -1.
       -2    1    3    3    0  502  0.48188078869E+03  0.43382438666E+03  0.48156344088E+03  0.80766084501E+03  0.25500000920E-02 0.  1.
</event>
<event>
 5   0  0.7359897E-04  0.1494355E+04  0.7818609E-02  0.8888215E-01
        2   -1    0    0  501    0  0.00000000000E+00  0.00000000000E+00  0.88650377208E+03  0.88650377209E+03  0.25500000920E-02 0. -1.
       -2   -1    0    0    0  501  0.00000000000E+00  0.00000000000E+00 -0.62974858441E+03  0.62974858442E+03  0.25500000920E-02 0.  1.
    10030    2    1    2    0    0  0.00000000000E+00  0.00000000000E+00  0.25675518767E+03  0.15162523565E+04  0.14943553735E+04 0.  0.
        1    1    3    3  502    0 -0.33809445640E+02 -0.71936744040E+03 -0.73642628315E+02  0.72391700467E+03  0.50400001928E-02 0.  1.
       -1    1    3    3    0  502  0.33809445640E+02  0.71936744040E+03  0.33039781599E+03  0.79233535183E+03  0.50400001928E-02 0. -1.
</event>
<event>
 5   0  0.7359897E-04  0.1502451E+04  0.7818609E-02  0.8882824E-01
        2   -1    0    0  501    0  0.00000000000E+00  0.00000000000E+00  0.58277625967E+03  0.58277625968E+03  0.25500000920E-02 0.  1.
       -2   -1    0    0    0  501  0.00000000000E+00  0.00000000000E+00 -0.96836483146E+03  0.96836483146E+03  0.25500000920E-02 0. -1.
    10030    2    1    2    0    0  0.00000000000E+00  0.00000000000E+00 -0.38558857178E+03  0.15511410911E+04  0.15024513762E+04 0.  0.
        1    1    3    3  502    0  0.24090257294E+03 -0.43422692429E+03  0.38916912620E+03  0.63090385974E+03  0.50400001928E-02 0.  1.
       -1    1    3    3    0  502 -0.24090257294E+03  0.43422692429E+03 -0.77475769799E+03  0.92023723139E+03  0.50400001928E-02 0. -1.
</event>
<event>
 5   0  0.4015204E-04  0.1497615E+04  0.7818609E-02  0.8886041E-01
        1   -1    0    0  501    0  0.00000000000E+00  0.00000000000E+00  0.10797479004E+04  0.10797479004E+04  0.50400001928E-02 0. -1.
       -1   -1    0    0    0  501  0.00000000000E+00  0.00000000000E+00 -0.51929947985E+03  0.51929947988E+03  0.50400001928E-02 0.  1.
    10030    2    1    2    0    0  0.00000000000E+00  0.00000000000E+00  0.56044842052E+03  0.15990473803E+04  0.14976148010E+04 0.  0.
        2    1    3    3  502    0 -0.21067412767E+03  0.62563668928E+03  0.65758411952E+03  0.93178416454E+03  0.25500000920E-02 0. -1.
       -2    1    3    3    0  502  0.21067412767E+03 -0.62563668928E+03 -0.97135698995E+02  0.66726321573E+03  0.25500000920E-02 0.  1.
</event>
<event>
 5   0  0.7672251E-04  0.1575332E+04  0.7818609E-02  0.8835848E-01
        2   -1    0    0  501    0  0.00000000000E+00  0.00000000000E+00  0.21975332913E+04  0.21975332913E+04  0.25500000920E-02 0. -1.
       -2   -1    0    0    0  501  0.00000000000E+00  0.00000000000E+00 -0.28232448370E+03  0.28232448371E+03  0.25500000920E-02 0.  1.
    10030    2    1    2    0    0  0.00000000000E+00  0.00000000000E+00  0.19152088076E+04  0.24798577750E+04  0.15753316500E+04 0.  0.
        5    1    3    3  502    0 -0.54259253399E+03 -0.54947122433E+03  0.71337749061E+03  0.10513109999E+04  0.46999998093E+01 0.  1.
       -5    1    3    3    0  502  0.54259253399E+03  0.54947122433E+03  0.12018313170E+04  0.14285467751E+04  0.46999998093E+01 0. -1.
</event>
<event>
 5   0  0.4058874E-04  0.1448125E+04  0.7818609E-02  0.8919702E-01
       -1   -1    0    0    0  501  0.00000000000E+00  0.00000000000E+00  0.44804276958E+03  0.44804276961E+03  0.50400001928E-02 0.  1.
        1   -1    0    0  501    0  0.00000000000E+00  0.00000000000E+00 -0.11701254475E+04  0.11701254475E+04  0.50400001928E-02 0. -1.
    10030    2    1    2    0    0  0.00000000000E+00  0.00000000000E+00 -0.72208267793E+03  0.16181682171E+04  0.14481246442E+04 0.  0.
        4    1    3    3  502    0 -0.66155570439E+03  0.17175272998E+02 -0.68933127753E+03  0.95557844424E+03  0.12699999809E+01 0. -1.
       -4    1    3    3    0  502  0.66155570439E+03 -0.17175272998E+02 -0.32751400403E+02  0.66258977289E+03  0.12699999809E+01 0.  1.
</event>
<event>
 5   0  0.4084462E-04  0.1473386E+04  0.7818609E-02  0.8902347E-01
        1   -1    0    0  501    0  0.00000000000E+00  0.00000000000E+00  0.72028124175E+03  0.72028124176E+03  0.50400001928E-02 0.  1.
       -1   -1    0    0    0  501  0.00000000000E+00  0.00000000000E+00 -0.75347831181E+03  0.75347831183E+03  0.50400001928E-02 0. -1.
    10030    2    1    2    0    0  0.00000000000E+00  0.00000000000E+00 -0.33197070067E+02  0.14737595536E+04  0.14733856170E+04 0.  0.
        1    1    3    3  502    0 -0.16016885688E+03 -0.17060794803E+03 -0.71531369241E+03  0.75261863730E+03  0.50400001928E-02 0. -1.
       -1    1    3    3    0  502  0.16016885688E+03  0.17060794803E+03  0.68211662234E+03  0.72114091629E+03  0.50400001928E-02 0.  1.
</event>
<event>
 5   0  0.4084462E-04  0.1509742E+04  0.7818609E-02  0.8878001E-01
        1   -1    0    0  501    0  0.00000000000E+00  0.00000000000E+00  0.17701819662E+04  0.17701819662E+04  0.50400001928E-02 0. -1.
       -1   -1    0    0    0  501  0.00000000000E+00  0.00000000000E+00 -0.32190473174E+03  0.32190473178E+03  0.50400001928E-02 0.  1.
    10030    2    1    2    0    0  0.00000000000E+00  0.00000000000E+00  0.14482772345E+04  0.20920866980E+04  0.15097416349E+04 0.  0.
        1    1    3    3  502    0  0.25280509919E+03 -0.21987058075E+03 -0.21322670648E+03  0.39713866450E+03  0.50400001928E-02 0.  1.
       -1    1    3    3    0  502 -0.25280509919E+03  0.21987058075E+03  0.16615039409E+04  0.16949480335E+04  0.50400001928E-02 0. -1.
</event>
<event>
 5   0  0.4015204E-04  0.1516974E+04  0.7818609E-02  0.8873244E-01
       -1   -1    0    0    0  501  0.00000000000E+00  0.00000000000E+00  0.45938098725E+03  0.45938098728E+03  0.50400001928E-02 0. -1.
        1   -1    0    0  501    0  0.00000000000E+00  0.00000000000E+00 -0.12523421956E+04  0.12523421956E+04  0.50400001928E-02 0.  1.
    10030    2    1    2    0    0  0.00000000000E+00  0.00000000000E+00 -0.79296120838E+03  0.17117231829E+04  0.15169735584E+04 0.  0.
        2    1    3    3  502    0 -0.41012075284E+02 -0.75729543838E+03 -0.38392446704E+03  0.85004492100E+03  0.25500000920E-02 0. -1.
       -2    1    3    3    0  502  0.41012075284E+02  0.75729543838E+03 -0.40903674134E+03  0.86167826193E+03  0.25500000920E-02 0.  1.
</event>
<event>
 5   0  0.4086710E-04  0.1227140E+04  0.7818609E-02  0.9089427E-01
        1   -1    0    0  501    0  0.00000000000E+00  0.00000000000E+00  0.11109856475E+04  0.11109856475E+04  0.50400001928E-02 0.  1.
       -1   -1    0    0    0  501  0.00000000000E+00  0.00000000000E+00 -0.33885963260E+03  0.33885963264E+03  0.50400001928E-02 0. -1.
    10030    2    1    2    0    0  0.00000000000E+00  0.00000000000E+00  0.77212601490E+03  0.14498452802E+04  0.12271400709E+04 0.  0.
        3    1    3    3  502    0  0.13977110741E+03  0.58408202411E+03  0.53448101306E+03  0.80396376590E+03  0.10100000352E+00 0.  1.
       -3    1    3    3    0  502 -0.13977110741E+03 -0.58408202411E+03  0.23764500185E+03  0.64588151426E+03  0.10100000352E+00 0. -1.
</event>
<event>
 5   0  0.7454828E-04  0.1428968E+04  0.7818609E-02  0.8933113E-01
       -2   -1    0    0    0  501  0.00000000000E+00  0.00000000000E+00  0.50449406696E+03  0.50449406697E+03  0.25500000920E-02 0. -1.
        2   -1    0    0  501    0  0.00000000000E+00  0.00000000000E+00 -0.10118799453E+04  0.10118799453E+04  0.25500000920E-02 0.  1.
    10030    2    1    2    0    0  0.00000000000E+00  0.00000000000E+00 -0.50738587831E+03  0.15163740122E+04  0.14289680596E+04 0.  0.
        3    1    3    3  502    0  0.25226176482E+03 -0.65534341982E+03 -0.39357563668E+03  0.80499241479E+03  0.10100000352E+00 0.  1.
       -3    1    3    3    0  502 -0.25226176482E+03  0.65534341982E+03 -0.11381024164E+03  0.71138159745E+03  0.10100000352E+00 0. -1.
</event>
<event>
 5   0  0.4086710E-04  0.1497086E+04  0.7818609E-02  0.8886393E-01
       -1   -1    0    0    0  501  0.00000000000E+00  0.00000000000E+00  0.53953027590E+03  0.53953027592E+03  0.50400001928E-02 0.  1.
        1   -1    0    0  501    0  0.00000000000E+00  0.00000000000E+00 -0.10385273245E+04  0.10385273245E+04  0.50400001928E-02 0. -1.
    10030    2    1    2    0    0  0.00000000000E+00  0.00000000000E+00 -0.49899704859E+03  0.15780576004E+04  0.14970864156E+04 0.  0.
        3    1    3    3  502    0 -0.61394434840E+03 -0.32422720961E+03 -0.54439018287E+03  0.88227638968E+03  0.10100000352E+00 0. -1.
       -3    1    3    3    0  502  0.61394434840E+03  0.32422720961E+03  0.45393134282E+02  0.69578121074E+03  0.10100000352E+00 0.  1.
</event>
<event>
 5   0  0.7547580E-04  0.1497933E+04  0.7818609E-02  0.8885829E-01
       -2   -1    0    0    0  501  0.00000000000E+00  0.00000000000E+00  0.85039777567E+03  0.85039777567E+03  0.25500000920E-02 0.  1.
        2   -1    0    0  501    0  0.00000000000E+00  0.00000000000E+00 -0.65963300955E+03  0.65963300956E+03  0.25500000920E-02 0. -1.
    10030    2    1    2    0    0  0.00000000000E+00  0.00000000000E+00  0.19076476611E+03  0.15100307852E+04  0.14979325006E+04 0.  0.
        4    1    3    3  502    0 -0.65630781417E+03  0.35542609506E+03  0.32580136168E+02  0.74708147759E+03  0.12699999809E+01 0.  1.
       -4    1    3    3    0  502  0.65630781417E+03 -0.35542609506E+03  0.15818462995E+03  0.76294930764E+03  0.12699999809E+01 0. -1.
</event>
<event>
 5   0  0.7454828E-04  0.1468520E+04  0.7818609E-02  0.8905661E-01
       -2   -1    0    0    0  501  0.00000000000E+00  0.00000000000E+00  0.10020859615E+04  0.10020859615E+04  0.25500000920E-02 0.  1.
        2   -1    0    0  501    0  0.00000000000E+00  0.00000000000E+00 -0.53801570212E+03  0.53801570213E+03  0.25500000920E-02 0. -1.
    10030    2    1    2    0    0  0.00000000000E+00  0.00000000000E+00  0.46407025942E+03  0.15401016637E+04  0.14685203195E+04 0.  0.
        3    1    3    3  502    0  0.24142968133E+03  0.66790911195E+03  0.42752700227E+03  0.82895730935E+03  0.10100000352E+00 0.  1.
       -3    1    3    3    0  502 -0.24142968133E+03 -0.66790911195E+03  0.36543257143E+02  0.71114435433E+03  0.10100000352E+00 0. -1.
</event>
<event>
 5   0  0.7634227E-04  0.1485244E+04  0.7818609E-02  0.8894325E-01
        2   -1    0    0  501    0  0.00000000000E+00  0.00000000000E+00  0.15861443608E+04  0.15861443608E+04  0.25500000920E-02 0. -1.
       -2   -1    0    0    0  501  0.00000000000E+00  0.00000000000E+00 -0.34769044313E+03  0.34769044314E+03  0.25500000920E-02 0.  1.
    10030    2    1    2    0    0  0.00000000000E+00  0.00000000000E+00  0.12384539177E+04  0.19338348040E+04  0.14852437318E+04 0.  0.
        2    1    3    3  502    0 -0.42391789965E+03 -0.49106672175E+03  0.14862872118E+03  0.66553993690E+03  0.25500000920E-02 0.  1.
       -2    1    3    3    0  502  0.42391789965E+03  0.49106672175E+03  0.10898251965E+04  0.12682948671E+04  0.25500000920E-02 0. -1.
</event>
<event>
 5   0  0.3907345E-04  0.1505892E+04  0.7818609E-02  0.8880544E-01
       -1   -1    0    0    0  501  0.00000000000E+00  0.00000000000E+00  0.33226860014E+03  0.33226860018E+03  0.50400001928E-02 0.  1.
        1   -1    0    0  501    0  0.00000000000E+00  0.00000000000E+00 -0.17062333107E+04  0.17062333107E+04  0.50400001928E-02 0. -1.
    10030    2    1    2    0    0  0.00000000000E+00  0.00000000000E+00 -0.13739647105E+04  0.20385019109E+04  0.15058920993E+04 0.  0.
        5    1    3    3  502    0  0.19290518222E+03  0.54951319051E+03 -0.13329726129E+04  0.14546529596E+04  0.46999998093E+01 0. -1.
       -5    1    3    3    0  502 -0.19290518222E+03 -0.54951319051E+03 -0.40992097571E+02  0.58384895130E+03  0.46999998093E+01 0.  1.
</event>
<event>
 5   0  0.4084462E-04  0.1494463E+04  0.7818609E-02  0.8888143E-01
        1   -1    0    0  501    0  0.00000000000E+00  0.00000000000E+00  0.68029640594E+03  0.68029640596E+03  0.50400001928E-02 0.  1.
       -1   -1    0    0    0  501  0.00000000000E+00  0.00000000000E+00 -0.82075242763E+03  0.82075242764E+03  0.50400001928E-02 0. -1.
    10030    2    1    2    0    0  0.00000000000E+00  0.00000000000E+00 -0.14045602168E+03  0.15010488336E+04  0.14944630162E+04 0.  0.
        1    1    3    3  502    0 -0.59685512105E+03 -0.44326941454E+03 -0.14559947228E+03  0.75757706918E+03  0.50400001928E-02 0. -1.
       -1    1    3    3    0  502  0.59685512105E+03  0.44326941454E+03  0.51434505939E+01  0.74347176443E+03  0.50400001928E-02 0.  1.
</event>
<event>
 5   0  0.7359897E-04  0.1536384E+04  0.7818609E-02  0.8860612E-01
        2   -1    0    0  501    0  0.00000000000E+00  0.00000000000E+00  0.14647684892E+04  0.14647684892E+04  0.25500000920E-02 0. -1.
       -2   -1    0    0    0  501  0.00000000000E+00  0.00000000000E+00 -0.40287498964E+03  0.40287498965E+03  0.25500000920E-02 0.  1.
    10030    2    1    2    0    0  0.00000000000E+00  0.00000000000E+00  0.10618934996E+04  0.18676434789E+04  0.15363835328E+04 0.  0.
        1    1    3    3  502    0  0.15667803884E+03 -0.33875162008E+03 -0.28525010804E+03  0.46975343759E+03  0.50400001928E-02 0.  1.
       -1    1    3    3    0  502 -0.15667803884E+03  0.33875162008E+03  0.13471436076E+04  0.13978900413E+04  0.50400001928E-02 0. -1.
</event>
<event>
 5   0  0.7547580E-04  0.1503648E+04  0.7818609E-02  0.8882031E-01
       -2   -1    0    0    0  501  0.00000000000E+00  0.00000000000E+00  0.56803910391E+03  0.56803910392E+03  0.25500000920E-02 0. -1.
        2   -1    0    0  501    0  0.00000000000E+00  0.00000000000E+00 -0.99507116815E+03  0.99507116815E+03  0.25500000920E-02 0.  1.
    10030    2    1    2    0    0  0.00000000000E+00  0.00000000000E+00 -0.42703206424E+03  0.15631102721E+04  0.15036480103E+04 0.  0.
        4    1    3    3  502    0 -0.69565368810E+03 -0.17944603242E+03  0.16838369649E+02  0.71862373736E+03  0.12699999809E+01 0. -1.
       -4    1    3    3    0  502  0.69565368810E+03  0.17944603242E+03 -0.44387043389E+03  0.84448653470E+03  0.12699999809E+01 0.  1.
</event>
<event>
 5   0  0.7672251E-04  0.1480592E+04  0.7818609E-02  0.8897463E-01
       -2   -1    0    0    0  501  0.00000000000E+00  0.00000000000E+00  0.37167440918E+03  0.37167440919E+03  0.25500000920E-02 0.  1.
        2   -1    0    0  501    0  0.00000000000E+00  0.00000000000E+00 -0.14745112703E+04  0.14745112703E+04  0.25500000920E-02 0. -1.
    10030    2    1    2    0    0  0.00000000000E+00  0.00000000000E+00 -0.11028368612E+04  0.18461856795E+04  0.14805919158E+04 0.  0.
        5    1    3    3  502    0  0.36503719779E+03  0.58356414923E+03 -0.21172202578E+03  0.72017190881E+03  0.46999998093E+01 0.  1.
       -5    1    3    3    0  502 -0.36503719779E+03 -0.58356414923E+03 -0.89111483538E+03  0.11260137707E+04  0.46999998093E+01 0. -1.
</event>
<event>
 5   0  0.7454828E-04  0.1494850E+04  0.7818609E-02  0.8887885E-01
        2   -1    0    0  501    0  0.00000000000E+00  0.00000000000E+00  0.12741919406E+04  0.12741919406E+04  0.25500000920E-02 0. -1.
       -2   -1    0    0    0  501  0.00000000000E+00  0.00000000000E+00 -0.43843011871E+03  0.43843011872E+03  0.25500000920E-02 0.  1.
    10030    2    1    2    0    0  0.00000000000E+00  0.00000000000E+00  0.83576182185E+03  0.17126220593E+04  0.14948499908E+04 0.  0.
        3    1    3    3  502    0 -0.51950885332E+03 -0.50516717973E+03  0.62776522314E+03  0.95873485059E+03  0.10100000352E+00 0. -1.
       -3    1    3    3    0  502  0.51950885332E+03  0.50516717973E+03  0.20799659871E+03  0.75388720870E+03  0.10100000352E+00 0.  1.
</event>
<event>
 5   0  0.7547580E-04  0.1479587E+04  0.7818609E-02  0.8898142E-01
       -2   -1    0    0    0  501  0.00000000000E+00  0.00000000000E+00  0.36695800140E+03  0.36695800141E+03  0.25500000920E-02 0. -1.
        2   -1    0    0  501    0  0.00000000000E+00  0.00000000000E+00 -0.14914358061E+04  0.14914358061E+04  0.25500000920E-02 0.  1.
    10030    2    1    2    0    0  0.00000000000E+00  0.00000000000E+00 -0.11244778047E+04  0.18583938075E+04  0.14795868378E+04 0.  0.
        4    1    3    3  502    0  0.36255428332E+03  0.29212078387E+03  0.15985097036E+03  0.49227442179E+03  0.12699999809E+01 0. -1.
       -4    1    3    3    0  502 -0.36255428332E+03 -0.29212078387E+03 -0.12843287750E+04  0.13661193857E+04  0.12699999809E+01 0.  1.
</event>
<event>
 5   0  0.3907345E-04  0.1507175E+04  0.7818609E-02  0.8879696E-01
       -1   -1    0    0    0  501  0.00000000000E+00  0.00000000000E+00  0.40577916876E+03  0.40577916879E+03  0.50400001928E-02 0.  1.
        1   -1    0    0  501    0  0.00000000000E+00  0.00000000000E+00 -0.13995145818E+04  0.13995145818E+04  0.50400001928E-02 0. -1.
    10030    2    1    2    0    0  0.00000000000E+00  0.00000000000E+00 -0.99373541302E+03  0.18052937506E+04  0.15071746597E+04 0.  0.
        5    1    3    3  502    0 -0.71828790162E+03 -0.19005717933E+03 -0.64748852834E+03  0.98555706348E+03  0.46999998093E+01 0. -1.
       -5    1    3    3    0  502  0.71828790162E+03  0.19005717933E+03 -0.34624688468E+03  0.81973668710E+03  0.46999998093E+01 0.  1.
</event>
<event>
 5   0  0.4015204E-04  0.1503128E+04  0.7818609E-02  0.8882375E-01
        1   -1    0    0  501    0  0.00000000000E+00  0.00000000000E+00  0.89689737463E+03  0.89689737464E+03  0.50400001928E-02 0. -1.
       -1   -1    0    0    0  501  0.00000000000E+00  0.00000000000E+00 -0.62978081056E+03  0.62978081058E+03  0.50400001928E-02 0.  1.
    10030    2    1    2    0    0  0.00000000000E+00  0.00000000000E+00  0.26711656407E+03  0.15266781852E+04  0.15031284118E+04 0.  0.
        2    1    3    3  502    0 -0.13592762540E+03 -0.46424556425E+03  0.71776425930E+03  0.86555519477E+03  0.25500000920E-02 0. -1.
       -2    1    3    3    0  502  0.13592762540E+03  0.46424556425E+03 -0.45064769523E+03  0.66112299044E+03  0.25500000920E-02 0.  1.
</event>
<event>
 5   0  0.7547580E-04  0.1510053E+04  0.7818609E-02  0.8877795E-01
       -2   -1    0    0    0  501  0.00000000000E+00  0.00000000000E+00  0.29969127942E+03  0.29969127943E+03  0.25500000920E-02 0.  1.
        2   -1    0    0  501    0  0.00000000000E+00  0.00000000000E+00 -0.19021751626E+04  0.19021751626E+04  0.25500000920E-02 0. -1.
    10030    2    1    2    0    0  0.00000000000E+00  0.00000000000E+00 -0.16024838832E+04  0.22018664420E+04  0.15100533874E+04 0.  0.
        4    1    3    3  502    0  0.57020346241E+03  0.40060293061E+03 -0.12249784884E+04  0.14093220379E+04  0.12699999809E+01 0. -1.
       -4    1    3    3    0  502 -0.57020346241E+03 -0.40060293061E+03 -0.37750539481E+03  0.79254440416E+03  0.12699999809E+01 0.  1.
</event>
<event>
 5   0  0.7454828E-04  0.1488392E+04  0.7818609E-02  0.8892209E-01
        2   -1    0    0  501    0  0.00000000000E+00  0.00000000000E+00  0.96796336191E+03  0.96796336192E+03  0.25500000920E-02 0.  1.
       -2   -1    0    0    0  501  0.00000000000E+00  0.00000000000E+00 -0.57215748801E+03  0.57215748802E+03  0.25500000920E-02 0. -1.
    10030    2    1    2    0    0  0.00000000000E+00  0.00000000000E+00  0.39580587390E+03  0.15401208499E+04  0.14883917302E+04 0.  0.
        3    1    3    3  502    0  0.24175475135E+03 -0.63611543024E+03  0.50960179028E+03  0.85016598100E+03  0.10100000352E+00 0.  1.
       -3    1    3    3    0  502 -0.24175475135E+03  0.63611543024E+03 -0.11379591638E+03  0.68995486894E+03  0.10100000352E+00 0. -1.
</event>
<event>
 5   0  0.2800375E-04  0.1491894E+04  0.7818609E-02  0.8889862E-01
       -3   -1    0    0    0  501  0.00000000000E+00  0.00000000000E+00  0.31469415136E+03  0.31469416757E+03  0.10100000352E+00 0. -1.
        3   -1    0    0  501    0  0.00000000000E+00  0.00000000000E+00 -0.17681820682E+04  0.17681820711E+04  0.10100000352E+00 0.  1.
    10030    2    1    2    0    0  0.00000000000E+00  0.00000000000E+00 -0.14534879169E+04  0.20828762387E+04  0.14918935288E+04 0.  0.
        4    1    3    3  502    0  0.28513936430E+03  0.59249583430E+03 -0.23495914519E+03  0.69825724739E+03  0.12699999809E+01 0. -1.
       -4    1    3    3    0  502 -0.28513936430E+03 -0.59249583430E+03 -0.12185287717E+04  0.13846189913E+04  0.12699999809E+01 0.  1.
</event>
<event>
 5   0  0.7634227E-04  0.1552776E+04  0.7818609E-02  0.8850097E-01
        2   -1    0    0  501    0  0.00000000000E+00  0.00000000000E+00  0.12928274870E+04  0.12928274870E+04  0.25500000920E-02 0. -1.
       -2   -1    0    0    0  501  0.00000000000E+00  0.00000000000E+00 -0.46624809620E+03  0.46624809621E+03  0.25500000920E-02 0.  1.
    10030    2    1    2    0    0  0.00000000000E+00  0.00000000000E+00  0.82657939078E+03  0.17590755832E+04  0.15527760360E+04 0.  0.
        2    1    3    3  502    0  0.30386259255E+03 -0.21894217480E+03 -0.35714589973E+03  0.51751458410E+03  0.25500000920E-02 0.  1.
       -2    1    3    3    0  502 -0.30386259255E+03  0.21894217480E+03  0.11837252905E+04  0.12415609991E+04  0.25500000920E-02 0. -1.
</event>
<event>
 5   0  0.7547580E-04  0.1491896E+04  0.7818609E-02  0.8889860E-01
        2   -1    0    0  501    0  0.00000000000E+00  0.00000000000E+00  0.26848984915E+04  0.26848984915E+04  0.25500000920E-02 0.  1.
       -2   -1    0    0    0  501  0.00000000000E+00  0.00000000000E+00 -0.20724737052E+03  0.20724737054E+03  0.25500000920E-02 0. -1.
    10030    2    1    2    0    0  0.00000000000E+00  0.00000000000E+00  0.24776511210E+04  0.28921458620E+04  0.14918956432E+04 0.  0.
        4    1    3    3  502    0  0.28083038860E+02  0.70604199947E+03  0.17022721146E+04  0.18430995435E+04  0.12699999809E+01 0.  1.
       -4    1    3    3    0  502 -0.28083038860E+02 -0.70604199947E+03  0.77537900636E+03  0.10490463186E+04  0.12699999809E+01 0. -1.
</event>
<event>
 5   0  0.4084462E-04  0.1536561E+04  0.7818609E-02  0.8860497E-01
       -1   -1    0    0    0  501  0.00000000000E+00  0.00000000000E+00  0.32157368791E+03  0.32157368795E+03  0.50400001928E-02 0.  1.
        1   -1    0    0  501    0  0.00000000000E+00  0.00000000000E+00 -0.18355210771E+04  0.18355210771E+04  0.50400001928E-02 0. -1.
    10030    2    1    2    0    0  0.00000000000E+00  0.00000000000E+00 -0.15139473892E+04  0.21570947651E+04  0.15365614625E+04 0.  0.
        1    1    3    3  502    0 -0.65145455300E+03  0.33788585548E+03 -0.10761607142E+04  0.13025673759E+04  0.50400001928E-02 0.  1.
       -1    1    3    3    0  502  0.65145455300E+03 -0.33788585548E+03 -0.43778667498E+03  0.85452738913E+03  0.50400001928E-02 0. -1.
</event>
<event>
 5   0  0.7634227E-04  0.1496915E+04  0.7818609E-02  0.8886507E-01
        2   -1    0    0  501    0  0.00000000000E+00  0.00000000000E+00  0.10232488997E+04  0.10232488997E+04  0.25500000920E-02 0. -1.
       -2   -1    0    0    0  501  0.00000000000E+00  0.00000000000E+00 -0.54746109221E+03  0.54746109222E+03  0.25500000920E-02 0.  1.
    10030    2    1    2    0    0  0.00000000000E+00  0.00000000000E+00  0.47578780749E+03  0.15707099919E+04  0.14969154422E+04 0.  0.
        2    1    3    3  502    0  0.33250613085E+03 -0.12073950561E+02 -0.46559184231E+03  0.57226031748E+03  0.25500000920E-02 0.  1.
       -2    1    3    3    0  502 -0.33250613085E+03  0.12073950561E+02  0.94137964980E+03  0.99844967444E+03  0.25500000920E-02 0. -1.
</event>
<event>
 5   0  0.3907345E-04  0.1639264E+04  0.7818609E-02  0.8796783E-01
        1   -1    0    0  501    0  0.00000000000E+00  0.00000000000E+00  0.80818393983E+03  0.80818393985E+03  0.50400001928E-02 0.  1.
       -1   -1    0    0    0  501  0.00000000000E+00  0.00000000000E+00 -0.83124224167E+03  0.83124224168E+03  0.50400001928E-02 0. -1.
    10030    2    1    2    0    0  0.00000000000E+00  0.00000000000E+00 -0.23058301832E+02  0.16394261815E+04  0.16392640176E+04 0.  0.
        5    1    3    3  502    0 -0.16346802417E+03 -0.78534369319E+03  0.15667794035E+03  0.81734728136E+03  0.46999998093E+01 0. -1.
       -5    1    3    3    0  502  0.16346802417E+03  0.78534369319E+03 -0.17973624218E+03  0.82207890017E+03  0.46999998093E+01 0.  1.
</event>
<event>
 5   0  0.4086710E-04  0.1519657E+04  0.7818609E-02  0.8871485E-01
       -1   -1    0    0    0  501  0.00000000000E+00  0.00000000000E+00  0.72051807982E+03  0.72051807984E+03  0.50400001928E-02 0. -1.
        1   -1    0    0  501    0  0.00000000000E+00  0.00000000000E+00 -0.80128415248E+03  0.80128415249E+03  0.50400001928E-02 0.  1.
    10030    2    1    2    0    0  0.00000000000E+00  0.00000000000E+00 -0.80766072657E+02  0.15218022323E+04  0.15196574864E+04 0.  0.
        3    1    3    3  502    0 -0.48635571162E+03 -0.57530029628E+03 -0.13965618834E+03  0.76616980512E+03  0.10100000352E+00 0. -1.
       -3    1    3    3    0  502  0.48635571162E+03  0.57530029628E+03  0.58890115686E+02  0.75563242721E+03  0.10100000352E+00 0.  1.
</event>
<event>
 5   0  0.7672251E-04  0.1498400E+04  0.7818609E-02  0.8885518E-01
        2   -1    0    0  501    0  0.00000000000E+00  0.00000000000E+00  0.12787215031E+04  0.12787215031E+04  0.25500000920E-02 0. -1.
       -2   -1    0    0    0  501  0.00000000000E+00  0.00000000000E+00 -0.43895433479E+03  0.43895433479E+03  0.25500000920E-02 0.  1.
    10030    2    1    2    0    0  0.00000000000E+00  0.00000000000E+00  0.83976716832E+03  0.17176758379E+04  0.14983996086E+04 0.  0.
        5    1    3    3  502    0  0.20378479289E+03  0.64060730146E+03  0.40771848303E+02  0.67349119527E+03  0.46999998093E+01 0.  1.
       -5    1    3    3    0  502 -0.20378479289E+03 -0.64060730146E+03  0.79899532002E+03  0.10441846426E+04  0.46999998093E+01 0. -1.
</event>
<event>
 5   0  0.3907345E-04  0.1539888E+04  0.7818609E-02  0.8858352E-01
       -1   -1    0    0    0  501  0.00000000000E+00  0.00000000000E+00  0.53338759586E+03  0.53338759589E+03  0.50400001928E-02 0. -1.
        1   -1    0    0  501    0  0.00000000000E+00  0.00000000000E+00 -0.11114133008E+04  0.11114133008E+04  0.50400001928E-02 0.  1.
    10030    2    1    2    0    0  0.00000000000E+00  0.00000000000E+00 -0.57802570489E+03  0.16448008967E+04  0.15398883966E+04 0.  0.
        5    1    3    3  502    0  0.24015958833E+03 -0.86134996728E+02 -0.10649312245E+04  0.10950782933E+04  0.46999998093E+01 0.  1.
       -5    1    3    3    0  502 -0.24015958833E+03  0.86134996728E+02  0.48690551965E+03  0.54972260332E+03  0.46999998093E+01 0. -1.
</event>
<event>
 5   0  0.7454828E-04  0.1448581E+04  0.7818609E-02  0.8919385E-01
       -2   -1    0    0    0  501  0.00000000000E+00  0.00000000000E+00  0.47805662833E+03  0.47805662834E+03  0.25500000920E-02 0.  1.
        2   -1    0    0  501    0  0.00000000000E+00  0.00000000000E+00 -0.10973530966E+04  0.10973530966E+04  0.25500000920E-02 0. -1.
    10030    2    1    2    0    0  0.00000000000E+00  0.00000000000E+00 -0.61929646829E+03  0.15754097250E+04  0.14485812666E+04 0.  0.
        3    1    3    3  502    0  0.40031030451E+03 -0.59346151345E+03 -0.18976054228E+03  0.74057678971E+03  0.10100000352E+00 0. -1.
       -3    1    3    3    0  502 -0.40031030451E+03  0.59346151345E+03 -0.42953592601E+03  0.83483293525E+03  0.10100000352E+00 0.  1.
</event>
<event>
 5   0  0.4084462E-04  0.1491398E+04  0.7818609E-02  0.8890193E-01
       -1   -1    0    0    0  501  0.00000000000E+00  0.00000000000E+00  0.10552884770E+04  0.10552884771E+04  0.50400001928E-02 0. -1.
        1   -1    0    0  501    0  0.00000000000E+00  0.00000000000E+00 -0.52693357059E+03  0.52693357061E+03  0.50400001928E-02 0.  1.
    10030    2    1    2    0    0  0.00000000000E+00  0.00000000000E+00  0.52835490646E+03  0.15822220477E+04  0.14913979016E+04 0.  0.
        1    1    3    3  502    0 -0.39254578007E+03 -0.39579832629E+03 -0.26128172742E+03  0.61564327793E+03  0.50400001928E-02 0. -1.
       -1    1    3    3    0  502  0.39254578007E+03  0.39579832629E+03  0.78963663388E+03  0.96657876975E+03  0.50400001928E-02 0.  1.
</event>
<event>
 5   0  0.3907345E-04  0.1238121E+04  0.7818609E-02  0.9080128E-01
       -1   -1    0    0    0  501  0.00000000000E+00  0.00000000000E+00  0.94320296562E+03  0.94320296563E+03  0.50400001928E-02 0.  1.
        1   -1    0    0  501    0  0.00000000000E+00  0.00000000000E+00 -0.40631360604E+03  0.40631360607E+03  0.50400001928E-02 0. -1.
    10030    2    1    2    0    0  0.00000000000E+00  0.00000000000E+00  0.53688935958E+03  0.13495165717E+04  0.12381214774E+04 0.  0.
        5    1    3    3  502    0 -0.43023530381E+02 -0.17347985506E+03 -0.37755774753E+03  0.41775378753E+03  0.46999998093E+01 0. -1.
       -5    1    3    3    0  502  0.43023530381E+02  0.17347985506E+03  0.91444710711E+03  0.93176278418E+03  0.46999998093E+01 0.  1.
</event>
<event>
 5   0  0.7454828E-04  0.1489473E+04  0.7818609E-02  0.8891483E-01
        2   -1    0    0  501    0  0.00000000000E+00  0.00000000000E+00  0.10908534523E+04  0.10908534523E+04  0.25500000920E-02 0.  1.
       -2   -1    0    0    0  501  0.00000000000E+00  0.00000000000E+00 -0.50843926361E+03  0.50843926362E+03  0.25500000920E-02 0. -1.
    10030    2    1    2    0    0  0.00000000000E+00  0.00000000000E+00  0.58241418864E+03  0.15992927159E+04  0.14894733646E+04 0.  0.
        3    1    3    3  502    0  0.50111036149E+02 -0.69820986969E+02 -0.50309693492E+03  0.51038477866E+03  0.10100000352E+00 0. -1.
       -3    1    3    3    0  502 -0.50111036149E+02  0.69820986969E+02  0.10855111236E+04  0.10889079372E+04  0.10100000352E+00 0.  1.
</event>
<event>
 5   0  0.7672251E-04  0.1549737E+04  0.7818609E-02  0.8852036E-01
        2   -1    0    0  501    0  0.00000000000E+00  0.00000000000E+00  0.79848359159E+03  0.79848359160E+03  0.25500000920E-02 0. -1.
       -2   -1    0    0    0  501  0.00000000000E+00  0.00000000000E+00 -0.75195135621E+03  0.75195135621E+03  0.25500000920E-02 0.  1.
    10030    2    1    2    0    0  0.00000000000E+00  0.00000000000E+00  0.46532235388E+02  0.15504349478E+04  0.15497365190E+04 0.  0.
        5    1    3    3  502    0 -0.45437936056E+02  0.25175409468E+03  0.75500124033E+03  0.79717858296E+03  0.46999998093E+01 0. -1.
       -5    1    3    3    0  502  0.45437936056E+02 -0.25175409468E+03 -0.70846900495E+03  0.75325636485E+03  0.46999998093E+01 0.  1.
</event>
<event>
 5   0  0.7672251E-04  0.1477998E+04  0.7818609E-02  0.8899217E-01
       -2   -1    0    0    0  501  0.00000000000E+00  0.00000000000E+00  0.87271099725E+03  0.87271099726E+03  0.25500000920E-02 0.  1.
        2   -1    0    0  501    0  0.00000000000E+00  0.00000000000E+00 -0.62577387387E+03  0.62577387387E+03  0.25500000920E-02 0. -1.
    10030    2    1    2    0    0  0.00000000000E+00  0.00000000000E+00  0.24693712339E+03  0.14984848711E+04  0.14779982971E+04 0.  0.
        5    1    3    3  502    0 -0.15808523457E+03 -0.11451715331E+03  0.84608376192E+03  0.86832306314E+03  0.46999998093E+01 0.  1.
       -5    1    3    3    0  502  0.15808523457E+03  0.11451715331E+03 -0.59914663853E+03  0.63016180799E+03  0.46999998093E+01 0. -1.
</event>
<event>
 5   0  0.4058874E-04  0.1506001E+04  0.7818609E-02  0.8880472E-01
       -1   -1    0    0    0  501  0.00000000000E+00  0.00000000000E+00  0.38290495199E+03  0.38290495202E+03  0.50400001928E-02 0. -1.
        1   -1    0    0  501    0  0.00000000000E+00  0.00000000000E+00 -0.14808098232E+04  0.14808098232E+04  0.50400001928E-02 0.  1.
    10030    2    1    2    0    0  0.00000000000E+00  0.00000000000E+00 -0.10979048712E+04  0.18637147752E+04  0.15060005502E+04 0.  0.
        4    1    3    3  502    0  0.63104253459E+02  0.18883269324E+03  0.34974013307E+03  0.40244217774E+03  0.12699999809E+01 0. -1.
       -4    1    3    3    0  502 -0.63104253459E+02 -0.18883269324E+03 -0.14476450043E+04  0.14612725975E+04  0.12699999809E+01 0.  1.
</event>
<event>
 5   0  0.3907345E-04  0.1522525E+04  0.7818609E-02  0.8869610E-01
       -1   -1    0    0    0  501  0.00000000000E+00  0.00000000000E+00  0.41317132942E+03  0.41317132946E+03  0.50400001928E-02 0.  1.
        1   -1    0    0  501    0  0.00000000000E+00  0.00000000000E+00 -0.14026163619E+04  0.14026163619E+04  0.50400001928E-02 0. -1.
    10030    2    1    2    0    0  0.00000000000E+00  0.00000000000E+00 -0.98944503245E+03  0.18157876913E+04  0.15225253587E+04 0.  0.
        5    1    3    3  502    0  0.26653864488E+03 -0.58011400298E+03 -0.22015317704E+00  0.63843342968E+03  0.46999998093E+01 0.  1.
       -5    1    3    3    0  502 -0.26653864488E+03  0.58011400298E+03 -0.98922487927E+03  0.11773542617E+04  0.46999998093E+01 0. -1.
</event>
<event>
 5   0  0.4058874E-04  0.1545420E+04  0.7818609E-02  0.8854799E-01
        1   -1    0    0  501    0  0.00000000000E+00  0.00000000000E+00  0.71916130418E+03  0.71916130420E+03  0.50400001928E-02 0.  1.
       -1   -1    0    0    0  501  0.00000000000E+00  0.00000000000E+00 -0.83024591294E+03  0.83024591296E+03  0.50400001928E-02 0. -1.
    10030    2    1    2    0    0  0.00000000000E+00  0.00000000000E+00 -0.11108460877E+03  0.15494072172E+04  0.15454199864E+04 0.  0.
        4    1    3    3  502    0  0.32854669925E+03 -0.65694449948E+03  0.18499357345E+03  0.75745841081E+03  0.12699999809E+01 0.  1.
       -4    1    3    3    0  502 -0.32854669925E+03  0.65694449948E+03 -0.29607818222E+03  0.79194880635E+03  0.12699999809E+01 0. -1.
</event>
<event>
 5   0  0.4086710E-04  0.1523259E+04  0.7818609E-02  0.8869131E-01
       -1   -1    0    0    0  501  0.00000000000E+00  0.00000000000E+00  0.67766193486E+03  0.67766193488E+03  0.50400001928E-02 0. -1.
        1   -1    0    0  501    0  0.00000000000E+00  0.00000000000E+00 -0.85600177938E+03  0.85600177940E+03  0.50400001928E-02 0.  1.
    10030    2    1    2    0    0  0.00000000000E+00  0.00000000000E+00 -0.17833984452E+03  0.15336637143E+04  0.15232594291E+04 0.  0.
        3    1    3    3  502    0  0.36606823290E+03 -0.39782532964E+03 -0.62931242567E+03  0.82964153907E+03  0.10100000352E+00 0.  1.
       -3    1    3    3    0  502 -0.36606823290E+03  0.39782532964E+03  0.45097258115E+03  0.70402217521E+03  0.10100000352E+00 0. -1.
</event>
<event>
 5   0  0.4058874E-04  0.1500627E+04  0.7818609E-02  0.8884036E-01
        1   -1    0    0  501    0  0.00000000000E+00  0.00000000000E+00  0.13265766934E+04  0.13265766934E+04  0.50400001928E-02 0.  1.
       -1   -1    0    0    0  501  0.00000000000E+00  0.00000000000E+00 -0.42437833785E+03  0.42437833788E+03  0.50400001928E-02 0. -1.
    10030    2    1    2    0    0  0.00000000000E+00  0.00000000000E+00  0.90219835551E+03  0.17509550313E+04  0.15006270852E+04 0.  0.
        4    1    3    3  502    0  0.26086783104E+03 -0.21009475244E+03  0.12344982830E+04  0.12791323051E+04  0.12699999809E+01 0.  1.
       -4    1    3    3    0  502 -0.26086783104E+03  0.21009475244E+03 -0.33229992746E+03  0.47182272620E+03  0.12699999809E+01 0. -1.
</event>
<event>
 5   0  0.7454828E-04  0.1505781E+04  0.7818609E-02  0.8880618E-01
       -2   -1    0    0    0  501  0.00000000000E+00  0.00000000000E+00  0.37578146266E+03  0.37578146267E+03  0.25500000920E-02 0. -1.
        2   -1    0    0  501    0  0.00000000000E+00  0.00000000000E+00 -0.15084402956E+04  0.15084402956E+04  0.25500000920E-02 0.  1.
    10030    2    1    2    0    0  0.00000000000E+00  0.00000000000E+00 -0.11326588329E+04  0.18842217582E+04  0.15057807285E+04 0.  0.
        3    1    3    3  502    0  0.36827032497E+03 -0.65426009777E+03 -0.63672225834E+03  0.98442600142E+03  0.10100000352E+00 0.  1.
       -3    1    3    3    0  502 -0.36827032497E+03  0.65426009777E+03 -0.49593657455E+03  0.89979575681E+03  0.10100000352E+00 0. -1.
</event>
<event>
 5   0  0.7672251E-04  0.1477165E+04  0.7818609E-02  0.8899782E-01
       -2   -1    0    0    0  501  0.00000000000E+00  0.00000000000E+00  0.15944160171E+04  0.15944160171E+04  0.25500000920E-02 0.  1.
        2   -1    0    0  501    0  0.00000000000E+00  0.00000000000E+00 -0.34213394750E+03  0.34213394751E+03  0.25500000920E-02 0. -1.
    10030    2    1    2    0    0  0.00000000000E+00  0.00000000000E+00  0.12522820696E+04  0.19365499646E+04  0.14771646434E+04 0.  0.
        5    1    3    3  502    0  0.20192936020E+03 -0.32506306434E+03 -0.20200738638E+03  0.43274765910E+03  0.46999998093E+01 0. -1.
       -5    1    3    3    0  502 -0.20192936020E+03  0.32506306434E+03  0.14542894560E+04  0.15038023055E+04  0.46999998093E+01 0.  1.
</event>
<event>
 5   0  0.7672251E-04  0.1482267E+04  0.7818609E-02  0.8896331E-01
       -2   -1    0    0    0  501  0.00000000000E+00  0.00000000000E+00  0.45009098661E+03  0.45009098662E+03  0.25500000920E-02 0.  1.
        2   -1    0    0  501    0  0.00000000000E+00  0.00000000000E+00 -0.12203733819E+04  0.12203733819E+04  0.25500000920E-02 0. -1.
    10030    2    1    2    0    0  0.00000000000E+00  0.00000000000E+00 -0.77028239525E+03  0.16704643685E+04  0.14822672626E+04 0.  0.
        5    1    3    3  502    0  0.70356625082E+03 -0.18135796500E+03 -0.54985096044E+03  0.91118293962E+03  0.46999998093E+01 0. -1.
       -5    1    3    3    0  502 -0.70356625082E+03  0.18135796500E+03 -0.22043143480E+03  0.75928142886E+03  0.46999998093E+01 0.  1.
</event>
<event>
 5   0  0.4084462E-04  0.1497396E+04  0.7818609E-02  0.8886186E-01
        1   -1    0    0  501    0  0.00000000000E+00  0.00000000000E+00  0.11407233180E+04  0.11407233180E+04  0.50400001928E-02 0.  1.
       -1   -1    0    0    0  501  0.00000000000E+00  0.00000000000E+00 -0.49139756009E+03  0.49139756012E+03  0.50400001928E-02 0. -1.
    10030    2    1    2    0    0  0.00000000000E+00  0.00000000000E+00  0.64932575791E+03  0.16321208781E+04  0.14973959466E+04 0.  0.
        1    1    3    3  502    0  0.64085601763E+03 -0.26710171717E+03  0.19258617424E+02  0.69455788601E+03  0.50400001928E-02 0. -1.
       -1    1    3    3    0  502 -0.64085601763E+03  0.26710171717E+03  0.63006714049E+03  0.93756299213E+03  0.50400001928E-02 0.  1.
</event>
<event>
 5   0  0.7359897E-04  0.1479908E+04  0.7818609E-02  0.8897925E-01
       -2   -1    0    0    0  501  0.00000000000E+00  0.00000000000E+00  0.67594934870E+03  0.67594934870E+03  0.25500000920E-02 0. -1.
        2   -1    0    0  501    0  0.00000000000E+00  0.00000000000E+00 -0.81001930923E+03  0.81001930924E+03  0.25500000920E-02 0.  1.
    10030    2    1    2    0    0  0.00000000000E+00  0.00000000000E+00 -0.13406996053E+03  0.14859686579E+04  0.14799081384E+04 0.  0.
        1    1    3    3  502    0  0.31652859484E+03 -0.61275554843E+03  0.20215301966E+03  0.71869712457E+03  0.50400001928E-02 0. -1.
       -1    1    3    3    0  502 -0.31652859484E+03  0.61275554843E+03 -0.33622298020E+03  0.76727153337E+03  0.50400001928E-02 0.  1.
</event>
<event>
 5   0  0.7359897E-04  0.1490857E+04  0.7818609E-02  0.8890556E-01
        2   -1    0    0  501    0  0.00000000000E+00  0.00000000000E+00  0.85114965539E+03  0.85114965540E+03  0.25500000920E-02 0. -1.
       -2   -1    0    0    0  501  0.00000000000E+00  0.00000000000E+00 -0.65283878620E+03  0.65283878620E+03  0.25500000920E-02 0.  1.
    10030    2    1    2    0    0  0.00000000000E+00  0.00000000000E+00  0.19831086920E+03  0.15039884416E+04  0.14908568112E+04 0.  0.
        1    1    3    3  502    0  0.39746390954E+03  0.62651962909E+03  0.26695880347E+02  0.74243994712E+03  0.50400001928E-02 0. -1.
       -1    1    3    3    0  502 -0.39746390954E+03 -0.62651962909E+03  0.17161498885E+03  0.76154849448E+03  0.50400001928E-02 0.  1.
</event>
<event>
 5   0  0.4086710E-04  0.1497715E+04  0.7818609E-02  0.8885974E-01
       -1   -1    0    0    0  501  0.00000000000E+00  0.00000000000E+00  0.57453065977E+03  0.57453065979E+03  0.50400001928E-02 0.  1.
        1   -1    0    0  501    0  0.00000000000E+00  0.00000000000E+00 -0.97607891913E+03  0.97607891915E+03  0.50400001928E-02 0. -1.
    10030    2    1    2    0    0  0.00000000000E+00  0.00000000000E+00 -0.40154825937E+03  0.15506095789E+04  0.14977146129E+04 0.  0.
        3    1    3    3  502    0  0.37344914555E+03  0.60789307676E+03 -0.43638327845E+03  0.83631849973E+03  0.10100000352E+00 0. -1.
       -3    1    3    3    0  502 -0.37344914555E+03 -0.60789307676E+03  0.34835019083E+02  0.71429107921E+03  0.10100000352E+00 0.  1.
</event>
<event>
 5   0  0.7547580E-04  0.1514486E+04  0.7818609E-02  0.8874877E-01
        2   -1    0    0  501    0  0.00000000000E+00  0.00000000000E+00  0.49835149490E+03  0.49835149490E+03  0.25500000920E-02 0.  1.
       -2   -1    0    0    0  501  0.00000000000E+00  0.00000000000E+00 -0.11506273191E+04  0.11506273191E+04  0.25500000920E-02 0. -1.
    10030    2    1    2    0    0  0.00000000000E+00  0.00000000000E+00 -0.65227582420E+03  0.16489788140E+04  0.15144858462E+04 0.  0.
        4    1    3    3  502    0 -0.41970305772E+03  0.37306823214E+03 -0.87927268403E+03  0.10432893310E+04  0.12699999809E+01 0. -1.
       -4    1    3    3    0  502  0.41970305772E+03 -0.37306823214E+03  0.22699685983E+03  0.60568948296E+03  0.12699999809E+01 0.  1.
</event>
<event>
 5   0  0.4015204E-04  0.1502456E+04  0.7818609E-02  0.8882822E-01
       -1   -1    0    0    0  501  0.00000000000E+00  0.00000000000E+00  0.40157092071E+03  0.40157092074E+03  0.50400001928E-02 0. -1.
        1   -1    0    0  501    0  0.00000000000E+00  0.00000000000E+00 -0.14053390619E+04  0.14053390619E+04  0.50400001928E-02 0.  1.
    10030    2    1    2    0    0  0.00000000000E+00  0.00000000000E+00 -0.10037681412E+04  0.18069099826E+04  0.15024557245E+04 0.  0.
        2    1    3    3  502    0 -0.54443911841E+03 -0.31130563880E+03 -0.45411592834E+01  0.62717284423E+03  0.25500000920E-02 0. -1.
       -2    1    3    3    0  502  0.54443911841E+03  0.31130563880E+03 -0.99922698190E+03  0.11797371384E+04  0.25500000920E-02 0.  1.
</event>
<event>
 5   0  0.7634227E-04  0.1515631E+04  0.7818609E-02  0.8874125E-01
        2   -1    0    0  501    0  0.00000000000E+00  0.00000000000E+00  0.13480933230E+04  0.13480933230E+04  0.25500000920E-02 0.  1.
       -2   -1    0    0    0  501  0.00000000000E+00  0.00000000000E+00 -0.42599730569E+03  0.42599730570E+03  0.25500000920E-02 0. -1.
    10030    2    1    2    0    0  0.00000000000E+00  0.00000000000E+00  0.92209601730E+03  0.17740906287E+04  0.15156307247E+04 0.  0.
        2    1    3    3  502    0  0.28709246273E+03  0.53876343902E+03  0.98660927983E+03  0.11602094623E+04  0.25500000920E-02 0.  1.
       -2    1    3    3    0  502 -0.28709246273E+03 -0.53876343902E+03 -0.64513262528E+02  0.61388116638E+03  0.25500000920E-02 0. -1.
</event>
<event>
 5   0  0.4084462E-04  0.1446615E+04  0.7818609E-02  0.8920750E-01
        1   -1    0    0  501    0  0.00000000000E+00  0.00000000000E+00  0.13599157429E+04  0.13599157429E+04  0.50400001928E-02 0.  1.
       -1   -1    0    0    0  501  0.00000000000E+00  0.00000000000E+00 -0.38471058786E+03  0.38471058790E+03  0.50400001928E-02 0. -1.
    10030    2    1    2    0    0  0.00000000000E+00  0.00000000000E+00  0.97520515507E+03  0.17446263308E+04  0.14466153393E+04 0.  0.
        1    1    3    3  502    0 -0.69791960932E+03 -0.18985048974E+03  0.49513363528E+03  0.87652284987E+03  0.50400001928E-02 0.  1.
       -1    1    3    3    0  502  0.69791960932E+03  0.18985048974E+03  0.48007151979E+03  0.86810348097E+03  0.50400001928E-02 0. -1.
</event>
<event>
 5   0  0.7634227E-04  0.1481224E+04  0.7818609E-02  0.8897036E-01
        2   -1    0    0  501    0  0.00000000000E+00  0.00000000000E+00  0.12873895204E+04  0.12873895204E+04  0.25500000920E-02 0. -1.
       -2   -1    0    0    0  501  0.00000000000E+00  0.00000000000E+00 -0.42606055693E+03  0.42606055694E+03  0.25500000920E-02 0.  1.
    10030    2    1    2    0    0  0.00000000000E+00  0.00000000000E+00  0.86132896346E+03  0.17134500773E+04  0.14812236780E+04 0.  0.
        2    1    3    3  502    0 -0.20245902409E+02 -0.54644782571E+03  0.10084651691E+04  0.11471778938E+04  0.25500000920E-02 0. -1.
       -2    1    3    3    0  502  0.20245902409E+02  0.54644782571E+03 -0.14713620564E+03  0.56627218350E+03  0.25500000920E-02 0.  1.
</event>
<event>
 5   0  0.7672251E-04  0.1494405E+04  0.7818609E-02  0.8888182E-01
       -2   -1    0    0    0  501  0.00000000000E+00  0.00000000000E+00  0.32456883309E+03  0.32456883310E+03  0.25500000920E-02 0. -1.
        2   -1    0    0  501    0  0.00000000000E+00  0.00000000000E+00 -0.17201636503E+04  0.17201636503E+04  0.25500000920E-02 0.  1.
    10030    2    1    2    0    0  0.00000000000E+00  0.00000000000E+00 -0.13955948172E+04  0.20447324834E+04  0.14944049099E+04 0.  0.
        5    1    3    3  502    0  0.18066427277E+03 -0.43184673290E+03  0.99039416012E+02  0.47849981828E+03  0.46999998093E+01 0. -1.
       -5    1    3    3    0  502 -0.18066427277E+03  0.43184673290E+03 -0.14946342332E+04  0.15662326651E+04  0.46999998093E+01 0.  1.
</event>
<event>
 5   0  0.7672251E-04  0.1498820E+04  0.7818609E-02  0.8885238E-01
       -2   -1    0    0    0  501  0.00000000000E+00  0.00000000000E+00  0.14303187655E+04  0.14303187655E+04  0.25500000920E-02 0. -1.
        2   -1    0    0  501    0  0.00000000000E+00  0.00000000000E+00 -0.39265030516E+03  0.39265030517E+03  0.25500000920E-02 0.  1.
    10030    2    1    2    0    0  0.00000000000E+00  0.00000000000E+00  0.10376684604E+04  0.18229690707E+04  0.14988196686E+04 0.  0.
        5    1    3    3  502    0 -0.67063046375E+03 -0.33442568322E+03  0.51555858728E+03  0.90961997747E+03  0.46999998093E+01 0.  1.
       -5    1    3    3    0  502  0.67063046375E+03  0.33442568322E+03  0.52210987308E+03  0.91334909321E+03  0.46999998093E+01 0. -1.
</event>
<event>
 5   0  0.2800375E-04  0.1493867E+04  0.7818609E-02  0.8888541E-01
        4   -1    0    0  501    0  0.00000000000E+00  0.00000000000E+00  0.81908933007E+03  0.81909031464E+03  0.12699999809E+01 0. -1.
       -4   -1    0    0    0  501  0.00000000000E+00  0.00000000000E+00 -0.68113221674E+03  0.68113340073E+03  0.12699999809E+01 0.  1.
    10030    2    1    2    0    0  0.00000000000E+00  0.00000000000E+00  0.13795711333E+03  0.15002237154E+04  0.14938671397E+04 0.  0.
        2    1    3    3  502    0 -0.36449009958E+03  0.49172533112E+03  0.49889232872E+03  0.78964573678E+03  0.25500000920E-02 0. -1.
       -2    1    3    3    0  502  0.36449009958E+03 -0.49172533112E+03 -0.36093521539E+03  0.71057797859E+03  0.25500000920E-02 0.  1.
</event>
<event>
 5   0  0.4084462E-04  0.1490219E+04  0.7818609E-02  0.8890984E-01
        1   -1    0    0  501    0  0.00000000000E+00  0.00000000000E+00  0.22834903783E+04  0.22834903783E+04  0.50400001928E-02 0.  1.
       -1   -1    0    0    0  501  0.00000000000E+00  0.00000000000E+00 -0.24313127763E+03  0.24313127769E+03  0.50400001928E-02 0. -1.
    10030    2    1    2    0    0  0.00000000000E+00  0.00000000000E+00  0.20403591007E+04  0.25266216560E+04  0.14902186863E+04 0.  0.
        1    1    3    3  502    0  0.49927457724E+03  0.49404218265E+03  0.59857244261E+03  0.92284438059E+03  0.50400001928E-02 0. -1.
       -1    1    3    3    0  502 -0.49927457724E+03 -0.49404218265E+03  0.14417866581E+04  0.16037772754E+04  0.50400001928E-02 0.  1.
</event>
<event>
 5   0  0.4086710E-04  0.1439545E+04  0.7818609E-02  0.8925681E-01
       -1   -1    0    0    0  501  0.00000000000E+00  0.00000000000E+00  0.49022161194E+03  0.49022161196E+03  0.50400001928E-02 0. -1.
        1   -1    0    0  501    0  0.00000000000E+00  0.00000000000E+00 -0.10568128935E+04  0.10568128935E+04  0.50400001928E-02 0.  1.
    10030    2    1    2    0    0  0.00000000000E+00  0.00000000000E+00 -0.56659128155E+03  0.15470345055E+04  0.14395450951E+04 0.  0.
        3    1    3    3  502    0  0.45934172137E+02  0.20870390579E+03 -0.10219343781E+04  0.10440388651E+04  0.10100000352E+00 0.  1.
       -3    1    3    3    0  502 -0.45934172137E+02 -0.20870390579E+03  0.45534309655E+03  0.50299564038E+03  0.10100000352E+00 0. -1.
</event>
<event>
 5   0  0.4086710E-04  0.1504362E+04  0.7818609E-02  0.8881558E-01
       -1   -1    0    0    0  501  0.00000000000E+00  0.00000000000E+00  0.16219430721E+04  0.16219430721E+04  0.50400001928E-02 0.  1.
        1   -1    0    0  501    0  0.00000000000E+00  0.00000000000E+00 -0.34882611020E+03  0.34882611024E+03  0.50400001928E-02 0. -1.
    10030    2    1    2    0    0  0.00000000000E+00  0.00000000000E+00  0.12731169619E+04  0.19707691823E+04  0.15043617821E+04 0.  0.
        3    1    3    3  502    0 -0.63853344094E+03  0.97478256465E+02  0.13164320768E+03  0.65920930667E+03  0.10100000352E+00 0. -1.
       -3    1    3    3    0  502  0.63853344094E+03 -0.97478256465E+02  0.11414737542E+04  0.13115598756E+04  0.10100000352E+00 0.  1.
</event>
<event>
 5   0  0.7359897E-04  0.1510377E+04  0.7818609E-02  0.8877582E-01
        2   -1    0    0  501    0  0.00000000000E+00  0.00000000000E+00  0.79947866080E+03  0.79947866081E+03  0.25500000920E-02 0.  1.
       -2   -1    0    0    0  501  0.00000000000E+00  0.00000000000E+00 -0.71335158809E+03  0.71335158810E+03  0.25500000920E-02 0. -1.
    10030    2    1    2    0    0  0.00000000000E+00  0.00000000000E+00  0.86127072712E+02  0.15128302489E+04  0.15103766051E+04 0.  0.
        1    1    3    3  502    0 -0.47928577927E+03 -0.10658898893E+03 -0.53165714844E+03  0.72369565031E+03  0.50400001928E-02 0. -1.
       -1    1    3    3    0  502  0.47928577927E+03  0.10658898893E+03  0.61778422115E+03  0.78913459859E+03  0.50400001928E-02 0.  1.
</event>
<event>
 5   0  0.3907345E-04  0.1501560E+04  0.7818609E-02  0.8883416E-01
       -1   -1    0    0    0  501  0.00000000000E+00  0.00000000000E+00  0.10478632111E+04  0.10478632111E+04  0.50400001928E-02 0. -1.
        1   -1    0    0  501    0  0.00000000000E+00  0.00000000000E+00 -0.53792372100E+03  0.53792372103E+03  0.50400001928E-02 0.  1.
    10030    2    1    2    0    0  0.00000000000E+00  0.00000000000E+00  0.50993949007E+03  0.15857869321E+04  0.15015598258E+04 0.  0.
        5    1    3    3  502    0 -0.17198079167E+03  0.66885648392E+03  0.56593849609E+03  0.89289129245E+03  0.46999998093E+01 0. -1.
       -5    1    3    3    0  502  0.17198079167E+03 -0.66885648392E+03 -0.55999006026E+02  0.69289563966E+03  0.46999998093E+01 0.  1.
</event>
<event>
 5   0  0.7359897E-04  0.1498226E+04  0.7818609E-02  0.8885633E-01
       -2   -1    0    0    0  501  0.00000000000E+00  0.00000000000E+00  0.39116862355E+03  0.39116862356E+03  0.25500000920E-02 0.  1.
        2   -1    0    0  501    0  0.00000000000E+00  0.00000000000E+00 -0.14346002478E+04  0.14346002478E+04  0.25500000920E-02 0. -1.
    10030    2    1    2    0    0  0.00000000000E+00  0.00000000000E+00 -0.10434316242E+04  0.18257688713E+04  0.14982264238E+04 0.  0.
        1    1    3    3  502    0  0.43070812641E+02  0.31168894918E+03 -0.13501673553E+04  0.13863466317E+04  0.50400001928E-02 0. -1.
       -1    1    3    3    0  502 -0.43070812641E+02 -0.31168894918E+03  0.30673573106E+03  0.43942223962E+03  0.50400001928E-02 0.  1.
</event>
<event>
 5   0  0.7454828E-04  0.1499796E+04  0.7818609E-02  0.8884588E-01
        2   -1    0    0  501    0  0.00000000000E+00  0.00000000000E+00  0.11294465820E+04  0.11294465820E+04  0.25500000920E-02 0.  1.
       -2   -1    0    0    0  501  0.00000000000E+00  0.00000000000E+00 -0.49789633526E+03  0.49789633527E+03  0.25500000920E-02 0. -1.
    10030    2    1    2    0    0  0.00000000000E+00  0.00000000000E+00  0.63155024676E+03  0.16273429173E+04  0.14997964049E+04 0.  0.
        3    1    3    3  502    0 -0.61439220453E+03  0.66412683631E+02 -0.14515585431E+03  0.63479024707E+03  0.10100000352E+00 0. -1.
       -3    1    3    3    0  502  0.61439220453E+03 -0.66412683631E+02  0.77670610107E+03  0.99255267022E+03  0.10100000352E+00 0.  1.
</event>
<event>
 5   0  0.7634227E-04  0.1493816E+04  0.7818609E-02  0.8888575E-01
       -2   -1    0    0    0  501  0.00000000000E+00  0.00000000000E+00  0.70329541355E+03  0.70329541355E+03  0.25500000920E-02 0. -1.
        2   -1    0    0  501    0  0.00000000000E+00  0.00000000000E+00 -0.79322560318E+03  0.79322560318E+03  0.25500000920E-02 0.  1.
    10030    2    1    2    0    0  0.00000000000E+00  0.00000000000E+00 -0.89930189630E+02  0.14965210167E+04  0.14938164929E+04 0.  0.
        2    1    3    3  502    0  0.65309549373E+03 -0.28294737748E+03  0.18189352511E+03  0.73462793089E+03  0.25500000920E-02 0. -1.
       -2    1    3    3    0  502 -0.65309549373E+03  0.28294737748E+03 -0.27182371474E+03  0.76189308585E+03  0.25500000920E-02 0.  1.
</event>
<event>
 5   0  0.4015204E-04  0.1490208E+04  0.7818609E-02  0.8890990E-01
       -1   -1    0    0    0  501  0.00000000000E+00  0.00000000000E+00  0.36815891755E+03  0.36815891759E+03  0.50400001928E-02 0. -1.
        1   -1    0    0  501    0  0.00000000000E+00  0.00000000000E+00 -0.15079908632E+04  0.15079908632E+04  0.50400001928E-02 0.  1.
    10030    2    1    2    0    0  0.00000000000E+00  0.00000000000E+00 -0.11398319456E+04  0.18761497808E+04  0.14902084202E+04 0.  0.
        2    1    3    3  502    0 -0.15089270538E+02  0.73891518508E+03 -0.45076420290E+03  0.86568568398E+03  0.25500000920E-02 0.  1.
       -2    1    3    3    0  502  0.15089270538E+02 -0.73891518508E+03 -0.68906774272E+03  0.10104640968E+04  0.25500000920E-02 0. -1.
</event>
<event>
 5   0  0.7672251E-04  0.1499548E+04  0.7818609E-02  0.8884753E-01
        2   -1    0    0  501    0  0.00000000000E+00  0.00000000000E+00  0.95452412900E+03  0.95452412901E+03  0.25500000920E-02 0.  1.
       -2   -1    0    0    0  501  0.00000000000E+00  0.00000000000E+00 -0.58894400622E+03  0.58894400622E+03  0.25500000920E-02 0. -1.
    10030    2    1    2    0    0  0.00000000000E+00  0.00000000000E+00  0.36558012278E+03  0.15434681352E+04  0.14995482848E+04 0.  0.
        5    1    3    3  502    0  0.57881960852E+03 -0.47556048730E+03  0.21450248337E+03  0.77924535395E+03  0.46999998093E+01 0.  1.
       -5    1    3    3    0  502 -0.57881960852E+03  0.47556048730E+03  0.15107763941E+03  0.76422278128E+03  0.46999998093E+01 0. -1.
</event>
<event>
 5   0  0.2800375E-04  0.1497710E+04  0.7818609E-02  0.8885977E-01
        3   -1    0    0  501    0  0.00000000000E+00  0.00000000000E+00  0.95967741800E+03  0.95967742331E+03  0.10100000352E+00 0.  1.
       -3   -1    0    0    0  501  0.00000000000E+00  0.00000000000E+00 -0.58434652524E+03  0.58434653396E+03  0.10100000352E+00 0. -1.
    10030    2    1    2    0    0  0.00000000000E+00  0.00000000000E+00  0.37533089276E+03  0.15440239573E+04  0.14977104866E+04 0.  0.
        1    1    3    3  502    0  0.29689998346E+03 -0.26915725191E+03 -0.46450138890E+03  0.61347923090E+03  0.50400001928E-02 0. -1.
       -1    1    3    3    0  502 -0.29689998346E+03  0.26915725191E+03  0.83983228166E+03  0.93054472637E+03  0.50400001928E-02 0.  1.
</event>
<event>
 5   0  0.7672251E-04  0.1507005E+04  0.7818609E-02  0.8879808E-01
        2   -1    0    0  501    0  0.00000000000E+00  0.00000000000E+00  0.14363863995E+04  0.14363863995E+04  0.25500000920E-02 0.  1.
       -2   -1    0    0    0  501  0.00000000000E+00  0.00000000000E+00 -0.39527412066E+03  0.39527412067E+03  0.25500000920E-02 0. -1.
    10030    2    1    2    0    0  0.00000000000E+00  0.00000000000E+00  0.10411122789E+04  0.18316605202E+04  0.15070054691E+04 0.  0.
        5    1    3    3  502    0  0.53426635088E+03 -0.51433240191E+03  0.35855274993E+03  0.82374784845E+03  0.46999998093E+01 0.  1.
       -5    1    3    3    0  502 -0.53426635088E+03  0.51433240191E+03  0.68255952892E+03  0.10079126717E+04  0.46999998093E+01 0. -1.
</event>
<event>
 5   0  0.7359897E-04  0.1532531E+04  0.7818609E-02  0.8863103E-01
        2   -1    0    0  501    0  0.00000000000E+00  0.00000000000E+00  0.11394518723E+04  0.11394518723E+04  0.25500000920E-02 0. -1.
       -2   -1    0    0    0  501  0.00000000000E+00  0.00000000000E+00 -0.51530316993E+03  0.51530316994E+03  0.25500000920E-02 0.  1.
    10030    2    1    2    0    0  0.00000000000E+00  0.00000000000E+00  0.62414870241E+03  0.16547550423E+04  0.15325314506E+04 0.  0.
        1    1    3    3  502    0  0.64692992057E+03 -0.33418042749E+03  0.56979005134E+03  0.92458400531E+03  0.50400001928E-02 0. -1.
       -1    1    3    3    0  502 -0.64692992057E+03  0.33418042749E+03  0.54358651069E+02  0.73017103696E+03  0.50400001928E-02 0.  1.
</event>
<event>
 5   0  0.7547580E-04  0.1507296E+04  0.7818609E-02  0.8879616E-01
       -2   -1    0    0    0  501  0.00000000000E+00  0.00000000000E+00  0.54358401945E+03  0.54358401946E+03  0.25500000920E-02 0. -1.
        2   -1    0    0  501    0  0.00000000000E+00  0.00000000000E+00 -0.10448894153E+04  0.10448894153E+04  0.25500000920E-02 0.  1.
    10030    2    1    2    0    0  0.00000000000E+00  0.00000000000E+00 -0.50130539587E+03  0.15884734348E+04  0.15072958413E+04 0.  0.
        4    1    3    3  502    0  0.66818249069E+02 -0.43953176272E+03 -0.89197497940E+03  0.99663123854E+03  0.12699999809E+01 0.  1.
       -4    1    3    3    0  502 -0.66818249069E+02  0.43953176272E+03  0.39066958354E+03  0.59184219624E+03  0.12699999809E+01 0. -1.
</event>
<event>
 5   0  0.4015204E-04  0.1498544E+04  0.7818609E-02  0.8885422E-01
        1   -1    0    0  501    0  0.00000000000E+00  0.00000000000E+00  0.56155352449E+03  0.56155352451E+03  0.50400001928E-02 0. -1.
       -1   -1    0    0    0  501  0.00000000000E+00  0.00000000000E+00 -0.99974162940E+03  0.99974162941E+03  0.50400001928E-02 0.  1.
    10030    2    1    2    0    0  0.00000000000E+00  0.00000000000E+00 -0.43818810491E+03  0.15612951539E+04  0.14985438740E+04 0.  0.
        2    1    3    3  502    0 -0.23113073278E+03  0.98392839100E+02  0.51637355608E+03  0.57423358996E+03  0.25500000920E-02 0. -1.
       -2    1    3    3    0  502  0.23113073278E+03 -0.98392839100E+02 -0.95456166098E+03  0.98706156396E+03  0.25500000920E-02 0.  1.
</event>
<event>
 5   0  0.4015204E-04  0.1522026E+04  0.7818609E-02  0.8869936E-01
        1   -1    0    0  501    0  0.00000000000E+00  0.00000000000E+00  0.21405846205E+04  0.21405846205E+04  0.50400001928E-02 0.  1.
       -1   -1    0    0    0  501  0.00000000000E+00  0.00000000000E+00 -0.27055277506E+03  0.27055277510E+03  0.50400001928E-02 0. -1.
    10030    2    1    2    0    0  0.00000000000E+00  0.00000000000E+00  0.18700318455E+04  0.24111373956E+04  0.15220264247E+04 0.  0.
        2    1    3    3  502    0  0.70452996127E+03 -0.17645117429E+03  0.12950205895E+04  0.14847814016E+04  0.25500000920E-02 0.  1.
       -2    1    3    3    0  502 -0.70452996127E+03  0.17645117429E+03  0.57501125599E+03  0.92635599407E+03  0.25500000920E-02 0. -1.
</event>
<event>
 5   0  0.7672251E-04  0.1499497E+04  0.7818609E-02  0.8884787E-01
       -2   -1    0    0    0  501  0.00000000000E+00  0.00000000000E+00  0.29166780380E+03  0.29166780381E+03  0.25500000920E-02 0. -1.
        2   -1    0    0  501    0  0.00000000000E+00  0.00000000000E+00 -0.19272707152E+04  0.19272707152E+04  0.25500000920E-02 0.  1.
    10030    2    1    2    0    0  0.00000000000E+00  0.00000000000E+00 -0.16356029114E+04  0.22189385190E+04  0.14994970048E+04 0.  0.
        5    1    3    3  502    0 -0.45865765725E+03  0.36689593698E+03 -0.15073277524E+04  0.16177263422E+04  0.46999998093E+01 0.  1.
       -5    1    3    3    0  502  0.45865765725E+03 -0.36689593698E+03 -0.12827515901E+03  0.60121217681E+03  0.46999998093E+01 0. -1.
</event>
<event>
 5   0  0.7454828E-04  0.1473635E+04  0.7818609E-02  0.8902177E-01
       -2   -1    0    0    0  501  0.00000000000E+00  0.00000000000E+00  0.83623508500E+03  0.83623508501E+03  0.25500000920E-02 0.  1.
        2   -1    0    0  501    0  0.00000000000E+00  0.00000000000E+00 -0.64921951457E+03  0.64921951458E+03  0.25500000920E-02 0. -1.
    10030    2    1    2    0    0  0.00000000000E+00  0.00000000000E+00  0.18701557043E+03  0.14854545996E+04  0.14736351461E+04 0.  0.
        3    1    3    3  502    0 -0.64776041317E+03  0.34892066359E+03  0.53682124367E+02  0.73771333391E+03  0.10100000352E+00 0. -1.
       -3    1    3    3    0  502  0.64776041317E+03 -0.34892066359E+03  0.13333344606E+03  0.74774126567E+03  0.10100000352E+00 0.  1.
</event>
<event>
 5   0  0.4015204E-04  0.1499258E+04  0.7818609E-02  0.8884946E-01
        1   -1    0    0  501    0  0.00000000000E+00  0.00000000000E+00  0.73605435152E+03  0.73605435154E+03  0.50400001928E-02 0. -1.
       -1   -1    0    0    0  501  0.00000000000E+00  0.00000000000E+00 -0.76345416921E+03  0.76345416922E+03  0.50400001928E-02 0.  1.
    10030    2    1    2    0    0  0.00000000000E+00  0.00000000000E+00 -0.27399817689E+02  0.14995085208E+04  0.14992581678E+04 0.  0.
        2    1    3    3  502    0 -0.27713962720E+03  0.68478139744E+03 -0.14104684799E+03  0.75208121142E+03  0.25500000920E-02 0. -1.
       -2    1    3    3    0  502  0.27713962720E+03 -0.68478139744E+03  0.11364703030E+03  0.74742730934E+03  0.25500000920E-02 0.  1.
</event>
<event>
 5   0  0.7547580E-04  0.1498182E+04  0.7818609E-02  0.8885663E-01
       -2   -1    0    0    0  501  0.00000000000E+00  0.00000000000E+00  0.25826050459E+03  0.25826050460E+03  0.25500000920E-02 0. -1.
        2   -1    0    0  501    0  0.00000000000E+00  0.00000000000E+00 -0.21727571915E+04  0.21727571915E+04  0.25500000920E-02 0.  1.
    10030    2    1    2    0    0  0.00000000000E+00  0.00000000000E+00 -0.19144966869E+04  0.24310176961E+04  0.14981820565E+04 0.  0.
        4    1    3    3  502    0 -0.37855198123E+03  0.64162555964E+03 -0.10845075280E+04  0.13157291334E+04  0.12699999809E+01 0.  1.
       -4    1    3    3    0  502  0.37855198123E+03 -0.64162555964E+03 -0.82998915890E+03  0.11152885627E+04  0.12699999809E+01 0. -1.
</event>
<event>
 5   0  0.4058874E-04  0.1495460E+04  0.7818609E-02  0.8887477E-01
       -1   -1    0    0    0  501  0.00000000000E+00  0.00000000000E+00  0.75015353691E+03  0.75015353693E+03  0.50400001928E-02 0.  1.
        1   -1    0    0  501    0  0.00000000000E+00  0.00000000000E+00 -0.74531460532E+03  0.74531460534E+03  0.50400001928E-02 0. -1.
    10030    2    1    2    0    0  0.00000000000E+00  0.00000000000E+00  0.48389315910E+01  0.14954681423E+04  0.14954603135E+04 0.  0.
        4    1    3    3  502    0 -0.52590596442E+02  0.74463989181E+03 -0.40527646187E+02  0.74759510586E+03  0.12699999809E+01 0. -1.
       -4    1    3    3    0  502  0.52590596442E+02 -0.74463989181E+03  0.45366577778E+02  0.74787303641E+03  0.12699999809E+01 0.  1.
</event>
<event>
 5   0  0.4086710E-04  0.1509622E+04  0.7818609E-02  0.8878079E-01
        1   -1    0    0  501    0  0.00000000000E+00  0.00000000000E+00  0.11430710290E+04  0.11430710290E+04  0.50400001928E-02 0.  1.
       -1   -1    0    0    0  501  0.00000000000E+00  0.00000000000E+00 -0.49842918407E+03  0.49842918410E+03  0.50400001928E-02 0. -1.
    10030    2    1    2    0    0  0.00000000000E+00  0.00000000000E+00  0.64464184489E+03  0.16415002131E+04  0.15096224168E+04 0.  0.
        3    1    3    3  502    0 -0.40035327589E+03  0.18956121819E+03 -0.34223528245E+03  0.55976888062E+03  0.10100000352E+00 0. -1.
       -3    1    3    3    0  502  0.40035327589E+03 -0.18956121819E+03  0.98687712734E+03  0.10817313325E+04  0.10100000352E+00 0.  1.
</event>
<event>
 5   0  0.7359897E-04  0.1488470E+04  0.7818609E-02  0.8892156E-01
       -2   -1    0    0    0  501  0.00000000000E+00  0.00000000000E+00  0.24876522028E+03  0.24876522029E+03  0.25500000920E-02 0. -1.
        2   -1    0    0  501    0  0.00000000000E+00  0.00000000000E+00 -0.22265408843E+04  0.22265408843E+04  0.25500000920E-02 0.  1.
    10030    2    1    2    0    0  0.00000000000E+00  0.00000000000E+00 -0.19777756640E+04  0.24753061046E+04  0.14884702665E+04 0.  0.
        1    1    3    3  502    0  0.26276400828E+03  0.18305579864E+03  0.12832679351E+03  0.34499581943E+03  0.50400001928E-02 0. -1.
       -1    1    3    3    0  502 -0.26276400828E+03 -0.18305579864E+03 -0.21061024575E+04  0.21303102851E+04  0.50400001928E-02 0.  1.
</event>
<event>
 5   0  0.4015204E-04  0.1475076E+04  0.7818609E-02  0.8901199E-01
       -1   -1    0    0    0  501  0.00000000000E+00  0.00000000000E+00  0.52301105205E+03  0.52301105208E+03  0.50400001928E-02 0.  1.
        1   -1    0    0  501    0  0.00000000000E+00  0.00000000000E+00 -0.10400582859E+04  0.10400582859E+04  0.50400001928E-02 0. -1.
    10030    2    1    2    0    0  0.00000000000E+00  0.00000000000E+00 -0.51704723386E+03  0.15630693380E+04  0.14750755619E+04 0.  0.
        2    1    3    3  502    0 -0.93255621856E+02  0.71341621251E+03 -0.43037931479E+03  0.83838276335E+03  0.25500000920E-02 0. -1.
       -2    1    3    3    0  502  0.93255621856E+02 -0.71341621251E+03 -0.86667919073E+02  0.72468657465E+03  0.25500000920E-02 0.  1.
</event>
<event>
 5   0  0.7359897E-04  0.1500572E+04  0.7818609E-02  0.8884073E-01
        2   -1    0    0  501    0  0.00000000000E+00  0.00000000000E+00  0.49397239764E+03  0.49397239764E+03  0.25500000920E-02 0.  1.
       -2   -1    0    0    0  501  0.00000000000E+00  0.00000000000E+00 -0.11395960325E+04  0.11395960325E+04  0.25500000920E-02 0. -1.
    10030    2    1    2    0    0  0.00000000000E+00  0.00000000000E+00 -0.64562363486E+03  0.16335684301E+04  0.15005718703E+04 0.  0.
        1    1    3    3  502    0 -0.39064235622E+03 -0.33817549070E+03  0.26943210730E+03  0.58271585996E+03  0.50400001928E-02 0.  1.
       -1    1    3    3    0  502  0.39064235622E+03  0.33817549070E+03 -0.91505574215E+03  0.10508525702E+04  0.50400001928E-02 0. -1.
</event>
<event>
 5   0  0.7454828E-04  0.1495009E+04  0.7818609E-02  0.8887779E-01
        2   -1    0    0  501    0  0.00000000000E+00  0.00000000000E+00  0.12662280697E+04  0.12662280697E+04  0.25500000920E-02 0. -1.
       -2   -1    0    0    0  501  0.00000000000E+00  0.00000000000E+00 -0.44128152319E+03  0.44128152319E+03  0.25500000920E-02 0.  1.
    10030    2    1    2    0    0  0.00000000000E+00  0.00000000000E+00  0.82494654649E+03  0.17075095929E+04  0.14950090987E+04 0.  0.
        3    1    3    3  502    0  0.36096331828E+03 -0.60874122423E+03  0.13764049940E+03  0.72097525096E+03  0.10100000352E+00 0.  1.
       -3    1    3    3    0  502 -0.36096331828E+03  0.60874122423E+03  0.68730604709E+03  0.98653434192E+03  0.10100000352E+00 0. -1.
</event>
<event>
 5   0  0.4084462E-04  0.1482288E+04  0.7818609E-02  0.8896318E-01
       -1   -1    0    0    0  501  0.00000000000E+00  0.00000000000E+00  0.67825717756E+03  0.67825717758E+03  0.50400001928E-02 0. -1.
        1   -1    0    0  501    0  0.00000000000E+00  0.00000000000E+00 -0.80986107549E+03  0.80986107550E+03  0.50400001928E-02 0.  1.
    10030    2    1    2    0    0  0.00000000000E+00  0.00000000000E+00 -0.13160389792E+03  0.14881182531E+04  0.14822875393E+04 0.  0.
        1    1    3    3  502    0 -0.47622472530E+03 -0.56219720294E+03  0.14753342714E+02  0.73693510239E+03  0.50400001928E-02 0. -1.
       -1    1    3    3    0  502  0.47622472530E+03  0.56219720294E+03 -0.14635724063E+03  0.75118315070E+03  0.50400001928E-02 0.  1.
</event>
<event>
 5   0  0.4084462E-04  0.1509171E+04  0.7818609E-02  0.8878377E-01
        1   -1    0    0  501    0  0.00000000000E+00  0.00000000000E+00  0.37542081321E+03  0.37542081324E+03  0.50400001928E-02 0. -1.
       -1   -1    0    0    0  501  0.00000000000E+00  0.00000000000E+00 -0.15166962668E+04  0.15166962668E+04  0.50400001928E-02 0.  1.
    10030    2    1    2    0    0  0.00000000000E+00  0.00000000000E+00 -0.11412754536E+04  0.18921170800E+04  0.15091710916E+04 0.  0.
        1    1    3    3  502    0 -0.48488144542E+03 -0.35353899197E+03  0.29417919225E+01  0.60009040079E+03  0.50400001928E-02 0. -1.
       -1    1    3    3    0  502  0.48488144542E+03  0.35353899197E+03 -0.11442172455E+04  0.12920266792E+04  0.50400001928E-02 0.  1.
</event>
<event>
 5   0  0.7359897E-04  0.1511505E+04  0.7818609E-02  0.8876838E-01
        2   -1    0    0  501    0  0.00000000000E+00  0.00000000000E+00  0.96323272102E+03  0.96323272102E+03  0.25500000920E-02 0.  1.
       -2   -1    0    0    0  501  0.00000000000E+00  0.00000000000E+00 -0.59296361673E+03  0.59296361674E+03  0.25500000920E-02 0. -1.
    10030    2    1    2    0    0  0.00000000000E+00  0.00000000000E+00  0.37026910429E+03  0.15561963378E+04  0.15115051545E+04 0.  0.
        1    1    3    3  502    0  0.40450052034E+03 -0.63239458687E+03  0.95270522786E+02  0.75671662926E+03  0.50400001928E-02 0. -1.
       -1    1    3    3    0  502 -0.40450052034E+03  0.63239458687E+03  0.27499858150E+03  0.79947970851E+03  0.50400001928E-02 0.  1.
</event>
<event>
 5   0  0.4015204E-04  0.1507188E+04  0.7818609E-02  0.8879687E-01
       -1   -1    0    0    0  501  0.00000000000E+00  0.00000000000E+00  0.30226587535E+03  0.30226587539E+03  0.50400001928E-02 0. -1.
        1   -1    0    0  501    0  0.00000000000E+00  0.00000000000E+00 -0.18788235291E+04  0.18788235291E+04  0.50400001928E-02 0.  1.
    10030    2    1    2    0    0  0.00000000000E+00  0.00000000000E+00 -0.15765576537E+04  0.21810894045E+04  0.15071884271E+04 0.  0.
        2    1    3    3  502    0 -0.22927673941E+03  0.90079795788E+02 -0.18189140431E+04  0.18355191334E+04  0.25500000920E-02 0.  1.
       -2    1    3    3    0  502  0.22927673941E+03 -0.90079795788E+02  0.24235638932E+03  0.34557027114E+03  0.25500000920E-02 0. -1.
</event>
<event>
 5   0  0.4084462E-04  0.1494009E+04  0.7818609E-02  0.8888447E-01
       -1   -1    0    0    0  501  0.00000000000E+00  0.00000000000E+00  0.11440627109E+04  0.11440627110E+04  0.50400001928E-02 0.  1.
        1   -1    0    0  501    0  0.00000000000E+00  0.00000000000E+00 -0.48774921898E+03  0.48774921901E+03  0.50400001928E-02 0. -1.
    10030    2    1    2    0    0  0.00000000000E+00  0.00000000000E+00  0.65631349196E+03  0.16318119300E+04  0.14940089608E+04 0.  0.
        1    1    3    3  502    0  0.68857017451E+03  0.24839797690E+03  0.49084234102E+03  0.88133798507E+03  0.50400001928E-02 0.  1.
       -1    1    3    3    0  502 -0.68857017451E+03 -0.24839797690E+03  0.16547115094E+03  0.75047394490E+03  0.50400001928E-02 0. -1.
</event>
<event>
 5   0  0.7454828E-04  0.1478928E+04  0.7818609E-02  0.8898588E-01
        2   -1    0    0  501    0  0.00000000000E+00  0.00000000000E+00  0.20282737407E+04  0.20282737407E+04  0.25500000920E-02 0. -1.
       -2   -1    0    0    0  501  0.00000000000E+00  0.00000000000E+00 -0.26959225540E+03  0.26959225542E+03  0.25500000920E-02 0.  1.
    10030    2    1    2    0    0  0.00000000000E+00  0.00000000000E+00  0.17586814853E+04  0.22978659961E+04  0.14789278446E+04 0.  0.
        3    1    3    3  502    0 -0.12574917981E+03 -0.10935614497E+03 -0.24003565024E+03  0.29221352853E+03  0.10100000352E+00 0.  1.
       -3    1    3    3    0  502  0.12574917981E+03  0.10935614497E+03  0.19987171355E+04  0.20056524676E+04  0.10100000352E+00 0. -1.
</event>
<event>
 5   0  0.4058874E-04  0.1488405E+04  0.7818609E-02  0.8892200E-01
        1   -1    0    0  501    0  0.00000000000E+00  0.00000000000E+00  0.18119555369E+04  0.18119555369E+04  0.50400001928E-02 0.  1.
       -1   -1    0    0    0  501  0.00000000000E+00  0.00000000000E+00 -0.30565714581E+03  0.30565714585E+03  0.50400001928E-02 0. -1.
    10030    2    1    2    0    0  0.00000000000E+00  0.00000000000E+00  0.15062983911E+04  0.21176126828E+04  0.14884047269E+04 0.  0.
        4    1    3    3  502    0 -0.63651057292E+03 -0.24790212180E+03  0.11733620291E+04  0.13577117645E+04  0.12699999809E+01 0.  1.
       -4    1    3    3    0  502  0.63651057292E+03  0.24790212180E+03  0.33293636202E+03  0.75990091820E+03  0.12699999809E+01 0. -1.
</event>
<event>
 5   0  0.4084462E-04  0.1504182E+04  0.7818609E-02  0.8881677E-01
       -1   -1    0    0    0  501  0.00000000000E+00  0.00000000000E+00  0.42908419731E+03  0.42908419734E+03  0.50400001928E-02 0.  1.
        1   -1    0    0  501    0  0.00000000000E+00  0.00000000000E+00 -0.13182513726E+04  0.13182513726E+04  0.50400001928E-02 0. -1.
    10030    2    1    2    0    0  0.00000000000E+00  0.00000000000E+00 -0.88916717525E+03  0.17473355699E+04  0.15041819465E+04 0.  0.
        1    1    3    3  502    0 -0.36281575064E+03 -0.18977500467E+03 -0.11774293440E+04  0.12465912247E+04  0.50400001928E-02 0. -1.
       -1    1    3    3    0  502  0.36281575064E+03  0.18977500467E+03  0.28826216875E+03  0.50074434522E+03  0.50400001928E-02 0.  1.
</event>
<event>
 5   0  0.4058874E-04  0.1562428E+04  0.7818609E-02  0.8843968E-01
        1   -1    0    0  501    0  0.00000000000E+00  0.00000000000E+00  0.62352180612E+03  0.62352180614E+03  0.50400001928E-02 0.  1.
       -1   -1    0    0    0  501  0.00000000000E+00  0.00000000000E+00 -0.97878755352E+03  0.97878755353E+03  0.50400001928E-02 0. -1.
    10030    2    1    2    0    0  0.00000000000E+00  0.00000000000E+00 -0.35526574740E+03  0.16023093597E+04  0.15624280889E+04 0.  0.
        4    1    3    3  502    0  0.47004817993E+03  0.59586584150E+03  0.12275944589E+02  0.75904789324E+03  0.12699999809E+01 0.  1.
       -4    1    3    3    0  502 -0.47004817993E+03 -0.59586584150E+03 -0.36754169199E+03  0.84326146643E+03  0.12699999809E+01 0. -1.
</event>
<event>
 5   0  0.7634227E-04  0.1531233E+04  0.7818609E-02  0.8863945E-01
        2   -1    0    0  501    0  0.00000000000E+00  0.00000000000E+00  0.55083564095E+03  0.55083564096E+03  0.25500000920E-02 0.  1.
       -2   -1    0    0    0  501  0.00000000000E+00  0.00000000000E+00 -0.10641444445E+04  0.10641444445E+04  0.25500000920E-02 0. -1.
    10030    2    1    2    0    0  0.00000000000E+00  0.00000000000E+00 -0.51330880353E+03  0.16149800854E+04  0.15312330811E+04 0.  0.
        2    1    3    3  502    0 -0.18677796510E+03 -0.29230006487E+02 -0.10391397963E+04  0.10561969124E+04  0.25500000920E-02 0. -1.
       -2    1    3    3    0  502  0.18677796510E+03  0.29230006487E+02  0.52583099276E+03  0.55878317305E+03  0.25500000920E-02 0.  1.
</event>
<event>
 5   0  0.7547580E-04  0.1523735E+04  0.7818609E-02  0.8868821E-01
       -2   -1    0    0    0  501  0.00000000000E+00  0.00000000000E+00  0.36022908195E+03  0.36022908196E+03  0.25500000920E-02 0. -1.
        2   -1    0    0  501    0  0.00000000000E+00  0.00000000000E+00 -0.16113133281E+04  0.16113133281E+04  0.25500000920E-02 0.  1.
    10030    2    1    2    0    0  0.00000000000E+00  0.00000000000E+00 -0.12510842461E+04  0.19715424101E+04  0.15237347813E+04 0.  0.
        4    1    3    3  502    0  0.31300051280E+03  0.20753345198E+03 -0.14832258904E+04  0.15300327152E+04  0.12699999809E+01 0.  1.
       -4    1    3    3    0  502 -0.31300051280E+03 -0.20753345198E+03  0.23214164430E+03  0.44150969482E+03  0.12699999809E+01 0. -1.
</event>
<event>
 5   0  0.7454828E-04  0.1503307E+04  0.7818609E-02  0.8882257E-01
       -2   -1    0    0    0  501  0.00000000000E+00  0.00000000000E+00  0.67399781691E+03  0.67399781691E+03  0.25500000920E-02 0.  1.
        2   -1    0    0  501    0  0.00000000000E+00  0.00000000000E+00 -0.83825680203E+03  0.83825680203E+03  0.25500000920E-02 0. -1.
    10030    2    1    2    0    0  0.00000000000E+00  0.00000000000E+00 -0.16425898512E+03  0.15122546189E+04  0.15033073599E+04 0.  0.
        3    1    3    3  502    0 -0.43112975188E+03 -0.60549065435E+03 -0.19455983777E+03  0.76833933658E+03  0.10100000352E+00 0.  1.
       -3    1    3    3    0  502  0.43112975188E+03  0.60549065435E+03  0.30300852648E+02  0.74391528237E+03  0.10100000352E+00 0. -1.
</event>
<event>
 5   0  0.4086710E-04  0.1496218E+04  0.7818609E-02  0.8886972E-01
        1   -1    0    0  501    0  0.00000000000E+00  0.00000000000E+00  0.16041376740E+04  0.16041376740E+04  0.50400001928E-02 0.  1.
       -1   -1    0    0    0  501  0.00000000000E+00  0.00000000000E+00 -0.34888970159E+03  0.34888970163E+03  0.50400001928E-02 0. -1.
    10030    2    1    2    0    0  0.00000000000E+00  0.00000000000E+00  0.12552479724E+04  0.19530273757E+04  0.14962180515E+04 0.  0.
        3    1    3    3  502    0  0.16028453970E+03 -0.72695135104E+03  0.72458399186E+03  0.10388317342E+04  0.10100000352E+00 0. -1.
       -3    1    3    3    0  502 -0.16028453970E+03  0.72695135104E+03  0.53066398058E+03  0.91419564150E+03  0.10100000352E+00 0.  1.
</event>
<event>
 5   0  0.7672251E-04  0.1506827E+04  0.7818609E-02  0.8879926E-01
       -2   -1    0    0    0  501  0.00000000000E+00  0.00000000000E+00  0.34814593921E+03  0.34814593922E+03  0.25500000920E-02 0. -1.
        2   -1    0    0  501    0  0.00000000000E+00  0.00000000000E+00 -0.16304419389E+04  0.16304419389E+04  0.25500000920E-02 0.  1.
    10030    2    1    2    0    0  0.00000000000E+00  0.00000000000E+00 -0.12822959997E+04  0.19785878781E+04  0.15068267852E+04 0.  0.
        5    1    3    3  502    0  0.38321573578E+03  0.33748354029E+03  0.86233584403E+02  0.51788778822E+03  0.46999998093E+01 0. -1.
       -5    1    3    3    0  502 -0.38321573578E+03 -0.33748354029E+03 -0.13685295841E+04  0.14607000899E+04  0.46999998093E+01 0.  1.
</event>
<event>
 5   0  0.7634227E-04  0.1544143E+04  0.7818609E-02  0.8855617E-01
        2   -1    0    0  501    0  0.00000000000E+00  0.00000000000E+00  0.12244803440E+04  0.12244803440E+04  0.25500000920E-02 0. -1.
       -2   -1    0    0    0  501  0.00000000000E+00  0.00000000000E+00 -0.48681441540E+03  0.48681441541E+03  0.25500000920E-02 0.  1.
    10030    2    1    2    0    0  0.00000000000E+00  0.00000000000E+00  0.73766592860E+03  0.17112947594E+04  0.15441433649E+04 0.  0.
        2    1    3    3  502    0 -0.74361011041E+03 -0.17175748599E+03  0.49825653581E+03  0.91143634215E+03  0.25500000920E-02 0. -1.
       -2    1    3    3    0  502  0.74361011041E+03  0.17175748599E+03  0.23940939279E+03  0.79985841726E+03  0.25500000920E-02 0.  1.
</event>
<event>
 5   0  0.4086710E-04  0.1452545E+04  0.7818609E-02  0.8916638E-01
       -1   -1    0    0    0  501  0.00000000000E+00  0.00000000000E+00  0.17539761275E+04  0.17539761275E+04  0.50400001928E-02 0. -1.
        1   -1    0    0  501    0  0.00000000000E+00  0.00000000000E+00 -0.30072912956E+03  0.30072912960E+03  0.50400001928E-02 0.  1.
    10030    2    1    2    0    0  0.00000000000E+00  0.00000000000E+00  0.14532469979E+04  0.20547052571E+04  0.14525449585E+04 0.  0.
        3    1    3    3  502    0  0.57287616481E+03  0.11884274092E+02  0.13578756520E+04  0.14738231348E+04  0.10100000352E+00 0. -1.
       -3    1    3    3    0  502 -0.57287616481E+03 -0.11884274092E+02  0.95371345924E+02  0.58088212229E+03  0.10100000352E+00 0.  1.
</event>
<event>
 5   0  0.7672251E-04  0.1493846E+04  0.7818609E-02  0.8888556E-01
       -2   -1    0    0    0  501  0.00000000000E+00  0.00000000000E+00  0.76534000775E+03  0.76534000776E+03  0.25500000920E-02 0. -1.
        2   -1    0    0  501    0  0.00000000000E+00  0.00000000000E+00 -0.72894927320E+03  0.72894927321E+03  0.25500000920E-02 0.  1.
    10030    2    1    2    0    0  0.00000000000E+00  0.00000000000E+00  0.36390734551E+02  0.14942892810E+04  0.14938460997E+04 0.  0.
        5    1    3    3  502    0  0.70658352377E+03  0.12859805727E+03  0.22337622443E+03  0.75214145214E+03  0.46999998093E+01 0. -1.
       -5    1    3    3    0  502 -0.70658352377E+03 -0.12859805727E+03 -0.18698548988E+03  0.74214782882E+03  0.46999998093E+01 0.  1.
</event>
<event>
 5   0  0.2800375E-04  0.1439754E+04  0.7818609E-02  0.8925535E-01
        3   -1    0    0  501    0  0.00000000000E+00  0.00000000000E+00  0.10359156446E+04  0.10359156495E+04  0.10100000352E+00 0. -1.
       -3   -1    0    0    0  501  0.00000000000E+00  0.00000000000E+00 -0.50025615210E+03  0.50025616230E+03  0.10100000352E+00 0.  1.
    10030    2    1    2    0    0  0.00000000000E+00  0.00000000000E+00  0.53565949245E+03  0.15361718118E+04  0.14397544039E+04 0.  0.
        2    1    3    3  502    0  0.66510480371E+03 -0.36388554075E+02  0.55912305638E+03  0.86965919702E+03  0.25500000920E-02 0.  1.
       -2    1    3    3    0  502 -0.66510480371E+03  0.36388554075E+02 -0.23463563925E+02  0.66651261476E+03  0.25500000920E-02 0. -1.
</event>
<event>
 5   0  0.7672251E-04  0.1507705E+04  0.7818609E-02  0.8879346E-01
        2   -1    0    0  501    0  0.00000000000E+00  0.00000000000E+00  0.14097435866E+04  0.14097435866E+04  0.25500000920E-02 0.  1.
       -2   -1    0    0    0  501  0.00000000000E+00  0.00000000000E+00 -0.40311816546E+03  0.40311816546E+03  0.25500000920E-02 0. -1.
    10030    2    1    2    0    0  0.00000000000E+00  0.00000000000E+00  0.10066254212E+04  0.18128617521E+04  0.15077045445E+04 0.  0.
        5    1    3    3  502    0 -0.11454679186E+03 -0.64132699167E+03  0.47272439324E+02  0.65320597922E+03  0.46999998093E+01 0. -1.
       -5    1    3    3    0  502  0.11454679186E+03  0.64132699167E+03  0.95935298183E+03  0.11596557729E+04  0.46999998093E+01 0.  1.
</event>
<event>
 5   0  0.7359897E-04  0.1496030E+04  0.7818609E-02  0.8887097E-01
       -2   -1    0    0    0  501  0.00000000000E+00  0.00000000000E+00  0.27908177521E+03  0.27908177522E+03  0.25500000920E-02 0.  1.
        2   -1    0    0  501    0  0.00000000000E+00  0.00000000000E+00 -0.20048825574E+04  0.20048825574E+04  0.25500000920E-02 0. -1.
    10030    2    1    2    0    0  0.00000000000E+00  0.00000000000E+00 -0.17258007822E+04  0.22839643327E+04  0.14960296564E+04 0.  0.
        1    1    3    3  502    0 -0.30445631453E+03 -0.54662366239E+03 -0.23708083715E+03  0.66910268204E+03  0.50400001928E-02 0.  1.
       -1    1    3    3    0  502  0.30445631453E+03  0.54662366239E+03 -0.14887199451E+04  0.16148616506E+04  0.50400001928E-02 0. -1.
</event>
<event>
 5   0  0.7547580E-04  0.1475680E+04  0.7818609E-02  0.8900789E-01
       -2   -1    0    0    0  501  0.00000000000E+00  0.00000000000E+00  0.38097586166E+03  0.38097586167E+03  0.25500000920E-02 0.  1.
        2   -1    0    0  501    0  0.00000000000E+00  0.00000000000E+00 -0.14289818968E+04  0.14289818968E+04  0.25500000920E-02 0. -1.
    10030    2    1    2    0    0  0.00000000000E+00  0.00000000000E+00 -0.10480060351E+04  0.18099577584E+04  0.14756796528E+04 0.  0.
        4    1    3    3  502    0 -0.30068398218E+02 -0.36948152686E+03 -0.13064694328E+04  0.13580444392E+04  0.12699999809E+01 0. -1.
       -4    1    3    3    0  502  0.30068398218E+02  0.36948152686E+03  0.25846339765E+03  0.45191331922E+03  0.12699999809E+01 0.  1.
</event>
<event>
 5   0  0.4086710E-04  0.1497859E+04  0.7818609E-02  0.8885878E-01
        1   -1    0    0  501    0  0.00000000000E+00  0.00000000000E+00  0.13910883296E+04  0.13910883296E+04  0.50400001928E-02 0.  1.
       -1   -1    0    0    0  501  0.00000000000E+00  0.00000000000E+00 -0.40320596559E+03  0.40320596562E+03  0.50400001928E-02 0. -1.
    10030    2    1    2    0    0  0.00000000000E+00  0.00000000000E+00  0.98788236401E+03  0.17942942952E+04  0.14978586224E+04 0.  0.
        3    1    3    3  502    0  0.23591949327E+03  0.41602460519E+03 -0.19645268720E+03  0.51703785928E+03  0.10100000352E+00 0. -1.
       -3    1    3    3    0  502 -0.23591949327E+03 -0.41602460519E+03  0.11843350512E+04  0.12772564359E+04  0.10100000352E+00 0.  1.
</event>
<event>
 5   0  0.4058874E-04  0.1501134E+04  0.7818609E-02  0.8883699E-01
        1   -1    0    0  501    0  0.00000000000E+00  0.00000000000E+00  0.85252091742E+03  0.85252091743E+03  0.50400001928E-02 0. -1.
       -1   -1    0    0    0  501  0.00000000000E+00  0.00000000000E+00 -0.66080628640E+03  0.66080628641E+03  0.50400001928E-02 0.  1.
    10030    2    1    2    0    0  0.00000000000E+00  0.00000000000E+00  0.19171463102E+03  0.15133272038E+04  0.15011344797E+04 0.  0.
        4    1    3    3  502    0 -0.53449106873E+03 -0.51453740562E+03  0.21044727996E+03  0.77118033875E+03  0.12699999809E+01 0.  1.
       -4    1    3    3    0  502  0.53449106873E+03  0.51453740562E+03 -0.18732648939E+02  0.74214686510E+03  0.12699999809E+01 0. -1.
</event>
<event>
 5   0  0.7359897E-04  0.1496909E+04  0.7818609E-02  0.8886511E-01
        2   -1    0    0  501    0  0.00000000000E+00  0.00000000000E+00  0.56454573411E+03  0.56454573412E+03  0.25500000920E-02 0.  1.
       -2   -1    0    0    0  501  0.00000000000E+00  0.00000000000E+00 -0.99227402275E+03  0.99227402275E+03  0.25500000920E-02 0. -1.
    10030    2    1    2    0    0  0.00000000000E+00  0.00000000000E+00 -0.42772828864E+03  0.15568197569E+04  0.14969089039E+04 0.  0.
        1    1    3    3  502    0  0.53347916985E+03  0.31826012512E+03  0.22033088504E+03  0.65911700846E+03  0.50400001928E-02 0.  1.
       -1    1    3    3    0  502 -0.53347916985E+03 -0.31826012512E+03 -0.64805917367E+03  0.89770274842E+03  0.50400001928E-02 0. -1.
</event>
<event>
 5   0  0.4084462E-04  0.1377375E+04  0.7818609E-02  0.8970360E-01
        1   -1    0    0  501    0  0.00000000000E+00  0.00000000000E+00  0.64092690814E+03  0.64092690816E+03  0.50400001928E-02 0. -1.
       -1   -1    0    0    0  501  0.00000000000E+00  0.00000000000E+00 -0.74000707682E+03  0.74000707683E+03  0.50400001928E-02 0.  1.
    10030    2    1    2    0    0  0.00000000000E+00  0.00000000000E+00 -0.99080168678E+02  0.13809339850E+04  0.13773749639E+04 0.  0.
        1    1    3    3  502    0  0.59165873225E+03  0.19957861193E+03  0.24172524506E+03  0.66956909420E+03  0.50400001928E-02 0. -1.
       -1    1    3    3    0  502 -0.59165873225E+03 -0.19957861193E+03 -0.34080541374E+03  0.71136489079E+03  0.50400001928E-02 0.  1.
</event>
<event>
 5   0  0.7547580E-04  0.1491691E+04  0.7818609E-02  0.8889997E-01
       -2   -1    0    0    0  501  0.00000000000E+00  0.00000000000E+00  0.40892796401E+03  0.40892796402E+03  0.25500000920E-02 0.  1.
        2   -1    0    0  501    0  0.00000000000E+00  0.00000000000E+00 -0.13603513451E+04  0.13603513451E+04  0.25500000920E-02 0. -1.
    10030    2    1    2    0    0  0.00000000000E+00  0.00000000000E+00 -0.95142338113E+03  0.17692793092E+04  0.14916912628E+04 0.  0.
        4    1    3    3  502    0  0.19177808931E+02  0.32276477892E+03  0.32147739291E+03  0.45595418402E+03  0.12699999809E+01 0.  1.
       -4    1    3    3    0  502 -0.19177808931E+02 -0.32276477892E+03 -0.12729007740E+04  0.13133251251E+04  0.12699999809E+01 0. -1.
</event>
<event>
 5   0  0.7672251E-04  0.1500848E+04  0.7818609E-02  0.8883889E-01
        2   -1    0    0  501    0  0.00000000000E+00  0.00000000000E+00  0.12342445694E+04  0.12342445694E+04  0.25500000920E-02 0. -1.
       -2   -1    0    0    0  501  0.00000000000E+00  0.00000000000E+00 -0.45626001588E+03  0.45626001588E+03  0.25500000920E-02 0.  1.
    10030    2    1    2    0    0  0.00000000000E+00  0.00000000000E+00  0.77798455348E+03  0.16905045852E+04  0.15008483559E+04 0.  0.
        5    1    3    3  502    0  0.36542110676E+03  0.38494950616E+03 -0.20850816192E+03  0.57027752116E+03  0.46999998093E+01 0.  1.
       -5    1    3    3    0  502 -0.36542110676E+03 -0.38494950616E+03  0.98649271541E+03  0.11202270641E+04  0.46999998093E+01 0. -1.
</event>
<event>
 5   0  0.7672251E-04  0.1512910E+04  0.7818609E-02  0.8875913E-01
        2   -1    0    0  501    0  0.00000000000E+00  0.00000000000E+00  0.45817872135E+03  0.45817872135E+03  0.25500000920E-02 0. -1.
       -2   -1    0    0    0  501  0.00000000000E+00  0.00000000000E+00 -0.12489105315E+04  0.12489105315E+04  0.25500000920E-02 0.  1.
    10030    2    1    2    0    0  0.00000000000E+00  0.00000000000E+00 -0.79073181018E+03  0.17070892529E+04  0.15129100838E+04 0.  0.
        5    1    3    3  502    0 -0.16923313150E+03 -0.48400134625E+03 -0.10228989067E+04  0.11442208787E+04  0.46999998093E+01 0.  1.
       -5    1    3    3    0  502  0.16923313150E+03  0.48400134625E+03  0.23216709649E+03  0.56286837419E+03  0.46999998093E+01 0. -1.
</event>
<event>
 5   0  0.4058874E-04  0.1511320E+04  0.7818609E-02  0.8876960E-01
       -1   -1    0    0    0  501  0.00000000000E+00  0.00000000000E+00  0.38212837463E+03  0.38212837467E+03  0.50400001928E-02 0. -1.
        1   -1    0    0  501    0  0.00000000000E+00  0.00000000000E+00 -0.14943206315E+04  0.14943206315E+04  0.50400001928E-02 0.  1.
    10030    2    1    2    0    0  0.00000000000E+00  0.00000000000E+00 -0.11121922569E+04  0.18764490062E+04  0.15113203686E+04 0.  0.
        4    1    3    3  502    0  0.39746325107E+02  0.29288614882E+03 -0.14195710009E+04  0.14500156916E+04  0.12699999809E+01 0.  1.
       -4    1    3    3    0  502 -0.39746325107E+02 -0.29288614882E+03  0.30737874405E+03  0.42643331451E+03  0.12699999809E+01 0. -1.
</event>
<event>
 5   0  0.4058874E-04  0.1497234E+04  0.7818609E-02  0.8886295E-01
       -1   -1    0    0    0  501  0.00000000000E+00  0.00000000000E+00  0.39143340886E+03  0.39143340889E+03  0.50400001928E-02 0.  1.
        1   -1    0    0  501    0  0.00000000000E+00  0.00000000000E+00 -0.14317304872E+04  0.14317304872E+04  0.50400001928E-02 0. -1.
    10030    2    1    2    0    0  0.00000000000E+00  0.00000000000E+00 -0.10402970783E+04  0.18231638961E+04  0.14972336427E+04 0.  0.
        4    1    3    3  502    0  0.70929248529E+03 -0.21901164053E+03 -0.40231805764E+03  0.84434789084E+03  0.12699999809E+01 0. -1.
       -4    1    3    3    0  502 -0.70929248529E+03  0.21901164053E+03 -0.63797902067E+03  0.97881600522E+03  0.12699999809E+01 0.  1.
</event>
<event>
 5   0  0.4084462E-04  0.1492040E+04  0.7818609E-02  0.8889764E-01
       -1   -1    0    0    0  501  0.00000000000E+00  0.00000000000E+00  0.39472658304E+03  0.39472658307E+03  0.50400001928E-02 0.  1.
        1   -1    0    0  501    0  0.00000000000E+00  0.00000000000E+00 -0.14099518853E+04  0.14099518853E+04  0.50400001928E-02 0. -1.
    10030    2    1    2    0    0  0.00000000000E+00  0.00000000000E+00 -0.10152253022E+04  0.18046784683E+04  0.14920395302E+04 0.  0.
        1    1    3    3  502    0 -0.48660743082E+03  0.55317935163E+03 -0.64945027103E+03  0.98213025682E+03  0.50400001928E-02 0. -1.
       -1    1    3    3    0  502  0.48660743082E+03 -0.55317935163E+03 -0.36577503119E+03  0.82254821152E+03  0.50400001928E-02 0.  1.
</event>
<event>
 5   0  0.7672251E-04  0.1551325E+04  0.7818609E-02  0.8851022E-01
       -2   -1    0    0    0  501  0.00000000000E+00  0.00000000000E+00  0.10236394923E+04  0.10236394923E+04  0.25500000920E-02 0.  1.
        2   -1    0    0  501    0  0.00000000000E+00  0.00000000000E+00 -0.58775815817E+03  0.58775815817E+03  0.25500000920E-02 0. -1.
    10030    2    1    2    0    0  0.00000000000E+00  0.00000000000E+00  0.43588133417E+03  0.16113976505E+04  0.15513251918E+04 0.  0.
        5    1    3    3  502    0  0.76024820109E+03 -0.10160744997E+03  0.33786248427E+03  0.83813754803E+03  0.46999998093E+01 0.  1.
       -5    1    3    3    0  502 -0.76024820109E+03  0.10160744997E+03  0.98018849903E+02  0.77326010248E+03  0.46999998093E+01 0. -1.
</event>
<event>
 5   0  0.7359897E-04  0.1498134E+04  0.7818609E-02  0.8885695E-01
        2   -1    0    0  501    0  0.00000000000E+00  0.00000000000E+00  0.14894238176E+04  0.14894238176E+04  0.25500000920E-02 0.  1.
       -2   -1    0    0    0  501  0.00000000000E+00  0.00000000000E+00 -0.37672358207E+03  0.37672358207E+03  0.25500000920E-02 0. -1.
    10030    2    1    2    0    0  0.00000000000E+00  0.00000000000E+00  0.11127002355E+04  0.18661473997E+04  0.14981336066E+04 0.  0.
        1    1    3    3  502    0 -0.25093296486E+03  0.31925306300E+03 -0.22772698991E+03  0.46556358647E+03  0.50400001928E-02 0. -1.
       -1    1    3    3    0  502  0.25093296486E+03 -0.31925306300E+03  0.13404272254E+04  0.14005838132E+04  0.50400001928E-02 0.  1.
</event>
<event>
 5   0  0.7359897E-04  0.1497378E+04  0.7818609E-02  0.8886198E-01
       -2   -1    0    0    0  501  0.00000000000E+00  0.00000000000E+00  0.46651706887E+03  0.46651706887E+03  0.25500000920E-02 0. -1.
        2   -1    0    0  501    0  0.00000000000E+00  0.00000000000E+00 -0.12015326758E+04  0.12015326759E+04  0.25500000920E-02 0.  1.
    10030    2    1    2    0    0  0.00000000000E+00  0.00000000000E+00 -0.73501560698E+03  0.16680497447E+04  0.14973783785E+04 0.  0.
        1    1    3    3  502    0 -0.52074399931E+03 -0.15365066019E+03  0.20676236086E+03  0.58097634383E+03  0.50400001928E-02 0. -1.
       -1    1    3    3    0  502  0.52074399931E+03  0.15365066019E+03 -0.94177796784E+03  0.10870734009E+04  0.50400001928E-02 0.  1.
</event>
<event>
 5   0  0.7359897E-04  0.1499342E+04  0.7818609E-02  0.8884891E-01
       -2   -1    0    0    0  501  0.00000000000E+00  0.00000000000E+00  0.74978242103E+03  0.74978242103E+03  0.25500000920E-02 0. -1.
        2   -1    0    0  501    0  0.00000000000E+00  0.00000000000E+00 -0.74955911413E+03  0.74955911414E+03  0.25500000920E-02 0.  1.
    10030    2    1    2    0    0  0.00000000000E+00  0.00000000000E+00  0.22330689593E+00  0.14993415352E+04  0.14993415185E+04 0.  0.
        1    1    3    3  502    0 -0.24711229098E+03 -0.55493826357E+03  0.43941256494E+03  0.74973619559E+03  0.50400001928E-02 0. -1.
       -1    1    3    3    0  502  0.24711229098E+03  0.55493826357E+03 -0.43918925804E+03  0.74960533958E+03  0.50400001928E-02 0.  1.
</event>
<event>
 5   0  0.4015204E-04  0.1500470E+04  0.7818609E-02  0.8884141E-01
        1   -1    0    0  501    0  0.00000000000E+00  0.00000000000E+00  0.10701515658E+04  0.10701515658E+04  0.50400001928E-02 0. -1.
       -1   -1    0    0    0  501  0.00000000000E+00  0.00000000000E+00 -0.52595574637E+03  0.52595574639E+03  0.50400001928E-02 0.  1.
    10030    2    1    2    0    0  0.00000000000E+00  0.00000000000E+00  0.54419581943E+03  0.15961073122E+04  0.15004697472E+04 0.  0.
        2    1    3    3  502    0  0.32278562518E+03 -0.50203276442E+03  0.75563097933E+03  0.96291517451E+03  0.25500000920E-02 0. -1.
       -2    1    3    3    0  502 -0.32278562518E+03  0.50203276442E+03 -0.21143515990E+03  0.63319213768E+03  0.25500000920E-02 0.  1.
</event>
<event>
 5   0  0.3907345E-04  0.1505074E+04  0.7818609E-02  0.8881086E-01
        1   -1    0    0  501    0  0.00000000000E+00  0.00000000000E+00  0.98359093047E+03  0.98359093048E+03  0.50400001928E-02 0.  1.
       -1   -1    0    0    0  501  0.00000000000E+00  0.00000000000E+00 -0.57575972784E+03  0.57575972786E+03  0.50400001928E-02 0. -1.
    10030    2    1    2    0    0  0.00000000000E+00  0.00000000000E+00  0.40783120263E+03  0.15593506583E+04  0.15050741463E+04 0.  0.
        5    1    3    3  502    0 -0.13469334001E+03 -0.66434404973E+03 -0.13466387501E+03  0.69112355008E+03  0.46999998093E+01 0. -1.
       -5    1    3    3    0  502  0.13469334001E+03  0.66434404973E+03  0.54249507764E+03  0.86822710826E+03  0.46999998093E+01 0.  1.
</event>
<event>
 5   0  0.7672251E-04  0.1527169E+04  0.7818609E-02  0.8866584E-01
       -2   -1    0    0    0  501  0.00000000000E+00  0.00000000000E+00  0.63425374781E+03  0.63425374782E+03  0.25500000920E-02 0. -1.
        2   -1    0    0  501    0  0.00000000000E+00  0.00000000000E+00 -0.91928768885E+03  0.91928768886E+03  0.25500000920E-02 0.  1.
    10030    2    1    2    0    0  0.00000000000E+00  0.00000000000E+00 -0.28503394104E+03  0.15535414367E+04  0.15271694889E+04 0.  0.
        5    1    3    3  502    0 -0.57013750353E+03  0.14967009333E+03  0.35123215962E+03  0.68618075586E+03  0.46999998093E+01 0. -1.
       -5    1    3    3    0  502  0.57013750353E+03 -0.14967009333E+03 -0.63626610067E+03  0.86736068081E+03  0.46999998093E+01 0.  1.
</event>
<event>
 5   0  0.4058874E-04  0.1500510E+04  0.7818609E-02  0.8884114E-01
        1   -1    0    0  501    0  0.00000000000E+00  0.00000000000E+00  0.87477034265E+03  0.87477034266E+03  0.50400001928E-02 0.  1.
       -1   -1    0    0    0  501  0.00000000000E+00  0.00000000000E+00 -0.64346297453E+03  0.64346297455E+03  0.50400001928E-02 0. -1.
    10030    2    1    2    0    0  0.00000000000E+00  0.00000000000E+00  0.23130736812E+03  0.15182333172E+04  0.15005096824E+04 0.  0.
        4    1    3    3  502    0 -0.52370651332E+02 -0.43447298280E+03 -0.50094679628E+03  0.66517573881E+03  0.12699999809E+01 0. -1.
       -4    1    3    3    0  502  0.52370651332E+02  0.43447298280E+03  0.73225416439E+03  0.85305757840E+03  0.12699999809E+01 0.  1.
</event>
<event>
 5   0  0.7634227E-04  0.1503257E+04  0.7818609E-02  0.8882290E-01
        2   -1    0    0  501    0  0.00000000000E+00  0.00000000000E+00  0.11255901330E+04  0.11255901330E+04  0.25500000920E-02 0. -1.
       -2   -1    0    0    0  501  0.00000000000E+00  0.00000000000E+00 -0.50191015835E+03  0.50191015835E+03  0.25500000920E-02 0.  1.
    10030    2    1    2    0    0  0.00000000000E+00  0.00000000000E+00  0.62367997469E+03  0.16275002914E+04  0.15032566273E+04 0.  0.
        2    1    3    3  502    0 -0.82594092103E+02  0.63536240641E+03 -0.11362611272E+03  0.65070582065E+03  0.25500000920E-02 0.  1.
       -2    1    3    3    0  502  0.82594092103E+02 -0.63536240641E+03  0.73730608741E+03  0.97679447074E+03  0.25500000920E-02 0. -1.
</event>
<event>
 5   0  0.4084462E-04  0.1500609E+04  0.7818609E-02  0.8884048E-01
        1   -1    0    0  501    0  0.00000000000E+00  0.00000000000E+00  0.15877405925E+04  0.15877405925E+04  0.50400001928E-02 0.  1.
       -1   -1    0    0    0  501  0.00000000000E+00  0.00000000000E+00 -0.35456469083E+03  0.35456469087E+03  0.50400001928E-02 0. -1.
    10030    2    1    2    0    0  0.00000000000E+00  0.00000000000E+00  0.12331759017E+04  0.19423052834E+04  0.15006088796E+04 0.  0.
        1    1    3    3  502    0 -0.18802890778E+02 -0.26383067202E+03 -0.29221961284E+03  0.39414778237E+03  0.50400001928E-02 0. -1.
       -1    1    3    3    0  502  0.18802890778E+02  0.26383067202E+03  0.15253955145E+04  0.15481575010E+04  0.50400001928E-02 0.  1.
</event>
<event>
 5   0  0.7454828E-04  0.1502557E+04  0.7818609E-02  0.8882755E-01
        2   -1    0    0  501    0  0.00000000000E+00  0.00000000000E+00  0.15977940739E+04  0.15977940739E+04  0.25500000920E-02 0.  1.
       -2   -1    0    0    0  501  0.00000000000E+00  0.00000000000E+00 -0.35324890862E+03  0.35324890863E+03  0.25500000920E-02 0. -1.
    10030    2    1    2    0    0  0.00000000000E+00  0.00000000000E+00  0.12445451653E+04  0.19510429825E+04  0.15025565052E+04 0.  0.
        3    1    3    3  502    0  0.10907587886E+03  0.11517876558E+03  0.15758001166E+04  0.15837644121E+04  0.10100000352E+00 0.  1.
       -3    1    3    3    0  502 -0.10907587886E+03 -0.11517876558E+03 -0.33125495127E+03  0.36727857047E+03  0.10100000352E+00 0. -1.
</event>
<event>
 5   0  0.7672251E-04  0.1492599E+04  0.7818609E-02  0.8889389E-01
        2   -1    0    0  501    0  0.00000000000E+00  0.00000000000E+00  0.12373636989E+04  0.12373636989E+04  0.25500000920E-02 0.  1.
       -2   -1    0    0    0  501  0.00000000000E+00  0.00000000000E+00 -0.45012084124E+03  0.45012084125E+03  0.25500000920E-02 0. -1.
    10030    2    1    2    0    0  0.00000000000E+00  0.00000000000E+00  0.78724285766E+03  0.16874845401E+04  0.14925993288E+04 0.  0.
        5    1    3    3  502    0 -0.46085113226E+03 -0.16144835765E+03 -0.24441527342E+03  0.54608630652E+03  0.46999998093E+01 0. -1.
       -5    1    3    3    0  502  0.46085113226E+03  0.16144835765E+03  0.10316581311E+04  0.11413982336E+04  0.46999998093E+01 0.  1.
</event>
<event>
 5   0  0.4084462E-04  0.1496959E+04  0.7818609E-02  0.8886477E-01
        1   -1    0    0  501    0  0.00000000000E+00  0.00000000000E+00  0.65123105798E+03  0.65123105800E+03  0.50400001928E-02 0. -1.
       -1   -1    0    0    0  501  0.00000000000E+00  0.00000000000E+00 -0.86025037553E+03  0.86025037555E+03  0.50400001928E-02 0.  1.
    10030    2    1    2    0    0  0.00000000000E+00  0.00000000000E+00 -0.20901931755E+03  0.15114814335E+04  0.14969592676E+04 0.  0.
        1    1    3    3  502    0 -0.20190394073E+03 -0.19859112742E+03 -0.80406431508E+03  0.85248053349E+03  0.50400001928E-02 0.  1.
       -1    1    3    3    0  502  0.20190394073E+03  0.19859112742E+03  0.59504499752E+03  0.65900090006E+03  0.50400001928E-02 0. -1.
</event>
<event>
 5   0  0.4058874E-04  0.1412950E+04  0.7818609E-02  0.8944497E-01
       -1   -1    0    0    0  501  0.00000000000E+00  0.00000000000E+00  0.34069429030E+03  0.34069429034E+03  0.50400001928E-02 0. -1.
        1   -1    0    0  501    0  0.00000000000E+00  0.00000000000E+00 -0.14649709562E+04  0.14649709562E+04  0.50400001928E-02 0.  1.
    10030    2    1    2    0    0  0.00000000000E+00  0.00000000000E+00 -0.11242766659E+04  0.18056652465E+04  0.14129504454E+04 0.  0.
        4    1    3    3  502    0  0.52471269686E+03  0.24564601177E+03 -0.45496203577E+02  0.58115135273E+03  0.12699999809E+01 0. -1.
       -4    1    3    3    0  502 -0.52471269686E+03 -0.24564601177E+03 -0.10787804623E+04  0.12245138938E+04  0.12699999809E+01 0.  1.
</event>
<event>
 5   0  0.3907345E-04  0.1500684E+04  0.7818609E-02  0.8883998E-01
       -1   -1    0    0    0  501  0.00000000000E+00  0.00000000000E+00  0.55442210153E+03  0.55442210155E+03  0.50400001928E-02 0.  1.
        1   -1    0    0  501    0  0.00000000000E+00  0.00000000000E+00 -0.10154952445E+04  0.10154952445E+04  0.50400001928E-02 0. -1.
    10030    2    1    2    0    0  0.00000000000E+00  0.00000000000E+00 -0.46107314300E+03  0.15699173461E+04  0.15006838542E+04 0.  0.
        5    1    3    3  502    0  0.51773870072E+03  0.43153246148E+03 -0.57547127244E+03  0.88626345007E+03  0.46999998093E+01 0. -1.
       -5    1    3    3    0  502 -0.51773870072E+03 -0.43153246148E+03  0.11439812944E+03  0.68365389602E+03  0.46999998093E+01 0.  1.
</event>
<event>
 5   0  0.3907345E-04  0.1496132E+04  0.7818609E-02  0.8887029E-01
       -1   -1    0    0    0  501  0.00000000000E+00  0.00000000000E+00  0.58608271030E+03  0.58608271032E+03  0.50400001928E-02 0.  1.
        1   -1    0    0  501    0  0.00000000000E+00  0.00000000000E+00 -0.95481825910E+03  0.95481825911E+03  0.50400001928E-02 0. -1.
    10030    2    1    2    0    0  0.00000000000E+00  0.00000000000E+00 -0.36873554880E+03  0.15409009694E+04  0.14961316428E+04 0.  0.
        5    1    3    3  502    0  0.67101063915E+02 -0.10291687514E+02 -0.95162400107E+03  0.95405387742E+03  0.46999998093E+01 0. -1.
       -5    1    3    3    0  502 -0.67101063915E+02  0.10291687514E+02  0.58288845227E+03  0.58684709201E+03  0.46999998093E+01 0.  1.
</event>
<event>
 5   0  0.7672251E-04  0.1504477E+04  0.7818609E-02  0.8881481E-01
        2   -1    0    0  501    0  0.00000000000E+00  0.00000000000E+00  0.18542952930E+04  0.18542952930E+04  0.25500000920E-02 0.  1.
       -2   -1    0    0    0  501  0.00000000000E+00  0.00000000000E+00 -0.30516327289E+03  0.30516327290E+03  0.25500000920E-02 0. -1.
    10030    2    1    2    0    0  0.00000000000E+00  0.00000000000E+00  0.15491320201E+04  0.21594585659E+04  0.15044770793E+04 0.  0.
        5    1    3    3  502    0 -0.34354513666E+03  0.81746360295E+02 -0.17876793959E+03  0.39583556506E+03  0.46999998093E+01 0. -1.
       -5    1    3    3    0  502  0.34354513666E+03 -0.81746360295E+02  0.17278999597E+04  0.17636230008E+04  0.46999998093E+01 0.  1.
</event>
<event>
 5   0  0.7672251E-04  0.1624061E+04  0.7818609E-02  0.8805901E-01
       -2   -1    0    0    0  501  0.00000000000E+00  0.00000000000E+00  0.48017988117E+03  0.48017988117E+03  0.25500000920E-02 0. -1.
        2   -1    0    0  501    0  0.00000000000E+00  0.00000000000E+00 -0.13732212711E+04  0.13732212711E+04  0.25500000920E-02 0.  1.
    10030    2    1    2    0    0  0.00000000000E+00  0.00000000000E+00 -0.89304138996E+03  0.18534011523E+04  0.16240606230E+04 0.  0.
        5    1    3    3  502    0  0.45017744029E+03  0.34937463139E+03  0.21365846777E+03  0.60860035462E+03  0.46999998093E+01 0. -1.
       -5    1    3    3    0  502 -0.45017744029E+03 -0.34937463139E+03 -0.11066998577E+04  0.12448007977E+04  0.46999998093E+01 0.  1.
</event>
<event>
 5   0  0.7454828E-04  0.1331600E+04  0.7818609E-02  0.9004875E-01
       -2   -1    0    0    0  501  0.00000000000E+00  0.00000000000E+00  0.15028671394E+03  0.15028671396E+03  0.25500000920E-02 0.  1.
        2   -1    0    0  501    0  0.00000000000E+00  0.00000000000E+00 -0.29496271453E+04  0.29496271453E+04  0.25500000920E-02 0. -1.
    10030    2    1    2    0    0  0.00000000000E+00  0.00000000000E+00 -0.27993404314E+04  0.30999138593E+04  0.13316001968E+04 0.  0.
        3    1    3    3  502    0 -0.59581779570E+03 -0.27375603816E+03 -0.16686333571E+04  0.17928409034E+04  0.10100000352E+00 0. -1.
       -3    1    3    3    0  502  0.59581779570E+03  0.27375603816E+03 -0.11307070743E+04  0.13070729559E+04  0.10100000352E+00 0.  1.
</event>
<event>
 5   0  0.7672251E-04  0.1496177E+04  0.7818609E-02  0.8886999E-01
        2   -1    0    0  501    0  0.00000000000E+00  0.00000000000E+00  0.12648303990E+04  0.12648303990E+04  0.25500000920E-02 0. -1.
       -2   -1    0    0    0  501  0.00000000000E+00  0.00000000000E+00 -0.44245949139E+03  0.44245949140E+03  0.25500000920E-02 0.  1.
    10030    2    1    2    0    0  0.00000000000E+00  0.00000000000E+00  0.82237090759E+03  0.17072898904E+04  0.14961767476E+04 0.  0.
        5    1    3    3  502    0 -0.20072070451E+03 -0.96795776783E+02  0.12260598620E+04  0.12461553270E+04  0.46999998093E+01 0. -1.
       -5    1    3    3    0  502  0.20072070451E+03  0.96795776783E+02 -0.40368895446E+03  0.46113456341E+03  0.46999998093E+01 0.  1.
</event>
<event>
 5   0  0.4015204E-04  0.1497756E+04  0.7818609E-02  0.8885946E-01
        1   -1    0    0  501    0  0.00000000000E+00  0.00000000000E+00  0.14968989200E+04  0.14968989200E+04  0.50400001928E-02 0.  1.
       -1   -1    0    0    0  501  0.00000000000E+00  0.00000000000E+00 -0.37465357336E+03  0.37465357340E+03  0.50400001928E-02 0. -1.
    10030    2    1    2    0    0  0.00000000000E+00  0.00000000000E+00  0.11222453467E+04  0.18715524934E+04  0.14977563612E+04 0.  0.
        2    1    3    3  502    0  0.49632898005E+03  0.17328612844E+03  0.12275645445E+04  0.13353970382E+04  0.25500000920E-02 0.  1.
       -2    1    3    3    0  502 -0.49632898005E+03 -0.17328612844E+03 -0.10531919782E+03  0.53615545523E+03  0.25500000920E-02 0. -1.
</event>
<event>
 5   0  0.7454828E-04  0.1507439E+04  0.7818609E-02  0.8879521E-01
       -2   -1    0    0    0  501  0.00000000000E+00  0.00000000000E+00  0.27010107554E+03  0.27010107556E+03  0.25500000920E-02 0.  1.
        2   -1    0    0  501    0  0.00000000000E+00  0.00000000000E+00 -0.21032621060E+04  0.21032621060E+04  0.25500000920E-02 0. -1.
    10030    2    1    2    0    0  0.00000000000E+00  0.00000000000E+00 -0.18331610305E+04  0.23733631816E+04  0.15074393613E+04 0.  0.
        3    1    3    3  502    0 -0.96304267397E+02 -0.15216182699E+03 -0.20688955642E+04  0.20767177466E+04  0.10100000352E+00 0. -1.
       -3    1    3    3    0  502  0.96304267397E+02  0.15216182699E+03  0.23573453368E+03  0.29664543496E+03  0.10100000352E+00 0.  1.
</event>
<event>
 5   0  0.7547580E-04  0.1505834E+04  0.7818609E-02  0.8880583E-01
        2   -1    0    0  501    0  0.00000000000E+00  0.00000000000E+00  0.87978285349E+03  0.87978285350E+03  0.25500000920E-02 0. -1.
       -2   -1    0    0    0  501  0.00000000000E+00  0.00000000000E+00 -0.64434503436E+03  0.64434503437E+03  0.25500000920E-02 0.  1.
    10030    2    1    2    0    0  0.00000000000E+00  0.00000000000E+00  0.23543781913E+03  0.15241278879E+04  0.15058336070E+04 0.  0.
        4    1    3    3  502    0 -0.36803639122E+03 -0.67495190810E+02 -0.54357595179E+03  0.65991121699E+03  0.12699999809E+01 0.  1.
       -4    1    3    3    0  502  0.36803639122E+03  0.67495190810E+02  0.77901377092E+03  0.86421667088E+03  0.12699999809E+01 0. -1.
</event>
<event>
 5   0  0.7454828E-04  0.1485712E+04  0.7818609E-02  0.8894010E-01
       -2   -1    0    0    0  501  0.00000000000E+00  0.00000000000E+00  0.10093723665E+04  0.10093723665E+04  0.25500000920E-02 0.  1.
        2   -1    0    0  501    0  0.00000000000E+00  0.00000000000E+00 -0.54671117016E+03  0.54671117016E+03  0.25500000920E-02 0. -1.
    10030    2    1    2    0    0  0.00000000000E+00  0.00000000000E+00  0.46266119633E+03  0.15560835367E+04  0.14857121493E+04 0.  0.
        3    1    3    3  502    0 -0.19873998106E+03 -0.27348942010E+03 -0.46146904852E+03  0.57205571051E+03  0.10100000352E+00 0. -1.
       -3    1    3    3    0  502  0.19873998106E+03  0.27348942010E+03  0.92413024486E+03  0.98402782615E+03  0.10100000352E+00 0.  1.
</event>
<event>
 5   0  0.4015204E-04  0.1387709E+04  0.7818609E-02  0.8962764E-01
        1   -1    0    0  501    0  0.00000000000E+00  0.00000000000E+00  0.10578248982E+04  0.10578248983E+04  0.50400001928E-02 0.  1.
       -1   -1    0    0    0  501  0.00000000000E+00  0.00000000000E+00 -0.45511686106E+03  0.45511686109E+03  0.50400001928E-02 0. -1.
    10030    2    1    2    0    0  0.00000000000E+00  0.00000000000E+00  0.60270803719E+03  0.15129417593E+04  0.13877088272E+04 0.  0.
        2    1    3    3  502    0  0.40863240093E+02  0.10815535095E+03 -0.44454093381E+03  0.45932997525E+03  0.25500000920E-02 0. -1.
       -2    1    3    3    0  502 -0.40863240093E+02 -0.10815535095E+03  0.10472489710E+04  0.10536117841E+04  0.25500000920E-02 0.  1.
</event>
<event>
 5   0  0.7634227E-04  0.1506593E+04  0.7818609E-02  0.8880080E-01
       -2   -1    0    0    0  501  0.00000000000E+00  0.00000000000E+00  0.48888929861E+03  0.48888929861E+03  0.25500000920E-02 0. -1.
        2   -1    0    0  501    0  0.00000000000E+00  0.00000000000E+00 -0.11607036110E+04  0.11607036110E+04  0.25500000920E-02 0.  1.
    10030    2    1    2    0    0  0.00000000000E+00  0.00000000000E+00 -0.67181431236E+03  0.16495929096E+04  0.15065929434E+04 0.  0.
        2    1    3    3  502    0  0.59671250615E+03  0.37165482354E+03 -0.39545798679E+02  0.70410012999E+03  0.25500000920E-02 0. -1.
       -2    1    3    3    0  502 -0.59671250615E+03 -0.37165482354E+03 -0.63226851368E+03  0.94549277959E+03  0.25500000920E-02 0.  1.
</event>
<event>
 5   0  0.4058874E-04  0.1511638E+04  0.7818609E-02  0.8876750E-01
        1   -1    0    0  501    0  0.00000000000E+00  0.00000000000E+00  0.53273249720E+03  0.53273249722E+03  0.50400001928E-02 0. -1.
       -1   -1    0    0    0  501  0.00000000000E+00  0.00000000000E+00 -0.10723252960E+04  0.10723252960E+04  0.50400001928E-02 0.  1.
    10030    2    1    2    0    0  0.00000000000E+00  0.00000000000E+00 -0.53959279880E+03  0.16050577932E+04  0.15116382276E+04 0.  0.
        4    1    3    3  502    0  0.34816377008E+03  0.57079115860E+03  0.10446424681E+03  0.67670891031E+03  0.12699999809E+01 0. -1.
       -4    1    3    3    0  502 -0.34816377008E+03 -0.57079115860E+03 -0.64405704561E+03  0.92834888293E+03  0.12699999809E+01 0.  1.
</event>
<event>
 5   0  0.4058874E-04  0.1511579E+04  0.7818609E-02  0.8876789E-01
        1   -1    0    0  501    0  0.00000000000E+00  0.00000000000E+00  0.68978289993E+03  0.68978289995E+03  0.50400001928E-02 0. -1.
       -1   -1    0    0    0  501  0.00000000000E+00  0.00000000000E+00 -0.82811260824E+03  0.82811260826E+03  0.50400001928E-02 0.  1.
    10030    2    1    2    0    0  0.00000000000E+00  0.00000000000E+00 -0.13832970831E+03  0.15178955082E+04  0.15115791959E+04 0.  0.
        4    1    3    3  502    0  0.13602766113E+03 -0.87113352989E+02 -0.81057519358E+03  0.82651437871E+03  0.12699999809E+01 0.  1.
       -4    1    3    3    0  502 -0.13602766113E+03  0.87113352989E+02  0.67224548527E+03  0.69138112950E+03  0.12699999809E+01 0. -1.
</event>
<event>
 5   0  0.7547580E-04  0.1466836E+04  0.7818609E-02  0.8906811E-01
       -2   -1    0    0    0  501  0.00000000000E+00  0.00000000000E+00  0.10881068980E+04  0.10881068980E+04  0.25500000920E-02 0. -1.
        2   -1    0    0  501    0  0.00000000000E+00  0.00000000000E+00 -0.49434672916E+03  0.49434672917E+03  0.25500000920E-02 0.  1.
    10030    2    1    2    0    0  0.00000000000E+00  0.00000000000E+00  0.59376016880E+03  0.15824536271E+04  0.14668361681E+04 0.  0.
        4    1    3    3  502    0  0.54025864420E+03 -0.40165786360E+03 -0.17077266773E+02  0.67342533956E+03  0.12699999809E+01 0.  1.
       -4    1    3    3    0  502 -0.54025864420E+03  0.40165786360E+03  0.61083743557E+03  0.90902828758E+03  0.12699999809E+01 0. -1.
</event>
<event>
 5   0  0.4086710E-04  0.1502224E+04  0.7818609E-02  0.8882976E-01
        1   -1    0    0  501    0  0.00000000000E+00  0.00000000000E+00  0.13048533703E+04  0.13048533703E+04  0.50400001928E-02 0.  1.
       -1   -1    0    0    0  501  0.00000000000E+00  0.00000000000E+00 -0.43236199637E+03  0.43236199640E+03  0.50400001928E-02 0. -1.
    10030    2    1    2    0    0  0.00000000000E+00  0.00000000000E+00  0.87249137388E+03  0.17372153667E+04  0.15022236960E+04 0.  0.
        3    1    3    3  502    0  0.19483004630E+03 -0.77535983741E+02 -0.39782636555E+03  0.44970701911E+03  0.10100000352E+00 0. -1.
       -3    1    3    3    0  502 -0.19483004630E+03  0.77535983741E+02  0.12703177394E+04  0.12875083476E+04  0.10100000352E+00 0.  1.
</event>
<event>
 5   0  0.4015204E-04  0.1482734E+04  0.7818609E-02  0.8896016E-01
       -1   -1    0    0    0  501  0.00000000000E+00  0.00000000000E+00  0.38494347311E+03  0.38494347314E+03  0.50400001928E-02 0.  1.
        1   -1    0    0  501    0  0.00000000000E+00  0.00000000000E+00 -0.14278076167E+04  0.14278076167E+04  0.50400001928E-02 0. -1.
    10030    2    1    2    0    0  0.00000000000E+00  0.00000000000E+00 -0.10428641436E+04  0.18127510899E+04  0.14827342620E+04 0.  0.
        2    1    3    3  502    0 -0.31279336189E+03  0.25360433292E+03  0.23958448433E+03  0.46856757256E+03  0.25500000920E-02 0.  1.
       -2    1    3    3    0  502  0.31279336189E+03 -0.25360433292E+03 -0.12824486280E+04  0.13441835173E+04  0.25500000920E-02 0. -1.
</event>
<event>
 5   0  0.7454828E-04  0.1498642E+04  0.7818609E-02  0.8885356E-01
       -2   -1    0    0    0  501  0.00000000000E+00  0.00000000000E+00  0.31072129499E+03  0.31072129500E+03  0.25500000920E-02 0. -1.
        2   -1    0    0  501    0  0.00000000000E+00  0.00000000000E+00 -0.18070282768E+04  0.18070282768E+04  0.25500000920E-02 0.  1.
    10030    2    1    2    0    0  0.00000000000E+00  0.00000000000E+00 -0.14963069819E+04  0.21177495719E+04  0.14986422739E+04 0.  0.
        3    1    3    3  502    0  0.46010702607E+03  0.22350777290E+03  0.25617930959E+02  0.51216256069E+03  0.10100000352E+00 0. -1.
       -3    1    3    3    0  502 -0.46010702607E+03 -0.22350777290E+03 -0.15219249128E+04  0.16055870112E+04  0.10100000352E+00 0.  1.
</event>
<event>
 5   0  0.7454828E-04  0.1502614E+04  0.7818609E-02  0.8882717E-01
       -2   -1    0    0    0  501  0.00000000000E+00  0.00000000000E+00  0.10481056322E+04  0.10481056322E+04  0.25500000920E-02 0. -1.
        2   -1    0    0  501    0  0.00000000000E+00  0.00000000000E+00 -0.53855455329E+03  0.53855455330E+03  0.25500000920E-02 0.  1.
    10030    2    1    2    0    0  0.00000000000E+00  0.00000000000E+00  0.50955107890E+03  0.15866601855E+04  0.15026138034E+04 0.  0.
        3    1    3    3  502    0 -0.23383760564E+03  0.24077957090E+03  0.96453817805E+03  0.10212681992E+04  0.10100000352E+00 0. -1.
       -3    1    3    3    0  502  0.23383760564E+03 -0.24077957090E+03 -0.45498709915E+03  0.56539198630E+03  0.10100000352E+00 0.  1.
</event>
<event>
 5   0  0.7547580E-04  0.1516656E+04  0.7818609E-02  0.8873452E-01
       -2   -1    0    0    0  501  0.00000000000E+00  0.00000000000E+00  0.33659574388E+03  0.33659574389E+03  0.25500000920E-02 0.  1.
        2   -1    0    0  501    0  0.00000000000E+00  0.00000000000E+00 -0.17084634479E+04  0.17084634479E+04  0.25500000920E-02 0. -1.
    10030    2    1    2    0    0  0.00000000000E+00  0.00000000000E+00 -0.13718677040E+04  0.20450591918E+04  0.15166562236E+04 0.  0.
        4    1    3    3  502    0  0.32690335623E+03  0.53757087285E+03 -0.11511032064E+03  0.63960944838E+03  0.12699999809E+01 0.  1.
       -4    1    3    3    0  502 -0.32690335623E+03 -0.53757087285E+03 -0.12567573833E+04  0.14054497434E+04  0.12699999809E+01 0. -1.
</event>
<event>
 5   0  0.4084462E-04  0.1488109E+04  0.7818609E-02  0.8892399E-01
        1   -1    0    0  501    0  0.00000000000E+00  0.00000000000E+00  0.52668876445E+03  0.52668876447E+03  0.50400001928E-02 0.  1.
       -1   -1    0    0    0  501  0.00000000000E+00  0.00000000000E+00 -0.10511279565E+04  0.10511279565E+04  0.50400001928E-02 0. -1.
    10030    2    1    2    0    0  0.00000000000E+00  0.00000000000E+00 -0.52443919203E+03  0.15778167210E+04  0.14881092496E+04 0.  0.
        1    1    3    3  502    0  0.94059171041E+02 -0.38490770183E+03 -0.92995894993E+03  0.10108534588E+04  0.50400001928E-02 0. -1.
       -1    1    3    3    0  502 -0.94059171041E+02  0.38490770183E+03  0.40551975789E+03  0.56696326217E+03  0.50400001928E-02 0.  1.
</event>
<event>
 5   0  0.7547580E-04  0.1232683E+04  0.7818609E-02  0.9084721E-01
        2   -1    0    0  501    0  0.00000000000E+00  0.00000000000E+00  0.15121700068E+04  0.15121700068E+04  0.25500000920E-02 0.  1.
       -2   -1    0    0    0  501  0.00000000000E+00  0.00000000000E+00 -0.25121293063E+03  0.25121293065E+03  0.25500000920E-02 0. -1.
    10030    2    1    2    0    0  0.00000000000E+00  0.00000000000E+00  0.12609570762E+04  0.17633829375E+04  0.12326826989E+04 0.  0.
        4    1    3    3  502    0 -0.12448287024E+03  0.37496112879E+03  0.13071986538E+04  0.13655994166E+04  0.12699999809E+01 0.  1.
       -4    1    3    3    0  502  0.12448287024E+03 -0.37496112879E+03 -0.46241577640E+02  0.39778352089E+03  0.12699999809E+01 0. -1.
</event>
<event>
 5   0  0.4086710E-04  0.1495575E+04  0.7818609E-02  0.8887401E-01
        1   -1    0    0  501    0  0.00000000000E+00  0.00000000000E+00  0.80127423190E+03  0.80127423192E+03  0.50400001928E-02 0. -1.
       -1   -1    0    0    0  501  0.00000000000E+00  0.00000000000E+00 -0.69787126844E+03  0.69787126846E+03  0.50400001928E-02 0.  1.
    10030    2    1    2    0    0  0.00000000000E+00  0.00000000000E+00  0.10340296346E+03  0.14991455004E+04  0.14955751598E+04 0.  0.
        3    1    3    3  502    0  0.35615768963E+03  0.19078770931E+03 -0.57903672248E+03  0.70606783391E+03  0.10100000352E+00 0.  1.
       -3    1    3    3    0  502 -0.35615768963E+03 -0.19078770931E+03  0.68243968594E+03  0.79307766647E+03  0.10100000352E+00 0. -1.
</event>
<event>
 5   0  0.7454828E-04  0.1491512E+04  0.7818609E-02  0.8890117E-01
       -2   -1    0    0    0  501  0.00000000000E+00  0.00000000000E+00  0.14599525180E+04  0.14599525181E+04  0.25500000920E-02 0.  1.
        2   -1    0    0  501    0  0.00000000000E+00  0.00000000000E+00 -0.38093838774E+03  0.38093838775E+03  0.25500000920E-02 0. -1.
    10030    2    1    2    0    0  0.00000000000E+00  0.00000000000E+00  0.10790141303E+04  0.18408909058E+04  0.14915119288E+04 0.  0.
        3    1    3    3  502    0  0.26345518430E+03  0.34978991419E+03 -0.20554177481E+03  0.48374481868E+03  0.10100000352E+00 0. -1.
       -3    1    3    3    0  502 -0.26345518430E+03 -0.34978991419E+03  0.12845559051E+04  0.13571460871E+04  0.10100000352E+00 0.  1.
</event>
<event>
 5   0  0.7454828E-04  0.1495898E+04  0.7818609E-02  0.8887185E-01
       -2   -1    0    0    0  501  0.00000000000E+00  0.00000000000E+00  0.34421329033E+03  0.34421329034E+03  0.25500000920E-02 0. -1.
        2   -1    0    0  501    0  0.00000000000E+00  0.00000000000E+00 -0.16252364778E+04  0.16252364778E+04  0.25500000920E-02 0.  1.
    10030    2    1    2    0    0  0.00000000000E+00  0.00000000000E+00 -0.12810231874E+04  0.19694497681E+04  0.14958983864E+04 0.  0.
        3    1    3    3  502    0 -0.34123474712E+03  0.27237041979E+03  0.15902614922E+03  0.46466775717E+03  0.10100000352E+00 0. -1.
       -3    1    3    3    0  502  0.34123474712E+03 -0.27237041979E+03 -0.14400493367E+04  0.15047820109E+04  0.10100000352E+00 0.  1.
</event>
<event>
 5   0  0.4058874E-04  0.1506255E+04  0.7818609E-02  0.8880304E-01
        1   -1    0    0  501    0  0.00000000000E+00  0.00000000000E+00  0.61726748045E+03  0.61726748047E+03  0.50400001928E-02 0. -1.
       -1   -1    0    0    0  501  0.00000000000E+00  0.00000000000E+00 -0.91888982695E+03  0.91888982696E+03  0.50400001928E-02 0.  1.
    10030    2    1    2    0    0  0.00000000000E+00  0.00000000000E+00 -0.30162234650E+03  0.15361573074E+04  0.15062547040E+04 0.  0.
        4    1    3    3  502    0 -0.35944523148E+03  0.30450249373E+03  0.44845645486E+03  0.65041329009E+03  0.12699999809E+01 0. -1.
       -4    1    3    3    0  502  0.35944523148E+03 -0.30450249373E+03 -0.75007880135E+03  0.88574401734E+03  0.12699999809E+01 0.  1.
</event>
<event>
 5   0  0.4084462E-04  0.1250323E+04  0.7818609E-02  0.9069915E-01
       -1   -1    0    0    0  501  0.00000000000E+00  0.00000000000E+00  0.11634006413E+04  0.11634006413E+04  0.50400001928E-02 0.  1.
        1   -1    0    0  501    0  0.00000000000E+00  0.00000000000E+00 -0.33593465514E+03  0.33593465518E+03  0.50400001928E-02 0. -1.
    10030    2    1    2    0    0  0.00000000000E+00  0.00000000000E+00  0.82746598619E+03  0.14993352965E+04  0.12503225076E+04 0.  0.
        1    1    3    3  502    0  0.21553248183E+03  0.44738829514E+03 -0.41657041759E+02  0.49834310119E+03  0.50400001928E-02 0. -1.
       -1    1    3    3    0  502 -0.21553248183E+03 -0.44738829514E+03  0.86912302795E+03  0.10009921953E+04  0.50400001928E-02 0.  1.
</event>
<event>
 5   0  0.7359897E-04  0.1502387E+04  0.7818609E-02  0.8882867E-01
        2   -1    0    0  501    0  0.00000000000E+00  0.00000000000E+00  0.10377392588E+04  0.10377392588E+04  0.25500000920E-02 0. -1.
       -2   -1    0    0    0  501  0.00000000000E+00  0.00000000000E+00 -0.54376991550E+03  0.54376991551E+03  0.25500000920E-02 0.  1.
    10030    2    1    2    0    0  0.00000000000E+00  0.00000000000E+00  0.49396934326E+03  0.15815091743E+04  0.15023866201E+04 0.  0.
        1    1    3    3  502    0 -0.48033003760E+03  0.45072283459E+03 -0.13317646538E+03  0.67201487305E+03  0.50400001928E-02 0.  1.
       -1    1    3    3    0  502  0.48033003760E+03 -0.45072283459E+03  0.62714580864E+03  0.90949430123E+03  0.50400001928E-02 0. -1.
</event>
<event>
 5   0  0.4058874E-04  0.1505067E+04  0.7818609E-02  0.8881090E-01
       -1   -1    0    0    0  501  0.00000000000E+00  0.00000000000E+00  0.31292606460E+03  0.31292606464E+03  0.50400001928E-02 0.  1.
        1   -1    0    0  501    0  0.00000000000E+00  0.00000000000E+00 -0.18097148382E+04  0.18097148382E+04  0.50400001928E-02 0. -1.
    10030    2    1    2    0    0  0.00000000000E+00  0.00000000000E+00 -0.14967887736E+04  0.21226409028E+04  0.15050673638E+04 0.  0.
        4    1    3    3  502    0  0.33387155863E+03 -0.39576586252E+03  0.21759802590E+02  0.51824312587E+03  0.12699999809E+01 0.  1.
       -4    1    3    3    0  502 -0.33387155863E+03  0.39576586252E+03 -0.15185485762E+04  0.16043977769E+04  0.12699999809E+01 0. -1.
</event>
<event>
 5   0  0.7672251E-04  0.1537985E+04  0.7818609E-02  0.8859579E-01
        2   -1    0    0  501    0  0.00000000000E+00  0.00000000000E+00  0.53707652186E+03  0.53707652187E+03  0.25500000920E-02 0.  1.
       -2   -1    0    0    0  501  0.00000000000E+00  0.00000000000E+00 -0.11010532099E+04  0.11010532099E+04  0.25500000920E-02 0. -1.
    10030    2    1    2    0    0  0.00000000000E+00  0.00000000000E+00 -0.56397668808E+03  0.16381297318E+04  0.15379854725E+04 0.  0.
        5    1    3    3  502    0  0.18829229347E+03 -0.45319297416E+03  0.34858237503E+03  0.60197144599E+03  0.46999998093E+01 0.  1.
       -5    1    3    3    0  502 -0.18829229347E+03  0.45319297416E+03 -0.91255906311E+03  0.10361582858E+04  0.46999998093E+01 0. -1.
</event>
<event>
 5   0  0.4015204E-04  0.1358072E+04  0.7818609E-02  0.8984740E-01
       -1   -1    0    0    0  501  0.00000000000E+00  0.00000000000E+00  0.92772319094E+03  0.92772319096E+03  0.50400001928E-02 0.  1.
        1   -1    0    0  501    0  0.00000000000E+00  0.00000000000E+00 -0.49701201881E+03  0.49701201884E+03  0.50400001928E-02 0. -1.
    10030    2    1    2    0    0  0.00000000000E+00  0.00000000000E+00  0.43071117213E+03  0.14247352098E+04  0.13580715387E+04 0.  0.
        2    1    3    3  502    0  0.59501468235E+02 -0.65323656639E+03  0.39956265778E+03  0.76805517633E+03  0.25500000920E-02 0.  1.
       -2    1    3    3    0  502 -0.59501468235E+02  0.65323656639E+03  0.31148514349E+02  0.65668003346E+03  0.25500000920E-02 0. -1.
</event>
<event>
 5   0  0.3907345E-04  0.1489839E+04  0.7818609E-02  0.8891238E-01
        1   -1    0    0  501    0  0.00000000000E+00  0.00000000000E+00  0.44905747753E+03  0.44905747756E+03  0.50400001928E-02 0. -1.
       -1   -1    0    0    0  501  0.00000000000E+00  0.00000000000E+00 -0.12357103601E+04  0.12357103601E+04  0.50400001928E-02 0.  1.
    10030    2    1    2    0    0  0.00000000000E+00  0.00000000000E+00 -0.78665288259E+03  0.16847678377E+04  0.14898388870E+04 0.  0.
        5    1    3    3  502    0 -0.25813230531E+03  0.18797134270E+03  0.36771840269E+03  0.48703637071E+03  0.46999998093E+01 0. -1.
       -5    1    3    3    0  502  0.25813230531E+03 -0.18797134270E+03 -0.11543712853E+04  0.11977314670E+04  0.46999998093E+01 0.  1.
</event>
<event>
 5   0  0.4084462E-04  0.1486232E+04  0.7818609E-02  0.8893660E-01
       -1   -1    0    0    0  501  0.00000000000E+00  0.00000000000E+00  0.48618011686E+03  0.48618011688E+03  0.50400001928E-02 0. -1.
        1   -1    0    0  501    0  0.00000000000E+00  0.00000000000E+00 -0.11358376980E+04  0.11358376980E+04  0.50400001928E-02 0.  1.
    10030    2    1    2    0    0  0.00000000000E+00  0.00000000000E+00 -0.64965758111E+03  0.16220178149E+04  0.14862324243E+04 0.  0.
        1    1    3    3  502    0 -0.50528851126E+03  0.18004618340E+03  0.23644190046E+03  0.58620634599E+03  0.50400001928E-02 0. -1.
       -1    1    3    3    0  502  0.50528851126E+03 -0.18004618340E+03 -0.88609948157E+03  0.10358114689E+04  0.50400001928E-02 0.  1.
</event>
<event>
 5   0  0.7672251E-04  0.1496920E+04  0.7818609E-02  0.8886503E-01
        2   -1    0    0  501    0  0.00000000000E+00  0.00000000000E+00  0.52378356902E+03  0.52378356902E+03  0.25500000920E-02 0. -1.
       -2   -1    0    0    0  501  0.00000000000E+00  0.00000000000E+00 -0.10695117065E+04  0.10695117065E+04  0.25500000920E-02 0.  1.
    10030    2    1    2    0    0  0.00000000000E+00  0.00000000000E+00 -0.54572813751E+03  0.15932952755E+04  0.14969203837E+04 0.  0.
        5    1    3    3  502    0 -0.98906741677E+02  0.22170703676E+03  0.48069592521E+03  0.53854174973E+03  0.46999998093E+01 0. -1.
       -5    1    3    3    0  502  0.98906741677E+02 -0.22170703676E+03 -0.10264240627E+04  0.10547535258E+04  0.46999998093E+01 0.  1.
</event>
<event>
 5   0  0.4015204E-04  0.1526482E+04  0.7818609E-02  0.8867031E-01
       -1   -1    0    0    0  501  0.00000000000E+00  0.00000000000E+00  0.13194587597E+04  0.13194587597E+04  0.50400001928E-02 0. -1.
        1   -1    0    0  501    0  0.00000000000E+00  0.00000000000E+00 -0.44149684017E+03  0.44149684020E+03  0.50400001928E-02 0.  1.
    10030    2    1    2    0    0  0.00000000000E+00  0.00000000000E+00  0.87796191949E+03  0.17609555999E+04  0.15264820643E+04 0.  0.
        2    1    3    3  502    0 -0.47817879521E+03  0.35168427818E+03  0.99247052360E+03  0.11564318103E+04  0.25500000920E-02 0. -1.
       -2    1    3    3    0  502  0.47817879521E+03 -0.35168427818E+03 -0.11450860411E+03  0.60452378955E+03  0.25500000920E-02 0.  1.
</event>
<event>
 5   0  0.4086710E-04  0.1485295E+04  0.7818609E-02  0.8894291E-01
        1   -1    0    0  501    0  0.00000000000E+00  0.00000000000E+00  0.53041341793E+03  0.53041341795E+03  0.50400001928E-02 0. -1.
       -1   -1    0    0    0  501  0.00000000000E+00  0.00000000000E+00 -0.10398022098E+04  0.10398022098E+04  0.50400001928E-02 0.  1.
    10030    2    1    2    0    0  0.00000000000E+00  0.00000000000E+00 -0.50938879184E+03  0.15702156277E+04  0.14852946429E+04 0.  0.
        3    1    3    3  502    0  0.48569824808E+03  0.26954532063E+03  0.26640531482E+03  0.61605946955E+03  0.10100000352E+00 0. -1.
       -3    1    3    3    0  502 -0.48569824808E+03 -0.26954532063E+03 -0.77579410666E+03  0.95415615818E+03  0.10100000352E+00 0.  1.
</event>
<event>
 5   0  0.7454828E-04  0.1489311E+04  0.7818609E-02  0.8891592E-01
       -2   -1    0    0    0  501  0.00000000000E+00  0.00000000000E+00  0.76506087308E+03  0.76506087308E+03  0.25500000920E-02 0. -1.
        2   -1    0    0  501    0  0.00000000000E+00  0.00000000000E+00 -0.72479422426E+03  0.72479422426E+03  0.25500000920E-02 0.  1.
    10030    2    1    2    0    0  0.00000000000E+00  0.00000000000E+00  0.40266648823E+02  0.14898550973E+04  0.14893108501E+04 0.  0.
        3    1    3    3  502    0  0.42124763816E+03  0.28242974894E+02 -0.59349482412E+03  0.72834288268E+03  0.10100000352E+00 0.  1.
       -3    1    3    3    0  502 -0.42124763816E+03 -0.28242974894E+02  0.63376147295E+03  0.76151221466E+03  0.10100000352E+00 0. -1.
</event>
<event>
 5   0  0.7672251E-04  0.1498815E+04  0.7818609E-02  0.8885241E-01
        2   -1    0    0  501    0  0.00000000000E+00  0.00000000000E+00  0.11544839170E+04  0.11544839170E+04  0.25500000920E-02 0. -1.
       -2   -1    0    0    0  501  0.00000000000E+00  0.00000000000E+00 -0.48646133763E+03  0.48646133764E+03  0.25500000920E-02 0.  1.
    10030    2    1    2    0    0  0.00000000000E+00  0.00000000000E+00  0.66802257935E+03  0.16409452546E+04  0.14988152528E+04 0.  0.
        5    1    3    3  502    0  0.32234861966E+02  0.21220172364E+03 -0.45207312681E+03  0.50046064763E+03  0.46999998093E+01 0.  1.
       -5    1    3    3    0  502 -0.32234861966E+02 -0.21220172364E+03  0.11200957062E+04  0.11404846070E+04  0.46999998093E+01 0. -1.
</event>
<event>
 5   0  0.7359897E-04  0.1204006E+04  0.7818609E-02  0.9109357E-01
        2   -1    0    0  501    0  0.00000000000E+00  0.00000000000E+00  0.17298029147E+04  0.17298029147E+04  0.25500000920E-02 0. -1.
       -2   -1    0    0    0  501  0.00000000000E+00  0.00000000000E+00 -0.20950800334E+03  0.20950800336E+03  0.25500000920E-02 0.  1.
    10030    2    1    2    0    0  0.00000000000E+00  0.00000000000E+00  0.15202949114E+04  0.19393109181E+04  0.12040059051E+04 0.  0.
        1    1    3    3  502    0 -0.20561508365E+03  0.52448862659E+03  0.41830493583E+03  0.70167293051E+03  0.50400001928E-02 0.  1.
       -1    1    3    3    0  502  0.20561508365E+03 -0.52448862659E+03  0.11019899755E+04  0.12376379876E+04  0.50400001928E-02 0. -1.
</event>
<event>
 5   0  0.4058874E-04  0.1497869E+04  0.7818609E-02  0.8885871E-01
       -1   -1    0    0    0  501  0.00000000000E+00  0.00000000000E+00  0.61766705842E+03  0.61766705844E+03  0.50400001928E-02 0. -1.
        1   -1    0    0  501    0  0.00000000000E+00  0.00000000000E+00 -0.90809881396E+03  0.90809881398E+03  0.50400001928E-02 0.  1.
    10030    2    1    2    0    0  0.00000000000E+00  0.00000000000E+00 -0.29043175554E+03  0.15257658724E+04  0.14978687836E+04 0.  0.
        4    1    3    3  502    0 -0.25420275375E+03  0.87936535579E+02  0.56676494472E+03  0.62735634991E+03  0.12699999809E+01 0. -1.
       -4    1    3    3    0  502  0.25420275375E+03 -0.87936535579E+02 -0.85719670026E+03  0.89840952251E+03  0.12699999809E+01 0.  1.
</event>
<event>
 5   0  0.4086710E-04  0.1500687E+04  0.7818609E-02  0.8883996E-01
       -1   -1    0    0    0  501  0.00000000000E+00  0.00000000000E+00  0.81799120866E+03  0.81799120867E+03  0.50400001928E-02 0.  1.
        1   -1    0    0  501    0  0.00000000000E+00  0.00000000000E+00 -0.68828991525E+03  0.68828991527E+03  0.50400001928E-02 0. -1.
    10030    2    1    2    0    0  0.00000000000E+00  0.00000000000E+00  0.12970129341E+03  0.15062811239E+04  0.15006866424E+04 0.  0.
        3    1    3    3  502    0  0.72747758374E+03 -0.14922093786E+03 -0.42902091019E+02  0.74386230094E+03  0.10100000352E+00 0. -1.
       -3    1    3    3    0  502 -0.72747758374E+03  0.14922093786E+03  0.17260338443E+03  0.76241882300E+03  0.10100000352E+00 0.  1.
</event>
<event>
 5   0  0.4084462E-04  0.1502102E+04  0.7818609E-02  0.8883057E-01
        1   -1    0    0  501    0  0.00000000000E+00  0.00000000000E+00  0.11336334969E+04  0.11336334969E+04  0.50400001928E-02 0. -1.
       -1   -1    0    0    0  501  0.00000000000E+00  0.00000000000E+00 -0.49758352781E+03  0.49758352783E+03  0.50400001928E-02 0.  1.
    10030    2    1    2    0    0  0.00000000000E+00  0.00000000000E+00  0.63604996905E+03  0.16312170247E+04  0.15021016672E+04 0.  0.
        1    1    3    3  502    0 -0.39042010168E+03  0.61761354608E+03  0.50675349201E+03  0.88919820613E+03  0.50400001928E-02 0.  1.
       -1    1    3    3    0  502  0.39042010168E+03 -0.61761354608E+03  0.12929647704E+03  0.74201881856E+03  0.50400001928E-02 0. -1.
</event>
<event>
 5   0  0.7634227E-04  0.1401031E+04  0.7818609E-02  0.8953073E-01
        2   -1    0    0  501    0  0.00000000000E+00  0.00000000000E+00  0.12055925827E+04  0.12055925827E+04  0.25500000920E-02 0.  1.
       -2   -1    0    0    0  501  0.00000000000E+00  0.00000000000E+00 -0.40703777198E+03  0.40703777198E+03  0.25500000920E-02 0. -1.
    10030    2    1    2    0    0  0.00000000000E+00  0.00000000000E+00  0.79855481073E+03  0.16126303547E+04  0.14010306475E+04 0.  0.
        2    1    3    3  502    0 -0.15919123804E+03  0.66788806581E+03  0.55920617554E+03  0.88550994658E+03  0.25500000920E-02 0. -1.
       -2    1    3    3    0  502  0.15919123804E+03 -0.66788806581E+03  0.23934863520E+03  0.72712040812E+03  0.25500000920E-02 0.  1.
</event>
<event>
 5   0  0.4084462E-04  0.1500593E+04  0.7818609E-02  0.8884059E-01
        1   -1    0    0  501    0  0.00000000000E+00  0.00000000000E+00  0.60643406221E+03  0.60643406223E+03  0.50400001928E-02 0. -1.
       -1   -1    0    0    0  501  0.00000000000E+00  0.00000000000E+00 -0.92828709223E+03  0.92828709225E+03  0.50400001928E-02 0.  1.
    10030    2    1    2    0    0  0.00000000000E+00  0.00000000000E+00 -0.32185303002E+03  0.15347211545E+04  0.15005930991E+04 0.  0.
        1    1    3    3  502    0 -0.12629139123E+03  0.57522629404E+03 -0.63637566371E+03  0.86706908043E+03  0.50400001928E-02 0.  1.
       -1    1    3    3    0  502  0.12629139123E+03 -0.57522629404E+03  0.31452263369E+03  0.66765207405E+03  0.50400001928E-02 0. -1.
</event>
<event>
 5   0  0.2800375E-04  0.1492079E+04  0.7818609E-02  0.8889737E-01
        4   -1    0    0  501    0  0.00000000000E+00  0.00000000000E+00  0.44089000022E+03  0.44089182936E+03  0.12699999809E+01 0.  1.
       -4   -1    0    0    0  501  0.00000000000E+00  0.00000000000E+00 -0.12623849192E+04  0.12623855581E+04  0.12699999809E+01 0. -1.
    10030    2    1    2    0    0  0.00000000000E+00  0.00000000000E+00 -0.82149491900E+03  0.17032773874E+04  0.14920790718E+04 0.  0.
        5    1    3    3  502    0 -0.58425463832E+02  0.59559751034E+03  0.97725223946E+02  0.60640105420E+03  0.46999998093E+01 0.  1.
       -5    1    3    3    0  502  0.58425463832E+02 -0.59559751034E+03 -0.91922014295E+03  0.10968763332E+04  0.46999998093E+01 0. -1.
</event>
<event>
 5   0  0.4058874E-04  0.1494677E+04  0.7818609E-02  0.8888001E-01
        1   -1    0    0  501    0  0.00000000000E+00  0.00000000000E+00  0.11182260270E+04  0.11182260270E+04  0.50400001928E-02 0. -1.
       -1   -1    0    0    0  501  0.00000000000E+00  0.00000000000E+00 -0.49946476182E+03  0.49946476185E+03  0.50400001928E-02 0.  1.
    10030    2    1    2    0    0  0.00000000000E+00  0.00000000000E+00  0.61876126516E+03  0.16176907888E+04  0.14946765486E+04 0.  0.
        4    1    3    3  502    0 -0.44796380903E+03 -0.12927001593E+03 -0.32275258648E+03  0.56705657231E+03  0.12699999809E+01 0.  1.
       -4    1    3    3    0  502  0.44796380903E+03  0.12927001593E+03  0.94151385164E+03  0.10506342165E+04  0.12699999809E+01 0. -1.
</event>
<event>
 5   0  0.7359897E-04  0.1496839E+04  0.7818609E-02  0.8886558E-01
        2   -1    0    0  501    0  0.00000000000E+00  0.00000000000E+00  0.65692816918E+03  0.65692816919E+03  0.25500000920E-02 0. -1.
       -2   -1    0    0    0  501  0.00000000000E+00  0.00000000000E+00 -0.85265242597E+03  0.85265242598E+03  0.25500000920E-02 0.  1.
    10030    2    1    2    0    0  0.00000000000E+00  0.00000000000E+00 -0.19572425679E+03  0.15095805952E+04  0.14968385312E+04 0.  0.
        1    1    3    3  502    0 -0.78946424289E+02  0.61455257535E+03  0.32550181446E+03  0.69989916203E+03  0.50400001928E-02 0. -1.
       -1    1    3    3    0  502  0.78946424289E+02 -0.61455257535E+03 -0.52122607125E+03  0.80968143313E+03  0.50400001928E-02 0.  1.
</event>
<event>
 5   0  0.7454828E-04  0.1491857E+04  0.7818609E-02  0.8889886E-01
        2   -1    0    0  501    0  0.00000000000E+00  0.00000000000E+00  0.51691222804E+03  0.51691222805E+03  0.25500000920E-02 0. -1.
       -2   -1    0    0    0  501  0.00000000000E+00  0.00000000000E+00 -0.10764094329E+04  0.10764094329E+04  0.25500000920E-02 0.  1.
    10030    2    1    2    0    0  0.00000000000E+00  0.00000000000E+00 -0.55949720488E+03  0.15933216610E+04  0.14918568273E+04 0.  0.
        3    1    3    3  502    0  0.36563726230E+03 -0.63573046365E+03 -0.13422682888E+03  0.74556064931E+03  0.10100000352E+00 0.  1.
       -3    1    3    3    0  502 -0.36563726230E+03  0.63573046365E+03 -0.42527037601E+03  0.84776101167E+03  0.10100000352E+00 0. -1.
</event>
<event>
 5   0  0.4015204E-04  0.1480951E+04  0.7818609E-02  0.8897220E-01
        1   -1    0    0  501    0  0.00000000000E+00  0.00000000000E+00  0.11632731222E+04  0.11632731222E+04  0.50400001928E-02 0.  1.
       -1   -1    0    0    0  501  0.00000000000E+00  0.00000000000E+00 -0.47134614386E+03  0.47134614388E+03  0.50400001928E-02 0. -1.
    10030    2    1    2    0    0  0.00000000000E+00  0.00000000000E+00  0.69192697834E+03  0.16346192661E+04  0.14809514515E+04 0.  0.
        2    1    3    3  502    0 -0.50106359552E+03  0.14954561068E+03 -0.23272381322E+03  0.57235390247E+03  0.25500000920E-02 0. -1.
       -2    1    3    3    0  502  0.50106359552E+03 -0.14954561068E+03  0.92465079155E+03  0.10622653636E+04  0.25500000920E-02 0.  1.
</event>
<event>
 5   0  0.2800375E-04  0.1507826E+04  0.7818609E-02  0.8879266E-01
       -3   -1    0    0    0  501  0.00000000000E+00  0.00000000000E+00  0.12396933444E+04  0.12396933486E+04  0.10100000352E+00 0.  1.
        3   -1    0    0  501    0  0.00000000000E+00  0.00000000000E+00 -0.45848800567E+03  0.45848801680E+03  0.10100000352E+00 0. -1.
    10030    2    1    2    0    0  0.00000000000E+00  0.00000000000E+00  0.78120533878E+03  0.16981813654E+04  0.15078256425E+04 0.  0.
        3    1    3    3  502    0 -0.14564575779E+03  0.71112573573E+02  0.12198395264E+04  0.12305601023E+04  0.10100000352E+00 0.  1.
       -3    1    3    3    0  502  0.14564575779E+03 -0.71112573573E+02 -0.43863418767E+03  0.46762126307E+03  0.10100000352E+00 0. -1.
</event>
<event>
 5   0  0.3907345E-04  0.1544928E+04  0.7818609E-02  0.8855114E-01
        1   -1    0    0  501    0  0.00000000000E+00  0.00000000000E+00  0.70441991423E+03  0.70441991425E+03  0.50400001928E-02 0. -1.
       -1   -1    0    0    0  501  0.00000000000E+00  0.00000000000E+00 -0.84708130722E+03  0.84708130724E+03  0.50400001928E-02 0.  1.
    10030    2    1    2    0    0  0.00000000000E+00  0.00000000000E+00 -0.14266139299E+03  0.15515012215E+04  0.15449284020E+04 0.  0.
        5    1    3    3  502    0 -0.59281216196E+03 -0.95100187832E+02 -0.55941132173E+03  0.82062989342E+03  0.46999998093E+01 0.  1.
       -5    1    3    3    0  502  0.59281216196E+03  0.95100187832E+02  0.41674992874E+03  0.73087132807E+03  0.46999998093E+01 0. -1.
</event>
<event>
 5   0  0.7672251E-04  0.1491215E+04  0.7818609E-02  0.8890316E-01
       -2   -1    0    0    0  501  0.00000000000E+00  0.00000000000E+00  0.18570239844E+04  0.18570239844E+04  0.25500000920E-02 0.  1.
        2   -1    0    0  501    0  0.00000000000E+00  0.00000000000E+00 -0.29936645179E+03  0.29936645180E+03  0.25500000920E-02 0. -1.
    10030    2    1    2    0    0  0.00000000000E+00  0.00000000000E+00  0.15576575326E+04  0.21563904362E+04  0.14912151838E+04 0.  0.
        5    1    3    3  502    0 -0.68363530431E+03 -0.45791953253E+01  0.34856648514E+03  0.76739747387E+03  0.46999998093E+01 0. -1.
       -5    1    3    3    0  502  0.68363530431E+03  0.45791953253E+01  0.12090910475E+04  0.13889929624E+04  0.46999998093E+01 0.  1.
</event>
<event>
 5   0  0.7359897E-04  0.1491516E+04  0.7818609E-02  0.8890115E-01
       -2   -1    0    0    0  501  0.00000000000E+00  0.00000000000E+00  0.10204490187E+04  0.10204490187E+04  0.25500000920E-02 0. -1.
        2   -1    0    0  501    0  0.00000000000E+00  0.00000000000E+00 -0.54500985247E+03  0.54500985247E+03  0.25500000920E-02 0.  1.
    10030    2    1    2    0    0  0.00000000000E+00  0.00000000000E+00  0.47543916620E+03  0.15654588711E+04  0.14915156977E+04 0.  0.
        1    1    3    3  502    0  0.36050846637E+03 -0.49753977229E+03 -0.20589553326E+03  0.64800088733E+03  0.50400001928E-02 0.  1.
       -1    1    3    3    0  502 -0.36050846637E+03  0.49753977229E+03  0.68133469947E+03  0.91745798381E+03  0.50400001928E-02 0. -1.
</event>
<event>
 5   0  0.3907345E-04  0.1494206E+04  0.7818609E-02  0.8888315E-01
       -1   -1    0    0    0  501  0.00000000000E+00  0.00000000000E+00  0.49989018321E+03  0.49989018323E+03  0.50400001928E-02 0.  1.
        1   -1    0    0  501    0  0.00000000000E+00  0.00000000000E+00 -0.11165709021E+04  0.11165709021E+04  0.50400001928E-02 0. -1.
    10030    2    1    2    0    0  0.00000000000E+00  0.00000000000E+00 -0.61668071885E+03  0.16164610853E+04  0.14942059200E+04 0.  0.
        5    1    3    3  502    0  0.65386342709E+03  0.18920719901E+03 -0.64143536885E+03  0.93530645665E+03  0.46999998093E+01 0. -1.
       -5    1    3    3    0  502 -0.65386342709E+03 -0.18920719901E+03  0.24754649999E+02  0.68115462865E+03  0.46999998093E+01 0.  1.
</event>
<event>
 5   0  0.4058874E-04  0.1504988E+04  0.7818609E-02  0.8881143E-01
       -1   -1    0    0    0  501  0.00000000000E+00  0.00000000000E+00  0.65725023685E+03  0.65725023687E+03  0.50400001928E-02 0.  1.
        1   -1    0    0  501    0  0.00000000000E+00  0.00000000000E+00 -0.86153999309E+03  0.86153999310E+03  0.50400001928E-02 0. -1.
    10030    2    1    2    0    0  0.00000000000E+00  0.00000000000E+00 -0.20428975624E+03  0.15187902300E+04  0.15049881920E+04 0.  0.
        4    1    3    3  502    0  0.30376149736E+03  0.25605586948E+02  0.59214638171E+03  0.66600723993E+03  0.12699999809E+01 0.  1.
       -4    1    3    3    0  502 -0.30376149736E+03 -0.25605586948E+02 -0.79643613795E+03  0.85278299004E+03  0.12699999809E+01 0. -1.
</event>
<event>
 5   0  0.7547580E-04  0.1499793E+04  0.7818609E-02  0.8884591E-01
       -2   -1    0    0    0  501  0.00000000000E+00  0.00000000000E+00  0.26841646651E+03  0.26841646653E+03  0.25500000920E-02 0.  1.
        2   -1    0    0  501    0  0.00000000000E+00  0.00000000000E+00 -0.20950456060E+04  0.20950456060E+04  0.25500000920E-02 0. -1.
    10030    2    1    2    0    0  0.00000000000E+00  0.00000000000E+00 -0.18266291395E+04  0.23634620725E+04  0.14997929707E+04 0.  0.
        4    1    3    3  502    0  0.27066647406E+03  0.21522074263E+03  0.13526862907E+03  0.37132132062E+03  0.12699999809E+01 0.  1.
       -4    1    3    3    0  502 -0.27066647406E+03 -0.21522074263E+03 -0.19618977685E+04  0.19921407519E+04  0.12699999809E+01 0. -1.
</event>
<event>
 5   0  0.7454828E-04  0.1498220E+04  0.7818609E-02  0.8885637E-01
       -2   -1    0    0    0  501  0.00000000000E+00  0.00000000000E+00  0.50866284360E+03  0.50866284361E+03  0.25500000920E-02 0.  1.
        2   -1    0    0  501    0  0.00000000000E+00  0.00000000000E+00 -0.11032176656E+04  0.11032176656E+04  0.25500000920E-02 0. -1.
    10030    2    1    2    0    0  0.00000000000E+00  0.00000000000E+00 -0.59455482195E+03  0.16118805092E+04  0.14982200571E+04 0.  0.
        3    1    3    3  502    0 -0.44670516665E+03  0.43051310296E+03 -0.74898487163E+03  0.97255610937E+03  0.10100000352E+00 0. -1.
       -3    1    3    3    0  502  0.44670516665E+03 -0.43051310296E+03  0.15443004968E+03  0.63932439980E+03  0.10100000352E+00 0.  1.
</event>
<event>
 5   0  0.7672251E-04  0.1556933E+04  0.7818609E-02  0.8847451E-01
        2   -1    0    0  501    0  0.00000000000E+00  0.00000000000E+00  0.79259977545E+03  0.79259977545E+03  0.25500000920E-02 0.  1.
       -2   -1    0    0    0  501  0.00000000000E+00  0.00000000000E+00 -0.76458539947E+03  0.76458539947E+03  0.25500000920E-02 0. -1.
    10030    2    1    2    0    0  0.00000000000E+00  0.00000000000E+00  0.28014375983E+02  0.15571851749E+04  0.15569331597E+04 0.  0.
        5    1    3    3  502    0  0.61154742381E+02 -0.21567980016E+03 -0.73158678329E+03  0.76517905760E+03  0.46999998093E+01 0. -1.
       -5    1    3    3    0  502 -0.61154742381E+02  0.21567980016E+03  0.75960115927E+03  0.79200611732E+03  0.46999998093E+01 0.  1.
</event>
<event>
 5   0  0.7672251E-04  0.1516002E+04  0.7818609E-02  0.8873881E-01
        2   -1    0    0  501    0  0.00000000000E+00  0.00000000000E+00  0.79366684584E+03  0.79366684585E+03  0.25500000920E-02 0. -1.
       -2   -1    0    0    0  501  0.00000000000E+00  0.00000000000E+00 -0.72393823122E+03  0.72393823123E+03  0.25500000920E-02 0.  1.
    10030    2    1    2    0    0  0.00000000000E+00  0.00000000000E+00  0.69728614618E+02  0.15176050771E+04  0.15160023385E+04 0.  0.
        5    1    3    3  502    0  0.63797553130E+03 -0.94230173401E+01  0.44449382546E+03  0.77762357389E+03  0.46999998093E+01 0. -1.
       -5    1    3    3    0  502 -0.63797553130E+03  0.94230173401E+01 -0.37476521084E+03  0.73998150318E+03  0.46999998093E+01 0.  1.
</event>
<event>
 5   0  0.7672251E-04  0.1503051E+04  0.7818609E-02  0.8882426E-01
       -2   -1    0    0    0  501  0.00000000000E+00  0.00000000000E+00  0.39582773337E+03  0.39582773337E+03  0.25500000920E-02 0. -1.
        2   -1    0    0  501    0  0.00000000000E+00  0.00000000000E+00 -0.14268597923E+04  0.14268597923E+04  0.25500000920E-02 0.  1.
    10030    2    1    2    0    0  0.00000000000E+00  0.00000000000E+00 -0.10310320589E+04  0.18226875257E+04  0.15030511334E+04 0.  0.
        5    1    3    3  502    0 -0.55213987290E+03 -0.50710360714E+03 -0.57917862782E+03  0.94735551962E+03  0.46999998093E+01 0.  1.
       -5    1    3    3    0  502  0.55213987290E+03  0.50710360714E+03 -0.45185343110E+03  0.87533200605E+03  0.46999998093E+01 0. -1.
</event>
<event>
 5   0  0.3907345E-04  0.1498057E+04  0.7818609E-02  0.8885746E-01
        1   -1    0    0  501    0  0.00000000000E+00  0.00000000000E+00  0.75736646429E+03  0.75736646430E+03  0.50400001928E-02 0. -1.
       -1   -1    0    0    0  501  0.00000000000E+00  0.00000000000E+00 -0.74078202691E+03  0.74078202692E+03  0.50400001928E-02 0.  1.
    10030    2    1    2    0    0  0.00000000000E+00  0.00000000000E+00  0.16584437380E+02  0.14981484912E+04  0.14980566939E+04 0.  0.
        5    1    3    3  502    0  0.72276015909E+02 -0.63205237741E+03 -0.38708924413E+03  0.74469739035E+03  0.46999998093E+01 0.  1.
       -5    1    3    3    0  502 -0.72276015909E+02  0.63205237741E+03  0.40367368151E+03  0.75345110088E+03  0.46999998093E+01 0. -1.
</event>
<event>
 5   0  0.7359897E-04  0.1494753E+04  0.7818609E-02  0.8887949E-01
        2   -1    0    0  501    0  0.00000000000E+00  0.00000000000E+00  0.69897925358E+03  0.69897925359E+03  0.25500000920E-02 0.  1.
       -2   -1    0    0    0  501  0.00000000000E+00  0.00000000000E+00 -0.79912502912E+03  0.79912502912E+03  0.25500000920E-02 0. -1.
    10030    2    1    2    0    0  0.00000000000E+00  0.00000000000E+00 -0.10014577553E+03  0.14981042827E+04  0.14947532457E+04 0.  0.
        1    1    3    3  502    0  0.63117294238E+01 -0.44200629525E+03 -0.65405348499E+03  0.78942723808E+03  0.50400001928E-02 0. -1.
       -1    1    3    3    0  502 -0.63117294238E+01  0.44200629525E+03  0.55390770945E+03  0.70867704463E+03  0.50400001928E-02 0.  1.
</event>
<event>
 5   0  0.4015204E-04  0.1474054E+04  0.7818609E-02  0.8901892E-01
       -1   -1    0    0    0  501  0.00000000000E+00  0.00000000000E+00  0.40565536560E+03  0.40565536563E+03  0.50400001928E-02 0.  1.
        1   -1    0    0  501    0  0.00000000000E+00  0.00000000000E+00 -0.13390893909E+04  0.13390893909E+04  0.50400001928E-02 0. -1.
    10030    2    1    2    0    0  0.00000000000E+00  0.00000000000E+00 -0.93343402527E+03  0.17447447565E+04  0.14740539969E+04 0.  0.
        2    1    3    3  502    0 -0.42454585248E+03 -0.36954177543E+03 -0.10299198901E+04  0.11736844911E+04  0.25500000920E-02 0. -1.
       -2    1    3    3    0  502  0.42454585248E+03  0.36954177543E+03  0.96485864793E+02  0.57106026544E+03  0.25500000920E-02 0.  1.
</event>
<event>
 5   0  0.4015204E-04  0.1496099E+04  0.7818609E-02  0.8887051E-01
        1   -1    0    0  501    0  0.00000000000E+00  0.00000000000E+00  0.19587607559E+04  0.19587607559E+04  0.50400001928E-02 0. -1.
       -1   -1    0    0    0  501  0.00000000000E+00  0.00000000000E+00 -0.28567974818E+03  0.28567974823E+03  0.50400001928E-02 0.  1.
    10030    2    1    2    0    0  0.00000000000E+00  0.00000000000E+00  0.16730810077E+04  0.22444405041E+04  0.14960993009E+04 0.  0.
        2    1    3    3  502    0 -0.17120138827E+03  0.23977277905E+03  0.18680566296E+04  0.18911468669E+04  0.25500000920E-02 0. -1.
       -2    1    3    3    0  502  0.17120138827E+03 -0.23977277905E+03 -0.19497562191E+03  0.35329363717E+03  0.25500000920E-02 0.  1.
</event>
<event>
 5   0  0.4086710E-04  0.1655897E+04  0.7818609E-02  0.8786926E-01
       -1   -1    0    0    0  501  0.00000000000E+00  0.00000000000E+00  0.51183090045E+03  0.51183090048E+03  0.50400001928E-02 0.  1.
        1   -1    0    0  501    0  0.00000000000E+00  0.00000000000E+00 -0.13393063652E+04  0.13393063652E+04  0.50400001928E-02 0. -1.
    10030    2    1    2    0    0  0.00000000000E+00  0.00000000000E+00 -0.82747546478E+03  0.18511372657E+04  0.16558965945E+04 0.  0.
        3    1    3    3  502    0  0.28178857658E+03  0.13189526368E+03 -0.12714693113E+04  0.13089825752E+04  0.10100000352E+00 0. -1.
       -3    1    3    3    0  502 -0.28178857658E+03 -0.13189526368E+03  0.44399384652E+03  0.54215469049E+03  0.10100000352E+00 0.  1.
</event>
<event>
 5   0  0.7359897E-04  0.1493666E+04  0.7818609E-02  0.8888676E-01
        2   -1    0    0  501    0  0.00000000000E+00  0.00000000000E+00  0.14186716141E+04  0.14186716141E+04  0.25500000920E-02 0.  1.
       -2   -1    0    0    0  501  0.00000000000E+00  0.00000000000E+00 -0.39315632963E+03  0.39315632964E+03  0.25500000920E-02 0. -1.
    10030    2    1    2    0    0  0.00000000000E+00  0.00000000000E+00  0.10255152845E+04  0.18118279438E+04  0.14936662610E+04 0.  0.
        1    1    3    3  502    0  0.40808201895E+03 -0.61548297931E+03  0.64788410146E+03  0.98239708925E+03  0.50400001928E-02 0.  1.
       -1    1    3    3    0  502 -0.40808201895E+03  0.61548297931E+03  0.37763118304E+03  0.82943085453E+03  0.50400001928E-02 0. -1.
</event>
<event>
 5   0  0.4058874E-04  0.1513734E+04  0.7818609E-02  0.8875371E-01
        1   -1    0    0  501    0  0.00000000000E+00  0.00000000000E+00  0.85186788222E+03  0.85186788224E+03  0.50400001928E-02 0.  1.
       -1   -1    0    0    0  501  0.00000000000E+00  0.00000000000E+00 -0.67246057709E+03  0.67246057711E+03  0.50400001928E-02 0. -1.
    10030    2    1    2    0    0  0.00000000000E+00  0.00000000000E+00  0.17940730513E+03  0.15243284594E+04  0.15137338838E+04 0.  0.
        4    1    3    3  502    0 -0.64657030748E+03  0.22315393542E+03  0.41600101941E+03  0.80056811232E+03  0.12699999809E+01 0.  1.
       -4    1    3    3    0  502  0.64657030748E+03 -0.22315393542E+03 -0.23659371428E+03  0.72376034704E+03  0.12699999809E+01 0. -1.
</event>
<event>
 5   0  0.4058874E-04  0.1495751E+04  0.7818609E-02  0.8887284E-01
       -1   -1    0    0    0  501  0.00000000000E+00  0.00000000000E+00  0.51322377441E+03  0.51322377444E+03  0.50400001928E-02 0. -1.
        1   -1    0    0  501    0  0.00000000000E+00  0.00000000000E+00 -0.10898120070E+04  0.10898120070E+04  0.50400001928E-02 0.  1.
    10030    2    1    2    0    0  0.00000000000E+00  0.00000000000E+00 -0.57658823260E+03  0.16030357815E+04  0.14957505563E+04 0.  0.
        4    1    3    3  502    0 -0.42960333389E+03  0.57921793607E+03 -0.50065663485E+03  0.87790154395E+03  0.12699999809E+01 0.  1.
       -4    1    3    3    0  502  0.42960333389E+03 -0.57921793607E+03 -0.75931597749E+02  0.72513423750E+03  0.12699999809E+01 0. -1.
</event>
<event>
 5   0  0.3907345E-04  0.1498987E+04  0.7818609E-02  0.8885127E-01
        1   -1    0    0  501    0  0.00000000000E+00  0.00000000000E+00  0.91585713430E+03  0.91585713431E+03  0.50400001928E-02 0. -1.
       -1   -1    0    0    0  501  0.00000000000E+00  0.00000000000E+00 -0.61334924960E+03  0.61334924962E+03  0.50400001928E-02 0.  1.
    10030    2    1    2    0    0  0.00000000000E+00  0.00000000000E+00  0.30250788470E+03  0.15292063839E+04  0.14989867059E+04 0.  0.
        5    1    3    3  502    0 -0.49887922209E+03 -0.50753761983E+03 -0.88523353754E+02  0.71717040369E+03  0.46999998093E+01 0.  1.
       -5    1    3    3    0  502  0.49887922209E+03  0.50753761983E+03  0.39103123845E+03  0.81203598025E+03  0.46999998093E+01 0. -1.
</event>
<event>
 5   0  0.7634227E-04  0.1514718E+04  0.7818609E-02  0.8874724E-01
        2   -1    0    0  501    0  0.00000000000E+00  0.00000000000E+00  0.16696366994E+04  0.16696366994E+04  0.25500000920E-02 0.  1.
       -2   -1    0    0    0  501  0.00000000000E+00  0.00000000000E+00 -0.34354327506E+03  0.34354327507E+03  0.25500000920E-02 0. -1.
    10030    2    1    2    0    0  0.00000000000E+00  0.00000000000E+00  0.13260934243E+04  0.20131799745E+04  0.15147177425E+04 0.  0.
        2    1    3    3  502    0 -0.19751234876E+03  0.72953522389E+03  0.59848451839E+03  0.96406249256E+03  0.25500000920E-02 0.  1.
       -2    1    3    3    0  502  0.19751234876E+03 -0.72953522389E+03  0.72760890595E+03  0.10491174819E+04  0.25500000920E-02 0. -1.
</event>
<event>
 5   0  0.7547580E-04  0.1499440E+04  0.7818609E-02  0.8884826E-01
        2   -1    0    0  501    0  0.00000000000E+00  0.00000000000E+00  0.11174301595E+04  0.11174301595E+04  0.25500000920E-02 0. -1.
       -2   -1    0    0    0  501  0.00000000000E+00  0.00000000000E+00 -0.50301107136E+03  0.50301107136E+03  0.25500000920E-02 0.  1.
    10030    2    1    2    0    0  0.00000000000E+00  0.00000000000E+00  0.61441908810E+03  0.16204412308E+04  0.14994395509E+04 0.  0.
        4    1    3    3  502    0  0.46034373908E+03 -0.51324894360E+03 -0.11068920144E+02  0.68953967987E+03  0.12699999809E+01 0.  1.
       -4    1    3    3    0  502 -0.46034373908E+03  0.51324894360E+03  0.62548800824E+03  0.93090155096E+03  0.12699999809E+01 0. -1.
</event>
<event>
 5   0  0.7672251E-04  0.1513666E+04  0.7818609E-02  0.8875416E-01
        2   -1    0    0  501    0  0.00000000000E+00  0.00000000000E+00  0.45819236032E+03  0.45819236033E+03  0.25500000920E-02 0. -1.
       -2   -1    0    0    0  501  0.00000000000E+00  0.00000000000E+00 -0.12501210304E+04  0.12501210304E+04  0.25500000920E-02 0.  1.
    10030    2    1    2    0    0  0.00000000000E+00  0.00000000000E+00 -0.79192867012E+03  0.17083133908E+04  0.15136656244E+04 0.  0.
        5    1    3    3  502    0  0.39977727319E+03  0.44459352970E+03  0.12769404045E+03  0.61140259467E+03  0.46999998093E+01 0. -1.
       -5    1    3    3    0  502 -0.39977727319E+03 -0.44459352970E+03 -0.91962271057E+03  0.10969107961E+04  0.46999998093E+01 0.  1.
</event>
<event>
 5   0  0.7454828E-04  0.1509030E+04  0.7818609E-02  0.8878470E-01
       -2   -1    0    0    0  501  0.00000000000E+00  0.00000000000E+00  0.21275819189E+03  0.21275819190E+03  0.25500000920E-02 0. -1.
        2   -1    0    0  501    0  0.00000000000E+00  0.00000000000E+00 -0.26757749934E+04  0.26757749934E+04  0.25500000920E-02 0.  1.
    10030    2    1    2    0    0  0.00000000000E+00  0.00000000000E+00 -0.24630168015E+04  0.28885331853E+04  0.15090302177E+04 0.  0.
        3    1    3    3  502    0  0.37948551522E+03 -0.56474241818E+03 -0.60727395265E+03  0.91198953882E+03  0.10100000352E+00 0. -1.
       -3    1    3    3    0  502 -0.37948551522E+03  0.56474241818E+03 -0.18557428488E+04  0.19765436465E+04  0.10100000352E+00 0.  1.
</event>
<event>
 5   0  0.7672251E-04  0.1495125E+04  0.7818609E-02  0.8887701E-01
        2   -1    0    0  501    0  0.00000000000E+00  0.00000000000E+00  0.12241663002E+04  0.12241663002E+04  0.25500000920E-02 0. -1.
       -2   -1    0    0    0  501  0.00000000000E+00  0.00000000000E+00 -0.45651436751E+03  0.45651436751E+03  0.25500000920E-02 0.  1.
    10030    2    1    2    0    0  0.00000000000E+00  0.00000000000E+00  0.76765193265E+03  0.16806806677E+04  0.14951247496E+04 0.  0.
        5    1    3    3  502    0 -0.30239532806E+03  0.27577610003E+03 -0.31937663331E+03  0.51915211228E+03  0.46999998093E+01 0.  1.
       -5    1    3    3    0  502  0.30239532806E+03 -0.27577610003E+03  0.10870285660E+04  0.11615285554E+04  0.46999998093E+01 0. -1.
</event>
<event>
 5   0  0.7634227E-04  0.1493855E+04  0.7818609E-02  0.8888549E-01
       -2   -1    0    0    0  501  0.00000000000E+00  0.00000000000E+00  0.25217679945E+03  0.25217679946E+03  0.25500000920E-02 0.  1.
        2   -1    0    0  501    0  0.00000000000E+00  0.00000000000E+00 -0.22123402965E+04  0.22123402965E+04  0.25500000920E-02 0. -1.
    10030    2    1    2    0    0  0.00000000000E+00  0.00000000000E+00 -0.19601634970E+04  0.24645170959E+04  0.14938552745E+04 0.  0.
        2    1    3    3  502    0 -0.14048933332E+03  0.12151688083E+03 -0.21736274285E+04  0.21815498626E+04  0.25500000920E-02 0. -1.
       -2    1    3    3    0  502  0.14048933332E+03 -0.12151688083E+03  0.21346393146E+03  0.28296723334E+03  0.25500000920E-02 0.  1.
</event>
<event>
 5   0  0.4084462E-04  0.1501663E+04  0.7818609E-02  0.8883348E-01
       -1   -1    0    0    0  501  0.00000000000E+00  0.00000000000E+00  0.37777825756E+03  0.37777825759E+03  0.50400001928E-02 0.  1.
        1   -1    0    0  501    0  0.00000000000E+00  0.00000000000E+00 -0.14922720640E+04  0.14922720640E+04  0.50400001928E-02 0. -1.
    10030    2    1    2    0    0  0.00000000000E+00  0.00000000000E+00 -0.11144938064E+04  0.18700503216E+04  0.15016629984E+04 0.  0.
        1    1    3    3  502    0 -0.46980294560E+03  0.98574395591E+02  0.16172023104E+03  0.50654234997E+03  0.50400001928E-02 0.  1.
       -1    1    3    3    0  502  0.46980294560E+03 -0.98574395591E+02 -0.12762140374E+04  0.13635079716E+04  0.50400001928E-02 0. -1.
</event>
<event>
 5   0  0.4058874E-04  0.1509450E+04  0.7818609E-02  0.8878193E-01
       -1   -1    0    0    0  501  0.00000000000E+00  0.00000000000E+00  0.47840835010E+03  0.47840835013E+03  0.50400001928E-02 0. -1.
        1   -1    0    0  501    0  0.00000000000E+00  0.00000000000E+00 -0.11906356864E+04  0.11906356864E+04  0.50400001928E-02 0.  1.
    10030    2    1    2    0    0  0.00000000000E+00  0.00000000000E+00 -0.71222733627E+03  0.16690440365E+04  0.15094503030E+04 0.  0.
        4    1    3    3  502    0 -0.18816666869E+03 -0.69386415508E+03 -0.10214635250E+03  0.72614712775E+03  0.12699999809E+01 0.  1.
       -4    1    3    3    0  502  0.18816666869E+03  0.69386415508E+03 -0.61008098378E+03  0.94289690877E+03  0.12699999809E+01 0. -1.
</event>
<event>
 5   0  0.7547580E-04  0.1502973E+04  0.7818609E-02  0.8882479E-01
        2   -1    0    0  501    0  0.00000000000E+00  0.00000000000E+00  0.10773912165E+04  0.10773912165E+04  0.25500000920E-02 0.  1.
       -2   -1    0    0    0  501  0.00000000000E+00  0.00000000000E+00 -0.52416587945E+03  0.52416587945E+03  0.25500000920E-02 0. -1.
    10030    2    1    2    0    0  0.00000000000E+00  0.00000000000E+00  0.55322533700E+03  0.16015570959E+04  0.15029726737E+04 0.  0.
        4    1    3    3  502    0 -0.19596713850E+02 -0.66557055204E+03 -0.94608338066E+02  0.67254779865E+03  0.12699999809E+01 0. -1.
       -4    1    3    3    0  502  0.19596713850E+02  0.66557055204E+03  0.64783367507E+03  0.92900929726E+03  0.12699999809E+01 0.  1.
</event>
<event>
 5   0  0.7547580E-04  0.1499955E+04  0.7818609E-02  0.8884483E-01
        2   -1    0    0  501    0  0.00000000000E+00  0.00000000000E+00  0.18906019030E+04  0.18906019030E+04  0.25500000920E-02 0.  1.
       -2   -1    0    0    0  501  0.00000000000E+00  0.00000000000E+00 -0.29750624806E+03  0.29750624807E+03  0.25500000920E-02 0. -1.
    10030    2    1    2    0    0  0.00000000000E+00  0.00000000000E+00  0.15930956549E+04  0.21881081511E+04  0.14999545043E+04 0.  0.
        4    1    3    3  502    0 -0.75427224162E+02 -0.57845512058E+03  0.14841356848E+04  0.15946660893E+04  0.12699999809E+01 0.  1.
       -4    1    3    3    0  502  0.75427224162E+02  0.57845512058E+03  0.10895997016E+03  0.59344206176E+03  0.12699999809E+01 0. -1.
</event>
<event>
 5   0  0.4015204E-04  0.1489619E+04  0.7818609E-02  0.8891386E-01
       -1   -1    0    0    0  501  0.00000000000E+00  0.00000000000E+00  0.12743322227E+04  0.12743322227E+04  0.50400001928E-02 0. -1.
        1   -1    0    0  501    0  0.00000000000E+00  0.00000000000E+00 -0.43531907494E+03  0.43531907497E+03  0.50400001928E-02 0.  1.
    10030    2    1    2    0    0  0.00000000000E+00  0.00000000000E+00  0.83901314775E+03  0.17096512977E+04  0.14896189102E+04 0.  0.
        2    1    3    3  502    0  0.73115894388E+03 -0.13539253203E+03  0.46842362581E+03  0.87883174281E+03  0.25500000920E-02 0. -1.
       -2    1    3    3    0  502 -0.73115894388E+03  0.13539253203E+03  0.37058952194E+03  0.83081955486E+03  0.25500000920E-02 0.  1.
</event>
<event>
 5   0  0.4015204E-04  0.1512256E+04  0.7818609E-02  0.8876344E-01
        1   -1    0    0  501    0  0.00000000000E+00  0.00000000000E+00  0.11395026545E+04  0.11395026546E+04  0.50400001928E-02 0. -1.
       -1   -1    0    0    0  501  0.00000000000E+00  0.00000000000E+00 -0.50173593116E+03  0.50173593119E+03  0.50400001928E-02 0.  1.
    10030    2    1    2    0    0  0.00000000000E+00  0.00000000000E+00  0.63776672339E+03  0.16412385857E+04  0.15122558322E+04 0.  0.
        2    1    3    3  502    0 -0.12580559439E+03  0.22706075864E+03  0.10896282454E+04  0.11201220241E+04  0.25500000920E-02 0. -1.
       -2    1    3    3    0  502  0.12580559439E+03 -0.22706075864E+03 -0.45186152204E+03  0.52111656163E+03  0.25500000920E-02 0.  1.
</event>
<event>
 5   0  0.7634227E-04  0.1496304E+04  0.7818609E-02  0.8886914E-01
       -2   -1    0    0    0  501  0.00000000000E+00  0.00000000000E+00  0.25792635049E+03  0.25792635051E+03  0.25500000920E-02 0. -1.
        2   -1    0    0  501    0  0.00000000000E+00  0.00000000000E+00 -0.21701220208E+04  0.21701220208E+04  0.25500000920E-02 0.  1.
    10030    2    1    2    0    0  0.00000000000E+00  0.00000000000E+00 -0.19121956703E+04  0.24280483713E+04  0.14963043179E+04 0.  0.
        2    1    3    3  502    0  0.27152848471E+03  0.47025829556E+03 -0.17912131925E+04  0.18717145304E+04  0.25500000920E-02 0.  1.
       -2    1    3    3    0  502 -0.27152848471E+03 -0.47025829556E+03 -0.12098247784E+03  0.55633384087E+03  0.25500000920E-02 0. -1.
</event>
<event>
 5   0  0.7454828E-04  0.1488082E+04  0.7818609E-02  0.8892417E-01
       -2   -1    0    0    0  501  0.00000000000E+00  0.00000000000E+00  0.13269825405E+04  0.13269825405E+04  0.25500000920E-02 0. -1.
        2   -1    0    0  501    0  0.00000000000E+00  0.00000000000E+00 -0.41718474685E+03  0.41718474686E+03  0.25500000920E-02 0.  1.
    10030    2    1    2    0    0  0.00000000000E+00  0.00000000000E+00  0.90979779368E+03  0.17441672874E+04  0.14880818193E+04 0.  0.
        3    1    3    3  502    0  0.30782286142E+03  0.15657888433E+03 -0.31754819474E+03  0.46915746527E+03  0.10100000352E+00 0.  1.
       -3    1    3    3    0  502 -0.30782286142E+03 -0.15657888433E+03  0.12273459884E+04  0.12750098221E+04  0.10100000352E+00 0. -1.
</event>
<event>
 5   0  0.7634227E-04  0.1503361E+04  0.7818609E-02  0.8882221E-01
       -2   -1    0    0    0  501  0.00000000000E+00  0.00000000000E+00  0.44249064641E+03  0.44249064641E+03  0.25500000920E-02 0.  1.
        2   -1    0    0  501    0  0.00000000000E+00  0.00000000000E+00 -0.12769167544E+04  0.12769167545E+04  0.25500000920E-02 0. -1.
    10030    2    1    2    0    0  0.00000000000E+00  0.00000000000E+00 -0.83442610804E+03  0.17194074009E+04  0.15033611942E+04 0.  0.
        2    1    3    3  502    0 -0.46859612699E+01  0.13925868163E+03 -0.12620173852E+04  0.12696861105E+04  0.25500000920E-02 0. -1.
       -2    1    3    3    0  502  0.46859612699E+01 -0.13925868163E+03  0.42759127719E+03  0.44972129033E+03  0.25500000920E-02 0.  1.
</event>
<event>
 5   0  0.7359897E-04  0.1510736E+04  0.7818609E-02  0.8877345E-01
       -2   -1    0    0    0  501  0.00000000000E+00  0.00000000000E+00  0.69864228376E+03  0.69864228376E+03  0.25500000920E-02 0.  1.
        2   -1    0    0  501    0  0.00000000000E+00  0.00000000000E+00 -0.81669937355E+03  0.81669937356E+03  0.25500000920E-02 0. -1.
    10030    2    1    2    0    0  0.00000000000E+00  0.00000000000E+00 -0.11805708980E+03  0.15153416573E+04  0.15107358677E+04 0.  0.
        1    1    3    3  502    0 -0.66399826152E+03 -0.27891900021E+03 -0.28751946356E+03  0.77547207683E+03  0.50400001928E-02 0. -1.
       -1    1    3    3    0  502  0.66399826152E+03  0.27891900021E+03  0.16946237376E+03  0.73986958049E+03  0.50400001928E-02 0.  1.
</event>
<event>
 5   0  0.3907345E-04  0.1549151E+04  0.7818609E-02  0.8852410E-01
       -1   -1    0    0    0  501  0.00000000000E+00  0.00000000000E+00  0.11146196898E+04  0.11146196898E+04  0.50400001928E-02 0. -1.
        1   -1    0    0  501    0  0.00000000000E+00  0.00000000000E+00 -0.53827108937E+03  0.53827108940E+03  0.50400001928E-02 0.  1.
    10030    2    1    2    0    0  0.00000000000E+00  0.00000000000E+00  0.57634860046E+03  0.16528907792E+04  0.15491514512E+04 0.  0.
        5    1    3    3  502    0  0.64029138440E+02  0.26056197539E+02 -0.53495797433E+03  0.53942634372E+03  0.46999998093E+01 0.  1.
       -5    1    3    3    0  502 -0.64029138440E+02 -0.26056197539E+02  0.11113065748E+04  0.11134644355E+04  0.46999998093E+01 0. -1.
</event>
<event>
 5   0  0.7672251E-04  0.1358848E+04  0.7818609E-02  0.8984157E-01
       -2   -1    0    0    0  501  0.00000000000E+00  0.00000000000E+00  0.28092172918E+03  0.28092172919E+03  0.25500000920E-02 0. -1.
        2   -1    0    0  501    0  0.00000000000E+00  0.00000000000E+00 -0.16432222427E+04  0.16432222427E+04  0.25500000920E-02 0.  1.
    10030    2    1    2    0    0  0.00000000000E+00  0.00000000000E+00 -0.13623005135E+04  0.19241439719E+04  0.13588477970E+04 0.  0.
        5    1    3    3  502    0  0.15889938994E+03 -0.95881004162E+02  0.24431103141E+03  0.30684222843E+03  0.46999998093E+01 0. -1.
       -5    1    3    3    0  502 -0.15889938994E+03  0.95881004162E+02 -0.16066115449E+04  0.16173017435E+04  0.46999998093E+01 0.  1.
</event>
<event>
 5   0  0.7547580E-04  0.1474111E+04  0.7818609E-02  0.8901854E-01
        2   -1    0    0  501    0  0.00000000000E+00  0.00000000000E+00  0.27351544203E+04  0.27351544203E+04  0.25500000920E-02 0. -1.
       -2   -1    0    0    0  501  0.00000000000E+00  0.00000000000E+00 -0.19861784778E+03  0.19861784780E+03  0.25500000920E-02 0.  1.
    10030    2    1    2    0    0  0.00000000000E+00  0.00000000000E+00  0.25365365725E+04  0.29337722681E+04  0.14741105580E+04 0.  0.
        4    1    3    3  502    0 -0.10615771903E+03 -0.72923233445E+03  0.12401499105E+04  0.14425750145E+04  0.12699999809E+01 0.  1.
       -4    1    3    3    0  502  0.10615771903E+03  0.72923233445E+03  0.12963866620E+04  0.14911972536E+04  0.12699999809E+01 0. -1.
</event>
<event>
 5   0  0.7634227E-04  0.1499288E+04  0.7818609E-02  0.8884926E-01
       -2   -1    0    0    0  501  0.00000000000E+00  0.00000000000E+00  0.22742520105E+03  0.22742520107E+03  0.25500000920E-02 0.  1.
        2   -1    0    0  501    0  0.00000000000E+00  0.00000000000E+00 -0.24709942883E+04  0.24709942883E+04  0.25500000920E-02 0. -1.
    10030    2    1    2    0    0  0.00000000000E+00  0.00000000000E+00 -0.22435690872E+04  0.26984194894E+04  0.14992883283E+04 0.  0.
        2    1    3    3  502    0  0.27120885379E+03 -0.69741636057E+03 -0.10408425332E+04  0.12819114639E+04  0.25500000920E-02 0.  1.
       -2    1    3    3    0  502 -0.27120885379E+03  0.69741636057E+03 -0.12027265541E+04  0.14165080255E+04  0.25500000920E-02 0. -1.
</event>
<event>
 5   0  0.4086710E-04  0.1503244E+04  0.7818609E-02  0.8882298E-01
        1   -1    0    0  501    0  0.00000000000E+00  0.00000000000E+00  0.60631758687E+03  0.60631758689E+03  0.50400001928E-02 0. -1.
       -1   -1    0    0    0  501  0.00000000000E+00  0.00000000000E+00 -0.93174892055E+03  0.93174892057E+03  0.50400001928E-02 0.  1.
    10030    2    1    2    0    0  0.00000000000E+00  0.00000000000E+00 -0.32543133368E+03  0.15380665075E+04  0.15032441679E+04 0.  0.
        3    1    3    3  502    0  0.51429357166E+03  0.33956683967E+03  0.27752139804E+03  0.67588582840E+03  0.10100000352E+00 0. -1.
       -3    1    3    3    0  502 -0.51429357166E+03 -0.33956683967E+03 -0.60295273173E+03  0.86218067906E+03  0.10100000352E+00 0.  1.
</event>
<event>
 5   0  0.3907345E-04  0.1546020E+04  0.7818609E-02  0.8854414E-01
       -1   -1    0    0    0  501  0.00000000000E+00  0.00000000000E+00  0.53991062022E+03  0.53991062024E+03  0.50400001928E-02 0.  1.
        1   -1    0    0  501    0  0.00000000000E+00  0.00000000000E+00 -0.11067475724E+04  0.11067475724E+04  0.50400001928E-02 0. -1.
    10030    2    1    2    0    0  0.00000000000E+00  0.00000000000E+00 -0.56683695216E+03  0.16466581926E+04  0.15460203986E+04 0.  0.
        5    1    3    3  502    0  0.67719042207E+03  0.36295332077E+03 -0.19303781339E+03  0.79221693254E+03  0.46999998093E+01 0.  1.
       -5    1    3    3    0  502 -0.67719042207E+03 -0.36295332077E+03 -0.37379913877E+03  0.85444126010E+03  0.46999998093E+01 0. -1.
</event>
<event>
 5   0  0.7359897E-04  0.1478204E+04  0.7818609E-02  0.8899078E-01
       -2   -1    0    0    0  501  0.00000000000E+00  0.00000000000E+00  0.60817909429E+03  0.60817909429E+03  0.25500000920E-02 0. -1.
        2   -1    0    0  501    0  0.00000000000E+00  0.00000000000E+00 -0.89820888749E+03  0.89820888750E+03  0.25500000920E-02 0.  1.
    10030    2    1    2    0    0  0.00000000000E+00  0.00000000000E+00 -0.29002979321E+03  0.15063879818E+04  0.14782041370E+04 0.  0.
        1    1    3    3  502    0 -0.47898948067E+03  0.24096720804E+03 -0.66341396987E+03  0.85300305591E+03  0.50400001928E-02 0.  1.
       -1    1    3    3    0  502  0.47898948067E+03 -0.24096720804E+03  0.37338417667E+03  0.65338492587E+03  0.50400001928E-02 0. -1.
</event>
<event>
 5   0  0.7672251E-04  0.1493142E+04  0.7818609E-02  0.8889026E-01
        2   -1    0    0  501    0  0.00000000000E+00  0.00000000000E+00  0.12332770751E+04  0.12332770751E+04  0.25500000920E-02 0. -1.
       -2   -1    0    0    0  501  0.00000000000E+00  0.00000000000E+00 -0.45194110267E+03  0.45194110268E+03  0.25500000920E-02 0.  1.
    10030    2    1    2    0    0  0.00000000000E+00  0.00000000000E+00  0.78133597246E+03  0.16852181778E+04  0.14931424597E+04 0.  0.
        5    1    3    3  502    0 -0.76611117482E+01  0.39540484396E+03 -0.32398648340E+03  0.51126608990E+03  0.46999998093E+01 0.  1.
       -5    1    3    3    0  502  0.76611117482E+01 -0.39540484396E+03  0.11053224559E+04  0.11739520879E+04  0.46999998093E+01 0. -1.
</event>
<event>
 5   0  0.7672251E-04  0.1503114E+04  0.7818609E-02  0.8882385E-01
        2   -1    0    0  501    0  0.00000000000E+00  0.00000000000E+00  0.94764258169E+03  0.94764258169E+03  0.25500000920E-02 0. -1.
       -2   -1    0    0    0  501  0.00000000000E+00  0.00000000000E+00 -0.59604533419E+03  0.59604533420E+03  0.25500000920E-02 0.  1.
    10030    2    1    2    0    0  0.00000000000E+00  0.00000000000E+00  0.35159724749E+03  0.15436879159E+04  0.15031140200E+04 0.  0.
        5    1    3    3  502    0  0.32106370305E+03  0.66516526434E+03  0.31843285806E+03  0.80433096757E+03  0.46999998093E+01 0.  1.
       -5    1    3    3    0  502 -0.32106370305E+03 -0.66516526434E+03  0.33164389428E+02  0.73935694832E+03  0.46999998093E+01 0. -1.
</event>
<event>
 5   0  0.4058874E-04  0.1449125E+04  0.7818609E-02  0.8919007E-01
       -1   -1    0    0    0  501  0.00000000000E+00  0.00000000000E+00  0.69115999028E+03  0.69115999030E+03  0.50400001928E-02 0.  1.
        1   -1    0    0  501    0  0.00000000000E+00  0.00000000000E+00 -0.75957931857E+03  0.75957931859E+03  0.50400001928E-02 0. -1.
    10030    2    1    2    0    0  0.00000000000E+00  0.00000000000E+00 -0.68419328292E+02  0.14507393089E+04  0.14491250249E+04 0.  0.
        4    1    3    3  502    0  0.96291934454E+02 -0.11442043614E+03  0.67554063870E+03  0.69189662543E+03  0.12699999809E+01 0.  1.
       -4    1    3    3    0  502 -0.96291934454E+02  0.11442043614E+03 -0.74395996699E+03  0.75884268346E+03  0.12699999809E+01 0. -1.
</event>
<event>
 5   0  0.4058874E-04  0.1501908E+04  0.7818609E-02  0.8883185E-01
       -1   -1    0    0    0  501  0.00000000000E+00  0.00000000000E+00  0.64855593467E+03  0.64855593469E+03  0.50400001928E-02 0.  1.
        1   -1    0    0  501    0  0.00000000000E+00  0.00000000000E+00 -0.86951921956E+03  0.86951921957E+03  0.50400001928E-02 0. -1.
    10030    2    1    2    0    0  0.00000000000E+00  0.00000000000E+00 -0.22096328489E+03  0.15180751543E+04  0.15019079202E+04 0.  0.
        4    1    3    3  502    0 -0.62982169560E+03  0.39171532428E+03  0.83163983260E+01  0.74174593959E+03  0.12699999809E+01 0.  1.
       -4    1    3    3    0  502  0.62982169560E+03 -0.39171532428E+03 -0.22927968322E+03  0.77632921467E+03  0.12699999809E+01 0. -1.
</event>
<event>
 5   0  0.4015204E-04  0.1649016E+04  0.7818609E-02  0.8790989E-01
       -1   -1    0    0    0  501  0.00000000000E+00  0.00000000000E+00  0.38515751561E+03  0.38515751564E+03  0.50400001928E-02 0. -1.
        1   -1    0    0  501    0  0.00000000000E+00  0.00000000000E+00 -0.17650273935E+04  0.17650273935E+04  0.50400001928E-02 0.  1.
    10030    2    1    2    0    0  0.00000000000E+00  0.00000000000E+00 -0.13798698779E+04  0.21501849091E+04  0.16490161502E+04 0.  0.
        2    1    3    3  502    0  0.95848017023E+02 -0.80828845075E+03 -0.86142148970E+03  0.11851430483E+04  0.25500000920E-02 0.  1.
       -2    1    3    3    0  502 -0.95848017023E+02  0.80828845075E+03 -0.51844838818E+03  0.96504186085E+03  0.25500000920E-02 0. -1.
</event>
<event>
 5   0  0.7359897E-04  0.1479140E+04  0.7818609E-02  0.8898445E-01
        2   -1    0    0  501    0  0.00000000000E+00  0.00000000000E+00  0.14878564156E+04  0.14878564156E+04  0.25500000920E-02 0.  1.
       -2   -1    0    0    0  501  0.00000000000E+00  0.00000000000E+00 -0.36761843257E+03  0.36761843258E+03  0.25500000920E-02 0. -1.
    10030    2    1    2    0    0  0.00000000000E+00  0.00000000000E+00  0.11202379831E+04  0.18554748482E+04  0.14791395383E+04 0.  0.
        1    1    3    3  502    0 -0.27913068343E+02  0.73138409469E+03  0.69323986784E+03  0.10081087976E+04  0.50400001928E-02 0. -1.
       -1    1    3    3    0  502  0.27913068343E+02 -0.73138409469E+03  0.42699811524E+03  0.84736605065E+03  0.50400001928E-02 0.  1.
</event>
<event>
 5   0  0.7672251E-04  0.1493008E+04  0.7818609E-02  0.8889116E-01
       -2   -1    0    0    0  501  0.00000000000E+00  0.00000000000E+00  0.48563714152E+03  0.48563714152E+03  0.25500000920E-02 0.  1.
        2   -1    0    0  501    0  0.00000000000E+00  0.00000000000E+00 -0.11474986162E+04  0.11474986162E+04  0.25500000920E-02 0. -1.
    10030    2    1    2    0    0  0.00000000000E+00  0.00000000000E+00 -0.66186147466E+03  0.16331357577E+04  0.14930076327E+04 0.  0.
        5    1    3    3  502    0  0.51196439286E+03  0.21885028789E+03 -0.87483460591E+03  0.10369959816E+04  0.46999998093E+01 0. -1.
       -5    1    3    3    0  502 -0.51196439286E+03 -0.21885028789E+03  0.21297313125E+03  0.59613977614E+03  0.46999998093E+01 0.  1.
</event>
<event>
 5   0  0.7454828E-04  0.1504617E+04  0.7818609E-02  0.8881388E-01
       -2   -1    0    0    0  501  0.00000000000E+00  0.00000000000E+00  0.87316295375E+03  0.87316295375E+03  0.25500000920E-02 0. -1.
        2   -1    0    0  501    0  0.00000000000E+00  0.00000000000E+00 -0.64818146753E+03  0.64818146753E+03  0.25500000920E-02 0.  1.
    10030    2    1    2    0    0  0.00000000000E+00  0.00000000000E+00  0.22498148622E+03  0.15213444213E+04  0.15046169543E+04 0.  0.
        3    1    3    3  502    0 -0.23519317763E+03 -0.25144038361E+03 -0.56384776413E+03  0.66065301682E+03  0.10100000352E+00 0.  1.
       -3    1    3    3    0  502  0.23519317763E+03  0.25144038361E+03  0.78882925035E+03  0.86069140447E+03  0.10100000352E+00 0. -1.
</event>
<event>
 5   0  0.4058874E-04  0.1470730E+04  0.7818609E-02  0.8904154E-01
        1   -1    0    0  501    0  0.00000000000E+00  0.00000000000E+00  0.49414901655E+03  0.49414901658E+03  0.50400001928E-02 0.  1.
       -1   -1    0    0    0  501  0.00000000000E+00  0.00000000000E+00 -0.10943296745E+04  0.10943296745E+04  0.50400001928E-02 0. -1.
    10030    2    1    2    0    0  0.00000000000E+00  0.00000000000E+00 -0.60018065798E+03  0.15884786911E+04  0.14707303390E+04 0.  0.
        4    1    3    3  502    0  0.39241768344E+03  0.58269196063E+03 -0.53483599775E+03  0.88293415193E+03  0.12699999809E+01 0. -1.
       -4    1    3    3    0  502 -0.39241768344E+03 -0.58269196063E+03 -0.65344660229E+02  0.70554453919E+03  0.12699999809E+01 0.  1.
</event>
<event>
 5   0  0.7359897E-04  0.1446349E+04  0.7818609E-02  0.8920935E-01
        2   -1    0    0  501    0  0.00000000000E+00  0.00000000000E+00  0.13939118194E+04  0.13939118194E+04  0.25500000920E-02 0. -1.
       -2   -1    0    0    0  501  0.00000000000E+00  0.00000000000E+00 -0.37518993323E+03  0.37518993323E+03  0.25500000920E-02 0.  1.
    10030    2    1    2    0    0  0.00000000000E+00  0.00000000000E+00  0.10187218862E+04  0.17691017527E+04  0.14463494494E+04 0.  0.
        1    1    3    3  502    0  0.34349943398E+03 -0.32353407659E+03 -0.16093789773E+03  0.49856510789E+03  0.50400001928E-02 0.  1.
       -1    1    3    3    0  502 -0.34349943398E+03  0.32353407659E+03  0.11796597839E+04  0.12705366448E+04  0.50400001928E-02 0. -1.
</event>
<event>
 5   0  0.4058874E-04  0.1493715E+04  0.7818609E-02  0.8888643E-01
        1   -1    0    0  501    0  0.00000000000E+00  0.00000000000E+00  0.10271511185E+04  0.10271511185E+04  0.50400001928E-02 0. -1.
       -1   -1    0    0    0  501  0.00000000000E+00  0.00000000000E+00 -0.54305177615E+03  0.54305177618E+03  0.50400001928E-02 0.  1.
    10030    2    1    2    0    0  0.00000000000E+00  0.00000000000E+00  0.48409934234E+03  0.15702028947E+04  0.14937151526E+04 0.  0.
        4    1    3    3  502    0  0.61286124020E+03 -0.42464399479E+03  0.19655290103E+03  0.77107462534E+03  0.12699999809E+01 0.  1.
       -4    1    3    3    0  502 -0.61286124020E+03  0.42464399479E+03  0.28754644132E+03  0.79912826934E+03  0.12699999809E+01 0. -1.
</event>
<event>
 5   0  0.7454828E-04  0.1320025E+04  0.7818609E-02  0.9013834E-01
       -2   -1    0    0    0  501  0.00000000000E+00  0.00000000000E+00  0.34864748784E+03  0.34864748785E+03  0.25500000920E-02 0.  1.
        2   -1    0    0  501    0  0.00000000000E+00  0.00000000000E+00 -0.12494469655E+04  0.12494469655E+04  0.25500000920E-02 0. -1.
    10030    2    1    2    0    0  0.00000000000E+00  0.00000000000E+00 -0.90079947768E+03  0.15980944534E+04  0.13200250690E+04 0.  0.
        3    1    3    3  502    0  0.38048105913E+03 -0.14107821683E+03 -0.10805773188E+04  0.11542600451E+04  0.10100000352E+00 0. -1.
       -3    1    3    3    0  502 -0.38048105913E+03  0.14107821683E+03  0.17977784110E+03  0.44383440828E+03  0.10100000352E+00 0.  1.
</event>
<event>
 5   0  0.7547580E-04  0.1320877E+04  0.7818609E-02  0.9013171E-01
       -2   -1    0    0    0  501  0.00000000000E+00  0.00000000000E+00  0.89633312985E+03  0.89633312985E+03  0.25500000920E-02 0. -1.
        2   -1    0    0  501    0  0.00000000000E+00  0.00000000000E+00 -0.48662625359E+03  0.48662625359E+03  0.25500000920E-02 0.  1.
    10030    2    1    2    0    0  0.00000000000E+00  0.00000000000E+00  0.40970687626E+03  0.13829593834E+04  0.13208773341E+04 0.  0.
        4    1    3    3  502    0 -0.57436958246E+02 -0.93752186497E+02 -0.47697563391E+03  0.48948528567E+03  0.12699999809E+01 0.  1.
       -4    1    3    3    0  502  0.57436958246E+02  0.93752186497E+02  0.88668251018E+03  0.89347409778E+03  0.12699999809E+01 0. -1.
</event>
<event>
 5   0  0.4084462E-04  0.1501261E+04  0.7818609E-02  0.8883615E-01
       -1   -1    0    0    0  501  0.00000000000E+00  0.00000000000E+00  0.54931132889E+03  0.54931132892E+03  0.50400001928E-02 0.  1.
        1   -1    0    0  501    0  0.00000000000E+00  0.00000000000E+00 -0.10257315780E+04  0.10257315781E+04  0.50400001928E-02 0. -1.
    10030    2    1    2    0    0  0.00000000000E+00  0.00000000000E+00 -0.47642024915E+03  0.15750429070E+04  0.15012607718E+04 0.  0.
        1    1    3    3  502    0  0.26044303371E+03 -0.95986611152E+02 -0.96991157612E+03  0.10088470988E+04  0.50400001928E-02 0. -1.
       -1    1    3    3    0  502 -0.26044303371E+03  0.95986611152E+02  0.49349132697E+03  0.56619580813E+03  0.50400001928E-02 0.  1.
</event>
<event>
 5   0  0.7359897E-04  0.1491720E+04  0.7818609E-02  0.8889978E-01
        2   -1    0    0  501    0  0.00000000000E+00  0.00000000000E+00  0.29375260097E+03  0.29375260098E+03  0.25500000920E-02 0.  1.
       -2   -1    0    0    0  501  0.00000000000E+00  0.00000000000E+00 -0.18937956180E+04  0.18937956180E+04  0.25500000920E-02 0. -1.
    10030    2    1    2    0    0  0.00000000000E+00  0.00000000000E+00 -0.16000430170E+04  0.21875482190E+04  0.14917203337E+04 0.  0.
        1    1    3    3  502    0 -0.20813611458E+02 -0.30561203136E+03  0.19725267252E+03  0.36433574760E+03  0.50400001928E-02 0.  1.
       -1    1    3    3    0  502  0.20813611458E+02  0.30561203136E+03 -0.17972956895E+04  0.18232124714E+04  0.50400001928E-02 0. -1.
</event>
<event>
 5   0  0.3907345E-04  0.1498464E+04  0.7818609E-02  0.8885475E-01
       -1   -1    0    0    0  501  0.00000000000E+00  0.00000000000E+00  0.24666643629E+03  0.24666643635E+03  0.50400001928E-02 0.  1.
        1   -1    0    0  501    0  0.00000000000E+00  0.00000000000E+00 -0.22757400325E+04  0.22757400325E+04  0.50400001928E-02 0. -1.
    10030    2    1    2    0    0  0.00000000000E+00  0.00000000000E+00 -0.20290735962E+04  0.25224064688E+04  0.14984641254E+04 0.  0.
        5    1    3    3  502    0  0.70806288453E+03  0.16651099780E+03 -0.71225107037E+03  0.10180386231E+04  0.46999998093E+01 0.  1.
       -5    1    3    3    0  502 -0.70806288453E+03 -0.16651099780E+03 -0.13168225258E+04  0.15043678457E+04  0.46999998093E+01 0. -1.
</event>
<event>
 5   0  0.3907345E-04  0.1517207E+04  0.7818609E-02  0.8873090E-01
       -1   -1    0    0    0  501  0.00000000000E+00  0.00000000000E+00  0.78704495064E+03  0.78704495065E+03  0.50400001928E-02 0.  1.
        1   -1    0    0  501    0  0.00000000000E+00  0.00000000000E+00 -0.73118987998E+03  0.73118988000E+03  0.50400001928E-02 0. -1.
    10030    2    1    2    0    0  0.00000000000E+00  0.00000000000E+00  0.55855070655E+02  0.15182348307E+04  0.15172070432E+04 0.  0.
        5    1    3    3  502    0 -0.11751049154E+03 -0.60071241252E+03 -0.42047544166E+03  0.74262090276E+03  0.46999998093E+01 0. -1.
       -5    1    3    3    0  502  0.11751049154E+03  0.60071241252E+03  0.47633051231E+03  0.77561392789E+03  0.46999998093E+01 0.  1.
</event>
<event>
 5   0  0.4058874E-04  0.1526241E+04  0.7818609E-02  0.8867188E-01
       -1   -1    0    0    0  501  0.00000000000E+00  0.00000000000E+00  0.32228917210E+03  0.32228917214E+03  0.50400001928E-02 0. -1.
        1   -1    0    0  501    0  0.00000000000E+00  0.00000000000E+00 -0.18069268629E+04  0.18069268629E+04  0.50400001928E-02 0.  1.
    10030    2    1    2    0    0  0.00000000000E+00  0.00000000000E+00 -0.14846376908E+04  0.21292160351E+04  0.15262410855E+04 0.  0.
        4    1    3    3  502    0 -0.30500722536E+03  0.69750984359E+03 -0.66847274182E+03  0.10131173717E+04  0.12699999809E+01 0. -1.
       -4    1    3    3    0  502  0.30500722536E+03 -0.69750984359E+03 -0.81616494899E+03  0.11160986633E+04  0.12699999809E+01 0.  1.
</event>
<event>
 5   0  0.4086710E-04  0.1480742E+04  0.7818609E-02  0.8897361E-01
        1   -1    0    0  501    0  0.00000000000E+00  0.00000000000E+00  0.14506870561E+04  0.14506870561E+04  0.50400001928E-02 0. -1.
       -1   -1    0    0    0  501  0.00000000000E+00  0.00000000000E+00 -0.37785471926E+03  0.37785471929E+03  0.50400001928E-02 0.  1.
    10030    2    1    2    0    0  0.00000000000E+00  0.00000000000E+00  0.10728323368E+04  0.18285417754E+04  0.14807416390E+04 0.  0.
        3    1    3    3  502    0 -0.28414818811E+03  0.35524347784E+03 -0.18491881335E+03  0.49105305120E+03  0.10100000352E+00 0.  1.
       -3    1    3    3    0  502  0.28414818811E+03 -0.35524347784E+03  0.12577511502E+04  0.13374887242E+04  0.10100000352E+00 0. -1.
</event>
<event>
 5   0  0.4086710E-04  0.1488625E+04  0.7818609E-02  0.8892053E-01
       -1   -1    0    0    0  501  0.00000000000E+00  0.00000000000E+00  0.80215445076E+03  0.80215445078E+03  0.50400001928E-02 0. -1.
        1   -1    0    0  501    0  0.00000000000E+00  0.00000000000E+00 -0.69064117214E+03  0.69064117215E+03  0.50400001928E-02 0.  1.
    10030    2    1    2    0    0  0.00000000000E+00  0.00000000000E+00  0.11151327863E+03  0.14927956229E+04  0.14886247212E+04 0.  0.
        3    1    3    3  502    0  0.65162547938E+03  0.35969720225E+03  0.54008985337E+02  0.74626726002E+03  0.10100000352E+00 0.  1.
       -3    1    3    3    0  502 -0.65162547938E+03 -0.35969720225E+03  0.57504293291E+02  0.74652836291E+03  0.10100000352E+00 0. -1.
</event>
<event>
 5   0  0.4058874E-04  0.1501965E+04  0.7818609E-02  0.8883147E-01
       -1   -1    0    0    0  501  0.00000000000E+00  0.00000000000E+00  0.87208943613E+03  0.87208943615E+03  0.50400001928E-02 0.  1.
        1   -1    0    0  501    0  0.00000000000E+00  0.00000000000E+00 -0.64669391545E+03  0.64669391547E+03  0.50400001928E-02 0. -1.
    10030    2    1    2    0    0  0.00000000000E+00  0.00000000000E+00  0.22539552068E+03  0.15187833516E+04  0.15019652887E+04 0.  0.
        4    1    3    3  502    0 -0.10082483986E+03 -0.73847411264E+03  0.20572602705E+03  0.77319756497E+03  0.12699999809E+01 0. -1.
       -4    1    3    3    0  502  0.10082483986E+03  0.73847411264E+03  0.19669493636E+02  0.74558578665E+03  0.12699999809E+01 0.  1.
</event>
<event>
 5   0  0.4086710E-04  0.1505849E+04  0.7818609E-02  0.8880572E-01
       -1   -1    0    0    0  501  0.00000000000E+00  0.00000000000E+00  0.90618066061E+03  0.90618066062E+03  0.50400001928E-02 0. -1.
        1   -1    0    0  501    0  0.00000000000E+00  0.00000000000E+00 -0.62558784849E+03  0.62558784851E+03  0.50400001928E-02 0.  1.
    10030    2    1    2    0    0  0.00000000000E+00  0.00000000000E+00  0.28059281211E+03  0.15317685091E+04  0.15058494079E+04 0.  0.
        3    1    3    3  502    0  0.24108296953E+03  0.71310789469E+03  0.12415725140E+03  0.76292784780E+03  0.10100000352E+00 0. -1.
       -3    1    3    3    0  502 -0.24108296953E+03 -0.71310789469E+03  0.15643556071E+03  0.76884066133E+03  0.10100000352E+00 0.  1.
</event>
<event>
 5   0  0.4084462E-04  0.1485027E+04  0.7818609E-02  0.8894471E-01
        1   -1    0    0  501    0  0.00000000000E+00  0.00000000000E+00  0.89307370548E+03  0.89307370550E+03  0.50400001928E-02 0.  1.
       -1   -1    0    0    0  501  0.00000000000E+00  0.00000000000E+00 -0.61733569276E+03  0.61733569278E+03  0.50400001928E-02 0. -1.
    10030    2    1    2    0    0  0.00000000000E+00  0.00000000000E+00  0.27573801273E+03  0.15104093983E+04  0.14850269690E+04 0.  0.
        1    1    3    3  502    0 -0.88325381443E+02 -0.72859617893E+03  0.23372653050E+02  0.73430242128E+03  0.50400001928E-02 0. -1.
       -1    1    3    3    0  502  0.88325381443E+02  0.72859617893E+03  0.25236535968E+03  0.77610697700E+03  0.50400001928E-02 0.  1.
</event>
<event>
 5   0  0.3907345E-04  0.1541176E+04  0.7818609E-02  0.8857524E-01
        1   -1    0    0  501    0  0.00000000000E+00  0.00000000000E+00  0.74407548836E+03  0.74407548838E+03  0.50400001928E-02 0. -1.
       -1   -1    0    0    0  501  0.00000000000E+00  0.00000000000E+00 -0.79804475396E+03  0.79804475398E+03  0.50400001928E-02 0.  1.
    10030    2    1    2    0    0  0.00000000000E+00  0.00000000000E+00 -0.53969265600E+02  0.15421202424E+04  0.15411755774E+04 0.  0.
        5    1    3    3  502    0 -0.76455307361E+03  0.81283871869E+02 -0.78348151839E+02  0.77285767971E+03  0.46999998093E+01 0. -1.
       -5    1    3    3    0  502  0.76455307361E+03 -0.81283871869E+02  0.24378886238E+02  0.76926256264E+03  0.46999998093E+01 0.  1.
</event>
<event>
 5   0  0.7454828E-04  0.1526899E+04  0.7818609E-02  0.8866760E-01
        2   -1    0    0  501    0  0.00000000000E+00  0.00000000000E+00  0.75825444204E+03  0.75825444204E+03  0.25500000920E-02 0.  1.
       -2   -1    0    0    0  501  0.00000000000E+00  0.00000000000E+00 -0.76867984676E+03  0.76867984676E+03  0.25500000920E-02 0. -1.
    10030    2    1    2    0    0  0.00000000000E+00  0.00000000000E+00 -0.10425404723E+02  0.15269342888E+04  0.15268986978E+04 0.  0.
        3    1    3    3  502    0  0.64821203188E+03 -0.11571927890E+02 -0.40838726496E+03  0.76621988761E+03  0.10100000352E+00 0. -1.
       -3    1    3    3    0  502 -0.64821203188E+03  0.11571927890E+02  0.39796186024E+03  0.76071440120E+03  0.10100000352E+00 0.  1.
</event>
<event>
 5   0  0.7634227E-04  0.1516750E+04  0.7818609E-02  0.8873390E-01
       -2   -1    0    0    0  501  0.00000000000E+00  0.00000000000E+00  0.38206818515E+03  0.38206818516E+03  0.25500000920E-02 0.  1.
        2   -1    0    0  501    0  0.00000000000E+00  0.00000000000E+00 -0.15053140710E+04  0.15053140710E+04  0.25500000920E-02 0. -1.
    10030    2    1    2    0    0  0.00000000000E+00  0.00000000000E+00 -0.11232458858E+04  0.18873822561E+04  0.15167499665E+04 0.  0.
        2    1    3    3  502    0  0.17196739885E+03 -0.59446916199E+03 -0.16135917725E+02  0.61905309843E+03  0.25500000920E-02 0.  1.
       -2    1    3    3    0  502 -0.17196739885E+03  0.59446916199E+03 -0.11071099681E+04  0.12683291577E+04  0.25500000920E-02 0. -1.
</event>
<event>
 5   0  0.3907345E-04  0.1503726E+04  0.7818609E-02  0.8881979E-01
        1   -1    0    0  501    0  0.00000000000E+00  0.00000000000E+00  0.75377456991E+03  0.75377456992E+03  0.50400001928E-02 0. -1.
       -1   -1    0    0    0  501  0.00000000000E+00  0.00000000000E+00 -0.74995630901E+03  0.74995630903E+03  0.50400001928E-02 0.  1.
    10030    2    1    2    0    0  0.00000000000E+00  0.00000000000E+00  0.38182608972E+01  0.15037308790E+04  0.15037260313E+04 0.  0.
        5    1    3    3  502    0  0.24823921996E+03  0.70937842561E+03  0.22776474747E+02  0.75191842566E+03  0.46999998093E+01 0. -1.
       -5    1    3    3    0  502 -0.24823921996E+03 -0.70937842561E+03 -0.18958213850E+02  0.75181245329E+03  0.46999998093E+01 0.  1.
</event>
<event>
 5   0  0.7454828E-04  0.1507236E+04  0.7818609E-02  0.8879655E-01
        2   -1    0    0  501    0  0.00000000000E+00  0.00000000000E+00  0.83041805173E+03  0.83041805173E+03  0.25500000920E-02 0.  1.
       -2   -1    0    0    0  501  0.00000000000E+00  0.00000000000E+00 -0.68392094061E+03  0.68392094062E+03  0.25500000920E-02 0. -1.
    10030    2    1    2    0    0  0.00000000000E+00  0.00000000000E+00  0.14649711111E+03  0.15143389923E+04  0.15072362722E+04 0.  0.
        3    1    3    3  502    0  0.38647720429E+03 -0.45771121617E+03  0.53265169754E+03  0.80161214308E+03  0.10100000352E+00 0.  1.
       -3    1    3    3    0  502 -0.38647720429E+03  0.45771121617E+03 -0.38615458642E+03  0.71272684927E+03  0.10100000352E+00 0. -1.
</event>
<event>
 5   0  0.7359897E-04  0.1485505E+04  0.7818609E-02  0.8894149E-01
        2   -1    0    0  501    0  0.00000000000E+00  0.00000000000E+00  0.49554099788E+03  0.49554099789E+03  0.25500000920E-02 0.  1.
       -2   -1    0    0    0  501  0.00000000000E+00  0.00000000000E+00 -0.11132910944E+04  0.11132910944E+04  0.25500000920E-02 0. -1.
    10030    2    1    2    0    0  0.00000000000E+00  0.00000000000E+00 -0.61775009655E+03  0.16088320923E+04  0.14855051395E+04 0.  0.
        1    1    3    3  502    0  0.61087134868E+03 -0.14715550030E+03  0.12006499429E+03  0.63971411488E+03  0.50400001928E-02 0.  1.
       -1    1    3    3    0  502 -0.61087134868E+03  0.14715550030E+03 -0.73781509085E+03  0.96911797745E+03  0.50400001928E-02 0. -1.
</event>
<event>
 5   0  0.7547580E-04  0.1486624E+04  0.7818609E-02  0.8893397E-01
        2   -1    0    0  501    0  0.00000000000E+00  0.00000000000E+00  0.24275915143E+04  0.24275915143E+04  0.25500000920E-02 0.  1.
       -2   -1    0    0    0  501  0.00000000000E+00  0.00000000000E+00 -0.22759695412E+03  0.22759695414E+03  0.25500000920E-02 0. -1.
    10030    2    1    2    0    0  0.00000000000E+00  0.00000000000E+00  0.21999945601E+04  0.26551884684E+04  0.14866236034E+04 0.  0.
        4    1    3    3  502    0  0.61043762896E+03 -0.11450589050E+03  0.18293656817E+04  0.19319229043E+04  0.12699999809E+01 0.  1.
       -4    1    3    3    0  502 -0.61043762896E+03  0.11450589050E+03  0.37062887843E+03  0.72326556411E+03  0.12699999809E+01 0. -1.
</event>
<event>
 5   0  0.7634227E-04  0.1503369E+04  0.7818609E-02  0.8882216E-01
       -2   -1    0    0    0  501  0.00000000000E+00  0.00000000000E+00  0.54824037605E+03  0.54824037606E+03  0.25500000920E-02 0. -1.
        2   -1    0    0  501    0  0.00000000000E+00  0.00000000000E+00 -0.10306235027E+04  0.10306235027E+04  0.25500000920E-02 0.  1.
    10030    2    1    2    0    0  0.00000000000E+00  0.00000000000E+00 -0.48238312668E+03  0.15788638788E+04  0.15033687727E+04 0.  0.
        2    1    3    3  502    0  0.49456328494E+02 -0.17919374661E+03 -0.10061024510E+04  0.10231316969E+04  0.25500000920E-02 0.  1.
       -2    1    3    3    0  502 -0.49456328494E+02  0.17919374661E+03  0.52371932436E+03  0.55573218187E+03  0.25500000920E-02 0. -1.
</event>
<event>
 5   0  0.3907345E-04  0.1494856E+04  0.7818609E-02  0.8887881E-01
       -1   -1    0    0    0  501  0.00000000000E+00  0.00000000000E+00  0.46743970136E+03  0.46743970139E+03  0.50400001928E-02 0. -1.
        1   -1    0    0  501    0  0.00000000000E+00  0.00000000000E+00 -0.11951248056E+04  0.11951248056E+04  0.50400001928E-02 0.  1.
    10030    2    1    2    0    0  0.00000000000E+00  0.00000000000E+00 -0.72768510421E+03  0.16625645070E+04  0.14948562235E+04 0.  0.
        5    1    3    3  502    0 -0.30121438021E+03  0.53824181385E+03 -0.83332957829E+03  0.10367712520E+04  0.46999998093E+01 0.  1.
       -5    1    3    3    0  502  0.30121438021E+03 -0.53824181385E+03  0.10564447408E+03  0.62579325493E+03  0.46999998093E+01 0. -1.
</event>
<event>
 5   0  0.7634227E-04  0.1505899E+04  0.7818609E-02  0.8880540E-01
       -2   -1    0    0    0  501  0.00000000000E+00  0.00000000000E+00  0.85420500537E+03  0.85420500538E+03  0.25500000920E-02 0.  1.
        2   -1    0    0  501    0  0.00000000000E+00  0.00000000000E+00 -0.66369644693E+03  0.66369644694E+03  0.25500000920E-02 0. -1.
    10030    2    1    2    0    0  0.00000000000E+00  0.00000000000E+00  0.19050855844E+03  0.15179014523E+04  0.15058988373E+04 0.  0.
        2    1    3    3  502    0 -0.68438151289E+03  0.17118115474E+03  0.36050908542E+03  0.79224228845E+03  0.25500000920E-02 0.  1.
       -2    1    3    3    0  502  0.68438151289E+03 -0.17118115474E+03 -0.17000052698E+03  0.72565916387E+03  0.25500000920E-02 0. -1.
</event>
<event>
 5   0  0.3907345E-04  0.1495848E+04  0.7818609E-02  0.8887219E-01
        1   -1    0    0  501    0  0.00000000000E+00  0.00000000000E+00  0.86456864756E+03  0.86456864758E+03  0.50400001928E-02 0. -1.
       -1   -1    0    0    0  501  0.00000000000E+00  0.00000000000E+00 -0.64701634810E+03  0.64701634812E+03  0.50400001928E-02 0.  1.
    10030    2    1    2    0    0  0.00000000000E+00  0.00000000000E+00  0.21755229947E+03  0.15115849957E+04  0.14958476514E+04 0.  0.
        5    1    3    3  502    0  0.65709006045E+02  0.63836148685E+03  0.49693304574E+03  0.81165731889E+03  0.46999998093E+01 0. -1.
       -5    1    3    3    0  502 -0.65709006045E+02 -0.63836148685E+03 -0.27938074627E+03  0.69992767680E+03  0.46999998093E+01 0.  1.
</event>
<event>
 5   0  0.4015204E-04  0.1494769E+04  0.7818609E-02  0.8887939E-01
        1   -1    0    0  501    0  0.00000000000E+00  0.00000000000E+00  0.21076228305E+04  0.21076228305E+04  0.50400001928E-02 0. -1.
       -1   -1    0    0    0  501  0.00000000000E+00  0.00000000000E+00 -0.26503024480E+03  0.26503024485E+03  0.50400001928E-02 0.  1.
    10030    2    1    2    0    0  0.00000000000E+00  0.00000000000E+00  0.18425925857E+04  0.23726530754E+04  0.14947692729E+04 0.  0.
        2    1    3    3  502    0  0.62793331076E+03 -0.92174433158E+02  0.29478878445E+03  0.69978339244E+03  0.25500000920E-02 0.  1.
       -2    1    3    3    0  502 -0.62793331076E+03  0.92174433158E+02  0.15478038012E+04  0.16728696829E+04  0.25500000920E-02 0. -1.
</event>
<event>
 5   0  0.4015204E-04  0.1499062E+04  0.7818609E-02  0.8885077E-01
       -1   -1    0    0    0  501  0.00000000000E+00  0.00000000000E+00  0.31885000433E+03  0.31885000437E+03  0.50400001928E-02 0.  1.
        1   -1    0    0  501    0  0.00000000000E+00  0.00000000000E+00 -0.17619465046E+04  0.17619465046E+04  0.50400001928E-02 0. -1.
    10030    2    1    2    0    0  0.00000000000E+00  0.00000000000E+00 -0.14430965003E+04  0.20807965090E+04  0.14990619076E+04 0.  0.
        2    1    3    3  502    0  0.20215936364E+03  0.50994883129E+03 -0.12573457295E+02  0.54870238807E+03  0.25500000920E-02 0. -1.
       -2    1    3    3    0  502 -0.20215936364E+03 -0.50994883129E+03 -0.14305230430E+04  0.15320941209E+04  0.25500000920E-02 0.  1.
</event>
<event>
 5   0  0.4058874E-04  0.1510129E+04  0.7818609E-02  0.8877745E-01
       -1   -1    0    0    0  501  0.00000000000E+00  0.00000000000E+00  0.69832467396E+03  0.69832467398E+03  0.50400001928E-02 0.  1.
        1   -1    0    0  501    0  0.00000000000E+00  0.00000000000E+00 -0.81641497645E+03  0.81641497647E+03  0.50400001928E-02 0. -1.
    10030    2    1    2    0    0  0.00000000000E+00  0.00000000000E+00 -0.11809030249E+03  0.15147396504E+04  0.15101294279E+04 0.  0.
        4    1    3    3  502    0  0.11924225522E+03 -0.71255533127E-01 -0.80690995231E+03  0.81567395726E+03  0.12699999809E+01 0. -1.
       -4    1    3    3    0  502 -0.11924225522E+03  0.71255533127E-01  0.68881964982E+03  0.69906569318E+03  0.12699999809E+01 0.  1.
</event>
<event>
 5   0  0.7359897E-04  0.1505196E+04  0.7818609E-02  0.8881005E-01
        2   -1    0    0  501    0  0.00000000000E+00  0.00000000000E+00  0.79814633346E+03  0.79814633346E+03  0.25500000920E-02 0. -1.
       -2   -1    0    0    0  501  0.00000000000E+00  0.00000000000E+00 -0.70964862133E+03  0.70964862133E+03  0.25500000920E-02 0.  1.
    10030    2    1    2    0    0  0.00000000000E+00  0.00000000000E+00  0.88497712134E+02  0.15077949548E+04  0.15051955955E+04 0.  0.
        1    1    3    3  502    0 -0.34069692348E+03  0.65649869496E+03  0.18355199664E+03  0.76207366156E+03  0.50400001928E-02 0. -1.
       -1    1    3    3    0  502  0.34069692348E+03 -0.65649869496E+03 -0.95054284505E+02  0.74572129323E+03  0.50400001928E-02 0.  1.
</event>
<event>
 5   0  0.7547580E-04  0.1472205E+04  0.7818609E-02  0.8903150E-01
       -2   -1    0    0    0  501  0.00000000000E+00  0.00000000000E+00  0.46255166179E+03  0.46255166179E+03  0.25500000920E-02 0. -1.
        2   -1    0    0  501    0  0.00000000000E+00  0.00000000000E+00 -0.11714294476E+04  0.11714294476E+04  0.25500000920E-02 0.  1.
    10030    2    1    2    0    0  0.00000000000E+00  0.00000000000E+00 -0.70887778584E+03  0.16339811094E+04  0.14722046565E+04 0.  0.
        4    1    3    3  502    0  0.35485440805E+02  0.42261734019E+03  0.31332259360E+03  0.52729241726E+03  0.12699999809E+01 0. -1.
       -4    1    3    3    0  502 -0.35485440805E+02 -0.42261734019E+03 -0.10222003794E+04  0.11066886922E+04  0.12699999809E+01 0.  1.
</event>
<event>
 5   0  0.4086710E-04  0.1512110E+04  0.7818609E-02  0.8876439E-01
        1   -1    0    0  501    0  0.00000000000E+00  0.00000000000E+00  0.13364109796E+04  0.13364109796E+04  0.50400001928E-02 0. -1.
       -1   -1    0    0    0  501  0.00000000000E+00  0.00000000000E+00 -0.42772718899E+03  0.42772718902E+03  0.50400001928E-02 0.  1.
    10030    2    1    2    0    0  0.00000000000E+00  0.00000000000E+00  0.90868379060E+03  0.17641381686E+04  0.15121101966E+04 0.  0.
        3    1    3    3  502    0  0.48677007478E+03 -0.21165970420E+02 -0.22013860493E+03  0.53465327043E+03  0.10100000352E+00 0.  1.
       -3    1    3    3    0  502 -0.48677007478E+03  0.21165970420E+02  0.11288223955E+04  0.12294848982E+04  0.10100000352E+00 0. -1.
</event>
<event>
 5   0  0.7454828E-04  0.1473735E+04  0.7818609E-02  0.8902109E-01
       -2   -1    0    0    0  501  0.00000000000E+00  0.00000000000E+00  0.39320471897E+03  0.39320471898E+03  0.25500000920E-02 0. -1.
        2   -1    0    0  501    0  0.00000000000E+00  0.00000000000E+00 -0.13808939969E+04  0.13808939969E+04  0.25500000920E-02 0.  1.
    10030    2    1    2    0    0  0.00000000000E+00  0.00000000000E+00 -0.98768927790E+03  0.17740987158E+04  0.14737354389E+04 0.  0.
        3    1    3    3  502    0 -0.43007477214E+03 -0.59821562366E+03 -0.47921035091E+03  0.87890204952E+03  0.10100000352E+00 0. -1.
       -3    1    3    3    0  502  0.43007477214E+03  0.59821562366E+03 -0.50847892699E+03  0.89519666633E+03  0.10100000352E+00 0.  1.
</event>
<event>
 5   0  0.4086710E-04  0.1498303E+04  0.7818609E-02  0.8885582E-01
        1   -1    0    0  501    0  0.00000000000E+00  0.00000000000E+00  0.53061647802E+03  0.53061647805E+03  0.50400001928E-02 0. -1.
       -1   -1    0    0    0  501  0.00000000000E+00  0.00000000000E+00 -0.10576908125E+04  0.10576908125E+04  0.50400001928E-02 0.  1.
    10030    2    1    2    0    0  0.00000000000E+00  0.00000000000E+00 -0.52707433451E+03  0.15883072906E+04  0.14983032721E+04 0.  0.
        3    1    3    3  502    0  0.40535505243E+03 -0.15542908662E+03  0.38367675007E+03  0.57937792351E+03  0.10100000352E+00 0. -1.
       -3    1    3    3    0  502 -0.40535505243E+03  0.15542908662E+03 -0.91075108458E+03  0.10089293671E+04  0.10100000352E+00 0.  1.
</event>
<event>
 5   0  0.4015204E-04  0.1502949E+04  0.7818609E-02  0.8882494E-01
        1   -1    0    0  501    0  0.00000000000E+00  0.00000000000E+00  0.56340236697E+03  0.56340236699E+03  0.50400001928E-02 0.  1.
       -1   -1    0    0    0  501  0.00000000000E+00  0.00000000000E+00 -0.10023280614E+04  0.10023280614E+04  0.50400001928E-02 0. -1.
    10030    2    1    2    0    0  0.00000000000E+00  0.00000000000E+00 -0.43892569443E+03  0.15657304284E+04  0.15029491040E+04 0.  0.
        2    1    3    3  502    0 -0.20298980319E+03 -0.82306015744E+02 -0.96833313379E+03  0.99279816601E+03  0.25500000920E-02 0. -1.
       -2    1    3    3    0  502  0.20298980319E+03  0.82306015744E+02  0.52940743937E+03  0.57293226239E+03  0.25500000920E-02 0.  1.
</event>
<event>
 5   0  0.7634227E-04  0.1514600E+04  0.7818609E-02  0.8874802E-01
       -2   -1    0    0    0  501  0.00000000000E+00  0.00000000000E+00  0.55896776583E+03  0.55896776584E+03  0.25500000920E-02 0. -1.
        2   -1    0    0  501    0  0.00000000000E+00  0.00000000000E+00 -0.10260040714E+04  0.10260040714E+04  0.25500000920E-02 0.  1.
    10030    2    1    2    0    0  0.00000000000E+00  0.00000000000E+00 -0.46703630558E+03  0.15849718372E+04  0.15145998858E+04 0.  0.
        2    1    3    3  502    0  0.19792459835E+03  0.47050320662E+03 -0.81893487686E+03  0.96498795154E+03  0.25500000920E-02 0.  1.
       -2    1    3    3    0  502 -0.19792459835E+03 -0.47050320662E+03  0.35189857128E+03  0.61998388571E+03  0.25500000920E-02 0. -1.
</event>
<event>
 5   0  0.3907345E-04  0.1465847E+04  0.7818609E-02  0.8907487E-01
        1   -1    0    0  501    0  0.00000000000E+00  0.00000000000E+00  0.96704515237E+03  0.96704515238E+03  0.50400001928E-02 0.  1.
       -1   -1    0    0    0  501  0.00000000000E+00  0.00000000000E+00 -0.55548265463E+03  0.55548265465E+03  0.50400001928E-02 0. -1.
    10030    2    1    2    0    0  0.00000000000E+00  0.00000000000E+00  0.41156249774E+03  0.15225278070E+04  0.14658469339E+04 0.  0.
        5    1    3    3  502    0  0.30579379736E+03 -0.46585429134E+03 -0.28867763541E+03  0.62760412240E+03  0.46999998093E+01 0. -1.
       -5    1    3    3    0  502 -0.30579379736E+03  0.46585429134E+03  0.70024013315E+03  0.89492368464E+03  0.46999998093E+01 0.  1.
</event>
<event>
 5   0  0.4084462E-04  0.1470476E+04  0.7818609E-02  0.8904327E-01
        1   -1    0    0  501    0  0.00000000000E+00  0.00000000000E+00  0.60121296207E+03  0.60121296209E+03  0.50400001928E-02 0.  1.
       -1   -1    0    0    0  501  0.00000000000E+00  0.00000000000E+00 -0.89914054265E+03  0.89914054267E+03  0.50400001928E-02 0. -1.
    10030    2    1    2    0    0  0.00000000000E+00  0.00000000000E+00 -0.29792758059E+03  0.15003535048E+04  0.14704760440E+04 0.  0.
        1    1    3    3  502    0 -0.61538748201E+03  0.34135199566E+03  0.68323296920E+02  0.70702971004E+03  0.50400001928E-02 0.  1.
       -1    1    3    3    0  502  0.61538748201E+03 -0.34135199566E+03 -0.36625087751E+03  0.79332379471E+03  0.50400001928E-02 0. -1.
</event>
<event>
 5   0  0.7547580E-04  0.1506165E+04  0.7818609E-02  0.8880364E-01
        2   -1    0    0  501    0  0.00000000000E+00  0.00000000000E+00  0.17030282034E+04  0.17030282034E+04  0.25500000920E-02 0. -1.
       -2   -1    0    0    0  501  0.00000000000E+00  0.00000000000E+00 -0.33301447733E+03  0.33301447734E+03  0.25500000920E-02 0.  1.
    10030    2    1    2    0    0  0.00000000000E+00  0.00000000000E+00  0.13700137261E+04  0.20360426808E+04  0.15061647281E+04 0.  0.
        4    1    3    3  502    0 -0.62063035782E+02 -0.28187412281E+03  0.16252913525E+04  0.16507205805E+04  0.12699999809E+01 0. -1.
       -4    1    3    3    0  502  0.62063035782E+02  0.28187412281E+03 -0.25527762639E+03  0.38532210027E+03  0.12699999809E+01 0.  1.
</event>
<event>
 5   0  0.4084462E-04  0.1500567E+04  0.7818609E-02  0.8884076E-01
        1   -1    0    0  501    0  0.00000000000E+00  0.00000000000E+00  0.12393228125E+04  0.12393228125E+04  0.50400001928E-02 0. -1.
       -1   -1    0    0    0  501  0.00000000000E+00  0.00000000000E+00 -0.45422005160E+03  0.45422005163E+03  0.50400001928E-02 0.  1.
    10030    2    1    2    0    0  0.00000000000E+00  0.00000000000E+00  0.78510276093E+03  0.16935428642E+04  0.15005669221E+04 0.  0.
        1    1    3    3  502    0 -0.34956340343E+02  0.54038918842E+03  0.97864567005E+03  0.11184765390E+04  0.50400001928E-02 0. -1.
       -1    1    3    3    0  502  0.34956340343E+02 -0.54038918842E+03 -0.19354290912E+03  0.57506632521E+03  0.50400001928E-02 0.  1.
</event>
<event>
 5   0  0.7547580E-04  0.1556036E+04  0.7818609E-02  0.8848021E-01
       -2   -1    0    0    0  501  0.00000000000E+00  0.00000000000E+00  0.36779961344E+03  0.36779961345E+03  0.25500000920E-02 0.  1.
        2   -1    0    0  501    0  0.00000000000E+00  0.00000000000E+00 -0.16457667727E+04  0.16457667727E+04  0.25500000920E-02 0. -1.
    10030    2    1    2    0    0  0.00000000000E+00  0.00000000000E+00 -0.12779671592E+04  0.20135663861E+04  0.15560364813E+04 0.  0.
        4    1    3    3  502    0 -0.20725554851E+03 -0.17819680922E+03  0.30362315687E+03  0.40853102635E+03  0.12699999809E+01 0.  1.
       -4    1    3    3    0  502  0.20725554851E+03  0.17819680922E+03 -0.15815903161E+04  0.16050353598E+04  0.12699999809E+01 0. -1.
</event>
<event>
 5   0  0.7672251E-04  0.1497497E+04  0.7818609E-02  0.8886119E-01
       -2   -1    0    0    0  501  0.00000000000E+00  0.00000000000E+00  0.32806668113E+03  0.32806668114E+03  0.25500000920E-02 0.  1.
        2   -1    0    0  501    0  0.00000000000E+00  0.00000000000E+00 -0.17088728532E+04  0.17088728532E+04  0.25500000920E-02 0. -1.
    10030    2    1    2    0    0  0.00000000000E+00  0.00000000000E+00 -0.13808061720E+04  0.20369395343E+04  0.14974969054E+04 0.  0.
        5    1    3    3  502    0 -0.29450849807E+03 -0.46574847550E+03 -0.90588594984E+00  0.55107150942E+03  0.46999998093E+01 0.  1.
       -5    1    3    3    0  502  0.29450849807E+03  0.46574847550E+03 -0.13799002861E+04  0.14858680249E+04  0.46999998093E+01 0. -1.
</event>
<event>
 5   0  0.4058874E-04  0.1502572E+04  0.7818609E-02  0.8882745E-01
        1   -1    0    0  501    0  0.00000000000E+00  0.00000000000E+00  0.16095199802E+04  0.16095199802E+04  0.50400001928E-02 0. -1.
       -1   -1    0    0    0  501  0.00000000000E+00  0.00000000000E+00 -0.35068244990E+03  0.35068244994E+03  0.50400001928E-02 0.  1.
    10030    2    1    2    0    0  0.00000000000E+00  0.00000000000E+00  0.12588375303E+04  0.19602024301E+04  0.15025716753E+04 0.  0.
        4    1    3    3  502    0 -0.36974412227E+03 -0.25100448225E+03 -0.15842923597E+03  0.47414702548E+03  0.12699999809E+01 0.  1.
       -4    1    3    3    0  502  0.36974412227E+03  0.25100448225E+03  0.14172667662E+04  0.14860554046E+04  0.12699999809E+01 0. -1.
</event>
<event>
 5   0  0.7672251E-04  0.1493081E+04  0.7818609E-02  0.8889067E-01
        2   -1    0    0  501    0  0.00000000000E+00  0.00000000000E+00  0.12701383925E+04  0.12701383925E+04  0.25500000920E-02 0.  1.
       -2   -1    0    0    0  501  0.00000000000E+00  0.00000000000E+00 -0.43878897041E+03  0.43878897042E+03  0.25500000920E-02 0. -1.
    10030    2    1    2    0    0  0.00000000000E+00  0.00000000000E+00  0.83134942205E+03  0.17089273629E+04  0.14930809992E+04 0.  0.
        5    1    3    3  502    0 -0.44821530535E+03 -0.59313136306E+03  0.33805624901E+03  0.81670428632E+03  0.46999998093E+01 0. -1.
       -5    1    3    3    0  502  0.44821530535E+03  0.59313136306E+03  0.49329317304E+03  0.89222307657E+03  0.46999998093E+01 0.  1.
</event>
<event>
 5   0  0.4015204E-04  0.1514611E+04  0.7818609E-02  0.8874794E-01
       -1   -1    0    0    0  501  0.00000000000E+00  0.00000000000E+00  0.54714539985E+03  0.54714539987E+03  0.50400001928E-02 0.  1.
        1   -1    0    0  501    0  0.00000000000E+00  0.00000000000E+00 -0.10481892707E+04  0.10481892707E+04  0.50400001928E-02 0. -1.
    10030    2    1    2    0    0  0.00000000000E+00  0.00000000000E+00 -0.50104387086E+03  0.15953346706E+04  0.15146114190E+04 0.  0.
        2    1    3    3  502    0 -0.32734505726E+02 -0.40067633276E+03  0.42547678686E+03  0.58535764081E+03  0.25500000920E-02 0.  1.
       -2    1    3    3    0  502  0.32734505726E+02  0.40067633276E+03 -0.92652065772E+03  0.10099770298E+04  0.25500000920E-02 0. -1.
</event>
<event>
 5   0  0.7634227E-04  0.1516886E+04  0.7818609E-02  0.8873301E-01
        2   -1    0    0  501    0  0.00000000000E+00  0.00000000000E+00  0.21853059916E+04  0.21853059916E+04  0.25500000920E-02 0. -1.
       -2   -1    0    0    0  501  0.00000000000E+00  0.00000000000E+00 -0.26322894511E+03  0.26322894512E+03  0.25500000920E-02 0.  1.
    10030    2    1    2    0    0  0.00000000000E+00  0.00000000000E+00  0.19220770465E+04  0.24485349367E+04  0.15168860088E+04 0.  0.
        2    1    3    3  502    0  0.46766529138E+03  0.44795017740E+03  0.15983159038E+04  0.17245242574E+04  0.25500000920E-02 0. -1.
       -2    1    3    3    0  502 -0.46766529138E+03 -0.44795017740E+03  0.32376114273E+03  0.72401067930E+03  0.25500000920E-02 0.  1.
</event>
<event>
 5   0  0.3907345E-04  0.1501177E+04  0.7818609E-02  0.8883670E-01
       -1   -1    0    0    0  501  0.00000000000E+00  0.00000000000E+00  0.61947920347E+03  0.61947920349E+03  0.50400001928E-02 0.  1.
        1   -1    0    0  501    0  0.00000000000E+00  0.00000000000E+00 -0.90944686805E+03  0.90944686806E+03  0.50400001928E-02 0. -1.
    10030    2    1    2    0    0  0.00000000000E+00  0.00000000000E+00 -0.28996766457E+03  0.15289260716E+04  0.15011774331E+04 0.  0.
        5    1    3    3  502    0  0.34525047646E+01  0.17214777923E+03 -0.88904558702E+03  0.90557767391E+03  0.46999998093E+01 0. -1.
       -5    1    3    3    0  502 -0.34525047646E+01 -0.17214777923E+03  0.59907792245E+03  0.62334839765E+03  0.46999998093E+01 0.  1.
</event>
</LesHouchesEvents>
