<LesHouchesEvents version="3.0">
<header>
<!--
#*********************************************************************
#                                                                    *
#                        MadGraph5_aMC@NLO                           *
#                                                                    *
#                           Going Beyond                             *
#                                                                    *
#                   http://madgraph.hep.uiuc.edu                     *
#                   http://madgraph.phys.ucl.ac.be                   *
#                   http://amcatnlo.cern.ch                          *
#                                                                    *
#                     The MadGraph5_aMC@NLO team                     *
#                                                                    *
#....................................................................*
#                                                                    *
# This file contains all the information necessary to reproduce      *
# the events generated:                                              *
#                                                                    *
# 1. software version                                                *
# 2. proc_card          : code generation info including model       *
# 3. param_card         : model primary parameters in the LH format  *
# 4. run_card           : running parameters (collider and cuts)     *
# 5. pythia_card        : present only if pythia has been run        *
# 6. pgs_card           : present only if pgs has been run           *
# 7. delphes_cards      : present only if delphes has been run       *
#                                                                    *
#                                                                    *
#*********************************************************************
-->
<MGVersion>
#5.2.2.3
</MGVersion>
<MG5ProcCard>
#************************************************************
#*                     MadGraph5_aMC@NLO                    *
#*                                                          *
#*                *                       *                 *
#*                  *        * *        *                   *
#*                    * * * * 5 * * * *                     *
#*                  *        * *        *                   *
#*                *                       *                 *
#*                                                          *
#*                                                          *
#*         VERSION 2.2.3                 2015-02-10         *
#*                                                          *
#*    The MadGraph5_aMC@NLO Development Team - Find us at   *
#*    https://server06.fynu.ucl.ac.be/projects/madgraph     *
#*                                                          *
#************************************************************
#*                                                          *
#*               Command File for MadGraph5_aMC@NLO         *
#*                                                          *
#*     run as ./bin/mg5_aMC  filename                       *
#*                                                          *
#************************************************************
set group_subprocesses Auto
set ignore_six_quark_processes False
set loop_optimized_output True
set gauge unitary
set complex_mass_scheme False
import model sm
define p = g u c d s u~ c~ d~ s~
define j = g u c d s u~ c~ d~ s~
define l+ = e+ mu+
define l- = e- mu-
define vl = ve vm vt
define vl~ = ve~ vm~ vt~
import model Zprime_UFO
generate p p > zph, zph > j j
add process p p > zph, zph > b b~
output Dijet_signal
</MG5ProcCard>
<MGProcCard>
#*********************************************************************
#                        MadGraph/MadEvent                           *
#                   http://madgraph.hep.uiuc.edu                     *
#                                                                    *
#                          proc_card.dat                             *
#*********************************************************************
#                                                                    *
#            This Files is generated by MADGRAPH 5                   *
#                                                                    *
# WARNING: This Files is generated for MADEVENT (compatibility issue)*
#          This files is NOT a valid MG4 proc_card.dat               *
#          Running this in MG4 will NEVER reproduce the result of MG5*
#                                                                    *
#*********************************************************************
#*********************************************************************
# Process(es) requested : mg2 input                                  *
#*********************************************************************
# Begin PROCESS # This is TAG. Do not modify this line
p p > zph , zph > j j           #Process
# Be carefull the coupling are here in MG5 convention
          
end_coup           # End the couplings input

done               # this tells MG there are no more procs
# End PROCESS  # This is TAG. Do not modify this line
#*********************************************************************
# Model information                                                  *
#*********************************************************************
# Begin MODEL  # This is TAG. Do not modify this line
Zprime_UFO
# End   MODEL  # This is TAG. Do not modify this line
#*********************************************************************
# Start multiparticle definitions                                    *
#*********************************************************************
# Begin MULTIPARTICLES # This is TAG. Do not modify this line

# End  MULTIPARTICLES # This is TAG. Do not modify this line
</MGProcCard>
<MGRunCard>
#*********************************************************************
#                       MadGraph5_aMC@NLO                            *
#                                                                    *
#                     run_card.dat MadEvent                          *
#                                                                    *
#  This file is used to set the parameters of the run.               *
#                                                                    *
#  Some notation/conventions:                                        *
#                                                                    *
#   Lines starting with a '# ' are info or comments                  *
#                                                                    *
#   mind the format:   value    = variable     ! comment             *
#*********************************************************************
#
#*******************                                                 
# Running parameters
#*******************                                                 
#                                                                    
#*********************************************************************
# Tag name for the run (one word)                                    *
#*********************************************************************
  tag_1     = run_tag ! name of the run 
#*********************************************************************
# Run to generate the grid pack                                      *
#*********************************************************************
  .false.     = gridpack  !True = setting up the grid pack
#*********************************************************************
# Number of events and rnd seed                                      *
# Warning: Do not generate more than 1M events in a single run       *
# If you want to run Pythia, avoid more than 50k events in a run.    *
#*********************************************************************
  2000 = nevents ! Number of unweighted events requested 
 2712 = iseed   ! rnd seed (0=assigned automatically=default))
#*********************************************************************
# Collider type and energy                                           *
# lpp: 0=No PDF, 1=proton, -1=antiproton, 2=photon from proton,      *
#                                         3=photon from electron     *
#*********************************************************************
        1     = lpp1    ! beam 1 type 
        1     = lpp2    ! beam 2 type
     4000     = ebeam1  ! beam 1 total energy in GeV
     4000     = ebeam2  ! beam 2 total energy in GeV
#*********************************************************************
# Beam polarization from -100 (left-handed) to 100 (right-handed)    *
#*********************************************************************
        0     = polbeam1 ! beam polarization for beam 1
        0     = polbeam2 ! beam polarization for beam 2
#*********************************************************************
# PDF CHOICE: this automatically fixes also alpha_s and its evol.    *
#*********************************************************************
 'nn23lo1'    = pdlabel     ! PDF set                                     
 230000    = lhaid     ! if pdlabel=lhapdf, this is the lhapdf number
#*********************************************************************
# Renormalization and factorization scales                           *
#*********************************************************************
 F        = fixed_ren_scale  ! if .true. use fixed ren scale
 F        = fixed_fac_scale  ! if .true. use fixed fac scale
 91.1880  = scale            ! fixed ren scale
 91.1880  = dsqrt_q2fact1    ! fixed fact scale for pdf1
 91.1880  = dsqrt_q2fact2    ! fixed fact scale for pdf2
 1        = scalefact        ! scale factor for event-by-event scales
#*********************************************************************
# Matching - Warning! ickkw > 1 is still beta
#*********************************************************************
 0        = ickkw            ! 0 no matching, 1 MLM, 2 CKKW matching
 1        = highestmult      ! for ickkw=2, highest mult group
 1        = ktscheme         ! for ickkw=1, 1 Durham kT, 2 Pythia pTE
 1        = alpsfact         ! scale factor for QCD emission vx
 F        = chcluster        ! cluster only according to channel diag
 T        = pdfwgt           ! for ickkw=1, perform pdf reweighting
 5        = asrwgtflavor     ! highest quark flavor for a_s reweight
 T        = clusinfo         ! include clustering tag in output
 3.0      = lhe_version       ! Change the way clustering information pass to shower.        
#*********************************************************************
#**********************************************************
#
#**********************************************************
# Automatic ptj and mjj cuts if xqcut > 0
# (turn off for VBF and single top processes)
#**********************************************************
   T  = auto_ptj_mjj  ! Automatic setting of ptj and mjj
#**********************************************************
#                                                                    
#**********************************
# BW cutoff (M+/-bwcutoff*Gamma)
#**********************************
  15  = bwcutoff      ! (M+/-bwcutoff*Gamma)
#**********************************************************
# Apply pt/E/eta/dr/mij cuts on decay products or not
# (note that etmiss/ptll/ptheavy/ht/sorted cuts always apply)
#**********************************************************
   T  = cut_decays    ! Cut decay products 
#*************************************************************
# Number of helicities to sum per event (0 = all helicities)
# 0 gives more stable result, but longer run time (needed for
# long decay chains e.g.).
# Use >=2 if most helicities contribute, e.g. pure QCD.
#*************************************************************
   0  = nhel          ! Number of helicities used per event
#*******************                                                 
# Standard Cuts
#*******************                                                 
#                                                                    
#*********************************************************************
# Minimum and maximum pt's (for max, -1 means no cut)                *
#*********************************************************************
 20  = ptj       ! minimum pt for the jets 
  0  = ptb       ! minimum pt for the b 
 10  = pta       ! minimum pt for the photons 
 10  = ptl       ! minimum pt for the charged leptons 
  0  = misset    ! minimum missing Et (sum of neutrino's momenta)
  0  = ptheavy   ! minimum pt for one heavy final state
 1.0 = ptonium   ! minimum pt for the quarkonium states
 -1  = ptjmax    ! maximum pt for the jets
 -1  = ptbmax    ! maximum pt for the b
 -1  = ptamax    ! maximum pt for the photons
 -1  = ptlmax    ! maximum pt for the charged leptons
 -1  = missetmax ! maximum missing Et (sum of neutrino's momenta)
#*********************************************************************
# Minimum and maximum E's (in the center of mass frame)              *
#*********************************************************************
  0  = ej     ! minimum E for the jets 
  0  = eb     ! minimum E for the b 
  0  = ea     ! minimum E for the photons 
  0  = el     ! minimum E for the charged leptons 
 -1   = ejmax ! maximum E for the jets
 -1   = ebmax ! maximum E for the b
 -1   = eamax ! maximum E for the photons
 -1   = elmax ! maximum E for the charged leptons
#*********************************************************************
# Maximum and minimum absolute rapidity (for max, -1 means no cut)   *
#*********************************************************************
   5  = etaj    ! max rap for the jets 
  -1  = etab    ! max rap for the b
 2.5  = etaa    ! max rap for the photons 
 2.5  = etal    ! max rap for the charged leptons 
 0.6  = etaonium ! max rap for the quarkonium states
   0  = etajmin ! min rap for the jets
   0  = etabmin ! min rap for the b
   0  = etaamin ! min rap for the photons
   0  = etalmin ! main rap for the charged leptons
#*********************************************************************
# Minimum and maximum DeltaR distance                                *
#*********************************************************************
 0.4 = drjj    ! min distance between jets 
 0   = drbb    ! min distance between b's 
 0.4 = drll    ! min distance between leptons 
 0.4 = draa    ! min distance between gammas 
 0   = drbj    ! min distance between b and jet 
 0.4 = draj    ! min distance between gamma and jet 
 0.4 = drjl    ! min distance between jet and lepton 
 0   = drab    ! min distance between gamma and b 
 0   = drbl    ! min distance between b and lepton 
 0.4 = dral    ! min distance between gamma and lepton 
 -1  = drjjmax ! max distance between jets
 -1  = drbbmax ! max distance between b's
 -1  = drllmax ! max distance between leptons
 -1  = draamax ! max distance between gammas
 -1  = drbjmax ! max distance between b and jet
 -1  = drajmax ! max distance between gamma and jet
 -1  = drjlmax ! max distance between jet and lepton
 -1  = drabmax ! max distance between gamma and b
 -1  = drblmax ! max distance between b and lepton
 -1  = dralmax ! maxdistance between gamma and lepton
#*********************************************************************
# Minimum and maximum invariant mass for pairs                       *
# WARNING: for four lepton final state mmll cut require to have      *
#          different lepton masses for each flavor!                  *           
#*********************************************************************
 0   = mmjj    ! min invariant mass of a jet pair 
 0   = mmbb    ! min invariant mass of a b pair 
 0   = mmaa    ! min invariant mass of gamma gamma pair
 0   = mmll    ! min invariant mass of l+l- (same flavour) lepton pair
 -1  = mmjjmax ! max invariant mass of a jet pair
 -1  = mmbbmax ! max invariant mass of a b pair
 -1  = mmaamax ! max invariant mass of gamma gamma pair
 -1  = mmllmax ! max invariant mass of l+l- (same flavour) lepton pair
#*********************************************************************
# Minimum and maximum invariant mass for all letpons                 *
#*********************************************************************
 0   = mmnl    ! min invariant mass for all letpons (l+- and vl) 
 -1  = mmnlmax ! max invariant mass for all letpons (l+- and vl) 
#*********************************************************************
# Minimum and maximum pt for 4-momenta sum of leptons                *
#*********************************************************************
 0   = ptllmin  ! Minimum pt for 4-momenta sum of leptons(l and vl)
 -1  = ptllmax  ! Maximum pt for 4-momenta sum of leptons(l and vl)
#*********************************************************************
# Inclusive cuts                                                     *
#*********************************************************************
 0  = xptj ! minimum pt for at least one jet  
 0  = xptb ! minimum pt for at least one b 
 0  = xpta ! minimum pt for at least one photon 
 0  = xptl ! minimum pt for at least one charged lepton 
#*********************************************************************
# Control the pt's of the jets sorted by pt                          *
#*********************************************************************
 0   = ptj1min ! minimum pt for the leading jet in pt
 0   = ptj2min ! minimum pt for the second jet in pt
 0   = ptj3min ! minimum pt for the third jet in pt
 0   = ptj4min ! minimum pt for the fourth jet in pt
 -1  = ptj1max ! maximum pt for the leading jet in pt 
 -1  = ptj2max ! maximum pt for the second jet in pt
 -1  = ptj3max ! maximum pt for the third jet in pt
 -1  = ptj4max ! maximum pt for the fourth jet in pt
 0   = cutuse  ! reject event if fails any (0) / all (1) jet pt cuts
#*********************************************************************
# Control the pt's of leptons sorted by pt                           *
#*********************************************************************
 0   = ptl1min ! minimum pt for the leading lepton in pt
 0   = ptl2min ! minimum pt for the second lepton in pt
 0   = ptl3min ! minimum pt for the third lepton in pt
 0   = ptl4min ! minimum pt for the fourth lepton in pt
 -1  = ptl1max ! maximum pt for the leading lepton in pt 
 -1  = ptl2max ! maximum pt for the second lepton in pt
 -1  = ptl3max ! maximum pt for the third lepton in pt
 -1  = ptl4max ! maximum pt for the fourth lepton in pt
#*********************************************************************
# Control the Ht(k)=Sum of k leading jets                            *
#*********************************************************************
 0   = htjmin ! minimum jet HT=Sum(jet pt)
 -1  = htjmax ! maximum jet HT=Sum(jet pt)
 0   = ihtmin  !inclusive Ht for all partons (including b)
 -1  = ihtmax  !inclusive Ht for all partons (including b)
 0   = ht2min ! minimum Ht for the two leading jets
 0   = ht3min ! minimum Ht for the three leading jets
 0   = ht4min ! minimum Ht for the four leading jets
 -1  = ht2max ! maximum Ht for the two leading jets
 -1  = ht3max ! maximum Ht for the three leading jets
 -1  = ht4max ! maximum Ht for the four leading jets
#***********************************************************************
# Photon-isolation cuts, according to hep-ph/9801442                   *
# When ptgmin=0, all the other parameters are ignored                  *
# When ptgmin>0, pta and draj are not going to be used                 *
#***********************************************************************
   0 = ptgmin ! Min photon transverse momentum
 0.4 = R0gamma ! Radius of isolation code
 1.0 = xn ! n parameter of eq.(3.4) in hep-ph/9801442
 1.0 = epsgamma ! epsilon_gamma parameter of eq.(3.4) in hep-ph/9801442
 .true. = isoEM ! isolate photons from EM energy (photons and leptons)
#*********************************************************************
# WBF cuts                                                           *
#*********************************************************************
 0   = xetamin ! minimum rapidity for two jets in the WBF case  
 0   = deltaeta ! minimum rapidity for two jets in the WBF case 
#*********************************************************************
# KT DURHAM CUT                                                      *
#*********************************************************************
 -1    =  ktdurham        
 0.4  =  dparameter 
#*********************************************************************
# maximal pdg code for quark to be considered as a light jet         *
# (otherwise b cuts are applied)                                     *
#*********************************************************************
 4 = maxjetflavor    ! Maximum jet pdg code
#*********************************************************************
# Jet measure cuts                                                   *
#*********************************************************************
 0   = xqcut   ! minimum kt jet measure between partons
#*********************************************************************
#
#*********************************************************************
# Store info for systematics studies                                 *
# WARNING: If use_syst is T, matched Pythia output is                *
#          meaningful ONLY if plotted taking matchscale              *
#          reweighting into account!                                 *
#*********************************************************************
   F  = use_syst      ! Enable systematics studies
#
#**************************************
# Parameter of the systematics study
#  will be used by SysCalc (if installed)
#**************************************                                  
#
0.5 1 2 = sys_scalefact  # factorization/renormalization scale factor
0.5 1 2 = sys_alpsfact  # \alpha_s emission scale factors
30 50 = sys_matchscale # variation of merging scale
# PDF sets and number of members (0 or none for all members).
CT10nlo.LHgrid = sys_pdf # matching scales
# MSTW2008nlo68cl.LHgrid 1  = sys_pdf
</MGRunCard>
<slha>
######################################################################
## PARAM_CARD AUTOMATICALY GENERATED BY MG5 FOLLOWING UFO MODEL   ####
######################################################################
##                                                                  ##
##  Width set on Auto will be computed following the information    ##
##        present in the decay.py files of the model.               ##
##        See  arXiv:1402.1178 for more details.                    ##
##                                                                  ##
######################################################################

###################################
## INFORMATION FOR CKMBLOCK
###################################
Block ckmblock 
    1 2.277360e-01 # cabi 

###################################
## INFORMATION FOR FRBLOCK
###################################
Block frblock 
    1 1.400000e+00 # gz 

###################################
## INFORMATION FOR MASS
###################################
Block mass 
    1 5.040000e-03 # MD 
    2 2.550000e-03 # MU 
    3 1.010000e-01 # MS 
    4 1.270000e+00 # MC 
    5 4.700000e+00 # MB 
    6 1.720000e+02 # MT 
   11 5.110000e-04 # Me 
   13 1.056600e-01 # MM 
   15 1.777000e+00 # MTA 
   23 9.118760e+01 # MZ 
   25 1.200000e+02 # MH 
  10030 3.500000e+03 # MZph 
  10031 3.000000e+02 # MZpl 
## Dependent parameters, given by model restrictions.
## Those values should be edited following the 
## analytical expression. MG5 ignores those values 
## but they are important for interfacing the output of MG5
## to external program such as Pythia.
  12 0.000000 # ve : 0.0 
  14 0.000000 # vm : 0.0 
  16 0.000000 # vt : 0.0 
  21 0.000000 # g : 0.0 
  22 0.000000 # a : 0.0 
  24 79.824360 # w+ : cmath.sqrt(MZ__exp__2/2. + cmath.sqrt(MZ__exp__4/4. - (aEW*cmath.pi*MZ__exp__2)/(Gf*sqrt__2))) 

###################################
## INFORMATION FOR SMINPUTS
###################################
Block sminputs 
    1 1.279000e+02 # aEWM1 
    2 1.166370e-05 # Gf 
    3 1.184000e-01 # aS 

###################################
## INFORMATION FOR YUKAWA
###################################
Block yukawa 
    1 5.040000e-03 # ymdo 
    2 2.550000e-03 # ymup 
    3 1.010000e-01 # yms 
    4 1.270000e+00 # ymc 
    5 4.700000e+00 # ymb 
    6 1.720000e+02 # ymt 
   11 5.110000e-04 # yme 
   13 1.056600e-01 # ymm 
   15 1.777000e+00 # ymtau 

###################################
## INFORMATION FOR DECAY
###################################
DECAY   6 1.508336e+00 # WT 
DECAY  23 2.495200e+00 # WZ 
DECAY  24 2.085000e+00 # WW 
DECAY  25 5.753088e-03 # WH 
## Dependent parameters, given by model restrictions.
## Those values should be edited following the 
## analytical expression. MG5 ignores those values 
## but they are important for interfacing the output of MG5
## to external program such as Pythia.
DECAY  1 0.000000 # d : 0.0 
DECAY  2 0.000000 # u : 0.0 
DECAY  3 0.000000 # s : 0.0 
DECAY  4 0.000000 # c : 0.0 
DECAY  5 0.000000 # b : 0.0 
DECAY  11 0.000000 # e- : 0.0 
DECAY  12 0.000000 # ve : 0.0 
DECAY  13 0.000000 # mu- : 0.0 
DECAY  14 0.000000 # vm : 0.0 
DECAY  15 0.000000 # ta- : 0.0 
DECAY  16 0.000000 # vt : 0.0 
DECAY  21 0.000000 # g : 0.0 
DECAY  22 0.000000 # a : 0.0 
DECAY  10030 0.308725 # zph : (gz__exp__2*MZph*(5 + cmath.sqrt(1 - (4*MT__exp__2)/MZph__exp__2)))/(144.*cmath.pi) 
DECAY  10031 0.132629 # zpl : (5*gz__exp__2*MZpl)/(144.*cmath.pi) 
#===========================================================
# QUANTUM NUMBERS OF NEW STATE(S) (NON SM PDG CODE)
#===========================================================

Block QNUMBERS 10030  # zph 
        1 0  # 3 times electric charge
        2 3  # number of spin states (2S+1)
        3 1  # colour rep (1: singlet, 3: triplet, 8: octet)
        4 0  # Particle/Antiparticle distinction (0=own anti)
Block QNUMBERS 10031  # zpl 
        1 0  # 3 times electric charge
        2 3  # number of spin states (2S+1)
        3 1  # colour rep (1: singlet, 3: triplet, 8: octet)
        4 0  # Particle/Antiparticle distinction (0=own anti)
</slha>
## END BANNER##
<MGGenerationInfo>
#  Number of Events        :         3956
#  Integrated weight (pb)  :  0.53041E-03
#  Max wgt                 :  0.20733E-06
#  Average wgt             :  0.13408E-06
</MGGenerationInfo>
</header>
<init>
     2212     2212  0.40000000000E+04  0.40000000000E+04 0 0  247000  247000 2   1
  0.53048802627E-03  0.16553434744E-05  0.20732870000E-06   0
</init>
<event>
 5   0  0.2073287E-06  0.3447657E+04  0.7818609E-02  0.8126308E-01
        2   -1    0    0  501    0  0.00000000000E+00  0.00000000000E+00  0.19554460781E+04  0.19554460781E+04  0.25500000920E-02 0.  1.
       -2   -1    0    0    0  501  0.00000000000E+00  0.00000000000E+00 -0.15196458516E+04  0.15196458516E+04  0.25500000920E-02 0. -1.
    10030    2    1    2    0    0  0.00000000000E+00  0.00000000000E+00  0.43580022650E+03  0.34750919297E+04  0.34476574776E+04 0.  0.
        1    1    3    3  502    0  0.16479876527E+04  0.81562836978E+02 -0.28514004019E+03  0.16744612991E+04  0.50400001928E-02 0.  1.
       -1    1    3    3    0  502 -0.16479876527E+04 -0.81562836978E+02  0.72094026668E+03  0.18006306306E+04  0.50400001928E-02 0. -1.
</event>
<event>
 5   0  0.2073287E-06  0.3519868E+04  0.7818609E-02  0.8109098E-01
       -2   -1    0    0    0  501  0.00000000000E+00  0.00000000000E+00  0.13770504802E+04  0.13770504802E+04  0.25500000920E-02 0. -1.
        2   -1    0    0  501    0  0.00000000000E+00  0.00000000000E+00 -0.22492762926E+04  0.22492762926E+04  0.25500000920E-02 0.  1.
    10030    2    1    2    0    0  0.00000000000E+00  0.00000000000E+00 -0.87222581235E+03  0.36263267728E+04  0.35198676104E+04 0.  0.
        1    1    3    3  502    0 -0.14102304419E+04 -0.12370253413E+03  0.64112894452E+03  0.15540587311E+04  0.50400001928E-02 0. -1.
       -1    1    3    3    0  502  0.14102304419E+04  0.12370253413E+03 -0.15133547569E+04  0.20722680416E+04  0.50400001928E-02 0.  1.
</event>
<event>
 5   0  0.2020725E-06  0.3371812E+04  0.7818609E-02  0.8144859E-01
       -2   -1    0    0    0  501  0.00000000000E+00  0.00000000000E+00  0.14706407278E+04  0.14706407278E+04  0.25500000920E-02 0. -1.
        2   -1    0    0  501    0  0.00000000000E+00  0.00000000000E+00 -0.19326805446E+04  0.19326805446E+04  0.25500000920E-02 0.  1.
    10030    2    1    2    0    0  0.00000000000E+00  0.00000000000E+00 -0.46203981678E+03  0.34033212724E+04  0.33718118113E+04 0.  0.
        3    1    3    3  502    0  0.24380239680E+03  0.14774143939E+04 -0.10129110632E+04  0.18078113099E+04  0.10100000352E+00 0.  1.
       -3    1    3    3    0  502 -0.24380239680E+03 -0.14774143939E+04  0.55087124644E+03  0.15955099625E+04  0.10100000352E+00 0. -1.
</event>
<event>
 5   0  0.2073287E-06  0.3496248E+04  0.7818609E-02  0.8114680E-01
        2   -1    0    0  501    0  0.00000000000E+00  0.00000000000E+00  0.16365427645E+04  0.16365427645E+04  0.25500000920E-02 0.  1.
       -2   -1    0    0    0  501  0.00000000000E+00  0.00000000000E+00 -0.18673127260E+04  0.18673127260E+04  0.25500000920E-02 0. -1.
    10030    2    1    2    0    0  0.00000000000E+00  0.00000000000E+00 -0.23076996150E+03  0.35038554904E+04  0.34962477777E+04 0.  0.
        1    1    3    3  502    0  0.77999726467E+03 -0.63811891022E+03 -0.15468998274E+04  0.18462097802E+04  0.50400001928E-02 0. -1.
       -1    1    3    3    0  502 -0.77999726467E+03  0.63811891022E+03  0.13161298660E+04  0.16576457102E+04  0.50400001928E-02 0.  1.
</event>
<event>
 5   0  0.2020725E-06  0.3284075E+04  0.7818609E-02  0.8166959E-01
       -2   -1    0    0    0  501  0.00000000000E+00  0.00000000000E+00  0.11578773582E+04  0.11578773582E+04  0.25500000920E-02 0.  1.
        2   -1    0    0  501    0  0.00000000000E+00  0.00000000000E+00 -0.23286471120E+04  0.23286471120E+04  0.25500000920E-02 0. -1.
    10030    2    1    2    0    0  0.00000000000E+00  0.00000000000E+00 -0.11707697539E+04  0.34865244702E+04  0.32840753744E+04 0.  0.
        3    1    3    3  502    0  0.46757444851E+03 -0.18601968244E+03  0.10739977570E+04  0.11860440040E+04  0.10100000352E+00 0.  1.
       -3    1    3    3    0  502 -0.46757444851E+03  0.18601968244E+03 -0.22447675109E+04  0.23004804662E+04  0.10100000352E+00 0. -1.
</event>
<event>
 5   0  0.6630125E-07  0.3487909E+04  0.7818609E-02  0.8116661E-01
       -1   -1    0    0    0  501  0.00000000000E+00  0.00000000000E+00  0.17319430656E+04  0.17319430657E+04  0.50400001928E-02 0. -1.
        1   -1    0    0  501    0  0.00000000000E+00  0.00000000000E+00 -0.17560492502E+04  0.17560492502E+04  0.50400001928E-02 0.  1.
    10030    2    1    2    0    0  0.00000000000E+00  0.00000000000E+00 -0.24106184563E+02  0.34879923159E+04  0.34879090136E+04 0.  0.
        1    1    3    3  502    0 -0.30112112192E+03 -0.16742277794E+04 -0.39633396332E+03  0.17466519968E+04  0.50400001928E-02 0.  1.
       -1    1    3    3    0  502  0.30112112192E+03  0.16742277794E+04  0.37222777875E+03  0.17413403191E+04  0.50400001928E-02 0. -1.
</event>
<event>
 5   0  0.6890600E-07  0.3512520E+04  0.7818609E-02  0.8110829E-01
       -1   -1    0    0    0  501  0.00000000000E+00  0.00000000000E+00  0.12254316851E+04  0.12254316851E+04  0.50400001928E-02 0. -1.
        1   -1    0    0  501    0  0.00000000000E+00  0.00000000000E+00 -0.25170309636E+04  0.25170309636E+04  0.50400001928E-02 0.  1.
    10030    2    1    2    0    0  0.00000000000E+00  0.00000000000E+00 -0.12915992784E+04  0.37424626487E+04  0.35125201752E+04 0.  0.
        3    1    3    3  502    0 -0.29445485633E+03  0.61241917262E+03 -0.23712879032E+04  0.24667320964E+04  0.10100000352E+00 0.  1.
       -3    1    3    3    0  502  0.29445485633E+03 -0.61241917262E+03  0.10796886248E+04  0.12757305523E+04  0.10100000352E+00 0. -1.
</event>
<event>
 5   0  0.2073287E-06  0.3489534E+04  0.7818609E-02  0.8116275E-01
       -2   -1    0    0    0  501  0.00000000000E+00  0.00000000000E+00  0.23449639872E+04  0.23449639872E+04  0.25500000920E-02 0.  1.
        2   -1    0    0  501    0  0.00000000000E+00  0.00000000000E+00 -0.12981914470E+04  0.12981914470E+04  0.25500000920E-02 0. -1.
    10030    2    1    2    0    0  0.00000000000E+00  0.00000000000E+00  0.10467725402E+04  0.36431554343E+04  0.34895341763E+04 0.  0.
        1    1    3    3  502    0  0.37404048712E+03 -0.44326100853E+03 -0.11946035582E+04  0.13279549198E+04  0.50400001928E-02 0. -1.
       -1    1    3    3    0  502 -0.37404048712E+03  0.44326100853E+03  0.22413760984E+04  0.23152005145E+04  0.50400001928E-02 0.  1.
</event>
<event>
 5   0  0.7378896E-07  0.3470860E+04  0.7818609E-02  0.8120731E-01
       -1   -1    0    0    0  501  0.00000000000E+00  0.00000000000E+00  0.17106551580E+04  0.17106551580E+04  0.50400001928E-02 0.  1.
        1   -1    0    0  501    0  0.00000000000E+00  0.00000000000E+00 -0.17605641406E+04  0.17605641406E+04  0.50400001928E-02 0. -1.
    10030    2    1    2    0    0  0.00000000000E+00  0.00000000000E+00 -0.49908982640E+02  0.34712192986E+04  0.34708604859E+04 0.  0.
        2    1    3    3  502    0  0.34296020437E+03 -0.14217121328E+04 -0.95930534149E+03  0.17490436897E+04  0.25500000920E-02 0. -1.
       -2    1    3    3    0  502 -0.34296020437E+03  0.14217121328E+04  0.90939635885E+03  0.17221756089E+04  0.25500000920E-02 0.  1.
</event>
<event>
 5   0  0.2073287E-06  0.3500326E+04  0.7818609E-02  0.8113713E-01
        2   -1    0    0  501    0  0.00000000000E+00  0.00000000000E+00  0.21062724711E+04  0.21062724711E+04  0.25500000920E-02 0. -1.
       -2   -1    0    0    0  501  0.00000000000E+00  0.00000000000E+00 -0.14542616862E+04  0.14542616862E+04  0.25500000920E-02 0.  1.
    10030    2    1    2    0    0  0.00000000000E+00  0.00000000000E+00  0.65201078494E+03  0.35605341574E+04  0.35003264736E+04 0.  0.
        1    1    3    3  502    0  0.14414514669E+04  0.45020797176E+02  0.13346571858E+04  0.19649730297E+04  0.50400001928E-02 0. -1.
       -1    1    3    3    0  502 -0.14414514669E+04 -0.45020797176E+02 -0.68264640087E+03  0.15955611277E+04  0.50400001928E-02 0.  1.
</event>
<event>
 5   0  0.2023479E-06  0.2865559E+04  0.7818609E-02  0.8283199E-01
        2   -1    0    0  501    0  0.00000000000E+00  0.00000000000E+00  0.10654816975E+04  0.10654816975E+04  0.25500000920E-02 0.  1.
       -2   -1    0    0    0  501  0.00000000000E+00  0.00000000000E+00 -0.19266940436E+04  0.19266940436E+04  0.25500000920E-02 0. -1.
    10030    2    1    2    0    0  0.00000000000E+00  0.00000000000E+00 -0.86121234602E+03  0.29921757411E+04  0.28655591009E+04 0.  0.
        5    1    3    3  502    0 -0.60410693167E+03 -0.11555555254E+04  0.18941628738E+03  0.13176321100E+04  0.46999998093E+01 0.  1.
       -5    1    3    3    0  502  0.60410693167E+03  0.11555555254E+04 -0.10506286334E+04  0.16745436311E+04  0.46999998093E+01 0. -1.
</event>
<event>
 5   0  0.2023479E-06  0.3036406E+04  0.7818609E-02  0.8233411E-01
       -2   -1    0    0    0  501  0.00000000000E+00  0.00000000000E+00  0.17641639828E+04  0.17641639828E+04  0.25500000920E-02 0.  1.
        2   -1    0    0  501    0  0.00000000000E+00  0.00000000000E+00 -0.13065337582E+04  0.13065337582E+04  0.25500000920E-02 0. -1.
    10030    2    1    2    0    0  0.00000000000E+00  0.00000000000E+00  0.45763022461E+03  0.30706977409E+04  0.30364056372E+04 0.  0.
        5    1    3    3  502    0  0.13242637475E+04  0.22140525374E+03 -0.48786533716E+03  0.14285410168E+04  0.46999998093E+01 0. -1.
       -5    1    3    3    0  502 -0.13242637475E+04 -0.22140525374E+03  0.94549556176E+03  0.16421567242E+04  0.46999998093E+01 0.  1.
</event>
<event>
 5   0  0.6630125E-07  0.3467219E+04  0.7818609E-02  0.8121603E-01
        1   -1    0    0  501    0  0.00000000000E+00  0.00000000000E+00  0.16251567358E+04  0.16251567358E+04  0.50400001928E-02 0. -1.
       -1   -1    0    0    0  501  0.00000000000E+00  0.00000000000E+00 -0.18492995034E+04  0.18492995034E+04  0.50400001928E-02 0.  1.
    10030    2    1    2    0    0  0.00000000000E+00  0.00000000000E+00 -0.22414276763E+03  0.34744562393E+04  0.34672187958E+04 0.  0.
        5    1    3    3  502    0 -0.44253951218E+02  0.16029347451E+04  0.54810668388E+03  0.16946389693E+04  0.46999998093E+01 0. -1.
       -5    1    3    3    0  502  0.44253951218E+02 -0.16029347451E+04 -0.77224945151E+03  0.17798172700E+04  0.46999998093E+01 0.  1.
</event>
<event>
 5   0  0.6630125E-07  0.3087584E+04  0.7818609E-02  0.8219154E-01
        1   -1    0    0  501    0  0.00000000000E+00  0.00000000000E+00  0.20055426848E+04  0.20055426848E+04  0.50400001928E-02 0.  1.
       -1   -1    0    0    0  501  0.00000000000E+00  0.00000000000E+00 -0.11883537803E+04  0.11883537803E+04  0.50400001928E-02 0. -1.
    10030    2    1    2    0    0  0.00000000000E+00  0.00000000000E+00  0.81718890450E+03  0.31938964651E+04  0.30875843186E+04 0.  0.
        1    1    3    3  502    0  0.15455057810E+03 -0.11616257033E+04 -0.63101452250E+03  0.13309543506E+04  0.50400001928E-02 0. -1.
       -1    1    3    3    0  502 -0.15455057810E+03  0.11616257033E+04  0.14482034270E+04  0.18629421145E+04  0.50400001928E-02 0.  1.
</event>
<event>
 5   0  0.6890600E-07  0.3516153E+04  0.7818609E-02  0.8109972E-01
        1   -1    0    0  501    0  0.00000000000E+00  0.00000000000E+00  0.20325652339E+04  0.20325652339E+04  0.50400001928E-02 0. -1.
       -1   -1    0    0    0  501  0.00000000000E+00  0.00000000000E+00 -0.15206564699E+04  0.15206564699E+04  0.50400001928E-02 0.  1.
    10030    2    1    2    0    0  0.00000000000E+00  0.00000000000E+00  0.51190876405E+03  0.35532217038E+04  0.35161532807E+04 0.  0.
        3    1    3    3  502    0 -0.14225414931E+04  0.47940790511E+03 -0.66877589906E+03  0.16433859718E+04  0.10100000352E+00 0.  1.
       -3    1    3    3    0  502  0.14225414931E+04 -0.47940790511E+03  0.11806846631E+04  0.19098357319E+04  0.10100000352E+00 0. -1.
</event>
<event>
 5   0  0.6890600E-07  0.3472722E+04  0.7818609E-02  0.8120285E-01
       -1   -1    0    0    0  501  0.00000000000E+00  0.00000000000E+00  0.27561368137E+04  0.27561368137E+04  0.50400001928E-02 0.  1.
        1   -1    0    0  501    0  0.00000000000E+00  0.00000000000E+00 -0.10939039879E+04  0.10939039879E+04  0.50400001928E-02 0. -1.
    10030    2    1    2    0    0  0.00000000000E+00  0.00000000000E+00  0.16622328258E+04  0.38500408015E+04  0.34727217289E+04 0.  0.
        3    1    3    3  502    0 -0.88984888124E+03  0.89150439835E+03 -0.49386818629E+03  0.13529659712E+04  0.10100000352E+00 0. -1.
       -3    1    3    3    0  502  0.88984888124E+03 -0.89150439835E+03  0.21561010121E+04  0.24970748303E+04  0.10100000352E+00 0.  1.
</event>
<event>
 5   0  0.2073287E-06  0.2494280E+04  0.7818609E-02  0.8405026E-01
       -2   -1    0    0    0  501  0.00000000000E+00  0.00000000000E+00  0.11884147824E+04  0.11884147824E+04  0.25500000920E-02 0.  1.
        2   -1    0    0  501    0  0.00000000000E+00  0.00000000000E+00 -0.13087666933E+04  0.13087666933E+04  0.25500000920E-02 0. -1.
    10030    2    1    2    0    0  0.00000000000E+00  0.00000000000E+00 -0.12035191086E+03  0.24971814758E+04  0.24942796035E+04 0.  0.
        1    1    3    3  502    0  0.12369620144E+04 -0.58884872972E+02  0.87695682909E+02  0.12414640495E+04  0.50400001928E-02 0. -1.
       -1    1    3    3    0  502 -0.12369620144E+04  0.58884872972E+02 -0.20804759377E+03  0.12557174263E+04  0.50400001928E-02 0.  1.
</event>
<event>
 5   0  0.6630125E-07  0.3455932E+04  0.7818609E-02  0.8124314E-01
        1   -1    0    0  501    0  0.00000000000E+00  0.00000000000E+00  0.10758099335E+04  0.10758099335E+04  0.50400001928E-02 0.  1.
       -1   -1    0    0    0  501  0.00000000000E+00  0.00000000000E+00 -0.27754590540E+04  0.27754590540E+04  0.50400001928E-02 0. -1.
    10030    2    1    2    0    0  0.00000000000E+00  0.00000000000E+00 -0.16996491205E+04  0.38512689876E+04  0.34559319556E+04 0.  0.
        4    1    3    3  502    0  0.14356252438E+04 -0.36013931044E+03  0.14389019484E+03  0.14870864685E+04  0.12699999809E+01 0.  1.
       -4    1    3    3    0  502 -0.14356252438E+04  0.36013931044E+03 -0.18435393153E+04  0.23641825191E+04  0.12699999809E+01 0. -1.
</event>
<event>
 5   0  0.6630125E-07  0.3574990E+04  0.7818609E-02  0.8096245E-01
        1   -1    0    0  501    0  0.00000000000E+00  0.00000000000E+00  0.20715206958E+04  0.20715206958E+04  0.50400001928E-02 0. -1.
       -1   -1    0    0    0  501  0.00000000000E+00  0.00000000000E+00 -0.15424119523E+04  0.15424119523E+04  0.50400001928E-02 0.  1.
    10030    2    1    2    0    0  0.00000000000E+00  0.00000000000E+00  0.52910874350E+03  0.36139326481E+04  0.35749899472E+04 0.  0.
        1    1    3    3  502    0 -0.74642533919E+01  0.14000865155E+03 -0.15368446818E+04  0.15432270454E+04  0.50400001928E-02 0.  1.
       -1    1    3    3    0  502  0.74642533919E+01 -0.14000865155E+03  0.20659534253E+04  0.20707056027E+04  0.50400001928E-02 0. -1.
</event>
<event>
 5   0  0.2001768E-06  0.3383192E+04  0.7818609E-02  0.8142044E-01
       -2   -1    0    0    0  501  0.00000000000E+00  0.00000000000E+00  0.11628456951E+04  0.11628456951E+04  0.25500000920E-02 0. -1.
        2   -1    0    0  501    0  0.00000000000E+00  0.00000000000E+00 -0.24607715105E+04  0.24607715105E+04  0.25500000920E-02 0.  1.
    10030    2    1    2    0    0  0.00000000000E+00  0.00000000000E+00 -0.12979258154E+04  0.36236172056E+04  0.33831923135E+04 0.  0.
        2    1    3    3  502    0 -0.23412718221E+03  0.21015146985E+03  0.11312347110E+04  0.11741682797E+04  0.25500000920E-02 0. -1.
       -2    1    3    3    0  502  0.23412718221E+03 -0.21015146985E+03 -0.24291605264E+04  0.24494489259E+04  0.25500000920E-02 0.  1.
</event>
<event>
 5   0  0.6890600E-07  0.3545601E+04  0.7818609E-02  0.8103067E-01
        1   -1    0    0  501    0  0.00000000000E+00  0.00000000000E+00  0.23536941329E+04  0.23536941329E+04  0.50400001928E-02 0.  1.
       -1   -1    0    0    0  501  0.00000000000E+00  0.00000000000E+00 -0.13352720497E+04  0.13352720497E+04  0.50400001928E-02 0. -1.
    10030    2    1    2    0    0  0.00000000000E+00  0.00000000000E+00  0.10184220832E+04  0.36889661826E+04  0.35456012123E+04 0.  0.
        3    1    3    3  502    0  0.83493539413E+03  0.11264863024E+04  0.16378468920E+04  0.21560684019E+04  0.10100000352E+00 0.  1.
       -3    1    3    3    0  502 -0.83493539413E+03 -0.11264863024E+04 -0.61942480884E+03  0.15328977806E+04  0.10100000352E+00 0. -1.
</event>
<event>
 5   0  0.2020725E-06  0.3318010E+04  0.7818609E-02  0.8158328E-01
        2   -1    0    0  501    0  0.00000000000E+00  0.00000000000E+00  0.29099682152E+04  0.29099682152E+04  0.25500000920E-02 0.  1.
       -2   -1    0    0    0  501  0.00000000000E+00  0.00000000000E+00 -0.94581712034E+03  0.94581712034E+03  0.25500000920E-02 0. -1.
    10030    2    1    2    0    0  0.00000000000E+00  0.00000000000E+00  0.19641510949E+04  0.38557853356E+04  0.33180101010E+04 0.  0.
        3    1    3    3  502    0  0.10663229126E+04 -0.92201039551E+03 -0.34426930295E+02  0.14100826029E+04  0.10100000352E+00 0.  1.
       -3    1    3    3    0  502 -0.10663229126E+04  0.92201039551E+03  0.19985780252E+04  0.24457027326E+04  0.10100000352E+00 0. -1.
</event>
<event>
 5   0  0.6630125E-07  0.3469333E+04  0.7818609E-02  0.8121096E-01
        1   -1    0    0  501    0  0.00000000000E+00  0.00000000000E+00  0.20664641955E+04  0.20664641956E+04  0.50400001928E-02 0.  1.
       -1   -1    0    0    0  501  0.00000000000E+00  0.00000000000E+00 -0.14561431470E+04  0.14561431470E+04  0.50400001928E-02 0. -1.
    10030    2    1    2    0    0  0.00000000000E+00  0.00000000000E+00  0.61032104854E+03  0.35226073426E+04  0.34693328909E+04 0.  0.
        1    1    3    3  502    0 -0.91426769156E+03  0.92202134185E+03 -0.86274537875E+03  0.15589542505E+04  0.50400001928E-02 0. -1.
       -1    1    3    3    0  502  0.91426769156E+03 -0.92202134185E+03  0.14730664273E+04  0.19636530920E+04  0.50400001928E-02 0.  1.
</event>
<event>
 5   0  0.2001768E-06  0.2836008E+04  0.7818609E-02  0.8292176E-01
        2   -1    0    0  501    0  0.00000000000E+00  0.00000000000E+00  0.21450813268E+04  0.21450813269E+04  0.25500000920E-02 0. -1.
       -2   -1    0    0    0  501  0.00000000000E+00  0.00000000000E+00 -0.93737029449E+03  0.93737029450E+03  0.25500000920E-02 0.  1.
    10030    2    1    2    0    0  0.00000000000E+00  0.00000000000E+00  0.12077110324E+04  0.30824516213E+04  0.28360081206E+04 0.  0.
        2    1    3    3  502    0 -0.12285250802E+03 -0.90858471114E+03  0.17795740629E+04  0.20018748116E+04  0.25500000920E-02 0. -1.
       -2    1    3    3    0  502  0.12285250802E+03  0.90858471114E+03 -0.57186303053E+03  0.10805768097E+04  0.25500000920E-02 0.  1.
</event>
<event>
 5   0  0.7378896E-07  0.3624710E+04  0.7818609E-02  0.8084855E-01
        1   -1    0    0  501    0  0.00000000000E+00  0.00000000000E+00  0.25653252694E+04  0.25653252694E+04  0.50400001928E-02 0. -1.
       -1   -1    0    0    0  501  0.00000000000E+00  0.00000000000E+00 -0.12803950631E+04  0.12803950631E+04  0.50400001928E-02 0.  1.
    10030    2    1    2    0    0  0.00000000000E+00  0.00000000000E+00  0.12849302063E+04  0.38457203325E+04  0.36247095388E+04 0.  0.
        2    1    3    3  502    0 -0.12338309320E+04 -0.23403243944E+03  0.20288613351E+04  0.23860822007E+04  0.25500000920E-02 0. -1.
       -2    1    3    3    0  502  0.12338309320E+04  0.23403243944E+03 -0.74393112874E+03  0.14596381318E+04  0.25500000920E-02 0.  1.
</event>
<event>
 5   0  0.2020725E-06  0.3563459E+04  0.7818609E-02  0.8098913E-01
       -2   -1    0    0    0  501  0.00000000000E+00  0.00000000000E+00  0.24682502372E+04  0.24682502372E+04  0.25500000920E-02 0.  1.
        2   -1    0    0  501    0  0.00000000000E+00  0.00000000000E+00 -0.12861583270E+04  0.12861583270E+04  0.25500000920E-02 0. -1.
    10030    2    1    2    0    0  0.00000000000E+00  0.00000000000E+00  0.11820919101E+04  0.37544085642E+04  0.35634593281E+04 0.  0.
        3    1    3    3  502    0 -0.71217761074E+02 -0.54985025026E+03  0.23750473274E+04  0.24389048946E+04  0.10100000352E+00 0.  1.
       -3    1    3    3    0  502  0.71217761074E+02  0.54985025026E+03 -0.11929554172E+04  0.13155036697E+04  0.10100000352E+00 0. -1.
</event>
<event>
 5   0  0.2023479E-06  0.3475485E+04  0.7818609E-02  0.8119624E-01
        2   -1    0    0  501    0  0.00000000000E+00  0.00000000000E+00  0.21555160632E+04  0.21555160632E+04  0.25500000920E-02 0.  1.
       -2   -1    0    0    0  501  0.00000000000E+00  0.00000000000E+00 -0.14009402592E+04  0.14009402593E+04  0.25500000920E-02 0. -1.
    10030    2    1    2    0    0  0.00000000000E+00  0.00000000000E+00  0.75457580393E+03  0.35564563224E+04  0.34754851358E+04 0.  0.
        5    1    3    3  502    0  0.99339447344E+03  0.14219857797E+04  0.48388294872E+03  0.18008445062E+04  0.46999998093E+01 0. -1.
       -5    1    3    3    0  502 -0.99339447344E+03 -0.14219857797E+04  0.27069285521E+03  0.17556118162E+04  0.46999998093E+01 0.  1.
</event>
<event>
 5   0  0.7378896E-07  0.3403135E+04  0.7818609E-02  0.8137137E-01
       -1   -1    0    0    0  501  0.00000000000E+00  0.00000000000E+00  0.18340198286E+04  0.18340198286E+04  0.50400001928E-02 0. -1.
        1   -1    0    0  501    0  0.00000000000E+00  0.00000000000E+00 -0.15786811384E+04  0.15786811384E+04  0.50400001928E-02 0.  1.
    10030    2    1    2    0    0  0.00000000000E+00  0.00000000000E+00  0.25533869019E+03  0.34127009670E+04  0.34031353255E+04 0.  0.
        2    1    3    3  502    0 -0.66883028174E+02 -0.16651128944E+04  0.47252288316E+03  0.17321524660E+04  0.25500000920E-02 0. -1.
       -2    1    3    3    0  502  0.66883028174E+02  0.16651128944E+04 -0.21718419297E+03  0.16805485010E+04  0.25500000920E-02 0.  1.
</event>
<event>
 5   0  0.2020725E-06  0.3490414E+04  0.7818609E-02  0.8116065E-01
       -2   -1    0    0    0  501  0.00000000000E+00  0.00000000000E+00  0.23260106190E+04  0.23260106190E+04  0.25500000920E-02 0. -1.
        2   -1    0    0  501    0  0.00000000000E+00  0.00000000000E+00 -0.13094299278E+04  0.13094299278E+04  0.25500000920E-02 0.  1.
    10030    2    1    2    0    0  0.00000000000E+00  0.00000000000E+00  0.10165806912E+04  0.36354405469E+04  0.34904142545E+04 0.  0.
        3    1    3    3  502    0  0.16564626208E+04  0.54567899746E+03  0.44148545981E+03  0.17990395782E+04  0.10100000352E+00 0. -1.
       -3    1    3    3    0  502 -0.16564626208E+04 -0.54567899746E+03  0.57509523139E+03  0.18364009687E+04  0.10100000352E+00 0.  1.
</event>
<event>
 5   0  0.2073287E-06  0.3417283E+04  0.7818609E-02  0.8133677E-01
       -2   -1    0    0    0  501  0.00000000000E+00  0.00000000000E+00  0.18771193683E+04  0.18771193683E+04  0.25500000920E-02 0. -1.
        2   -1    0    0  501    0  0.00000000000E+00  0.00000000000E+00 -0.15552852595E+04  0.15552852595E+04  0.25500000920E-02 0.  1.
    10030    2    1    2    0    0  0.00000000000E+00  0.00000000000E+00  0.32183410877E+03  0.34324046279E+04  0.34172831805E+04 0.  0.
        1    1    3    3  502    0  0.25485051108E+03  0.68788252288E+03  0.17108997143E+04  0.18615340397E+04  0.50400001928E-02 0. -1.
       -1    1    3    3    0  502 -0.25485051108E+03 -0.68788252288E+03 -0.13890656056E+04  0.15708705882E+04  0.50400001928E-02 0.  1.
</event>
<event>
 5   0  0.6630125E-07  0.3617912E+04  0.7818609E-02  0.8086401E-01
       -1   -1    0    0    0  501  0.00000000000E+00  0.00000000000E+00  0.17300220938E+04  0.17300220938E+04  0.50400001928E-02 0. -1.
        1   -1    0    0  501    0  0.00000000000E+00  0.00000000000E+00 -0.18914913532E+04  0.18914913532E+04  0.50400001928E-02 0.  1.
    10030    2    1    2    0    0  0.00000000000E+00  0.00000000000E+00 -0.16146925944E+03  0.36215134470E+04  0.36179120118E+04 0.  0.
        5    1    3    3  502    0 -0.46915519528E+03  0.15910223363E+04  0.64167697300E+03  0.17785471879E+04  0.46999998093E+01 0. -1.
       -5    1    3    3    0  502  0.46915519528E+03 -0.15910223363E+04 -0.80314623244E+03  0.18429662592E+04  0.46999998093E+01 0.  1.
</event>
<event>
 5   0  0.2020725E-06  0.3425434E+04  0.7818609E-02  0.8131692E-01
       -2   -1    0    0    0  501  0.00000000000E+00  0.00000000000E+00  0.13584817620E+04  0.13584817620E+04  0.25500000920E-02 0.  1.
        2   -1    0    0  501    0  0.00000000000E+00  0.00000000000E+00 -0.21593217899E+04  0.21593217899E+04  0.25500000920E-02 0. -1.
    10030    2    1    2    0    0  0.00000000000E+00  0.00000000000E+00 -0.80084002784E+03  0.35178035519E+04  0.34254338527E+04 0.  0.
        3    1    3    3  502    0 -0.36316018123E+02  0.13926959033E+04 -0.14235164159E+04  0.19918131762E+04  0.10100000352E+00 0. -1.
       -3    1    3    3    0  502  0.36316018123E+02 -0.13926959033E+04  0.62267638809E+03  0.15259903757E+04  0.10100000352E+00 0.  1.
</event>
<event>
 5   0  0.6630125E-07  0.3384204E+04  0.7818609E-02  0.8141794E-01
       -1   -1    0    0    0  501  0.00000000000E+00  0.00000000000E+00  0.17918300315E+04  0.17918300315E+04  0.50400001928E-02 0.  1.
        1   -1    0    0  501    0  0.00000000000E+00  0.00000000000E+00 -0.15979244615E+04  0.15979244615E+04  0.50400001928E-02 0. -1.
    10030    2    1    2    0    0  0.00000000000E+00  0.00000000000E+00  0.19390557002E+03  0.33897544930E+04  0.33842039172E+04 0.  0.
        4    1    3    3  502    0  0.71842582310E+03  0.15236126572E+04  0.25745364855E+03  0.17040584458E+04  0.12699999809E+01 0.  1.
       -4    1    3    3    0  502 -0.71842582310E+03 -0.15236126572E+04 -0.63548078530E+02  0.16856960473E+04  0.12699999809E+01 0. -1.
</event>
<event>
 5   0  0.6630125E-07  0.3511158E+04  0.7818609E-02  0.8111151E-01
        1   -1    0    0  501    0  0.00000000000E+00  0.00000000000E+00  0.17194521420E+04  0.17194521420E+04  0.50400001928E-02 0. -1.
       -1   -1    0    0    0  501  0.00000000000E+00  0.00000000000E+00 -0.17924649158E+04  0.17924649158E+04  0.50400001928E-02 0.  1.
    10030    2    1    2    0    0  0.00000000000E+00  0.00000000000E+00 -0.73012773736E+02  0.35119170578E+04  0.35111580078E+04 0.  0.
        1    1    3    3  502    0 -0.66497756312E+03  0.20734983451E+03  0.15753222147E+04  0.17224486040E+04  0.50400001928E-02 0. -1.
       -1    1    3    3    0  502  0.66497756312E+03 -0.20734983451E+03 -0.16483349884E+04  0.17894684538E+04  0.50400001928E-02 0.  1.
</event>
<event>
 5   0  0.6890600E-07  0.3557233E+04  0.7818609E-02  0.8100359E-01
       -1   -1    0    0    0  501  0.00000000000E+00  0.00000000000E+00  0.12055846737E+04  0.12055846737E+04  0.50400001928E-02 0.  1.
        1   -1    0    0  501    0  0.00000000000E+00  0.00000000000E+00 -0.26240184347E+04  0.26240184348E+04  0.50400001928E-02 0. -1.
    10030    2    1    2    0    0  0.00000000000E+00  0.00000000000E+00 -0.14184337610E+04  0.38296031085E+04  0.35572328620E+04 0.  0.
        3    1    3    3  502    0 -0.38423300381E+03  0.14086238172E+04 -0.18026731504E+04  0.23198031290E+04  0.10100000352E+00 0. -1.
       -3    1    3    3    0  502  0.38423300381E+03 -0.14086238172E+04  0.38423938942E+03  0.15097999795E+04  0.10100000352E+00 0.  1.
</event>
<event>
 5   0  0.1999883E-06  0.3582248E+04  0.7818609E-02  0.8094570E-01
       -2   -1    0    0    0  501  0.00000000000E+00  0.00000000000E+00  0.26922121370E+04  0.26922121370E+04  0.25500000920E-02 0. -1.
        2   -1    0    0  501    0  0.00000000000E+00  0.00000000000E+00 -0.11916319671E+04  0.11916319671E+04  0.25500000920E-02 0.  1.
    10030    2    1    2    0    0  0.00000000000E+00  0.00000000000E+00  0.15005801699E+04  0.38838441041E+04  0.35822484809E+04 0.  0.
        4    1    3    3  502    0  0.98403132628E+03  0.60226685129E+03 -0.73512434160E+03  0.13680103880E+04  0.12699999809E+01 0.  1.
       -4    1    3    3    0  502 -0.98403132628E+03 -0.60226685129E+03  0.22357045115E+04  0.25158337161E+04  0.12699999809E+01 0. -1.
</event>
<event>
 5   0  0.1999883E-06  0.3159367E+04  0.7818609E-02  0.8199632E-01
       -2   -1    0    0    0  501  0.00000000000E+00  0.00000000000E+00  0.12974239249E+04  0.12974239249E+04  0.25500000920E-02 0.  1.
        2   -1    0    0  501    0  0.00000000000E+00  0.00000000000E+00 -0.19233491632E+04  0.19233491632E+04  0.25500000920E-02 0. -1.
    10030    2    1    2    0    0  0.00000000000E+00  0.00000000000E+00 -0.62592523825E+03  0.32207730881E+04  0.31593665316E+04 0.  0.
        4    1    3    3  502    0 -0.15399500904E+04  0.21045444024E+03 -0.60068984729E+03  0.16663034711E+04  0.12699999809E+01 0.  1.
       -4    1    3    3    0  502  0.15399500904E+04 -0.21045444024E+03 -0.25235390962E+02  0.15544696170E+04  0.12699999809E+01 0. -1.
</event>
<event>
 5   0  0.6630125E-07  0.2332593E+04  0.7818609E-02  0.8465180E-01
       -4   -1    0    0    0  501  0.00000000000E+00  0.00000000000E+00  0.97552034822E+03  0.97552117491E+03  0.12699999809E+01 0. -1.
        4   -1    0    0  501    0  0.00000000000E+00  0.00000000000E+00 -0.13943792754E+04  0.13943798538E+04  0.12699999809E+01 0.  1.
    10030    2    1    2    0    0  0.00000000000E+00  0.00000000000E+00 -0.41885892721E+03  0.23699010287E+04  0.23325925673E+04 0.  0.
        1    1    3    3  502    0 -0.50329737173E+03  0.85358591646E+03  0.41549371330E+03  0.10745009013E+04  0.50400001928E-02 0. -1.
       -1    1    3    3    0  502  0.50329737173E+03 -0.85358591646E+03 -0.83435264051E+03  0.12954001273E+04  0.50400001928E-02 0.  1.
</event>
<event>
 5   0  0.6890600E-07  0.3313295E+04  0.7818609E-02  0.8159521E-01
       -1   -1    0    0    0  501  0.00000000000E+00  0.00000000000E+00  0.10319266844E+04  0.10319266844E+04  0.50400001928E-02 0. -1.
        1   -1    0    0  501    0  0.00000000000E+00  0.00000000000E+00 -0.26595693872E+04  0.26595693872E+04  0.50400001928E-02 0.  1.
    10030    2    1    2    0    0  0.00000000000E+00  0.00000000000E+00 -0.16276427028E+04  0.36914960717E+04  0.33132948071E+04 0.  0.
        3    1    3    3  502    0 -0.37944631915E+03 -0.42627768545E+03  0.91895005398E+03  0.10817399808E+04  0.10100000352E+00 0. -1.
       -3    1    3    3    0  502  0.37944631915E+03  0.42627768545E+03 -0.25465927568E+04  0.26097560908E+04  0.10100000352E+00 0.  1.
</event>
<event>
 5   0  0.6630125E-07  0.3147568E+04  0.7818609E-02  0.8202803E-01
       -1   -1    0    0    0  501  0.00000000000E+00  0.00000000000E+00  0.14099696182E+04  0.14099696183E+04  0.50400001928E-02 0.  1.
        1   -1    0    0  501    0  0.00000000000E+00  0.00000000000E+00 -0.17566313141E+04  0.17566313141E+04  0.50400001928E-02 0. -1.
    10030    2    1    2    0    0  0.00000000000E+00  0.00000000000E+00 -0.34666169584E+03  0.31666009323E+04  0.31475684478E+04 0.  0.
        5    1    3    3  502    0  0.12473194291E+04 -0.74520052884E+03 -0.78167317570E+03  0.16498983696E+04  0.46999998093E+01 0.  1.
       -5    1    3    3    0  502 -0.12473194291E+04  0.74520052884E+03  0.43501147986E+03  0.15167025628E+04  0.46999998093E+01 0. -1.
</event>
<event>
 5   0  0.2001768E-06  0.3481629E+04  0.7818609E-02  0.8118158E-01
        2   -1    0    0  501    0  0.00000000000E+00  0.00000000000E+00  0.17672680405E+04  0.17672680405E+04  0.25500000920E-02 0.  1.
       -2   -1    0    0    0  501  0.00000000000E+00  0.00000000000E+00 -0.17147564883E+04  0.17147564883E+04  0.25500000920E-02 0. -1.
    10030    2    1    2    0    0  0.00000000000E+00  0.00000000000E+00  0.52511552207E+02  0.34820245288E+04  0.34816285494E+04 0.  0.
        2    1    3    3  502    0 -0.11625666205E+04 -0.82795876063E+03 -0.97053078703E+03  0.17259799724E+04  0.25500000920E-02 0. -1.
       -2    1    3    3    0  502  0.11625666205E+04  0.82795876063E+03  0.10230423392E+04  0.17560445565E+04  0.25500000920E-02 0.  1.
</event>
<event>
 5   0  0.2020725E-06  0.3505988E+04  0.7818609E-02  0.8112372E-01
       -2   -1    0    0    0  501  0.00000000000E+00  0.00000000000E+00  0.24067771722E+04  0.24067771722E+04  0.25500000920E-02 0.  1.
        2   -1    0    0  501    0  0.00000000000E+00  0.00000000000E+00 -0.12768064828E+04  0.12768064828E+04  0.25500000920E-02 0. -1.
    10030    2    1    2    0    0  0.00000000000E+00  0.00000000000E+00  0.11299706894E+04  0.36835836550E+04  0.35059884176E+04 0.  0.
        3    1    3    3  502    0 -0.87119767127E+03  0.31273214735E+03 -0.99911539844E+03  0.13619905903E+04  0.10100000352E+00 0. -1.
       -3    1    3    3    0  502  0.87119767127E+03 -0.31273214735E+03  0.21290860878E+04  0.23215930647E+04  0.10100000352E+00 0.  1.
</event>
<event>
 5   0  0.2073287E-06  0.3565953E+04  0.7818609E-02  0.8098335E-01
       -2   -1    0    0    0  501  0.00000000000E+00  0.00000000000E+00  0.13942755883E+04  0.13942755883E+04  0.25500000920E-02 0. -1.
        2   -1    0    0  501    0  0.00000000000E+00  0.00000000000E+00 -0.22800412377E+04  0.22800412377E+04  0.25500000920E-02 0.  1.
    10030    2    1    2    0    0  0.00000000000E+00  0.00000000000E+00 -0.88576564944E+03  0.36743168260E+04  0.35659533581E+04 0.  0.
        1    1    3    3  502    0 -0.31778253571E+03  0.13817832738E+04 -0.15567965404E+04  0.21056890141E+04  0.50400001928E-02 0.  1.
       -1    1    3    3    0  502  0.31778253571E+03 -0.13817832738E+04  0.67103089095E+03  0.15686278119E+04  0.50400001928E-02 0. -1.
</event>
<event>
 5   0  0.2001768E-06  0.3333698E+04  0.7818609E-02  0.8154373E-01
       -2   -1    0    0    0  501  0.00000000000E+00  0.00000000000E+00  0.12648982119E+04  0.12648982119E+04  0.25500000920E-02 0.  1.
        2   -1    0    0  501    0  0.00000000000E+00  0.00000000000E+00 -0.21965292362E+04  0.21965292362E+04  0.25500000920E-02 0. -1.
    10030    2    1    2    0    0  0.00000000000E+00  0.00000000000E+00 -0.93163102422E+03  0.34614274481E+04  0.33336981887E+04 0.  0.
        2    1    3    3  502    0 -0.16322747341E+04  0.55195016280E+02 -0.11985475513E+03  0.16375996030E+04  0.25500000920E-02 0.  1.
       -2    1    3    3    0  502  0.16322747341E+04 -0.55195016280E+02 -0.81177626909E+03  0.18238278451E+04  0.25500000920E-02 0. -1.
</event>
<event>
 5   0  0.2020725E-06  0.3224567E+04  0.7818609E-02  0.8182359E-01
        2   -1    0    0  501    0  0.00000000000E+00  0.00000000000E+00  0.15342292808E+04  0.15342292808E+04  0.25500000920E-02 0.  1.
       -2   -1    0    0    0  501  0.00000000000E+00  0.00000000000E+00 -0.16943084317E+04  0.16943084317E+04  0.25500000920E-02 0. -1.
    10030    2    1    2    0    0  0.00000000000E+00  0.00000000000E+00 -0.16007915093E+03  0.32285377125E+04  0.32245667037E+04 0.  0.
        3    1    3    3  502    0 -0.13256127448E+04  0.14976575719E+02  0.83868737517E+03  0.15687160261E+04  0.10100000352E+00 0.  1.
       -3    1    3    3    0  502  0.13256127448E+04 -0.14976575719E+02 -0.99876652610E+03  0.16598216865E+04  0.10100000352E+00 0. -1.
</event>
<event>
 5   0  0.6890600E-07  0.3125003E+04  0.7818609E-02  0.8208909E-01
       -1   -1    0    0    0  501  0.00000000000E+00  0.00000000000E+00  0.15200187199E+04  0.15200187199E+04  0.50400001928E-02 0.  1.
        1   -1    0    0  501    0  0.00000000000E+00  0.00000000000E+00 -0.16061720917E+04  0.16061720917E+04  0.50400001928E-02 0. -1.
    10030    2    1    2    0    0  0.00000000000E+00  0.00000000000E+00 -0.86153371857E+02  0.31261908116E+04  0.31250034539E+04 0.  0.
        3    1    3    3  502    0 -0.10348535047E+04  0.80949849516E+03 -0.88909420217E+03  0.15864104451E+04  0.10100000352E+00 0. -1.
       -3    1    3    3    0  502  0.10348535047E+04 -0.80949849516E+03  0.80294083032E+03  0.15397803665E+04  0.10100000352E+00 0.  1.
</event>
<event>
 5   0  0.2023479E-06  0.2382980E+04  0.7818609E-02  0.8445903E-01
       -2   -1    0    0    0  501  0.00000000000E+00  0.00000000000E+00  0.10443776987E+04  0.10443776987E+04  0.25500000920E-02 0.  1.
        2   -1    0    0  501    0  0.00000000000E+00  0.00000000000E+00 -0.13593241826E+04  0.13593241826E+04  0.25500000920E-02 0. -1.
    10030    2    1    2    0    0  0.00000000000E+00  0.00000000000E+00 -0.31494648386E+03  0.24037018813E+04  0.23829795313E+04 0.  0.
        5    1    3    3  502    0  0.85302170654E+03 -0.79791173740E+03  0.79766819133E+02  0.11707664190E+04  0.46999998093E+01 0.  1.
       -5    1    3    3    0  502 -0.85302170654E+03  0.79791173740E+03 -0.39471330299E+03  0.12329354622E+04  0.46999998093E+01 0. -1.
</event>
<event>
 5   0  0.6630125E-07  0.3620400E+04  0.7818609E-02  0.8085835E-01
        1   -1    0    0  501    0  0.00000000000E+00  0.00000000000E+00  0.14920269430E+04  0.14920269431E+04  0.50400001928E-02 0.  1.
       -1   -1    0    0    0  501  0.00000000000E+00  0.00000000000E+00 -0.21962230546E+04  0.21962230546E+04  0.50400001928E-02 0. -1.
    10030    2    1    2    0    0  0.00000000000E+00  0.00000000000E+00 -0.70419611155E+03  0.36882499977E+04  0.36203999616E+04 0.  0.
        5    1    3    3  502    0  0.99082599037E+03  0.78724333747E+03 -0.16706943918E+04  0.20958840751E+04  0.46999998093E+01 0. -1.
       -5    1    3    3    0  502 -0.99082599037E+03 -0.78724333747E+03  0.96649828024E+03  0.15923659225E+04  0.46999998093E+01 0.  1.
</event>
<event>
 5   0  0.6890600E-07  0.2972511E+04  0.7818609E-02  0.8251624E-01
       -1   -1    0    0    0  501  0.00000000000E+00  0.00000000000E+00  0.11509904921E+04  0.11509904922E+04  0.50400001928E-02 0. -1.
        1   -1    0    0  501    0  0.00000000000E+00  0.00000000000E+00 -0.19191773022E+04  0.19191773022E+04  0.50400001928E-02 0.  1.
    10030    2    1    2    0    0  0.00000000000E+00  0.00000000000E+00 -0.76818681001E+03  0.30701677943E+04  0.29725106072E+04 0.  0.
        3    1    3    3  502    0  0.41596234053E+03  0.12038134452E+04 -0.11752640841E+04  0.17330427453E+04  0.10100000352E+00 0.  1.
       -3    1    3    3    0  502 -0.41596234053E+03 -0.12038134452E+04  0.40707727404E+03  0.13371250490E+04  0.10100000352E+00 0. -1.
</event>
<event>
 5   0  0.2020725E-06  0.3494421E+04  0.7818609E-02  0.8115113E-01
        2   -1    0    0  501    0  0.00000000000E+00  0.00000000000E+00  0.13370787536E+04  0.13370787536E+04  0.25500000920E-02 0.  1.
       -2   -1    0    0    0  501  0.00000000000E+00  0.00000000000E+00 -0.22831448621E+04  0.22831448621E+04  0.25500000920E-02 0. -1.
    10030    2    1    2    0    0  0.00000000000E+00  0.00000000000E+00 -0.94606610854E+03  0.36202236157E+04  0.34944209743E+04 0.  0.
        3    1    3    3  502    0 -0.10712250119E+04  0.80210558228E+03  0.69072770751E+03  0.15059884353E+04  0.10100000352E+00 0.  1.
       -3    1    3    3    0  502  0.10712250119E+04 -0.80210558228E+03 -0.16367938161E+04  0.21142351803E+04  0.10100000352E+00 0. -1.
</event>
<event>
 5   0  0.6630125E-07  0.2825411E+04  0.7818609E-02  0.8295422E-01
       -1   -1    0    0    0  501  0.00000000000E+00  0.00000000000E+00  0.10297574821E+04  0.10297574821E+04  0.50400001928E-02 0. -1.
        1   -1    0    0  501    0  0.00000000000E+00  0.00000000000E+00 -0.19380650015E+04  0.19380650015E+04  0.50400001928E-02 0.  1.
    10030    2    1    2    0    0  0.00000000000E+00  0.00000000000E+00 -0.90830751945E+03  0.29678224836E+04  0.28254110752E+04 0.  0.
        1    1    3    3  502    0  0.53157111478E+03  0.97583209862E+02  0.91687332138E+03  0.10643058867E+04  0.50400001928E-02 0. -1.
       -1    1    3    3    0  502 -0.53157111478E+03 -0.97583209862E+02 -0.18251808408E+04  0.19035165969E+04  0.50400001928E-02 0.  1.
</event>
<event>
 5   0  0.6890600E-07  0.3428633E+04  0.7818609E-02  0.8130914E-01
        1   -1    0    0  501    0  0.00000000000E+00  0.00000000000E+00  0.29214151589E+04  0.29214151589E+04  0.50400001928E-02 0. -1.
       -1   -1    0    0    0  501  0.00000000000E+00  0.00000000000E+00 -0.10059784402E+04  0.10059784402E+04  0.50400001928E-02 0.  1.
    10030    2    1    2    0    0  0.00000000000E+00  0.00000000000E+00  0.19154367187E+04  0.39273935992E+04  0.34286327682E+04 0.  0.
        3    1    3    3  502    0  0.10453879411E+04  0.11813431820E+04  0.18891046112E+03  0.15887400144E+04  0.10100000352E+00 0.  1.
       -3    1    3    3    0  502 -0.10453879411E+04 -0.11813431820E+04  0.17265262576E+04  0.23386535847E+04  0.10100000352E+00 0. -1.
</event>
<event>
 5   0  0.7378896E-07  0.3460766E+04  0.7818609E-02  0.8123151E-01
       -1   -1    0    0    0  501  0.00000000000E+00  0.00000000000E+00  0.18772385754E+04  0.18772385754E+04  0.50400001928E-02 0.  1.
        1   -1    0    0  501    0  0.00000000000E+00  0.00000000000E+00 -0.15950157212E+04  0.15950157212E+04  0.50400001928E-02 0. -1.
    10030    2    1    2    0    0  0.00000000000E+00  0.00000000000E+00  0.28222285424E+03  0.34722542966E+04  0.34607658345E+04 0.  0.
        2    1    3    3  502    0  0.16818330977E+04 -0.31614909153E+03  0.39830635006E+03  0.17570318054E+04  0.25500000920E-02 0.  1.
       -2    1    3    3    0  502 -0.16818330977E+04  0.31614909153E+03 -0.11608349583E+03  0.17152224913E+04  0.25500000920E-02 0. -1.
</event>
<event>
 5   0  0.6630125E-07  0.3034372E+04  0.7818609E-02  0.8233983E-01
       -1   -1    0    0    0  501  0.00000000000E+00  0.00000000000E+00  0.14391184014E+04  0.14391184014E+04  0.50400001928E-02 0.  1.
        1   -1    0    0  501    0  0.00000000000E+00  0.00000000000E+00 -0.15994884217E+04  0.15994884217E+04  0.50400001928E-02 0. -1.
    10030    2    1    2    0    0  0.00000000000E+00  0.00000000000E+00 -0.16037002029E+03  0.30386068232E+04  0.30343719091E+04 0.  0.
        5    1    3    3  502    0  0.53135255425E+03  0.11260210700E+04  0.78795752849E+03  0.14734850334E+04  0.46999998093E+01 0.  1.
       -5    1    3    3    0  502 -0.53135255425E+03 -0.11260210700E+04 -0.94832754877E+03  0.15651217898E+04  0.46999998093E+01 0. -1.
</event>
<event>
 5   0  0.1999883E-06  0.3526970E+04  0.7818609E-02  0.8107428E-01
        2   -1    0    0  501    0  0.00000000000E+00  0.00000000000E+00  0.14479289882E+04  0.14479289882E+04  0.25500000920E-02 0. -1.
       -2   -1    0    0    0  501  0.00000000000E+00  0.00000000000E+00 -0.21478114697E+04  0.21478114697E+04  0.25500000920E-02 0.  1.
    10030    2    1    2    0    0  0.00000000000E+00  0.00000000000E+00 -0.69988248148E+03  0.35957404579E+04  0.35269695140E+04 0.  0.
        4    1    3    3  502    0  0.14580585377E+04  0.94614341837E+03 -0.65366766326E+03  0.18569881783E+04  0.12699999809E+01 0.  1.
       -4    1    3    3    0  502 -0.14580585377E+04 -0.94614341837E+03 -0.46214818213E+02  0.17387522796E+04  0.12699999809E+01 0. -1.
</event>
<event>
 5   0  0.2073287E-06  0.3425203E+04  0.7818609E-02  0.8131748E-01
        2   -1    0    0  501    0  0.00000000000E+00  0.00000000000E+00  0.19052660365E+04  0.19052660365E+04  0.25500000920E-02 0.  1.
       -2   -1    0    0    0  501  0.00000000000E+00  0.00000000000E+00 -0.15394195230E+04  0.15394195230E+04  0.25500000920E-02 0. -1.
    10030    2    1    2    0    0  0.00000000000E+00  0.00000000000E+00  0.36584651348E+03  0.34446855596E+04  0.34252029039E+04 0.  0.
        1    1    3    3  502    0  0.12249722869E+04 -0.11623060132E+04 -0.10416740498E+03  0.16918520090E+04  0.50400001928E-02 0. -1.
       -1    1    3    3    0  502 -0.12249722869E+04  0.11623060132E+04  0.47001391847E+03  0.17528335505E+04  0.50400001928E-02 0.  1.
</event>
<event>
 5   0  0.6630125E-07  0.3595532E+04  0.7818609E-02  0.8091516E-01
        1   -1    0    0  501    0  0.00000000000E+00  0.00000000000E+00  0.13945846475E+04  0.13945846475E+04  0.50400001928E-02 0.  1.
       -1   -1    0    0    0  501  0.00000000000E+00  0.00000000000E+00 -0.23175085291E+04  0.23175085291E+04  0.50400001928E-02 0. -1.
    10030    2    1    2    0    0  0.00000000000E+00  0.00000000000E+00 -0.92292388161E+03  0.37120931765E+04  0.35955315685E+04 0.  0.
        4    1    3    3  502    0 -0.15769756997E+04  0.27185361495E+02  0.42927577897E+03  0.16345857912E+04  0.12699999809E+01 0. -1.
       -4    1    3    3    0  502  0.15769756997E+04 -0.27185361495E+02 -0.13521996606E+04  0.20775073854E+04  0.12699999809E+01 0.  1.
</event>
<event>
 5   0  0.2001768E-06  0.3525121E+04  0.7818609E-02  0.8107862E-01
       -2   -1    0    0    0  501  0.00000000000E+00  0.00000000000E+00  0.12608781747E+04  0.12608781747E+04  0.25500000920E-02 0. -1.
        2   -1    0    0  501    0  0.00000000000E+00  0.00000000000E+00 -0.24638543678E+04  0.24638543679E+04  0.25500000920E-02 0.  1.
    10030    2    1    2    0    0  0.00000000000E+00  0.00000000000E+00 -0.12029761931E+04  0.37247325426E+04  0.35251213869E+04 0.  0.
        2    1    3    3  502    0  0.23978400266E+03  0.63735672695E+03 -0.23192438091E+04  0.24171495219E+04  0.25500000920E-02 0.  1.
       -2    1    3    3    0  502 -0.23978400266E+03 -0.63735672695E+03  0.11162676160E+04  0.13075830206E+04  0.25500000920E-02 0. -1.
</event>
<event>
 5   0  0.6630125E-07  0.3522335E+04  0.7818609E-02  0.8108517E-01
       -1   -1    0    0    0  501  0.00000000000E+00  0.00000000000E+00  0.19289753068E+04  0.19289753068E+04  0.50400001928E-02 0.  1.
        1   -1    0    0  501    0  0.00000000000E+00  0.00000000000E+00 -0.16079577131E+04  0.16079577131E+04  0.50400001928E-02 0. -1.
    10030    2    1    2    0    0  0.00000000000E+00  0.00000000000E+00  0.32101759373E+03  0.35369330199E+04  0.35223348637E+04 0.  0.
        5    1    3    3  502    0  0.10862271899E+04  0.83870537198E+03  0.12688825285E+04  0.18690642499E+04  0.46999998093E+01 0.  1.
       -5    1    3    3    0  502 -0.10862271899E+04 -0.83870537198E+03 -0.94786493481E+03  0.16678687700E+04  0.46999998093E+01 0. -1.
</event>
<event>
 5   0  0.2001768E-06  0.3509252E+04  0.7818609E-02  0.8111601E-01
        2   -1    0    0  501    0  0.00000000000E+00  0.00000000000E+00  0.19803480334E+04  0.19803480334E+04  0.25500000920E-02 0.  1.
       -2   -1    0    0    0  501  0.00000000000E+00  0.00000000000E+00 -0.15546316910E+04  0.15546316910E+04  0.25500000920E-02 0. -1.
    10030    2    1    2    0    0  0.00000000000E+00  0.00000000000E+00  0.42571634234E+03  0.35349797244E+04  0.35092516649E+04 0.  0.
        2    1    3    3  502    0  0.59244289424E+03 -0.25690571565E+03 -0.14305816856E+04  0.15695709888E+04  0.25500000920E-02 0. -1.
       -2    1    3    3    0  502 -0.59244289424E+03  0.25690571565E+03  0.18562980279E+04  0.19654087356E+04  0.25500000920E-02 0.  1.
</event>
<event>
 5   0  0.6630125E-07  0.3440960E+04  0.7818609E-02  0.8127926E-01
        1   -1    0    0  501    0  0.00000000000E+00  0.00000000000E+00  0.16756858799E+04  0.16756858800E+04  0.50400001928E-02 0. -1.
       -1   -1    0    0    0  501  0.00000000000E+00  0.00000000000E+00 -0.17664711799E+04  0.17664711799E+04  0.50400001928E-02 0.  1.
    10030    2    1    2    0    0  0.00000000000E+00  0.00000000000E+00 -0.90785299972E+02  0.34421570599E+04  0.34409596415E+04 0.  0.
        4    1    3    3  502    0  0.26520795409E+03 -0.30367697437E+03 -0.17185458330E+04  0.17652071711E+04  0.12699999809E+01 0.  1.
       -4    1    3    3    0  502 -0.26520795409E+03  0.30367697437E+03  0.16277605331E+04  0.16769498888E+04  0.12699999809E+01 0. -1.
</event>
<event>
 5   0  0.6630125E-07  0.3378728E+04  0.7818609E-02  0.8143147E-01
       -1   -1    0    0    0  501  0.00000000000E+00  0.00000000000E+00  0.16786300853E+04  0.16786300853E+04  0.50400001928E-02 0. -1.
        1   -1    0    0  501    0  0.00000000000E+00  0.00000000000E+00 -0.17001667770E+04  0.17001667770E+04  0.50400001928E-02 0.  1.
    10030    2    1    2    0    0  0.00000000000E+00  0.00000000000E+00 -0.21536691721E+02  0.33787968624E+04  0.33787282235E+04 0.  0.
        4    1    3    3  502    0 -0.20410563963E+03 -0.14925288676E+04 -0.77540663342E+03  0.16942722901E+04  0.12699999809E+01 0.  1.
       -4    1    3    3    0  502  0.20410563963E+03  0.14925288676E+04  0.75386994170E+03  0.16845245723E+04  0.12699999809E+01 0. -1.
</event>
<event>
 5   0  0.7378896E-07  0.3208507E+04  0.7818609E-02  0.8186574E-01
        1   -1    0    0  501    0  0.00000000000E+00  0.00000000000E+00  0.21432966250E+04  0.21432966250E+04  0.50400001928E-02 0.  1.
       -1   -1    0    0    0  501  0.00000000000E+00  0.00000000000E+00 -0.12007803825E+04  0.12007803825E+04  0.50400001928E-02 0. -1.
    10030    2    1    2    0    0  0.00000000000E+00  0.00000000000E+00  0.94251624258E+03  0.33440770075E+04  0.32085065318E+04 0.  0.
        2    1    3    3  502    0  0.10497045034E+04  0.57803445957E+03  0.15829205717E+04  0.19853566221E+04  0.25500000920E-02 0.  1.
       -2    1    3    3    0  502 -0.10497045034E+04 -0.57803445957E+03 -0.64040432907E+03  0.13587203854E+04  0.25500000920E-02 0. -1.
</event>
<event>
 5   0  0.2001768E-06  0.2275765E+04  0.7818609E-02  0.8487538E-01
       -2   -1    0    0    0  501  0.00000000000E+00  0.00000000000E+00  0.89916326433E+03  0.89916326434E+03  0.25500000920E-02 0.  1.
        2   -1    0    0  501    0  0.00000000000E+00  0.00000000000E+00 -0.14399792983E+04  0.14399792983E+04  0.25500000920E-02 0. -1.
    10030    2    1    2    0    0  0.00000000000E+00  0.00000000000E+00 -0.54081603399E+03  0.23391425627E+04  0.22757649144E+04 0.  0.
        2    1    3    3  502    0 -0.76239107782E+03  0.53640247921E+02  0.59607477197E+03  0.96923813664E+03  0.25500000920E-02 0.  1.
       -2    1    3    3    0  502  0.76239107782E+03 -0.53640247921E+02 -0.11368908060E+04  0.13699044260E+04  0.25500000920E-02 0. -1.
</event>
<event>
 5   0  0.6630125E-07  0.2814047E+04  0.7818609E-02  0.8298920E-01
       -1   -1    0    0    0  501  0.00000000000E+00  0.00000000000E+00  0.14368939481E+04  0.14368939481E+04  0.50400001928E-02 0.  1.
        1   -1    0    0  501    0  0.00000000000E+00  0.00000000000E+00 -0.13777744446E+04  0.13777744446E+04  0.50400001928E-02 0. -1.
    10030    2    1    2    0    0  0.00000000000E+00  0.00000000000E+00  0.59119503470E+02  0.28146683927E+04  0.28140474490E+04 0.  0.
        5    1    3    3  502    0 -0.29589037174E+03 -0.60577873343E+03 -0.12056923866E+04  0.13813888689E+04  0.46999998093E+01 0. -1.
       -5    1    3    3    0  502  0.29589037174E+03  0.60577873343E+03  0.12648118901E+04  0.14332795238E+04  0.46999998093E+01 0.  1.
</event>
<event>
 5   0  0.2023479E-06  0.2625850E+04  0.7818609E-02  0.8359473E-01
       -2   -1    0    0    0  501  0.00000000000E+00  0.00000000000E+00  0.97725970178E+03  0.97725970178E+03  0.25500000920E-02 0.  1.
        2   -1    0    0  501    0  0.00000000000E+00  0.00000000000E+00 -0.17638839161E+04  0.17638839161E+04  0.25500000920E-02 0. -1.
    10030    2    1    2    0    0  0.00000000000E+00  0.00000000000E+00 -0.78662421431E+03  0.27411436179E+04  0.26258504678E+04 0.  0.
        5    1    3    3  502    0 -0.88581477753E+03 -0.14776455270E+03 -0.13930940299E+04  0.16574785818E+04  0.46999998093E+01 0. -1.
       -5    1    3    3    0  502  0.88581477753E+03  0.14776455270E+03  0.60646981558E+03  0.10836650360E+04  0.46999998093E+01 0.  1.
</event>
<event>
 5   0  0.2023479E-06  0.3526803E+04  0.7818609E-02  0.8107467E-01
       -2   -1    0    0    0  501  0.00000000000E+00  0.00000000000E+00  0.13909421801E+04  0.13909421801E+04  0.25500000920E-02 0.  1.
        2   -1    0    0  501    0  0.00000000000E+00  0.00000000000E+00 -0.22355958167E+04  0.22355958167E+04  0.25500000920E-02 0. -1.
    10030    2    1    2    0    0  0.00000000000E+00  0.00000000000E+00 -0.84465363663E+03  0.36265379967E+04  0.35268028122E+04 0.  0.
        5    1    3    3  502    0 -0.56300983998E+03  0.14202646960E+04 -0.13278144137E+04  0.20241652832E+04  0.46999998093E+01 0. -1.
       -5    1    3    3    0  502  0.56300983998E+03 -0.14202646960E+04  0.48316077706E+03  0.16023727135E+04  0.46999998093E+01 0.  1.
</event>
<event>
 5   0  0.1999883E-06  0.2905973E+04  0.7818609E-02  0.8271103E-01
       -2   -1    0    0    0  501  0.00000000000E+00  0.00000000000E+00  0.19077307706E+04  0.19077307706E+04  0.25500000920E-02 0. -1.
        2   -1    0    0  501    0  0.00000000000E+00  0.00000000000E+00 -0.11066393155E+04  0.11066393155E+04  0.25500000920E-02 0.  1.
    10030    2    1    2    0    0  0.00000000000E+00  0.00000000000E+00  0.80109145508E+03  0.30143700862E+04  0.29059730723E+04 0.  0.
        4    1    3    3  502    0  0.55724050201E+03 -0.67116646718E+03 -0.80477305381E+03  0.11868625383E+04  0.12699999809E+01 0.  1.
       -4    1    3    3    0  502 -0.55724050201E+03  0.67116646718E+03  0.16058645089E+04  0.18275075479E+04  0.12699999809E+01 0. -1.
</event>
<event>
 5   0  0.6630125E-07  0.2552855E+04  0.7818609E-02  0.8384394E-01
        1   -1    0    0  501    0  0.00000000000E+00  0.00000000000E+00  0.21511383185E+04  0.21511383185E+04  0.50400001928E-02 0.  1.
       -1   -1    0    0    0  501  0.00000000000E+00  0.00000000000E+00 -0.75739751070E+03  0.75739751072E+03  0.50400001928E-02 0. -1.
    10030    2    1    2    0    0  0.00000000000E+00  0.00000000000E+00  0.13937408078E+04  0.29085358292E+04  0.25528547218E+04 0.  0.
        4    1    3    3  502    0  0.21542683212E+03  0.12403063130E+04  0.45653799492E+03  0.13391030669E+04  0.12699999809E+01 0. -1.
       -4    1    3    3    0  502 -0.21542683212E+03 -0.12403063130E+04  0.93720281288E+03  0.15694327623E+04  0.12699999809E+01 0.  1.
</event>
<event>
 5   0  0.7378896E-07  0.3491954E+04  0.7818609E-02  0.8115699E-01
       -1   -1    0    0    0  501  0.00000000000E+00  0.00000000000E+00  0.94959920765E+03  0.94959920766E+03  0.50400001928E-02 0. -1.
        1   -1    0    0  501    0  0.00000000000E+00  0.00000000000E+00 -0.32102348539E+04  0.32102348539E+04  0.50400001928E-02 0.  1.
    10030    2    1    2    0    0  0.00000000000E+00  0.00000000000E+00 -0.22606356462E+04  0.41598340615E+04  0.34919544520E+04 0.  0.
        2    1    3    3  502    0 -0.45436773013E+03  0.16857802497E+04 -0.11439726896E+04  0.20873376821E+04  0.25500000920E-02 0.  1.
       -2    1    3    3    0  502  0.45436773013E+03 -0.16857802497E+04 -0.11166629566E+04  0.20724963795E+04  0.25500000920E-02 0. -1.
</event>
<event>
 5   0  0.2001768E-06  0.2824785E+04  0.7818609E-02  0.8295615E-01
       -2   -1    0    0    0  501  0.00000000000E+00  0.00000000000E+00  0.14986325274E+04  0.14986325274E+04  0.25500000920E-02 0. -1.
        2   -1    0    0  501    0  0.00000000000E+00  0.00000000000E+00 -0.13311156660E+04  0.13311156660E+04  0.25500000920E-02 0.  1.
    10030    2    1    2    0    0  0.00000000000E+00  0.00000000000E+00  0.16751686137E+03  0.28297481934E+04  0.28247854679E+04 0.  0.
        2    1    3    3  502    0 -0.24703452475E+01  0.60761660034E+03  0.13610079215E+04  0.14904853565E+04  0.25500000920E-02 0. -1.
       -2    1    3    3    0  502  0.24703452475E+01 -0.60761660034E+03 -0.11934910602E+04  0.13392628369E+04  0.25500000920E-02 0.  1.
</event>
<event>
 5   0  0.7378896E-07  0.2659300E+04  0.7818609E-02  0.8348333E-01
       -1   -1    0    0    0  501  0.00000000000E+00  0.00000000000E+00  0.10801933448E+04  0.10801933448E+04  0.50400001928E-02 0. -1.
        1   -1    0    0  501    0  0.00000000000E+00  0.00000000000E+00 -0.16367153874E+04  0.16367153875E+04  0.50400001928E-02 0.  1.
    10030    2    1    2    0    0  0.00000000000E+00  0.00000000000E+00 -0.55652204264E+03  0.27169087323E+04  0.26592999597E+04 0.  0.
        2    1    3    3  502    0  0.11769221359E+04 -0.61731914497E+03 -0.23563883070E+03  0.13497237863E+04  0.25500000920E-02 0. -1.
       -2    1    3    3    0  502 -0.11769221359E+04  0.61731914497E+03 -0.32088321193E+03  0.13671849460E+04  0.25500000920E-02 0.  1.
</event>
<event>
 5   0  0.2020725E-06  0.3470410E+04  0.7818609E-02  0.8120838E-01
        2   -1    0    0  501    0  0.00000000000E+00  0.00000000000E+00  0.18403556190E+04  0.18403556190E+04  0.25500000920E-02 0.  1.
       -2   -1    0    0    0  501  0.00000000000E+00  0.00000000000E+00 -0.16360618950E+04  0.16360618950E+04  0.25500000920E-02 0. -1.
    10030    2    1    2    0    0  0.00000000000E+00  0.00000000000E+00  0.20429372403E+03  0.34764175141E+04  0.34704096021E+04 0.  0.
        3    1    3    3  502    0 -0.15625650401E+04 -0.65329776962E+03 -0.27603579602E+03  0.17159846303E+04  0.10100000352E+00 0. -1.
       -3    1    3    3    0  502  0.15625650401E+04  0.65329776962E+03  0.48032952005E+03  0.17604328838E+04  0.10100000352E+00 0.  1.
</event>
<event>
 5   0  0.2023479E-06  0.3506898E+04  0.7818609E-02  0.8112157E-01
       -2   -1    0    0    0  501  0.00000000000E+00  0.00000000000E+00  0.15250307537E+04  0.15250307537E+04  0.25500000920E-02 0. -1.
        2   -1    0    0  501    0  0.00000000000E+00  0.00000000000E+00 -0.20160796066E+04  0.20160796066E+04  0.25500000920E-02 0.  1.
    10030    2    1    2    0    0  0.00000000000E+00  0.00000000000E+00 -0.49104885284E+03  0.35411103603E+04  0.35068980036E+04 0.  0.
        5    1    3    3  502    0 -0.84669137747E+02 -0.91774645567E+03  0.12607163535E+04  0.15616834614E+04  0.46999998093E+01 0. -1.
       -5    1    3    3    0  502  0.84669137747E+02  0.91774645567E+03 -0.17517652063E+04  0.19794268989E+04  0.46999998093E+01 0.  1.
</event>
<event>
 5   0  0.6630125E-07  0.2193159E+04  0.7818609E-02  0.8521281E-01
       -1   -1    0    0    0  501  0.00000000000E+00  0.00000000000E+00  0.58189197524E+03  0.58189197526E+03  0.50400001928E-02 0.  1.
        1   -1    0    0  501    0  0.00000000000E+00  0.00000000000E+00 -0.20665114580E+04  0.20665114580E+04  0.50400001928E-02 0. -1.
    10030    2    1    2    0    0  0.00000000000E+00  0.00000000000E+00 -0.14846194828E+04  0.26484034333E+04  0.21931588490E+04 0.  0.
        5    1    3    3  502    0  0.56612635456E+02  0.34604239960E+02 -0.20640730210E+04  0.20651445397E+04  0.46999998093E+01 0. -1.
       -5    1    3    3    0  502 -0.56612635456E+02 -0.34604239960E+02  0.57945353824E+03  0.58325889354E+03  0.46999998093E+01 0.  1.
</event>
<event>
 5   0  0.6890600E-07  0.3535607E+04  0.7818609E-02  0.8105403E-01
       -1   -1    0    0    0  501  0.00000000000E+00  0.00000000000E+00  0.31198805209E+04  0.31198805209E+04  0.50400001928E-02 0. -1.
        1   -1    0    0  501    0  0.00000000000E+00  0.00000000000E+00 -0.10016824796E+04  0.10016824796E+04  0.50400001928E-02 0.  1.
    10030    2    1    2    0    0  0.00000000000E+00  0.00000000000E+00  0.21181980413E+04  0.41215630006E+04  0.35356072499E+04 0.  0.
        3    1    3    3  502    0 -0.10243732022E+04 -0.13204074248E+04  0.17311030355E+04  0.24061450403E+04  0.10100000352E+00 0. -1.
       -3    1    3    3    0  502  0.10243732022E+04  0.13204074248E+04  0.38709500578E+03  0.17154179603E+04  0.10100000352E+00 0.  1.
</event>
<event>
 5   0  0.2020725E-06  0.3463861E+04  0.7818609E-02  0.8122408E-01
       -2   -1    0    0    0  501  0.00000000000E+00  0.00000000000E+00  0.92782777306E+03  0.92782777306E+03  0.25500000920E-02 0.  1.
        2   -1    0    0  501    0  0.00000000000E+00  0.00000000000E+00 -0.32329087554E+04  0.32329087554E+04  0.25500000920E-02 0. -1.
    10030    2    1    2    0    0  0.00000000000E+00  0.00000000000E+00 -0.23050809823E+04  0.41607365284E+04  0.34638605809E+04 0.  0.
        3    1    3    3  502    0 -0.13947616648E+04  0.10245688669E+04 -0.12329486309E+04  0.21249150103E+04  0.10100000352E+00 0.  1.
       -3    1    3    3    0  502  0.13947616648E+04 -0.10245688669E+04 -0.10721323514E+04  0.20358215181E+04  0.10100000352E+00 0. -1.
</event>
<event>
 5   0  0.1999883E-06  0.3525237E+04  0.7818609E-02  0.8107835E-01
       -2   -1    0    0    0  501  0.00000000000E+00  0.00000000000E+00  0.13416390151E+04  0.13416390151E+04  0.25500000920E-02 0.  1.
        2   -1    0    0  501    0  0.00000000000E+00  0.00000000000E+00 -0.23156924573E+04  0.23156924573E+04  0.25500000920E-02 0. -1.
    10030    2    1    2    0    0  0.00000000000E+00  0.00000000000E+00 -0.97405344220E+03  0.36573314724E+04  0.35252366432E+04 0.  0.
        4    1    3    3  502    0  0.43888141518E+03 -0.13259928785E+04 -0.16024639737E+04  0.21257390268E+04  0.12699999809E+01 0.  1.
       -4    1    3    3    0  502 -0.43888141518E+03  0.13259928785E+04  0.62841053149E+03  0.15315924456E+04  0.12699999809E+01 0. -1.
</event>
<event>
 5   0  0.2073287E-06  0.2357063E+04  0.7818609E-02  0.8455756E-01
        2   -1    0    0  501    0  0.00000000000E+00  0.00000000000E+00  0.85510713422E+03  0.85510713423E+03  0.25500000920E-02 0. -1.
       -2   -1    0    0    0  501  0.00000000000E+00  0.00000000000E+00 -0.16242842632E+04  0.16242842632E+04  0.25500000920E-02 0.  1.
    10030    2    1    2    0    0  0.00000000000E+00  0.00000000000E+00 -0.76917712902E+03  0.24793913975E+04  0.23570634794E+04 0.  0.
        1    1    3    3  502    0  0.32874326410E+03 -0.17890117384E+03 -0.15601100380E+04  0.16043756089E+04  0.50400001928E-02 0.  1.
       -1    1    3    3    0  502 -0.32874326410E+03  0.17890117384E+03  0.79093290900E+03  0.87501578857E+03  0.50400001928E-02 0. -1.
</event>
<event>
 5   0  0.2001768E-06  0.3597837E+04  0.7818609E-02  0.8090987E-01
        2   -1    0    0  501    0  0.00000000000E+00  0.00000000000E+00  0.23704405726E+04  0.23704405726E+04  0.25500000920E-02 0.  1.
       -2   -1    0    0    0  501  0.00000000000E+00  0.00000000000E+00 -0.13651928938E+04  0.13651928938E+04  0.25500000920E-02 0. -1.
    10030    2    1    2    0    0  0.00000000000E+00  0.00000000000E+00  0.10052476788E+04  0.37356334664E+04  0.35978374755E+04 0.  0.
        2    1    3    3  502    0 -0.16728524135E+04 -0.29830252929E+03  0.11157387212E+04  0.20328040954E+04  0.25500000920E-02 0. -1.
       -2    1    3    3    0  502  0.16728524135E+04  0.29830252929E+03 -0.11049104237E+03  0.17028293710E+04  0.25500000920E-02 0.  1.
</event>
<event>
 5   0  0.6630125E-07  0.3495156E+04  0.7818609E-02  0.8114939E-01
        1   -1    0    0  501    0  0.00000000000E+00  0.00000000000E+00  0.16468639015E+04  0.16468639015E+04  0.50400001928E-02 0. -1.
       -1   -1    0    0    0  501  0.00000000000E+00  0.00000000000E+00 -0.18544517960E+04  0.18544517960E+04  0.50400001928E-02 0.  1.
    10030    2    1    2    0    0  0.00000000000E+00  0.00000000000E+00 -0.20758789449E+03  0.35013156974E+04  0.34951564885E+04 0.  0.
        1    1    3    3  502    0  0.12386532163E+04 -0.11374186837E+04  0.37248753891E+03  0.17224198149E+04  0.50400001928E-02 0. -1.
       -1    1    3    3    0  502 -0.12386532163E+04  0.11374186837E+04 -0.58007543340E+03  0.17788958825E+04  0.50400001928E-02 0.  1.
</event>
<event>
 5   0  0.1999883E-06  0.2643694E+04  0.7818609E-02  0.8353509E-01
        2   -1    0    0  501    0  0.00000000000E+00  0.00000000000E+00  0.11416009821E+04  0.11416009821E+04  0.25500000920E-02 0. -1.
       -2   -1    0    0    0  501  0.00000000000E+00  0.00000000000E+00 -0.15305521174E+04  0.15305521174E+04  0.25500000920E-02 0.  1.
    10030    2    1    2    0    0  0.00000000000E+00  0.00000000000E+00 -0.38895113533E+03  0.26721530995E+04  0.26436942337E+04 0.  0.
        4    1    3    3  502    0  0.22990604173E+01  0.11646773838E+04 -0.82634465556E+03  0.14280496478E+04  0.12699999809E+01 0.  1.
       -4    1    3    3    0  502 -0.22990604173E+01 -0.11646773838E+04  0.43739352023E+03  0.12441034516E+04  0.12699999809E+01 0. -1.
</event>
<event>
 5   0  0.1999883E-06  0.3466655E+04  0.7818609E-02  0.8121738E-01
        2   -1    0    0  501    0  0.00000000000E+00  0.00000000000E+00  0.15283845777E+04  0.15283845777E+04  0.25500000920E-02 0.  1.
       -2   -1    0    0    0  501  0.00000000000E+00  0.00000000000E+00 -0.19657517953E+04  0.19657517953E+04  0.25500000920E-02 0. -1.
    10030    2    1    2    0    0  0.00000000000E+00  0.00000000000E+00 -0.43736721760E+03  0.34941363730E+04  0.34666552915E+04 0.  0.
        4    1    3    3  502    0  0.42008721169E+03  0.80389393901E+03 -0.17074520146E+04  0.19334199558E+04  0.12699999809E+01 0. -1.
       -4    1    3    3    0  502 -0.42008721169E+03 -0.80389393901E+03  0.12700847970E+04  0.15607164172E+04  0.12699999809E+01 0.  1.
</event>
<event>
 5   0  0.2020725E-06  0.3514493E+04  0.7818609E-02  0.8110364E-01
       -2   -1    0    0    0  501  0.00000000000E+00  0.00000000000E+00  0.12184122046E+04  0.12184122046E+04  0.25500000920E-02 0. -1.
        2   -1    0    0  501    0  0.00000000000E+00  0.00000000000E+00 -0.25343767457E+04  0.25343767457E+04  0.25500000920E-02 0.  1.
    10030    2    1    2    0    0  0.00000000000E+00  0.00000000000E+00 -0.13159645411E+04  0.37527889502E+04  0.35144931685E+04 0.  0.
        3    1    3    3  502    0  0.13351182129E+04 -0.11425161668E+04 -0.65196892861E+03  0.18742858181E+04  0.10100000352E+00 0.  1.
       -3    1    3    3    0  502 -0.13351182129E+04  0.11425161668E+04 -0.66399561248E+03  0.18785031321E+04  0.10100000352E+00 0. -1.
</event>
<event>
 5   0  0.6630125E-07  0.3385317E+04  0.7818609E-02  0.8141519E-01
       -1   -1    0    0    0  501  0.00000000000E+00  0.00000000000E+00  0.11199282627E+04  0.11199282627E+04  0.50400001928E-02 0. -1.
        1   -1    0    0  501    0  0.00000000000E+00  0.00000000000E+00 -0.25582829260E+04  0.25582829260E+04  0.50400001928E-02 0.  1.
    10030    2    1    2    0    0  0.00000000000E+00  0.00000000000E+00 -0.14383546633E+04  0.36782111887E+04  0.33853173280E+04 0.  0.
        5    1    3    3  502    0  0.34511669003E+03  0.15402671975E+04 -0.13832374521E+04  0.20987845312E+04  0.46999998093E+01 0.  1.
       -5    1    3    3    0  502 -0.34511669003E+03 -0.15402671975E+04 -0.55117211150E+02  0.15794266575E+04  0.46999998093E+01 0. -1.
</event>
<event>
 5   0  0.7378896E-07  0.3356452E+04  0.7818609E-02  0.8148678E-01
       -1   -1    0    0    0  501  0.00000000000E+00  0.00000000000E+00  0.16567363488E+04  0.16567363488E+04  0.50400001928E-02 0.  1.
        1   -1    0    0  501    0  0.00000000000E+00  0.00000000000E+00 -0.16999948405E+04  0.16999948405E+04  0.50400001928E-02 0. -1.
    10030    2    1    2    0    0  0.00000000000E+00  0.00000000000E+00 -0.43258491646E+02  0.33567311893E+04  0.33564524397E+04 0.  0.
        2    1    3    3  502    0  0.11657436277E+04 -0.10920045792E+04  0.49320573562E+03  0.16717308707E+04  0.25500000920E-02 0. -1.
       -2    1    3    3    0  502 -0.11657436277E+04  0.10920045792E+04 -0.53646422726E+03  0.16850003186E+04  0.25500000920E-02 0.  1.
</event>
<event>
 5   0  0.2073287E-06  0.3390970E+04  0.7818609E-02  0.8140126E-01
       -2   -1    0    0    0  501  0.00000000000E+00  0.00000000000E+00  0.16557578430E+04  0.16557578430E+04  0.25500000920E-02 0. -1.
        2   -1    0    0  501    0  0.00000000000E+00  0.00000000000E+00 -0.17361652883E+04  0.17361652883E+04  0.25500000920E-02 0.  1.
    10030    2    1    2    0    0  0.00000000000E+00  0.00000000000E+00 -0.80407445320E+02  0.33919231313E+04  0.33909699455E+04 0.  0.
        1    1    3    3  502    0  0.20031823439E+03  0.11180103541E+04  0.12189569960E+04  0.16661124527E+04  0.50400001928E-02 0. -1.
       -1    1    3    3    0  502 -0.20031823439E+03 -0.11180103541E+04 -0.12993644413E+04  0.17258106786E+04  0.50400001928E-02 0.  1.
</event>
<event>
 5   0  0.1999883E-06  0.3437609E+04  0.7818609E-02  0.8128737E-01
        2   -1    0    0  501    0  0.00000000000E+00  0.00000000000E+00  0.20596951017E+04  0.20596951017E+04  0.25500000920E-02 0.  1.
       -2   -1    0    0    0  501  0.00000000000E+00  0.00000000000E+00 -0.14343327901E+04  0.14343327901E+04  0.25500000920E-02 0. -1.
    10030    2    1    2    0    0  0.00000000000E+00  0.00000000000E+00  0.62536231161E+03  0.34940278918E+04  0.34376086001E+04 0.  0.
        4    1    3    3  502    0  0.16092440771E+04 -0.59551682957E+03  0.41421975968E+03  0.17651873601E+04  0.12699999809E+01 0.  1.
       -4    1    3    3    0  502 -0.16092440771E+04  0.59551682957E+03  0.21114255193E+03  0.17288405317E+04  0.12699999809E+01 0. -1.
</event>
<event>
 5   0  0.2020725E-06  0.3554723E+04  0.7818609E-02  0.8100942E-01
       -2   -1    0    0    0  501  0.00000000000E+00  0.00000000000E+00  0.16039832783E+04  0.16039832783E+04  0.25500000920E-02 0.  1.
        2   -1    0    0  501    0  0.00000000000E+00  0.00000000000E+00 -0.19694804911E+04  0.19694804911E+04  0.25500000920E-02 0. -1.
    10030    2    1    2    0    0  0.00000000000E+00  0.00000000000E+00 -0.36549721285E+03  0.35734637694E+04  0.35547229285E+04 0.  0.
        3    1    3    3  502    0  0.38492666570E+03 -0.14792826152E+04 -0.10944856030E+04  0.18799851965E+04  0.10100000352E+00 0. -1.
       -3    1    3    3    0  502 -0.38492666570E+03  0.14792826152E+04  0.72898839016E+03  0.16934785729E+04  0.10100000352E+00 0.  1.
</event>
<event>
 5   0  0.6630125E-07  0.3443056E+04  0.7818609E-02  0.8127419E-01
        1   -1    0    0  501    0  0.00000000000E+00  0.00000000000E+00  0.16614041811E+04  0.16614041811E+04  0.50400001928E-02 0.  1.
       -1   -1    0    0    0  501  0.00000000000E+00  0.00000000000E+00 -0.17838274947E+04  0.17838274947E+04  0.50400001928E-02 0. -1.
    10030    2    1    2    0    0  0.00000000000E+00  0.00000000000E+00 -0.12242331361E+03  0.34452316758E+04  0.34430558858E+04 0.  0.
        1    1    3    3  502    0  0.90633442847E+03 -0.12838615190E+04  0.64202401163E+03  0.16976269696E+04  0.50400001928E-02 0.  1.
       -1    1    3    3    0  502 -0.90633442847E+03  0.12838615190E+04 -0.76444732524E+03  0.17476047063E+04  0.50400001928E-02 0. -1.
</event>
<event>
 5   0  0.2001768E-06  0.3435795E+04  0.7818609E-02  0.8129176E-01
        2   -1    0    0  501    0  0.00000000000E+00  0.00000000000E+00  0.29519173374E+04  0.29519173374E+04  0.25500000920E-02 0.  1.
       -2   -1    0    0    0  501  0.00000000000E+00  0.00000000000E+00 -0.99974759718E+03  0.99974759718E+03  0.25500000920E-02 0. -1.
    10030    2    1    2    0    0  0.00000000000E+00  0.00000000000E+00  0.19521697402E+04  0.39516649346E+04  0.34357952588E+04 0.  0.
        2    1    3    3  502    0  0.86137254663E+03 -0.57803733897E+03 -0.59885152809E+03  0.11977950501E+04  0.25500000920E-02 0. -1.
       -2    1    3    3    0  502 -0.86137254663E+03  0.57803733897E+03  0.25510212683E+04  0.27538698845E+04  0.25500000920E-02 0.  1.
</event>
<event>
 5   0  0.6630125E-07  0.3494558E+04  0.7818609E-02  0.8115081E-01
        1   -1    0    0  501    0  0.00000000000E+00  0.00000000000E+00  0.26090676369E+04  0.26090676369E+04  0.50400001928E-02 0.  1.
       -1   -1    0    0    0  501  0.00000000000E+00  0.00000000000E+00 -0.11701439167E+04  0.11701439167E+04  0.50400001928E-02 0. -1.
    10030    2    1    2    0    0  0.00000000000E+00  0.00000000000E+00  0.14389237202E+04  0.37792115536E+04  0.34945584119E+04 0.  0.
        1    1    3    3  502    0 -0.54624108543E+03  0.20192979941E+03  0.25010207864E+04  0.25679291153E+04  0.50400001928E-02 0.  1.
       -1    1    3    3    0  502  0.54624108543E+03 -0.20192979941E+03 -0.10620970662E+04  0.12112824383E+04  0.50400001928E-02 0. -1.
</event>
<event>
 5   0  0.7378896E-07  0.3475838E+04  0.7818609E-02  0.8119540E-01
        1   -1    0    0  501    0  0.00000000000E+00  0.00000000000E+00  0.17157054144E+04  0.17157054144E+04  0.50400001928E-02 0. -1.
       -1   -1    0    0    0  501  0.00000000000E+00  0.00000000000E+00 -0.17604206667E+04  0.17604206667E+04  0.50400001928E-02 0.  1.
    10030    2    1    2    0    0  0.00000000000E+00  0.00000000000E+00 -0.44715252252E+02  0.34761260811E+04  0.34758384712E+04 0.  0.
        2    1    3    3  502    0  0.37255228829E+03 -0.56386991207E+03 -0.16236205831E+04  0.17586609347E+04  0.25500000920E-02 0.  1.
       -2    1    3    3    0  502 -0.37255228829E+03  0.56386991207E+03  0.15789053309E+04  0.17174651464E+04  0.25500000920E-02 0. -1.
</event>
<event>
 5   0  0.2023479E-06  0.3524659E+04  0.7818609E-02  0.8107971E-01
       -2   -1    0    0    0  501  0.00000000000E+00  0.00000000000E+00  0.20643473860E+04  0.20643473860E+04  0.25500000920E-02 0.  1.
        2   -1    0    0  501    0  0.00000000000E+00  0.00000000000E+00 -0.15044973202E+04  0.15044973202E+04  0.25500000920E-02 0. -1.
    10030    2    1    2    0    0  0.00000000000E+00  0.00000000000E+00  0.55985006576E+03  0.35688447062E+04  0.35246589113E+04 0.  0.
        5    1    3    3  502    0  0.54808170791E+03 -0.10348322375E+04  0.16134439223E+04  0.19936134778E+04  0.46999998093E+01 0.  1.
       -5    1    3    3    0  502 -0.54808170791E+03  0.10348322375E+04 -0.10535938566E+04  0.15752312284E+04  0.46999998093E+01 0. -1.
</event>
<event>
 5   0  0.6630125E-07  0.3505754E+04  0.7818609E-02  0.8112428E-01
        1   -1    0    0  501    0  0.00000000000E+00  0.00000000000E+00  0.24179729099E+04  0.24179729099E+04  0.50400001928E-02 0.  1.
       -1   -1    0    0    0  501  0.00000000000E+00  0.00000000000E+00 -0.12707247493E+04  0.12707247493E+04  0.50400001928E-02 0. -1.
    10030    2    1    2    0    0  0.00000000000E+00  0.00000000000E+00  0.11472481606E+04  0.36886976592E+04  0.35057541385E+04 0.  0.
        1    1    3    3  502    0  0.25703364694E+03 -0.17201111462E+04  0.80349522046E+03  0.19158426920E+04  0.50400001928E-02 0.  1.
       -1    1    3    3    0  502 -0.25703364694E+03  0.17201111462E+04  0.34375294010E+03  0.17728549673E+04  0.50400001928E-02 0. -1.
</event>
<event>
 5   0  0.1999883E-06  0.3423223E+04  0.7818609E-02  0.8132230E-01
        2   -1    0    0  501    0  0.00000000000E+00  0.00000000000E+00  0.14163012736E+04  0.14163012736E+04  0.25500000920E-02 0.  1.
       -2   -1    0    0    0  501  0.00000000000E+00  0.00000000000E+00 -0.20684961799E+04  0.20684961799E+04  0.25500000920E-02 0. -1.
    10030    2    1    2    0    0  0.00000000000E+00  0.00000000000E+00 -0.65219490627E+03  0.34847974535E+04  0.34232229107E+04 0.  0.
        4    1    3    3  502    0 -0.12758153488E+04 -0.39553079643E+02  0.83473972223E+03  0.15251430317E+04  0.12699999809E+01 0.  1.
       -4    1    3    3    0  502  0.12758153488E+04  0.39553079643E+02 -0.14869346285E+04  0.19596544218E+04  0.12699999809E+01 0. -1.
</event>
<event>
 5   0  0.6630125E-07  0.2924895E+04  0.7818609E-02  0.8265509E-01
       -1   -1    0    0    0  501  0.00000000000E+00  0.00000000000E+00  0.13724249758E+04  0.13724249758E+04  0.50400001928E-02 0.  1.
        1   -1    0    0  501    0  0.00000000000E+00  0.00000000000E+00 -0.15583751440E+04  0.15583751440E+04  0.50400001928E-02 0. -1.
    10030    2    1    2    0    0  0.00000000000E+00  0.00000000000E+00 -0.18595016814E+03  0.29308001198E+04  0.29248951908E+04 0.  0.
        5    1    3    3  502    0  0.60615934841E+03  0.57675281975E+03 -0.12948372415E+04  0.15416544823E+04  0.46999998093E+01 0. -1.
       -5    1    3    3    0  502 -0.60615934841E+03 -0.57675281975E+03  0.11088870734E+04  0.13891456375E+04  0.46999998093E+01 0.  1.
</event>
<event>
 5   0  0.2020725E-06  0.3429140E+04  0.7818609E-02  0.8130791E-01
       -2   -1    0    0    0  501  0.00000000000E+00  0.00000000000E+00  0.14058808489E+04  0.14058808489E+04  0.25500000920E-02 0. -1.
        2   -1    0    0  501    0  0.00000000000E+00  0.00000000000E+00 -0.20910385311E+04  0.20910385311E+04  0.25500000920E-02 0.  1.
    10030    2    1    2    0    0  0.00000000000E+00  0.00000000000E+00 -0.68515768218E+03  0.34969193799E+04  0.34291404317E+04 0.  0.
        3    1    3    3  502    0  0.42066157460E+03 -0.13419468566E+04 -0.13427674422E+04  0.19444284354E+04  0.10100000352E+00 0. -1.
       -3    1    3    3    0  502 -0.42066157460E+03  0.13419468566E+04  0.65760976005E+03  0.15524909445E+04  0.10100000352E+00 0.  1.
</event>
<event>
 5   0  0.2020725E-06  0.3514605E+04  0.7818609E-02  0.8110337E-01
       -2   -1    0    0    0  501  0.00000000000E+00  0.00000000000E+00  0.12323614000E+04  0.12323614000E+04  0.25500000920E-02 0.  1.
        2   -1    0    0  501    0  0.00000000000E+00  0.00000000000E+00 -0.25058495675E+04  0.25058495675E+04  0.25500000920E-02 0. -1.
    10030    2    1    2    0    0  0.00000000000E+00  0.00000000000E+00 -0.12734881675E+04  0.37382109675E+04  0.35146051164E+04 0.  0.
        3    1    3    3  502    0 -0.11843156933E+04  0.82456899943E+03  0.42984892145E+03  0.15057515737E+04  0.10100000352E+00 0.  1.
       -3    1    3    3    0  502  0.11843156933E+04 -0.82456899943E+03 -0.17033370890E+04  0.22324593938E+04  0.10100000352E+00 0. -1.
</event>
<event>
 5   0  0.6890600E-07  0.3520688E+04  0.7818609E-02  0.8108905E-01
        1   -1    0    0  501    0  0.00000000000E+00  0.00000000000E+00  0.24725711307E+04  0.24725711307E+04  0.50400001928E-02 0. -1.
       -1   -1    0    0    0  501  0.00000000000E+00  0.00000000000E+00 -0.12532744577E+04  0.12532744577E+04  0.50400001928E-02 0.  1.
    10030    2    1    2    0    0  0.00000000000E+00  0.00000000000E+00  0.12192966730E+04  0.37258455884E+04  0.35206875709E+04 0.  0.
        3    1    3    3  502    0  0.16724686018E+04  0.53191894511E+03  0.46484961597E+03  0.18155368803E+04  0.10100000352E+00 0. -1.
       -3    1    3    3    0  502 -0.16724686018E+04 -0.53191894511E+03  0.75444705705E+03  0.19103087081E+04  0.10100000352E+00 0.  1.
</event>
<event>
 5   0  0.2001768E-06  0.3165925E+04  0.7818609E-02  0.8197875E-01
        2   -1    0    0  501    0  0.00000000000E+00  0.00000000000E+00  0.21673781302E+04  0.21673781302E+04  0.25500000920E-02 0.  1.
       -2   -1    0    0    0  501  0.00000000000E+00  0.00000000000E+00 -0.11561296346E+04  0.11561296346E+04  0.25500000920E-02 0. -1.
    10030    2    1    2    0    0  0.00000000000E+00  0.00000000000E+00  0.10112484956E+04  0.33235077648E+04  0.31659248796E+04 0.  0.
        2    1    3    3  502    0  0.14156985684E+04 -0.19930326436E+03 -0.20779466521E+03  0.14446808820E+04  0.25500000920E-02 0. -1.
       -2    1    3    3    0  502 -0.14156985684E+04  0.19930326436E+03  0.12190431608E+04  0.18788268829E+04  0.25500000920E-02 0.  1.
</event>
<event>
 5   0  0.1999883E-06  0.3613700E+04  0.7818609E-02  0.8087361E-01
        2   -1    0    0  501    0  0.00000000000E+00  0.00000000000E+00  0.23027204668E+04  0.23027204668E+04  0.25500000920E-02 0. -1.
       -2   -1    0    0    0  501  0.00000000000E+00  0.00000000000E+00 -0.14177607355E+04  0.14177607355E+04  0.25500000920E-02 0.  1.
    10030    2    1    2    0    0  0.00000000000E+00  0.00000000000E+00  0.88495973131E+03  0.37204812022E+04  0.36136998561E+04 0.  0.
        4    1    3    3  502    0 -0.21037927523E+03 -0.17159474950E+04  0.98333109246E+03  0.19888883567E+04  0.12699999809E+01 0. -1.
       -4    1    3    3    0  502  0.21037927523E+03  0.17159474950E+04 -0.98371361150E+02  0.17315928455E+04  0.12699999809E+01 0.  1.
</event>
<event>
 5   0  0.1999883E-06  0.2562288E+04  0.7818609E-02  0.8381125E-01
        2   -1    0    0  501    0  0.00000000000E+00  0.00000000000E+00  0.21216307090E+04  0.21216307090E+04  0.25500000920E-02 0. -1.
       -2   -1    0    0    0  501  0.00000000000E+00  0.00000000000E+00 -0.77361716040E+03  0.77361716041E+03  0.25500000920E-02 0.  1.
    10030    2    1    2    0    0  0.00000000000E+00  0.00000000000E+00  0.13480135486E+04  0.28952478694E+04  0.25622879811E+04 0.  0.
        4    1    3    3  502    0 -0.50621275616E+03  0.10047639519E+03 -0.65096379283E+03  0.83072398121E+03  0.12699999809E+01 0.  1.
       -4    1    3    3    0  502  0.50621275616E+03 -0.10047639519E+03  0.19989773414E+04  0.20645238882E+04  0.12699999809E+01 0. -1.
</event>
<event>
 5   0  0.6630125E-07  0.3470005E+04  0.7818609E-02  0.8120935E-01
       -1   -1    0    0    0  501  0.00000000000E+00  0.00000000000E+00  0.14724248732E+04  0.14724248732E+04  0.50400001928E-02 0. -1.
        1   -1    0    0  501    0  0.00000000000E+00  0.00000000000E+00 -0.20444056012E+04  0.20444056012E+04  0.50400001928E-02 0.  1.
    10030    2    1    2    0    0  0.00000000000E+00  0.00000000000E+00 -0.57198072801E+03  0.35168304744E+04  0.34700049903E+04 0.  0.
        4    1    3    3  502    0 -0.17255111796E+04  0.57285197148E+02 -0.46024544674E+03  0.17867562533E+04  0.12699999809E+01 0. -1.
       -4    1    3    3    0  502  0.17255111796E+04 -0.57285197148E+02 -0.11173528127E+03  0.17300742211E+04  0.12699999809E+01 0.  1.
</event>
<event>
 5   0  0.6890600E-07  0.3450195E+04  0.7818609E-02  0.8125696E-01
       -1   -1    0    0    0  501  0.00000000000E+00  0.00000000000E+00  0.30159403469E+04  0.30159403469E+04  0.50400001928E-02 0. -1.
        1   -1    0    0  501    0  0.00000000000E+00  0.00000000000E+00 -0.98674400240E+03  0.98674400242E+03  0.50400001928E-02 0.  1.
    10030    2    1    2    0    0  0.00000000000E+00  0.00000000000E+00  0.20291963445E+04  0.40026843493E+04  0.34501948055E+04 0.  0.
        3    1    3    3  502    0 -0.15007970159E+04  0.31161997510E+03  0.96360275440E+02  0.15358333259E+04  0.10100000352E+00 0.  1.
       -3    1    3    3    0  502  0.15007970159E+04 -0.31161997510E+03  0.19328360690E+04  0.24668510234E+04  0.10100000352E+00 0. -1.
</event>
<event>
 5   0  0.6630125E-07  0.3558916E+04  0.7818609E-02  0.8099968E-01
       -1   -1    0    0    0  501  0.00000000000E+00  0.00000000000E+00  0.20245238739E+04  0.20245238739E+04  0.50400001928E-02 0.  1.
        1   -1    0    0  501    0  0.00000000000E+00  0.00000000000E+00 -0.15640570544E+04  0.15640570545E+04  0.50400001928E-02 0. -1.
    10030    2    1    2    0    0  0.00000000000E+00  0.00000000000E+00  0.46046681944E+03  0.35885809283E+04  0.35589160411E+04 0.  0.
        1    1    3    3  502    0  0.15038527306E+04 -0.11146218755E+02  0.11893578455E+04  0.19173599970E+04  0.50400001928E-02 0.  1.
       -1    1    3    3    0  502 -0.15038527306E+04  0.11146218755E+02 -0.72889102609E+03  0.16712209313E+04  0.50400001928E-02 0. -1.
</event>
<event>
 5   0  0.6630125E-07  0.3776328E+04  0.7818609E-02  0.8051254E-01
        1   -1    0    0  501    0  0.00000000000E+00  0.00000000000E+00  0.27598657545E+04  0.27598657545E+04  0.50400001928E-02 0.  1.
       -1   -1    0    0    0  501  0.00000000000E+00  0.00000000000E+00 -0.12917888763E+04  0.12917888763E+04  0.50400001928E-02 0. -1.
    10030    2    1    2    0    0  0.00000000000E+00  0.00000000000E+00  0.14680768782E+04  0.40516546308E+04  0.37763283130E+04 0.  0.
        4    1    3    3  502    0 -0.73915871896E+03 -0.12636228765E+04 -0.54540834461E+03  0.15622324607E+04  0.12699999809E+01 0. -1.
       -4    1    3    3    0  502  0.73915871896E+03  0.12636228765E+04  0.20134852228E+04  0.24894221702E+04  0.12699999809E+01 0.  1.
</event>
<event>
 5   0  0.6630125E-07  0.3552584E+04  0.7818609E-02  0.8101440E-01
        1   -1    0    0  501    0  0.00000000000E+00  0.00000000000E+00  0.19619329172E+04  0.19619329173E+04  0.50400001928E-02 0. -1.
       -1   -1    0    0    0  501  0.00000000000E+00  0.00000000000E+00 -0.16082167006E+04  0.16082167006E+04  0.50400001928E-02 0.  1.
    10030    2    1    2    0    0  0.00000000000E+00  0.00000000000E+00  0.35371621666E+03  0.35701496179E+04  0.35525840077E+04 0.  0.
        1    1    3    3  502    0 -0.10156339863E+03 -0.17722292436E+04  0.24121903171E+03  0.17914514331E+04  0.50400001928E-02 0. -1.
       -1    1    3    3    0  502  0.10156339863E+03  0.17722292436E+04  0.11249718495E+03  0.17786981848E+04  0.50400001928E-02 0.  1.
</event>
<event>
 5   0  0.2001768E-06  0.3366399E+04  0.7818609E-02  0.8146203E-01
       -2   -1    0    0    0  501  0.00000000000E+00  0.00000000000E+00  0.18307037504E+04  0.18307037504E+04  0.25500000920E-02 0. -1.
        2   -1    0    0  501    0  0.00000000000E+00  0.00000000000E+00 -0.15475797071E+04  0.15475797071E+04  0.25500000920E-02 0.  1.
    10030    2    1    2    0    0  0.00000000000E+00  0.00000000000E+00  0.28312404331E+03  0.33782834574E+04  0.33663986536E+04 0.  0.
        2    1    3    3  502    0  0.15841413762E+04  0.14169858892E+03 -0.41136191589E+03  0.16428027927E+04  0.25500000920E-02 0. -1.
       -2    1    3    3    0  502 -0.15841413762E+04 -0.14169858892E+03  0.69448595920E+03  0.17354806647E+04  0.25500000920E-02 0.  1.
</event>
<event>
 5   0  0.6630125E-07  0.2708342E+04  0.7818609E-02  0.8332303E-01
       -1   -1    0    0    0  501  0.00000000000E+00  0.00000000000E+00  0.78901901702E+03  0.78901901704E+03  0.50400001928E-02 0.  1.
        1   -1    0    0  501    0  0.00000000000E+00  0.00000000000E+00 -0.23241260981E+04  0.23241260981E+04  0.50400001928E-02 0. -1.
    10030    2    1    2    0    0  0.00000000000E+00  0.00000000000E+00 -0.15351070811E+04  0.31131451151E+04  0.27083424373E+04 0.  0.
        4    1    3    3  502    0  0.29027840057E+03 -0.46901507391E+02  0.75187966651E+03  0.80733261240E+03  0.12699999809E+01 0.  1.
       -4    1    3    3    0  502 -0.29027840057E+03  0.46901507391E+02 -0.22869867476E+04  0.23058125027E+04  0.12699999809E+01 0. -1.
</event>
<event>
 5   0  0.2001768E-06  0.3708517E+04  0.7818609E-02  0.8066077E-01
       -2   -1    0    0    0  501  0.00000000000E+00  0.00000000000E+00  0.15007128111E+04  0.15007128111E+04  0.25500000920E-02 0.  1.
        2   -1    0    0  501    0  0.00000000000E+00  0.00000000000E+00 -0.22910943191E+04  0.22910943191E+04  0.25500000920E-02 0. -1.
    10030    2    1    2    0    0  0.00000000000E+00  0.00000000000E+00 -0.79038150809E+03  0.37918071302E+04  0.37085170061E+04 0.  0.
        2    1    3    3  502    0  0.49070122920E+03 -0.17291596034E+04 -0.86093628836E+03  0.19929856806E+04  0.25500000920E-02 0. -1.
       -2    1    3    3    0  502 -0.49070122920E+03  0.17291596034E+04  0.70554780271E+02  0.17988214496E+04  0.25500000920E-02 0.  1.
</event>
<event>
 5   0  0.6630125E-07  0.3692358E+04  0.7818609E-02  0.8069657E-01
        1   -1    0    0  501    0  0.00000000000E+00  0.00000000000E+00  0.22484545516E+04  0.22484545517E+04  0.50400001928E-02 0.  1.
       -1   -1    0    0    0  501  0.00000000000E+00  0.00000000000E+00 -0.15158755443E+04  0.15158755443E+04  0.50400001928E-02 0. -1.
    10030    2    1    2    0    0  0.00000000000E+00  0.00000000000E+00  0.73257900738E+03  0.37643300959E+04  0.36923581989E+04 0.  0.
        1    1    3    3  502    0 -0.15667398245E+04  0.78893336270E+03  0.95308470748E+03  0.19963616877E+04  0.50400001928E-02 0. -1.
       -1    1    3    3    0  502  0.15667398245E+04 -0.78893336270E+03 -0.22050570010E+03  0.17679684082E+04  0.50400001928E-02 0.  1.
</event>
<event>
 5   0  0.6890600E-07  0.3250648E+04  0.7818609E-02  0.8175568E-01
        1   -1    0    0  501    0  0.00000000000E+00  0.00000000000E+00  0.23793093636E+04  0.23793093636E+04  0.50400001928E-02 0.  1.
       -1   -1    0    0    0  501  0.00000000000E+00  0.00000000000E+00 -0.11102709475E+04  0.11102709476E+04  0.50400001928E-02 0. -1.
    10030    2    1    2    0    0  0.00000000000E+00  0.00000000000E+00  0.12690384160E+04  0.34895803111E+04  0.32506479733E+04 0.  0.
        3    1    3    3  502    0 -0.90559590133E+03 -0.16512973184E+03  0.20724949072E+04  0.22677316674E+04  0.10100000352E+00 0.  1.
       -3    1    3    3    0  502  0.90559590133E+03  0.16512973184E+03 -0.80345649115E+03  0.12218486437E+04  0.10100000352E+00 0. -1.
</event>
<event>
 5   0  0.2001768E-06  0.3234490E+04  0.7818609E-02  0.8179767E-01
       -2   -1    0    0    0  501  0.00000000000E+00  0.00000000000E+00  0.10515220363E+04  0.10515220363E+04  0.25500000920E-02 0. -1.
        2   -1    0    0  501    0  0.00000000000E+00  0.00000000000E+00 -0.24873295745E+04  0.24873295745E+04  0.25500000920E-02 0.  1.
    10030    2    1    2    0    0  0.00000000000E+00  0.00000000000E+00 -0.14358075382E+04  0.35388516109E+04  0.32344902901E+04 0.  0.
        2    1    3    3  502    0 -0.10983347795E+04  0.31542122629E+03 -0.19699906337E+04  0.22774312141E+04  0.25500000920E-02 0.  1.
       -2    1    3    3    0  502  0.10983347795E+04 -0.31542122629E+03  0.53418309553E+03  0.12614203968E+04  0.25500000920E-02 0. -1.
</event>
<event>
 5   0  0.2073287E-06  0.3656018E+04  0.7818609E-02  0.8077779E-01
        2   -1    0    0  501    0  0.00000000000E+00  0.00000000000E+00  0.28738906968E+04  0.28738906969E+04  0.25500000920E-02 0. -1.
       -2   -1    0    0    0  501  0.00000000000E+00  0.00000000000E+00 -0.11627500134E+04  0.11627500134E+04  0.25500000920E-02 0.  1.
    10030    2    1    2    0    0  0.00000000000E+00  0.00000000000E+00  0.17111406834E+04  0.40366407103E+04  0.36560177496E+04 0.  0.
        1    1    3    3  502    0 -0.97668689401E+03 -0.76846645571E+03  0.23357178098E+04  0.26457580519E+04  0.50400001928E-02 0. -1.
       -1    1    3    3    0  502  0.97668689401E+03  0.76846645571E+03 -0.62457712634E+03  0.13908826583E+04  0.50400001928E-02 0.  1.
</event>
<event>
 5   0  0.2023479E-06  0.3486006E+04  0.7818609E-02  0.8117114E-01
        2   -1    0    0  501    0  0.00000000000E+00  0.00000000000E+00  0.20713275785E+04  0.20713275785E+04  0.25500000920E-02 0. -1.
       -2   -1    0    0    0  501  0.00000000000E+00  0.00000000000E+00 -0.14667209710E+04  0.14667209710E+04  0.25500000920E-02 0.  1.
    10030    2    1    2    0    0  0.00000000000E+00  0.00000000000E+00  0.60460660742E+03  0.35380485495E+04  0.34860060799E+04 0.  0.
        5    1    3    3  502    0 -0.13292864816E+04  0.33036697756E+02  0.14460447348E+04  0.19644748506E+04  0.46999998093E+01 0. -1.
       -5    1    3    3    0  502  0.13292864816E+04 -0.33036697756E+02 -0.84143812742E+03  0.15735736989E+04  0.46999998093E+01 0.  1.
</event>
<event>
 5   0  0.6630125E-07  0.2724472E+04  0.7818609E-02  0.8327108E-01
        1   -1    0    0  501    0  0.00000000000E+00  0.00000000000E+00  0.23085395499E+04  0.23085395499E+04  0.50400001928E-02 0. -1.
       -1   -1    0    0    0  501  0.00000000000E+00  0.00000000000E+00 -0.80383614036E+03  0.80383614037E+03  0.50400001928E-02 0.  1.
    10030    2    1    2    0    0  0.00000000000E+00  0.00000000000E+00  0.15047034096E+04  0.31123756903E+04  0.27244724419E+04 0.  0.
        4    1    3    3  502    0 -0.10236749616E+04  0.89874100035E+03  0.74511799523E+03  0.15526906493E+04  0.12699999809E+01 0. -1.
       -4    1    3    3    0  502  0.10236749616E+04 -0.89874100035E+03  0.75958541433E+03  0.15596850410E+04  0.12699999809E+01 0.  1.
</event>
<event>
 5   0  0.6630125E-07  0.3433650E+04  0.7818609E-02  0.8129697E-01
        1   -1    0    0  501    0  0.00000000000E+00  0.00000000000E+00  0.20580107399E+04  0.20580107399E+04  0.50400001928E-02 0. -1.
       -1   -1    0    0    0  501  0.00000000000E+00  0.00000000000E+00 -0.14322020761E+04  0.14322020761E+04  0.50400001928E-02 0.  1.
    10030    2    1    2    0    0  0.00000000000E+00  0.00000000000E+00  0.62580866374E+03  0.34902128160E+04  0.34336495187E+04 0.  0.
        1    1    3    3  502    0  0.73910017544E+03 -0.87290065733E+03  0.16143325356E+04  0.19784575210E+04  0.50400001928E-02 0. -1.
       -1    1    3    3    0  502 -0.73910017544E+03  0.87290065733E+03 -0.98852387182E+03  0.15117552950E+04  0.50400001928E-02 0.  1.
</event>
<event>
 5   0  0.6890600E-07  0.2221784E+04  0.7818609E-02  0.8509415E-01
       -1   -1    0    0    0  501  0.00000000000E+00  0.00000000000E+00  0.62134874154E+03  0.62134874156E+03  0.50400001928E-02 0.  1.
        1   -1    0    0  501    0  0.00000000000E+00  0.00000000000E+00 -0.19861332078E+04  0.19861332078E+04  0.50400001928E-02 0. -1.
    10030    2    1    2    0    0  0.00000000000E+00  0.00000000000E+00 -0.13647844663E+04  0.26074819494E+04  0.22217843003E+04 0.  0.
        3    1    3    3  502    0  0.33391393411E+03 -0.97219295232E+03 -0.11767316508E+04  0.15624836128E+04  0.10100000352E+00 0. -1.
       -3    1    3    3    0  502 -0.33391393411E+03  0.97219295232E+03 -0.18805281547E+03  0.10449983366E+04  0.10100000352E+00 0.  1.
</event>
<event>
 5   0  0.2020725E-06  0.3510989E+04  0.7818609E-02  0.8111191E-01
        2   -1    0    0  501    0  0.00000000000E+00  0.00000000000E+00  0.17673569786E+04  0.17673569786E+04  0.25500000920E-02 0. -1.
       -2   -1    0    0    0  501  0.00000000000E+00  0.00000000000E+00 -0.17437120951E+04  0.17437120951E+04  0.25500000920E-02 0.  1.
    10030    2    1    2    0    0  0.00000000000E+00  0.00000000000E+00  0.23644883463E+02  0.35110690737E+04  0.35109894559E+04 0.  0.
        3    1    3    3  502    0  0.10627418799E+04  0.30923407236E+03 -0.13508220183E+04  0.17463579673E+04  0.10100000352E+00 0.  1.
       -3    1    3    3    0  502 -0.10627418799E+04 -0.30923407236E+03  0.13744669017E+04  0.17647111064E+04  0.10100000352E+00 0. -1.
</event>
<event>
 5   0  0.2001768E-06  0.3236323E+04  0.7818609E-02  0.8179290E-01
        2   -1    0    0  501    0  0.00000000000E+00  0.00000000000E+00  0.24948687083E+04  0.24948687083E+04  0.25500000920E-02 0.  1.
       -2   -1    0    0    0  501  0.00000000000E+00  0.00000000000E+00 -0.10495329792E+04  0.10495329792E+04  0.25500000920E-02 0. -1.
    10030    2    1    2    0    0  0.00000000000E+00  0.00000000000E+00  0.14453357291E+04  0.35444016875E+04  0.32363232151E+04 0.  0.
        2    1    3    3  502    0  0.70971763403E+03  0.48632839237E+02  0.23144269912E+04  0.24212882048E+04  0.25500000920E-02 0.  1.
       -2    1    3    3    0  502 -0.70971763403E+03 -0.48632839237E+02 -0.86909126211E+03  0.11231134827E+04  0.25500000920E-02 0. -1.
</event>
<event>
 5   0  0.7378896E-07  0.3443214E+04  0.7818609E-02  0.8127381E-01
        1   -1    0    0  501    0  0.00000000000E+00  0.00000000000E+00  0.12501603112E+04  0.12501603112E+04  0.50400001928E-02 0.  1.
       -1   -1    0    0    0  501  0.00000000000E+00  0.00000000000E+00 -0.23708406410E+04  0.23708406410E+04  0.50400001928E-02 0. -1.
    10030    2    1    2    0    0  0.00000000000E+00  0.00000000000E+00 -0.11206803298E+04  0.36210009522E+04  0.34432141227E+04 0.  0.
        2    1    3    3  502    0 -0.15705503678E+03 -0.65666031990E+03 -0.22257983221E+04  0.23259508230E+04  0.25500000920E-02 0. -1.
       -2    1    3    3    0  502  0.15705503678E+03  0.65666031990E+03  0.11051179923E+04  0.12950501292E+04  0.25500000920E-02 0.  1.
</event>
<event>
 5   0  0.7378896E-07  0.3257987E+04  0.7818609E-02  0.8173669E-01
        1   -1    0    0  501    0  0.00000000000E+00  0.00000000000E+00  0.22896234875E+04  0.22896234875E+04  0.50400001928E-02 0.  1.
       -1   -1    0    0    0  501  0.00000000000E+00  0.00000000000E+00 -0.11589767451E+04  0.11589767452E+04  0.50400001928E-02 0. -1.
    10030    2    1    2    0    0  0.00000000000E+00  0.00000000000E+00  0.11306467424E+04  0.34486002327E+04  0.32579873402E+04 0.  0.
        2    1    3    3  502    0  0.68364723135E+03  0.67691803150E+03 -0.82613094186E+03  0.12681024767E+04  0.25500000920E-02 0. -1.
       -2    1    3    3    0  502 -0.68364723135E+03 -0.67691803150E+03  0.19567776842E+04  0.21804977560E+04  0.25500000920E-02 0.  1.
</event>
<event>
 5   0  0.1999883E-06  0.3498381E+04  0.7818609E-02  0.8114174E-01
        2   -1    0    0  501    0  0.00000000000E+00  0.00000000000E+00  0.15932330849E+04  0.15932330849E+04  0.25500000920E-02 0.  1.
       -2   -1    0    0    0  501  0.00000000000E+00  0.00000000000E+00 -0.19204137339E+04  0.19204137339E+04  0.25500000920E-02 0. -1.
    10030    2    1    2    0    0  0.00000000000E+00  0.00000000000E+00 -0.32718064898E+03  0.35136468188E+04  0.34983805954E+04 0.  0.
        4    1    3    3  502    0 -0.89627061008E+03 -0.10938079830E+04  0.87044021502E+03  0.16605374705E+04  0.12699999809E+01 0.  1.
       -4    1    3    3    0  502  0.89627061008E+03  0.10938079830E+04 -0.11976208640E+04  0.18531093483E+04  0.12699999809E+01 0. -1.
</event>
<event>
 5   0  0.6890600E-07  0.3478893E+04  0.7818609E-02  0.8118810E-01
       -1   -1    0    0    0  501  0.00000000000E+00  0.00000000000E+00  0.24823568076E+04  0.24823568076E+04  0.50400001928E-02 0. -1.
        1   -1    0    0  501    0  0.00000000000E+00  0.00000000000E+00 -0.12188717274E+04  0.12188717274E+04  0.50400001928E-02 0.  1.
    10030    2    1    2    0    0  0.00000000000E+00  0.00000000000E+00  0.12634850802E+04  0.37012285350E+04  0.34788932321E+04 0.  0.
        3    1    3    3  502    0 -0.14994993316E+04  0.81924605440E+03  0.28533871612E+03  0.17323627034E+04  0.10100000352E+00 0. -1.
       -3    1    3    3    0  502  0.14994993316E+04 -0.81924605440E+03  0.97814636408E+03  0.19688658316E+04  0.10100000352E+00 0.  1.
</event>
<event>
 5   0  0.2073287E-06  0.3515199E+04  0.7818609E-02  0.8110197E-01
        2   -1    0    0  501    0  0.00000000000E+00  0.00000000000E+00  0.24981572299E+04  0.24981572299E+04  0.25500000920E-02 0.  1.
       -2   -1    0    0    0  501  0.00000000000E+00  0.00000000000E+00 -0.12365741232E+04  0.12365741232E+04  0.25500000920E-02 0. -1.
    10030    2    1    2    0    0  0.00000000000E+00  0.00000000000E+00  0.12615831067E+04  0.37347313531E+04  0.35151993321E+04 0.  0.
        1    1    3    3  502    0  0.10476002027E+04  0.12764174659E+04  0.12704273728E+04  0.20834330902E+04  0.50400001928E-02 0.  1.
       -1    1    3    3    0  502 -0.10476002027E+04 -0.12764174659E+04 -0.88442660767E+01  0.16512982629E+04  0.50400001928E-02 0. -1.
</event>
<event>
 5   0  0.7378896E-07  0.3488783E+04  0.7818609E-02  0.8116453E-01
        1   -1    0    0  501    0  0.00000000000E+00  0.00000000000E+00  0.25044130848E+04  0.25044130848E+04  0.50400001928E-02 0. -1.
       -1   -1    0    0    0  501  0.00000000000E+00  0.00000000000E+00 -0.12150156333E+04  0.12150156333E+04  0.50400001928E-02 0.  1.
    10030    2    1    2    0    0  0.00000000000E+00  0.00000000000E+00  0.12893974515E+04  0.37194287182E+04  0.34887826246E+04 0.  0.
        2    1    3    3  502    0 -0.87151347658E+03 -0.95847348916E+03 -0.60073307688E+03  0.14279661757E+04  0.25500000920E-02 0.  1.
       -2    1    3    3    0  502  0.87151347658E+03  0.95847348916E+03  0.18901305284E+04  0.22914625425E+04  0.25500000920E-02 0. -1.
</event>
<event>
 5   0  0.6630125E-07  0.3123779E+04  0.7818609E-02  0.8209242E-01
       -1   -1    0    0    0  501  0.00000000000E+00  0.00000000000E+00  0.79922469780E+03  0.79922469782E+03  0.50400001928E-02 0. -1.
        1   -1    0    0  501    0  0.00000000000E+00  0.00000000000E+00 -0.30523310772E+04  0.30523310772E+04  0.50400001928E-02 0.  1.
    10030    2    1    2    0    0  0.00000000000E+00  0.00000000000E+00 -0.22531063794E+04  0.38515557750E+04  0.31237787264E+04 0.  0.
        4    1    3    3  502    0  0.11472235819E+04 -0.75870125526E+03 -0.21402556050E+03  0.13919619589E+04  0.12699999809E+01 0.  1.
       -4    1    3    3    0  502 -0.11472235819E+04  0.75870125526E+03 -0.20390808189E+04  0.24595938161E+04  0.12699999809E+01 0. -1.
</event>
<event>
 5   0  0.1999883E-06  0.2981011E+04  0.7818609E-02  0.8249174E-01
        2   -1    0    0  501    0  0.00000000000E+00  0.00000000000E+00  0.19910437326E+04  0.19910437326E+04  0.25500000920E-02 0. -1.
       -2   -1    0    0    0  501  0.00000000000E+00  0.00000000000E+00 -0.11158002411E+04  0.11158002411E+04  0.25500000920E-02 0.  1.
    10030    2    1    2    0    0  0.00000000000E+00  0.00000000000E+00  0.87524349153E+03  0.31068439737E+04  0.29810112894E+04 0.  0.
        4    1    3    3  502    0 -0.56349211660E+03  0.11633399502E+04 -0.33581025602E+03  0.13355348540E+04  0.12699999809E+01 0.  1.
       -4    1    3    3    0  502  0.56349211660E+03 -0.11633399502E+04  0.12110537475E+04  0.17713091197E+04  0.12699999809E+01 0. -1.
</event>
<event>
 5   0  0.2001768E-06  0.3511960E+04  0.7818609E-02  0.8110961E-01
        2   -1    0    0  501    0  0.00000000000E+00  0.00000000000E+00  0.23430031600E+04  0.23430031600E+04  0.25500000920E-02 0.  1.
       -2   -1    0    0    0  501  0.00000000000E+00  0.00000000000E+00 -0.13160313576E+04  0.13160313576E+04  0.25500000920E-02 0. -1.
    10030    2    1    2    0    0  0.00000000000E+00  0.00000000000E+00  0.10269718025E+04  0.36590345176E+04  0.35119599254E+04 0.  0.
        2    1    3    3  502    0  0.60024089472E+03  0.11946495026E+04 -0.67260404103E+03  0.14966204468E+04  0.25500000920E-02 0. -1.
       -2    1    3    3    0  502 -0.60024089472E+03 -0.11946495026E+04  0.16995758435E+04  0.21624140708E+04  0.25500000920E-02 0.  1.
</event>
<event>
 5   0  0.6630125E-07  0.3078913E+04  0.7818609E-02  0.8221549E-01
       -1   -1    0    0    0  501  0.00000000000E+00  0.00000000000E+00  0.70570210562E+03  0.70570210563E+03  0.50400001928E-02 0. -1.
        1   -1    0    0  501    0  0.00000000000E+00  0.00000000000E+00 -0.33582538604E+04  0.33582538605E+04  0.50400001928E-02 0.  1.
    10030    2    1    2    0    0  0.00000000000E+00  0.00000000000E+00 -0.26525517548E+04  0.40639559661E+04  0.30789133281E+04 0.  0.
        5    1    3    3  502    0  0.14426674012E+04  0.58822257036E+01 -0.61721206499E+03  0.15691706899E+04  0.46999998093E+01 0. -1.
       -5    1    3    3    0  502 -0.14426674012E+04 -0.58822257036E+01 -0.20353396898E+04  0.24947852761E+04  0.46999998093E+01 0.  1.
</event>
<event>
 5   0  0.2023479E-06  0.3294735E+04  0.7818609E-02  0.8164236E-01
       -2   -1    0    0    0  501  0.00000000000E+00  0.00000000000E+00  0.15457289634E+04  0.15457289634E+04  0.25500000920E-02 0.  1.
        2   -1    0    0  501    0  0.00000000000E+00  0.00000000000E+00 -0.17556893893E+04  0.17556893893E+04  0.25500000920E-02 0. -1.
    10030    2    1    2    0    0  0.00000000000E+00  0.00000000000E+00 -0.20996042582E+03  0.33014183527E+04  0.32947351577E+04 0.  0.
        5    1    3    3  502    0 -0.12014428837E+04 -0.11072196913E+04 -0.31611453134E+03  0.16641366935E+04  0.46999998093E+01 0. -1.
       -5    1    3    3    0  502  0.12014428837E+04  0.11072196913E+04  0.10615410552E+03  0.16372816593E+04  0.46999998093E+01 0.  1.
</event>
<event>
 5   0  0.2001768E-06  0.3322363E+04  0.7818609E-02  0.8157228E-01
        2   -1    0    0  501    0  0.00000000000E+00  0.00000000000E+00  0.20910177595E+04  0.20910177595E+04  0.25500000920E-02 0. -1.
       -2   -1    0    0    0  501  0.00000000000E+00  0.00000000000E+00 -0.13197035106E+04  0.13197035106E+04  0.25500000920E-02 0.  1.
    10030    2    1    2    0    0  0.00000000000E+00  0.00000000000E+00  0.77131424890E+03  0.34107212701E+04  0.33223627002E+04 0.  0.
        2    1    3    3  502    0  0.11207115472E+04 -0.71318491771E+03  0.14096291978E+04  0.19369258050E+04  0.25500000920E-02 0. -1.
       -2    1    3    3    0  502 -0.11207115472E+04  0.71318491771E+03 -0.63831494887E+03  0.14737954651E+04  0.25500000920E-02 0.  1.
</event>
<event>
 5   0  0.2023479E-06  0.3402053E+04  0.7818609E-02  0.8137403E-01
        2   -1    0    0  501    0  0.00000000000E+00  0.00000000000E+00  0.14362810048E+04  0.14362810048E+04  0.25500000920E-02 0.  1.
       -2   -1    0    0    0  501  0.00000000000E+00  0.00000000000E+00 -0.20145716135E+04  0.20145716135E+04  0.25500000920E-02 0. -1.
    10030    2    1    2    0    0  0.00000000000E+00  0.00000000000E+00 -0.57829060869E+03  0.34508526184E+04  0.34020528752E+04 0.  0.
        5    1    3    3  502    0 -0.13628385173E+04 -0.10103871337E+04 -0.41443987976E+03  0.17464230553E+04  0.46999998093E+01 0. -1.
       -5    1    3    3    0  502  0.13628385173E+04  0.10103871337E+04 -0.16385072893E+03  0.17044295631E+04  0.46999998093E+01 0.  1.
</event>
<event>
 5   0  0.6890600E-07  0.3439976E+04  0.7818609E-02  0.8128164E-01
       -1   -1    0    0    0  501  0.00000000000E+00  0.00000000000E+00  0.11235650753E+04  0.11235650753E+04  0.50400001928E-02 0. -1.
        1   -1    0    0  501    0  0.00000000000E+00  0.00000000000E+00 -0.26330102958E+04  0.26330102958E+04  0.50400001928E-02 0.  1.
    10030    2    1    2    0    0  0.00000000000E+00  0.00000000000E+00 -0.15094452206E+04  0.37565753711E+04  0.34399758204E+04 0.  0.
        3    1    3    3  502    0 -0.86076935226E+03  0.67584518985E+03 -0.22037461078E+04  0.24605258618E+04  0.10100000352E+00 0.  1.
       -3    1    3    3    0  502  0.86076935226E+03 -0.67584518985E+03  0.69430088725E+03  0.12960495093E+04  0.10100000352E+00 0. -1.
</event>
<event>
 5   0  0.2073287E-06  0.3526092E+04  0.7818609E-02  0.8107634E-01
       -2   -1    0    0    0  501  0.00000000000E+00  0.00000000000E+00  0.23373914323E+04  0.23373914323E+04  0.25500000920E-02 0. -1.
        2   -1    0    0  501    0  0.00000000000E+00  0.00000000000E+00 -0.13298294309E+04  0.13298294309E+04  0.25500000920E-02 0.  1.
    10030    2    1    2    0    0  0.00000000000E+00  0.00000000000E+00  0.10075620014E+04  0.36672208632E+04  0.35260924084E+04 0.  0.
        1    1    3    3  502    0  0.89402065022E+03 -0.32983440685E+03  0.20464799860E+04  0.22574640622E+04  0.50400001928E-02 0. -1.
       -1    1    3    3    0  502 -0.89402065022E+03  0.32983440685E+03 -0.10389179847E+04  0.14097568010E+04  0.50400001928E-02 0.  1.
</event>
<event>
 5   0  0.6890600E-07  0.2706421E+04  0.7818609E-02  0.8332925E-01
       -1   -1    0    0    0  501  0.00000000000E+00  0.00000000000E+00  0.78648258689E+03  0.78648258690E+03  0.50400001928E-02 0.  1.
        1   -1    0    0  501    0  0.00000000000E+00  0.00000000000E+00 -0.23283144033E+04  0.23283144033E+04  0.50400001928E-02 0. -1.
    10030    2    1    2    0    0  0.00000000000E+00  0.00000000000E+00 -0.15418318164E+04  0.31147969902E+04  0.27064210574E+04 0.  0.
        3    1    3    3  502    0  0.92844488878E+03  0.53519728914E+03 -0.17218703837E+04  0.20281231911E+04  0.10100000352E+00 0. -1.
       -3    1    3    3    0  502 -0.92844488878E+03 -0.53519728914E+03  0.18003856727E+03  0.10866737991E+04  0.10100000352E+00 0.  1.
</event>
<event>
 5   0  0.2001768E-06  0.3535717E+04  0.7818609E-02  0.8105377E-01
        2   -1    0    0  501    0  0.00000000000E+00  0.00000000000E+00  0.15528826234E+04  0.15528826234E+04  0.25500000920E-02 0.  1.
       -2   -1    0    0    0  501  0.00000000000E+00  0.00000000000E+00 -0.20125953526E+04  0.20125953526E+04  0.25500000920E-02 0. -1.
    10030    2    1    2    0    0  0.00000000000E+00  0.00000000000E+00 -0.45971272921E+03  0.35654779761E+04  0.35357173819E+04 0.  0.
        2    1    3    3  502    0 -0.34318130507E+03  0.10369459147E+04 -0.16316265866E+04  0.19634753771E+04  0.25500000920E-02 0. -1.
       -2    1    3    3    0  502  0.34318130507E+03 -0.10369459147E+04  0.11719138574E+04  0.16020025990E+04  0.25500000920E-02 0.  1.
</event>
<event>
 5   0  0.2020725E-06  0.3024115E+04  0.7818609E-02  0.8236878E-01
        2   -1    0    0  501    0  0.00000000000E+00  0.00000000000E+00  0.16152089264E+04  0.16152089264E+04  0.25500000920E-02 0. -1.
       -2   -1    0    0    0  501  0.00000000000E+00  0.00000000000E+00 -0.14154937531E+04  0.14154937531E+04  0.25500000920E-02 0.  1.
    10030    2    1    2    0    0  0.00000000000E+00  0.00000000000E+00  0.19971517330E+03  0.30307026796E+04  0.30241151733E+04 0.  0.
        3    1    3    3  502    0  0.81088100156E+03 -0.11227601380E+04 -0.50825891046E+03  0.14752780946E+04  0.10100000352E+00 0.  1.
       -3    1    3    3    0  502 -0.81088100156E+03  0.11227601380E+04  0.70797408376E+03  0.15554245850E+04  0.10100000352E+00 0. -1.
</event>
<event>
 5   0  0.2073287E-06  0.3533511E+04  0.7818609E-02  0.8105894E-01
        2   -1    0    0  501    0  0.00000000000E+00  0.00000000000E+00  0.19016375943E+04  0.19016375943E+04  0.25500000920E-02 0. -1.
       -2   -1    0    0    0  501  0.00000000000E+00  0.00000000000E+00 -0.16414409165E+04  0.16414409165E+04  0.25500000920E-02 0.  1.
    10030    2    1    2    0    0  0.00000000000E+00  0.00000000000E+00  0.26019667778E+03  0.35430785108E+04  0.35335114295E+04 0.  0.
        1    1    3    3  502    0  0.65325726398E+03  0.50764118699E+03  0.16954083344E+04  0.18864925253E+04  0.50400001928E-02 0. -1.
       -1    1    3    3    0  502 -0.65325726398E+03 -0.50764118699E+03 -0.14352116567E+04  0.16565859854E+04  0.50400001928E-02 0.  1.
</event>
<event>
 5   0  0.2023479E-06  0.3284738E+04  0.7818609E-02  0.8166790E-01
        2   -1    0    0  501    0  0.00000000000E+00  0.00000000000E+00  0.20318890988E+04  0.20318890988E+04  0.25500000920E-02 0.  1.
       -2   -1    0    0    0  501  0.00000000000E+00  0.00000000000E+00 -0.13275213328E+04  0.13275213328E+04  0.25500000920E-02 0. -1.
    10030    2    1    2    0    0  0.00000000000E+00  0.00000000000E+00  0.70436776607E+03  0.33594104316E+04  0.32847381171E+04 0.  0.
        5    1    3    3  502    0 -0.27088555395E+03 -0.61841965880E+03 -0.11790262871E+04  0.13586562970E+04  0.46999998093E+01 0. -1.
       -5    1    3    3    0  502  0.27088555395E+03  0.61841965880E+03  0.18833940531E+04  0.20007541346E+04  0.46999998093E+01 0.  1.
</event>
<event>
 5   0  0.6630125E-07  0.2943006E+04  0.7818609E-02  0.8260196E-01
        1   -1    0    0  501    0  0.00000000000E+00  0.00000000000E+00  0.19480694978E+04  0.19480694978E+04  0.50400001928E-02 0. -1.
       -1   -1    0    0    0  501  0.00000000000E+00  0.00000000000E+00 -0.11115214136E+04  0.11115214136E+04  0.50400001928E-02 0.  1.
    10030    2    1    2    0    0  0.00000000000E+00  0.00000000000E+00  0.83654808419E+03  0.30595909114E+04  0.29430059205E+04 0.  0.
        4    1    3    3  502    0 -0.36512254684E+03 -0.11247839081E+04 -0.49212538952E+03  0.12808756091E+04  0.12699999809E+01 0.  1.
       -4    1    3    3    0  502  0.36512254684E+03  0.11247839081E+04  0.13286734737E+04  0.17787153023E+04  0.12699999809E+01 0. -1.
</event>
<event>
 5   0  0.6630125E-07  0.3224780E+04  0.7818609E-02  0.8182303E-01
       -1   -1    0    0    0  501  0.00000000000E+00  0.00000000000E+00  0.14012039525E+04  0.14012039525E+04  0.50400001928E-02 0. -1.
        1   -1    0    0  501    0  0.00000000000E+00  0.00000000000E+00 -0.18554058119E+04  0.18554058119E+04  0.50400001928E-02 0.  1.
    10030    2    1    2    0    0  0.00000000000E+00  0.00000000000E+00 -0.45420185941E+03  0.32566097644E+04  0.32247802760E+04 0.  0.
        5    1    3    3  502    0  0.42074665763E+02 -0.13354464369E+03  0.13950460732E+04  0.14020627966E+04  0.46999998093E+01 0. -1.
       -5    1    3    3    0  502 -0.42074665763E+02  0.13354464369E+03 -0.18492479326E+04  0.18545469678E+04  0.46999998093E+01 0.  1.
</event>
<event>
 5   0  0.1999883E-06  0.3450844E+04  0.7818609E-02  0.8125539E-01
        2   -1    0    0  501    0  0.00000000000E+00  0.00000000000E+00  0.12852429332E+04  0.12852429332E+04  0.25500000920E-02 0. -1.
       -2   -1    0    0    0  501  0.00000000000E+00  0.00000000000E+00 -0.23163561657E+04  0.23163561657E+04  0.25500000920E-02 0.  1.
    10030    2    1    2    0    0  0.00000000000E+00  0.00000000000E+00 -0.10311132326E+04  0.36015990989E+04  0.34508436028E+04 0.  0.
        4    1    3    3  502    0  0.32641525312E+03  0.16939405376E+04 -0.55012954970E+03  0.18106975442E+04  0.12699999809E+01 0.  1.
       -4    1    3    3    0  502 -0.32641525312E+03 -0.16939405376E+04 -0.48098368286E+03  0.17909015547E+04  0.12699999809E+01 0. -1.
</event>
<event>
 5   0  0.6630125E-07  0.3472289E+04  0.7818609E-02  0.8120389E-01
       -1   -1    0    0    0  501  0.00000000000E+00  0.00000000000E+00  0.17429136794E+04  0.17429136795E+04  0.50400001928E-02 0. -1.
        1   -1    0    0  501    0  0.00000000000E+00  0.00000000000E+00 -0.17294016903E+04  0.17294016903E+04  0.50400001928E-02 0.  1.
    10030    2    1    2    0    0  0.00000000000E+00  0.00000000000E+00  0.13511989128E+02  0.34723153698E+04  0.34722890798E+04 0.  0.
        4    1    3    3  502    0 -0.53938732394E+03  0.30289059853E+03 -0.16154507429E+04  0.17298451132E+04  0.12699999809E+01 0.  1.
       -4    1    3    3    0  502  0.53938732394E+03 -0.30289059853E+03  0.16289627320E+04  0.17424702566E+04  0.12699999809E+01 0. -1.
</event>
<event>
 5   0  0.6630125E-07  0.3357378E+04  0.7818609E-02  0.8148447E-01
       -1   -1    0    0    0  501  0.00000000000E+00  0.00000000000E+00  0.11655967182E+04  0.11655967182E+04  0.50400001928E-02 0. -1.
        1   -1    0    0  501    0  0.00000000000E+00  0.00000000000E+00 -0.24176424009E+04  0.24176424009E+04  0.50400001928E-02 0.  1.
    10030    2    1    2    0    0  0.00000000000E+00  0.00000000000E+00 -0.12520456828E+04  0.35832391191E+04  0.33573775768E+04 0.  0.
        1    1    3    3  502    0  0.11599830805E+04  0.25298062680E+03 -0.18926365375E+04  0.22341962778E+04  0.50400001928E-02 0.  1.
       -1    1    3    3    0  502 -0.11599830805E+04 -0.25298062680E+03  0.64059085471E+03  0.13490428413E+04  0.50400001928E-02 0. -1.
</event>
<event>
 5   0  0.2073287E-06  0.3509054E+04  0.7818609E-02  0.8111648E-01
        2   -1    0    0  501    0  0.00000000000E+00  0.00000000000E+00  0.25026756212E+04  0.25026756212E+04  0.25500000920E-02 0. -1.
       -2   -1    0    0    0  501  0.00000000000E+00  0.00000000000E+00 -0.12300292257E+04  0.12300292257E+04  0.25500000920E-02 0.  1.
    10030    2    1    2    0    0  0.00000000000E+00  0.00000000000E+00  0.12726463955E+04  0.37327048469E+04  0.35090535228E+04 0.  0.
        1    1    3    3  502    0 -0.43326791632E+03  0.14412281044E+04 -0.32310763286E+03  0.15392394482E+04  0.50400001928E-02 0.  1.
       -1    1    3    3    0  502  0.43326791632E+03 -0.14412281044E+04  0.15957540284E+04  0.21934653988E+04  0.50400001928E-02 0. -1.
</event>
<event>
 5   0  0.6630125E-07  0.3491619E+04  0.7818609E-02  0.8115779E-01
       -1   -1    0    0    0  501  0.00000000000E+00  0.00000000000E+00  0.25237257596E+04  0.25237257596E+04  0.50400001928E-02 0. -1.
        1   -1    0    0  501    0  0.00000000000E+00  0.00000000000E+00 -0.12076793767E+04  0.12076793767E+04  0.50400001928E-02 0.  1.
    10030    2    1    2    0    0  0.00000000000E+00  0.00000000000E+00  0.13160463829E+04  0.37314051363E+04  0.34916194250E+04 0.  0.
        5    1    3    3  502    0 -0.74353327546E+03  0.13110109924E+04  0.15995721950E+04  0.21977818024E+04  0.46999998093E+01 0. -1.
       -5    1    3    3    0  502  0.74353327546E+03 -0.13110109924E+04 -0.28352581215E+03  0.15336233338E+04  0.46999998093E+01 0.  1.
</event>
<event>
 5   0  0.1999883E-06  0.3450999E+04  0.7818609E-02  0.8125502E-01
        2   -1    0    0  501    0  0.00000000000E+00  0.00000000000E+00  0.15434311354E+04  0.15434311354E+04  0.25500000920E-02 0. -1.
       -2   -1    0    0    0  501  0.00000000000E+00  0.00000000000E+00 -0.19290447685E+04  0.19290447685E+04  0.25500000920E-02 0.  1.
    10030    2    1    2    0    0  0.00000000000E+00  0.00000000000E+00 -0.38561363304E+03  0.34724759039E+04  0.34509985554E+04 0.  0.
        4    1    3    3  502    0 -0.87154390105E+03 -0.95347804755E+03 -0.13438829745E+04  0.18640633628E+04  0.12699999809E+01 0.  1.
       -4    1    3    3    0  502  0.87154390105E+03  0.95347804755E+03  0.95826934147E+03  0.16084125411E+04  0.12699999809E+01 0. -1.
</event>
<event>
 5   0  0.2073287E-06  0.3533258E+04  0.7818609E-02  0.8105953E-01
        2   -1    0    0  501    0  0.00000000000E+00  0.00000000000E+00  0.11172567606E+04  0.11172567606E+04  0.25500000920E-02 0.  1.
       -2   -1    0    0    0  501  0.00000000000E+00  0.00000000000E+00 -0.27934293288E+04  0.27934293288E+04  0.25500000920E-02 0. -1.
    10030    2    1    2    0    0  0.00000000000E+00  0.00000000000E+00 -0.16761725682E+04  0.39106860895E+04  0.35332578751E+04 0.  0.
        1    1    3    3  502    0  0.75868844274E+03 -0.17945859765E+03  0.91655384898E+03  0.12032807235E+04  0.50400001928E-02 0.  1.
       -1    1    3    3    0  502 -0.75868844274E+03  0.17945859765E+03 -0.25927264172E+04  0.27074053660E+04  0.50400001928E-02 0. -1.
</event>
<event>
 5   0  0.2020725E-06  0.3553750E+04  0.7818609E-02  0.8101169E-01
        2   -1    0    0  501    0  0.00000000000E+00  0.00000000000E+00  0.18484530844E+04  0.18484530844E+04  0.25500000920E-02 0.  1.
       -2   -1    0    0    0  501  0.00000000000E+00  0.00000000000E+00 -0.17080689423E+04  0.17080689423E+04  0.25500000920E-02 0. -1.
    10030    2    1    2    0    0  0.00000000000E+00  0.00000000000E+00  0.14038414213E+03  0.35565220267E+04  0.35537503035E+04 0.  0.
        3    1    3    3  502    0 -0.13664470864E+04 -0.11110478449E+04  0.30634293367E+03  0.17875824336E+04  0.10100000352E+00 0.  1.
       -3    1    3    3    0  502  0.13664470864E+04  0.11110478449E+04 -0.16595879153E+03  0.17689395932E+04  0.10100000352E+00 0. -1.
</event>
<event>
 5   0  0.2001768E-06  0.3483830E+04  0.7818609E-02  0.8117633E-01
        2   -1    0    0  501    0  0.00000000000E+00  0.00000000000E+00  0.22065469712E+04  0.22065469712E+04  0.25500000920E-02 0. -1.
       -2   -1    0    0    0  501  0.00000000000E+00  0.00000000000E+00 -0.13751206410E+04  0.13751206410E+04  0.25500000920E-02 0.  1.
    10030    2    1    2    0    0  0.00000000000E+00  0.00000000000E+00  0.83142633017E+03  0.35816676121E+04  0.34838302400E+04 0.  0.
        2    1    3    3  502    0 -0.62044239786E+03  0.70047316545E+03 -0.10947846502E+04  0.14401961168E+04  0.25500000920E-02 0.  1.
       -2    1    3    3    0  502  0.62044239786E+03 -0.70047316545E+03  0.19262109803E+04  0.21414714953E+04  0.25500000920E-02 0. -1.
</event>
<event>
 5   0  0.2073287E-06  0.3434935E+04  0.7818609E-02  0.8129385E-01
       -2   -1    0    0    0  501  0.00000000000E+00  0.00000000000E+00  0.17254211460E+04  0.17254211460E+04  0.25500000920E-02 0.  1.
        2   -1    0    0  501    0  0.00000000000E+00  0.00000000000E+00 -0.17095503884E+04  0.17095503884E+04  0.25500000920E-02 0. -1.
    10030    2    1    2    0    0  0.00000000000E+00  0.00000000000E+00  0.15870757634E+02  0.34349715344E+04  0.34349348700E+04 0.  0.
        1    1    3    3  502    0  0.76857875771E+03 -0.14907922846E+04  0.37742470512E+03  0.17191929358E+04  0.50400001928E-02 0.  1.
       -1    1    3    3    0  502 -0.76857875771E+03  0.14907922846E+04 -0.36155394749E+03  0.17157785986E+04  0.50400001928E-02 0. -1.
</event>
<event>
 5   0  0.2020725E-06  0.3482167E+04  0.7818609E-02  0.8118029E-01
       -2   -1    0    0    0  501  0.00000000000E+00  0.00000000000E+00  0.11414242836E+04  0.11414242836E+04  0.25500000920E-02 0.  1.
        2   -1    0    0  501    0  0.00000000000E+00  0.00000000000E+00 -0.26557795012E+04  0.26557795012E+04  0.25500000920E-02 0. -1.
    10030    2    1    2    0    0  0.00000000000E+00  0.00000000000E+00 -0.15143552176E+04  0.37972037848E+04  0.34821666902E+04 0.  0.
        3    1    3    3  502    0 -0.11010568401E+04 -0.10235213490E+04  0.20060728511E+03  0.15166296219E+04  0.10100000352E+00 0.  1.
       -3    1    3    3    0  502  0.11010568401E+04  0.10235213490E+04 -0.17149625027E+04  0.22805741629E+04  0.10100000352E+00 0. -1.
</event>
<event>
 5   0  0.2001768E-06  0.3537544E+04  0.7818609E-02  0.8104950E-01
        2   -1    0    0  501    0  0.00000000000E+00  0.00000000000E+00  0.18805279308E+04  0.18805279308E+04  0.25500000920E-02 0. -1.
       -2   -1    0    0    0  501  0.00000000000E+00  0.00000000000E+00 -0.16636571882E+04  0.16636571882E+04  0.25500000920E-02 0.  1.
    10030    2    1    2    0    0  0.00000000000E+00  0.00000000000E+00  0.21687074255E+03  0.35441851190E+04  0.35375436731E+04 0.  0.
        2    1    3    3  502    0 -0.66808867133E+03 -0.15237757510E+04 -0.49295718371E+03  0.17352930004E+04  0.25500000920E-02 0.  1.
       -2    1    3    3    0  502  0.66808867133E+03  0.15237757510E+04  0.70982792626E+03  0.18088921187E+04  0.25500000920E-02 0. -1.
</event>
<event>
 5   0  0.6890600E-07  0.3328441E+04  0.7818609E-02  0.8155696E-01
       -1   -1    0    0    0  501  0.00000000000E+00  0.00000000000E+00  0.12297188614E+04  0.12297188614E+04  0.50400001928E-02 0. -1.
        1   -1    0    0  501    0  0.00000000000E+00  0.00000000000E+00 -0.22522461967E+04  0.22522461967E+04  0.50400001928E-02 0.  1.
    10030    2    1    2    0    0  0.00000000000E+00  0.00000000000E+00 -0.10225273353E+04  0.34819650582E+04  0.33284408534E+04 0.  0.
        3    1    3    3  502    0 -0.17499116318E+03 -0.56960375576E+03 -0.21368217815E+04  0.22183502162E+04  0.10100000352E+00 0.  1.
       -3    1    3    3    0  502  0.17499116318E+03  0.56960375576E+03  0.11142944462E+04  0.12636148419E+04  0.10100000352E+00 0. -1.
</event>
<event>
 5   0  0.6630125E-07  0.3485014E+04  0.7818609E-02  0.8117351E-01
       -1   -1    0    0    0  501  0.00000000000E+00  0.00000000000E+00  0.12453770130E+04  0.12453770130E+04  0.50400001928E-02 0.  1.
        1   -1    0    0  501    0  0.00000000000E+00  0.00000000000E+00 -0.24380821762E+04  0.24380821762E+04  0.50400001928E-02 0. -1.
    10030    2    1    2    0    0  0.00000000000E+00  0.00000000000E+00 -0.11927051632E+04  0.36834591892E+04  0.34850144895E+04 0.  0.
        1    1    3    3  502    0 -0.15467171828E+04 -0.22828921580E+03  0.21679364882E+03  0.15784326073E+04  0.50400001928E-02 0. -1.
       -1    1    3    3    0  502  0.15467171828E+04  0.22828921580E+03 -0.14094988120E+04  0.21050265819E+04  0.50400001928E-02 0.  1.
</event>
<event>
 5   0  0.2001768E-06  0.2979397E+04  0.7818609E-02  0.8249639E-01
       -2   -1    0    0    0  501  0.00000000000E+00  0.00000000000E+00  0.11404374535E+04  0.11404374535E+04  0.25500000920E-02 0. -1.
        2   -1    0    0  501    0  0.00000000000E+00  0.00000000000E+00 -0.19459211434E+04  0.19459211434E+04  0.25500000920E-02 0.  1.
    10030    2    1    2    0    0  0.00000000000E+00  0.00000000000E+00 -0.80548368986E+03  0.30863585969E+04  0.29793968205E+04 0.  0.
        2    1    3    3  502    0 -0.13872405340E+04  0.23032936684E+03  0.10655200440E+03  0.14102628287E+04  0.25500000920E-02 0. -1.
       -2    1    3    3    0  502  0.13872405340E+04 -0.23032936684E+03 -0.91203569427E+03  0.16760957681E+04  0.25500000920E-02 0.  1.
</event>
<event>
 5   0  0.2023479E-06  0.3267813E+04  0.7818609E-02  0.8171134E-01
       -2   -1    0    0    0  501  0.00000000000E+00  0.00000000000E+00  0.11225977498E+04  0.11225977498E+04  0.25500000920E-02 0. -1.
        2   -1    0    0  501    0  0.00000000000E+00  0.00000000000E+00 -0.23781009316E+04  0.23781009316E+04  0.25500000920E-02 0.  1.
    10030    2    1    2    0    0  0.00000000000E+00  0.00000000000E+00 -0.12555031818E+04  0.35006986814E+04  0.32678131860E+04 0.  0.
        5    1    3    3  502    0 -0.16337974072E+04 -0.92148435413E+01 -0.61082071452E+03  0.17442771902E+04  0.46999998093E+01 0.  1.
       -5    1    3    3    0  502  0.16337974072E+04  0.92148435413E+01 -0.64468246728E+03  0.17564214912E+04  0.46999998093E+01 0. -1.
</event>
<event>
 5   0  0.2023479E-06  0.2416775E+04  0.7818609E-02  0.8433250E-01
       -2   -1    0    0    0  501  0.00000000000E+00  0.00000000000E+00  0.11569775405E+04  0.11569775405E+04  0.25500000920E-02 0. -1.
        2   -1    0    0  501    0  0.00000000000E+00  0.00000000000E+00 -0.12620815826E+04  0.12620815826E+04  0.25500000920E-02 0.  1.
    10030    2    1    2    0    0  0.00000000000E+00  0.00000000000E+00 -0.10510404219E+03  0.24190591231E+04  0.24167747478E+04 0.  0.
        5    1    3    3  502    0  0.75745023115E+03 -0.12395679821E+03 -0.98675184710E+03  0.12501189696E+04  0.46999998093E+01 0.  1.
       -5    1    3    3    0  502 -0.75745023115E+03  0.12395679821E+03  0.88164780491E+03  0.11689401535E+04  0.46999998093E+01 0. -1.
</event>
<event>
 5   0  0.6630125E-07  0.3313385E+04  0.7818609E-02  0.8159498E-01
        1   -1    0    0  501    0  0.00000000000E+00  0.00000000000E+00  0.10171119187E+04  0.10171119187E+04  0.50400001928E-02 0. -1.
       -1   -1    0    0    0  501  0.00000000000E+00  0.00000000000E+00 -0.26984546389E+04  0.26984546390E+04  0.50400001928E-02 0.  1.
    10030    2    1    2    0    0  0.00000000000E+00  0.00000000000E+00 -0.16813427202E+04  0.37155665577E+04  0.33133852027E+04 0.  0.
        4    1    3    3  502    0  0.13390577672E+04 -0.83734402735E+03 -0.14018191415E+04  0.21117100280E+04  0.12699999809E+01 0.  1.
       -4    1    3    3    0  502 -0.13390577672E+04  0.83734402735E+03 -0.27952357876E+03  0.16038565297E+04  0.12699999809E+01 0. -1.
</event>
<event>
 5   0  0.6630125E-07  0.3393935E+04  0.7818609E-02  0.8139396E-01
        1   -1    0    0  501    0  0.00000000000E+00  0.00000000000E+00  0.95520084880E+03  0.95520084881E+03  0.50400001928E-02 0. -1.
       -1   -1    0    0    0  501  0.00000000000E+00  0.00000000000E+00 -0.30147575293E+04  0.30147575293E+04  0.50400001928E-02 0.  1.
    10030    2    1    2    0    0  0.00000000000E+00  0.00000000000E+00 -0.20595566805E+04  0.39699583781E+04  0.33939351502E+04 0.  0.
        5    1    3    3  502    0  0.42341957783E+02  0.16936048975E+04 -0.11443063695E+04  0.20443946653E+04  0.46999998093E+01 0.  1.
       -5    1    3    3    0  502 -0.42341957783E+02 -0.16936048975E+04 -0.91525031102E+03  0.19255637128E+04  0.46999998093E+01 0. -1.
</event>
<event>
 5   0  0.2073287E-06  0.2201656E+04  0.7818609E-02  0.8517739E-01
        2   -1    0    0  501    0  0.00000000000E+00  0.00000000000E+00  0.16655243250E+04  0.16655243250E+04  0.25500000920E-02 0. -1.
       -2   -1    0    0    0  501  0.00000000000E+00  0.00000000000E+00 -0.72759233019E+03  0.72759233019E+03  0.25500000920E-02 0.  1.
    10030    2    1    2    0    0  0.00000000000E+00  0.00000000000E+00  0.93793199482E+03  0.23931166552E+04  0.22016563988E+04 0.  0.
        1    1    3    3  502    0  0.28591558025E+03  0.42794966522E+03  0.15266944897E+04  0.16111128762E+04  0.50400001928E-02 0. -1.
       -1    1    3    3    0  502 -0.28591558025E+03 -0.42794966522E+03 -0.58876249486E+03  0.78200377900E+03  0.50400001928E-02 0.  1.
</event>
<event>
 5   0  0.1999883E-06  0.2547409E+04  0.7818609E-02  0.8386288E-01
       -2   -1    0    0    0  501  0.00000000000E+00  0.00000000000E+00  0.98364100860E+03  0.98364100860E+03  0.25500000920E-02 0.  1.
        2   -1    0    0  501    0  0.00000000000E+00  0.00000000000E+00 -0.16493042037E+04  0.16493042037E+04  0.25500000920E-02 0. -1.
    10030    2    1    2    0    0  0.00000000000E+00  0.00000000000E+00 -0.66566319514E+03  0.26329452123E+04  0.25474090763E+04 0.  0.
        4    1    3    3  502    0 -0.17602786577E+02 -0.11088604508E+04  0.31465371119E+03  0.11527748819E+04  0.12699999809E+01 0.  1.
       -4    1    3    3    0  502  0.17602786577E+02  0.11088604508E+04 -0.98031690633E+03  0.14801703305E+04  0.12699999809E+01 0. -1.
</event>
<event>
 5   0  0.2001768E-06  0.3479892E+04  0.7818609E-02  0.8118572E-01
       -2   -1    0    0    0  501  0.00000000000E+00  0.00000000000E+00  0.14194336509E+04  0.14194336509E+04  0.25500000920E-02 0.  1.
        2   -1    0    0  501    0  0.00000000000E+00  0.00000000000E+00 -0.21328307991E+04  0.21328307991E+04  0.25500000920E-02 0. -1.
    10030    2    1    2    0    0  0.00000000000E+00  0.00000000000E+00 -0.71339714829E+03  0.35522644500E+04  0.34798918419E+04 0.  0.
        2    1    3    3  502    0  0.10375033069E+04 -0.12066081944E+04  0.36156521502E+03  0.16318841415E+04  0.25500000920E-02 0.  1.
       -2    1    3    3    0  502 -0.10375033069E+04  0.12066081944E+04 -0.10749623633E+04  0.19203803085E+04  0.25500000920E-02 0. -1.
</event>
<event>
 5   0  0.2001768E-06  0.3298640E+04  0.7818609E-02  0.8163241E-01
       -2   -1    0    0    0  501  0.00000000000E+00  0.00000000000E+00  0.12810462436E+04  0.12810462436E+04  0.25500000920E-02 0. -1.
        2   -1    0    0  501    0  0.00000000000E+00  0.00000000000E+00 -0.21234650115E+04  0.21234650115E+04  0.25500000920E-02 0.  1.
    10030    2    1    2    0    0  0.00000000000E+00  0.00000000000E+00 -0.84241876788E+03  0.34045112551E+04  0.32986402510E+04 0.  0.
        2    1    3    3  502    0  0.57591858386E+02  0.11122774215E+04  0.83429504450E+03  0.13915912136E+04  0.25500000920E-02 0. -1.
       -2    1    3    3    0  502 -0.57591858386E+02 -0.11122774215E+04 -0.16767138124E+04  0.20129200414E+04  0.25500000920E-02 0.  1.
</event>
<event>
 5   0  0.6630125E-07  0.2724258E+04  0.7818609E-02  0.8327177E-01
       -4   -1    0    0    0  501  0.00000000000E+00  0.00000000000E+00  0.89453489422E+03  0.89453579575E+03  0.12699999809E+01 0.  1.
        4   -1    0    0  501    0  0.00000000000E+00  0.00000000000E+00 -0.20741426397E+04  0.20741430285E+04  0.12699999809E+01 0. -1.
    10030    2    1    2    0    0  0.00000000000E+00  0.00000000000E+00 -0.11796077454E+04  0.29686788242E+04  0.27242576105E+04 0.  0.
        3    1    3    3  502    0  0.19743093181E+03 -0.35920391720E+03 -0.20053452780E+04  0.20468063223E+04  0.10100000352E+00 0. -1.
       -3    1    3    3    0  502 -0.19743093181E+03  0.35920391720E+03  0.82573753253E+03  0.92187250192E+03  0.10100000352E+00 0.  1.
</event>
<event>
 5   0  0.6890600E-07  0.3512796E+04  0.7818609E-02  0.8110764E-01
       -1   -1    0    0    0  501  0.00000000000E+00  0.00000000000E+00  0.11064018597E+04  0.11064018597E+04  0.50400001928E-02 0.  1.
        1   -1    0    0  501    0  0.00000000000E+00  0.00000000000E+00 -0.27882584400E+04  0.27882584400E+04  0.50400001928E-02 0. -1.
    10030    2    1    2    0    0  0.00000000000E+00  0.00000000000E+00 -0.16818565803E+04  0.38946602997E+04  0.35127962214E+04 0.  0.
        3    1    3    3  502    0 -0.36220508225E+03  0.59195738311E+03 -0.26298078102E+04  0.27198336702E+04  0.10100000352E+00 0. -1.
       -3    1    3    3    0  502  0.36220508225E+03 -0.59195738311E+03  0.94795122983E+03  0.11748266295E+04  0.10100000352E+00 0.  1.
</event>
<event>
 5   0  0.2023479E-06  0.2415261E+04  0.7818609E-02  0.8433812E-01
       -2   -1    0    0    0  501  0.00000000000E+00  0.00000000000E+00  0.17927368040E+04  0.17927368040E+04  0.25500000920E-02 0. -1.
        2   -1    0    0  501    0  0.00000000000E+00  0.00000000000E+00 -0.81348865620E+03  0.81348865621E+03  0.25500000920E-02 0.  1.
    10030    2    1    2    0    0  0.00000000000E+00  0.00000000000E+00  0.97924814780E+03  0.26062254602E+04  0.24152606929E+04 0.  0.
        5    1    3    3  502    0  0.25916466960E+03 -0.60950129085E+03 -0.60001388264E+03  0.89369843844E+03  0.46999998093E+01 0.  1.
       -5    1    3    3    0  502 -0.25916466960E+03  0.60950129085E+03  0.15792620304E+04  0.17125270218E+04  0.46999998093E+01 0. -1.
</event>
<event>
 5   0  0.2073287E-06  0.3176052E+04  0.7818609E-02  0.8195171E-01
        2   -1    0    0  501    0  0.00000000000E+00  0.00000000000E+00  0.18203059117E+04  0.18203059117E+04  0.25500000920E-02 0. -1.
       -2   -1    0    0    0  501  0.00000000000E+00  0.00000000000E+00 -0.13853862640E+04  0.13853862640E+04  0.25500000920E-02 0.  1.
    10030    2    1    2    0    0  0.00000000000E+00  0.00000000000E+00  0.43491964767E+03  0.32056921757E+04  0.31760521447E+04 0.  0.
        1    1    3    3  502    0 -0.81334216847E+03  0.11204107604E+04  0.10025238538E+04  0.17093565551E+04  0.50400001928E-02 0.  1.
       -1    1    3    3    0  502  0.81334216847E+03 -0.11204107604E+04 -0.56760420609E+03  0.14963356207E+04  0.50400001928E-02 0. -1.
</event>
<event>
 5   0  0.6630125E-07  0.2754483E+04  0.7818609E-02  0.8317540E-01
        1   -1    0    0  501    0  0.00000000000E+00  0.00000000000E+00  0.28623035246E+04  0.28623035246E+04  0.50400001928E-02 0. -1.
       -1   -1    0    0    0  501  0.00000000000E+00  0.00000000000E+00 -0.66268114224E+03  0.66268114226E+03  0.50400001928E-02 0.  1.
    10030    2    1    2    0    0  0.00000000000E+00  0.00000000000E+00  0.21996223823E+04  0.35249846668E+04  0.27544833048E+04 0.  0.
        4    1    3    3  502    0  0.26095384869E+03 -0.37008807159E+03 -0.56468468752E+03  0.72383181824E+03  0.12699999809E+01 0.  1.
       -4    1    3    3    0  502 -0.26095384869E+03  0.37008807159E+03  0.27643070699E+04  0.28011528486E+04  0.12699999809E+01 0. -1.
</event>
<event>
 5   0  0.6890600E-07  0.3498449E+04  0.7818609E-02  0.8114158E-01
       -1   -1    0    0    0  501  0.00000000000E+00  0.00000000000E+00  0.13137489808E+04  0.13137489808E+04  0.50400001928E-02 0. -1.
        1   -1    0    0  501    0  0.00000000000E+00  0.00000000000E+00 -0.23290491965E+04  0.23290491966E+04  0.50400001928E-02 0.  1.
    10030    2    1    2    0    0  0.00000000000E+00  0.00000000000E+00 -0.10153002158E+04  0.36427981773E+04  0.34984488038E+04 0.  0.
        3    1    3    3  502    0  0.10153651426E+03  0.96093745218E+03  0.10106196239E+04  0.13982354899E+04  0.10100000352E+00 0. -1.
       -3    1    3    3    0  502 -0.10153651426E+03 -0.96093745218E+03 -0.20259198397E+04  0.22445626874E+04  0.10100000352E+00 0.  1.
</event>
<event>
 5   0  0.2023479E-06  0.3568483E+04  0.7818609E-02  0.8097749E-01
        2   -1    0    0  501    0  0.00000000000E+00  0.00000000000E+00  0.17501229812E+04  0.17501229812E+04  0.25500000920E-02 0. -1.
       -2   -1    0    0    0  501  0.00000000000E+00  0.00000000000E+00 -0.18190255882E+04  0.18190255882E+04  0.25500000920E-02 0.  1.
    10030    2    1    2    0    0  0.00000000000E+00  0.00000000000E+00 -0.68902607039E+02  0.35691485694E+04  0.35684834231E+04 0.  0.
        5    1    3    3  502    0 -0.11351502854E+04 -0.25756525406E+03 -0.13869571657E+04  0.18106844838E+04  0.46999998093E+01 0.  1.
       -5    1    3    3    0  502  0.11351502854E+04  0.25756525406E+03  0.13180545587E+04  0.17584640855E+04  0.46999998093E+01 0. -1.
</event>
<event>
 5   0  0.2023479E-06  0.3530856E+04  0.7818609E-02  0.8106516E-01
       -2   -1    0    0    0  501  0.00000000000E+00  0.00000000000E+00  0.15032967935E+04  0.15032967935E+04  0.25500000920E-02 0.  1.
        2   -1    0    0  501    0  0.00000000000E+00  0.00000000000E+00 -0.20732678172E+04  0.20732678172E+04  0.25500000920E-02 0. -1.
    10030    2    1    2    0    0  0.00000000000E+00  0.00000000000E+00 -0.56997102374E+03  0.35765646107E+04  0.35308564749E+04 0.  0.
        5    1    3    3  502    0 -0.14609531940E+04 -0.21111996513E+01 -0.12889395888E+04  0.19482751463E+04  0.46999998093E+01 0. -1.
       -5    1    3    3    0  502  0.14609531940E+04  0.21111996513E+01  0.71896856504E+03  0.16282894644E+04  0.46999998093E+01 0.  1.
</event>
<event>
 5   0  0.2001768E-06  0.3456035E+04  0.7818609E-02  0.8124289E-01
       -2   -1    0    0    0  501  0.00000000000E+00  0.00000000000E+00  0.15602617531E+04  0.15602617531E+04  0.25500000920E-02 0. -1.
        2   -1    0    0  501    0  0.00000000000E+00  0.00000000000E+00 -0.19138104111E+04  0.19138104111E+04  0.25500000920E-02 0.  1.
    10030    2    1    2    0    0  0.00000000000E+00  0.00000000000E+00 -0.35354865803E+03  0.34740721641E+04  0.34560354090E+04 0.  0.
        2    1    3    3  502    0 -0.10008482236E+04  0.13786256475E+04  0.11411341975E+03  0.17074330778E+04  0.25500000920E-02 0. -1.
       -2    1    3    3    0  502  0.10008482236E+04 -0.13786256475E+04 -0.46766207777E+03  0.17666390864E+04  0.25500000920E-02 0.  1.
</event>
<event>
 5   0  0.1999883E-06  0.3628167E+04  0.7818609E-02  0.8084070E-01
        2   -1    0    0  501    0  0.00000000000E+00  0.00000000000E+00  0.13852528297E+04  0.13852528298E+04  0.25500000920E-02 0.  1.
       -2   -1    0    0    0  501  0.00000000000E+00  0.00000000000E+00 -0.23756663429E+04  0.23756663429E+04  0.25500000920E-02 0. -1.
    10030    2    1    2    0    0  0.00000000000E+00  0.00000000000E+00 -0.99041351314E+03  0.37609191726E+04  0.36281667680E+04 0.  0.
        4    1    3    3  502    0 -0.98153303339E+03 -0.44927573541E+03 -0.20065104063E+04  0.22784515368E+04  0.12699999809E+01 0. -1.
       -4    1    3    3    0  502  0.98153303339E+03  0.44927573541E+03  0.10160968932E+04  0.14824676358E+04  0.12699999809E+01 0.  1.
</event>
<event>
 5   0  0.6630125E-07  0.3507395E+04  0.7818609E-02  0.8112040E-01
        1   -1    0    0  501    0  0.00000000000E+00  0.00000000000E+00  0.18599773744E+04  0.18599773744E+04  0.50400001928E-02 0. -1.
       -1   -1    0    0    0  501  0.00000000000E+00  0.00000000000E+00 -0.16534908118E+04  0.16534908118E+04  0.50400001928E-02 0.  1.
    10030    2    1    2    0    0  0.00000000000E+00  0.00000000000E+00  0.20648656260E+03  0.35134681862E+04  0.35073953291E+04 0.  0.
        1    1    3    3  502    0 -0.36325266557E+03  0.39141799703E+03  0.17765531129E+04  0.18550745297E+04  0.50400001928E-02 0. -1.
       -1    1    3    3    0  502  0.36325266557E+03 -0.39141799703E+03 -0.15700665503E+04  0.16583936565E+04  0.50400001928E-02 0.  1.
</event>
<event>
 5   0  0.6630125E-07  0.3448117E+04  0.7818609E-02  0.8126197E-01
       -1   -1    0    0    0  501  0.00000000000E+00  0.00000000000E+00  0.11577561349E+04  0.11577561349E+04  0.50400001928E-02 0.  1.
        1   -1    0    0  501    0  0.00000000000E+00  0.00000000000E+00 -0.25673604641E+04  0.25673604641E+04  0.50400001928E-02 0. -1.
    10030    2    1    2    0    0  0.00000000000E+00  0.00000000000E+00 -0.14096043292E+04  0.37251165990E+04  0.34481167775E+04 0.  0.
        1    1    3    3  502    0 -0.33717079921E+03 -0.54515372289E+03 -0.24338425458E+04  0.25168365595E+04  0.50400001928E-02 0. -1.
       -1    1    3    3    0  502  0.33717079921E+03  0.54515372289E+03  0.10242382166E+04  0.12082800395E+04  0.50400001928E-02 0.  1.
</event>
<event>
 5   0  0.6890600E-07  0.3555143E+04  0.7818609E-02  0.8100845E-01
       -1   -1    0    0    0  501  0.00000000000E+00  0.00000000000E+00  0.17552091450E+04  0.17552091450E+04  0.50400001928E-02 0. -1.
        1   -1    0    0  501    0  0.00000000000E+00  0.00000000000E+00 -0.18002186278E+04  0.18002186278E+04  0.50400001928E-02 0.  1.
    10030    2    1    2    0    0  0.00000000000E+00  0.00000000000E+00 -0.45009482739E+02  0.35554277728E+04  0.35551428655E+04 0.  0.
        3    1    3    3  502    0 -0.75682469363E+03 -0.10588362085E+02 -0.16310068690E+04  0.17980765132E+04  0.10100000352E+00 0.  1.
       -3    1    3    3    0  502  0.75682469363E+03  0.10588362085E+02  0.15859973863E+04  0.17573512596E+04  0.10100000352E+00 0. -1.
</event>
<event>
 5   0  0.2073287E-06  0.3518072E+04  0.7818609E-02  0.8109520E-01
       -2   -1    0    0    0  501  0.00000000000E+00  0.00000000000E+00  0.12712512742E+04  0.12712512742E+04  0.25500000920E-02 0.  1.
        2   -1    0    0  501    0  0.00000000000E+00  0.00000000000E+00 -0.24339860474E+04  0.24339860474E+04  0.25500000920E-02 0. -1.
    10030    2    1    2    0    0  0.00000000000E+00  0.00000000000E+00 -0.11627347732E+04  0.37052373216E+04  0.35180721221E+04 0.  0.
        1    1    3    3  502    0  0.12121659014E+04 -0.10975480158E+04  0.10138806353E+03  0.16383642327E+04  0.50400001928E-02 0.  1.
       -1    1    3    3    0  502 -0.12121659014E+04  0.10975480158E+04 -0.12641228367E+04  0.20668730889E+04  0.50400001928E-02 0. -1.
</event>
<event>
 5   0  0.6630125E-07  0.3420130E+04  0.7818609E-02  0.8132983E-01
        3   -1    0    0  501    0  0.00000000000E+00  0.00000000000E+00  0.18811244660E+04  0.18811244687E+04  0.10100000352E+00 0.  1.
       -3   -1    0    0    0  501  0.00000000000E+00  0.00000000000E+00 -0.15545609617E+04  0.15545609650E+04  0.10100000352E+00 0. -1.
    10030    2    1    2    0    0  0.00000000000E+00  0.00000000000E+00  0.32656350427E+03  0.34356854336E+04  0.34201302134E+04 0.  0.
        5    1    3    3  502    0  0.11757743734E+04 -0.96406029002E+03 -0.62286491149E+03  0.16431191095E+04  0.46999998093E+01 0. -1.
       -5    1    3    3    0  502 -0.11757743734E+04  0.96406029002E+03  0.94942841576E+03  0.17925663242E+04  0.46999998093E+01 0.  1.
</event>
<event>
 5   0  0.1999883E-06  0.3557773E+04  0.7818609E-02  0.8100233E-01
        2   -1    0    0  501    0  0.00000000000E+00  0.00000000000E+00  0.17170027004E+04  0.17170027004E+04  0.25500000920E-02 0. -1.
       -2   -1    0    0    0  501  0.00000000000E+00  0.00000000000E+00 -0.18430011948E+04  0.18430011948E+04  0.25500000920E-02 0.  1.
    10030    2    1    2    0    0  0.00000000000E+00  0.00000000000E+00 -0.12599849438E+03  0.35600038952E+04  0.35577734770E+04 0.  0.
        4    1    3    3  502    0 -0.17164404381E+04  0.43195006368E+03  0.11512296902E+03  0.17736977042E+04  0.12699999809E+01 0. -1.
       -4    1    3    3    0  502  0.17164404381E+04 -0.43195006368E+03 -0.24112146340E+03  0.17863061910E+04  0.12699999809E+01 0.  1.
</event>
<event>
 5   0  0.6630125E-07  0.3464357E+04  0.7818609E-02  0.8122289E-01
        1   -1    0    0  501    0  0.00000000000E+00  0.00000000000E+00  0.23140697660E+04  0.23140697660E+04  0.50400001928E-02 0. -1.
       -1   -1    0    0    0  501  0.00000000000E+00  0.00000000000E+00 -0.12966087962E+04  0.12966087962E+04  0.50400001928E-02 0.  1.
    10030    2    1    2    0    0  0.00000000000E+00  0.00000000000E+00  0.10174609698E+04  0.36106785623E+04  0.34643574953E+04 0.  0.
        4    1    3    3  502    0  0.12446521710E+04  0.63440496948E+03  0.15761008431E+04  0.21061158973E+04  0.12699999809E+01 0. -1.
       -4    1    3    3    0  502 -0.12446521710E+04 -0.63440496948E+03 -0.55863987333E+03  0.15045626650E+04  0.12699999809E+01 0.  1.
</event>
<event>
 5   0  0.6630125E-07  0.3515121E+04  0.7818609E-02  0.8110216E-01
       -1   -1    0    0    0  501  0.00000000000E+00  0.00000000000E+00  0.12704971572E+04  0.12704971572E+04  0.50400001928E-02 0. -1.
        1   -1    0    0  501    0  0.00000000000E+00  0.00000000000E+00 -0.24313459250E+04  0.24313459250E+04  0.50400001928E-02 0.  1.
    10030    2    1    2    0    0  0.00000000000E+00  0.00000000000E+00 -0.11608487678E+04  0.37018430822E+04  0.35151205304E+04 0.  0.
        5    1    3    3  502    0  0.53014726963E+03  0.20797498212E+03  0.11706343465E+04  0.13018128068E+04  0.46999998093E+01 0. -1.
       -5    1    3    3    0  502 -0.53014726963E+03 -0.20797498212E+03 -0.23314831143E+04  0.24000302755E+04  0.46999998093E+01 0.  1.
</event>
<event>
 5   0  0.2073287E-06  0.3728604E+04  0.7818609E-02  0.8061652E-01
        2   -1    0    0  501    0  0.00000000000E+00  0.00000000000E+00  0.15891900612E+04  0.15891900612E+04  0.25500000920E-02 0.  1.
       -2   -1    0    0    0  501  0.00000000000E+00  0.00000000000E+00 -0.21870403914E+04  0.21870403914E+04  0.25500000920E-02 0. -1.
    10030    2    1    2    0    0  0.00000000000E+00  0.00000000000E+00 -0.59785033015E+03  0.37762304526E+04  0.37286044861E+04 0.  0.
        1    1    3    3  502    0  0.17175364383E+04 -0.70063797234E+03 -0.11000057319E+03  0.18582048087E+04  0.50400001928E-02 0.  1.
       -1    1    3    3    0  502 -0.17175364383E+04  0.70063797234E+03 -0.48784975696E+03  0.19180256438E+04  0.50400001928E-02 0. -1.
</event>
<event>
 5   0  0.6890600E-07  0.2919661E+04  0.7818609E-02  0.8267052E-01
        1   -1    0    0  501    0  0.00000000000E+00  0.00000000000E+00  0.17292653235E+04  0.17292653235E+04  0.50400001928E-02 0.  1.
       -1   -1    0    0    0  501  0.00000000000E+00  0.00000000000E+00 -0.12323755955E+04  0.12323755956E+04  0.50400001928E-02 0. -1.
    10030    2    1    2    0    0  0.00000000000E+00  0.00000000000E+00  0.49688972791E+03  0.29616409190E+04  0.29196605165E+04 0.  0.
        3    1    3    3  502    0 -0.12980113270E+04  0.20694167201E+03  0.89275180843E+03  0.15889191491E+04  0.10100000352E+00 0.  1.
       -3    1    3    3    0  502  0.12980113270E+04 -0.20694167201E+03 -0.39586208052E+03  0.13727217699E+04  0.10100000352E+00 0. -1.
</event>
<event>
 5   0  0.2001768E-06  0.3466672E+04  0.7818609E-02  0.8121734E-01
        2   -1    0    0  501    0  0.00000000000E+00  0.00000000000E+00  0.18854026014E+04  0.18854026014E+04  0.25500000920E-02 0. -1.
       -2   -1    0    0    0  501  0.00000000000E+00  0.00000000000E+00 -0.15935343505E+04  0.15935343505E+04  0.25500000920E-02 0.  1.
    10030    2    1    2    0    0  0.00000000000E+00  0.00000000000E+00  0.29186825091E+03  0.34789369520E+04  0.34666720698E+04 0.  0.
        2    1    3    3  502    0 -0.93608166581E+03  0.13541105458E+04 -0.39874717865E+03  0.16937719941E+04  0.25500000920E-02 0.  1.
       -2    1    3    3    0  502  0.93608166581E+03 -0.13541105458E+04  0.69061542955E+03  0.17851649579E+04  0.25500000920E-02 0. -1.
</event>
<event>
 5   0  0.2001768E-06  0.3475627E+04  0.7818609E-02  0.8119590E-01
       -2   -1    0    0    0  501  0.00000000000E+00  0.00000000000E+00  0.27229863400E+04  0.27229863400E+04  0.25500000920E-02 0. -1.
        2   -1    0    0  501    0  0.00000000000E+00  0.00000000000E+00 -0.11090751088E+04  0.11090751088E+04  0.25500000920E-02 0.  1.
    10030    2    1    2    0    0  0.00000000000E+00  0.00000000000E+00  0.16139112312E+04  0.38320614489E+04  0.34756273514E+04 0.  0.
        2    1    3    3  502    0 -0.14080520250E+04 -0.28455549306E+03 -0.27130124294E+03  0.14619120008E+04  0.25500000920E-02 0.  1.
       -2    1    3    3    0  502  0.14080520250E+04  0.28455549306E+03  0.18852124741E+04  0.23701494481E+04  0.25500000920E-02 0. -1.
</event>
<event>
 5   0  0.1999883E-06  0.3519059E+04  0.7818609E-02  0.8109288E-01
       -2   -1    0    0    0  501  0.00000000000E+00  0.00000000000E+00  0.91697224687E+03  0.91697224688E+03  0.25500000920E-02 0.  1.
        2   -1    0    0  501    0  0.00000000000E+00  0.00000000000E+00 -0.33762671769E+04  0.33762671769E+04  0.25500000920E-02 0. -1.
    10030    2    1    2    0    0  0.00000000000E+00  0.00000000000E+00 -0.24592949300E+04  0.42932394237E+04  0.35190585668E+04 0.  0.
        4    1    3    3  502    0  0.16753917989E+04  0.18003240817E+03 -0.18476360545E+04  0.25006219128E+04  0.12699999809E+01 0. -1.
       -4    1    3    3    0  502 -0.16753917989E+04 -0.18003240817E+03 -0.61165887547E+03  0.17926175110E+04  0.12699999809E+01 0.  1.
</event>
<event>
 5   0  0.2020725E-06  0.3521035E+04  0.7818609E-02  0.8108823E-01
       -2   -1    0    0    0  501  0.00000000000E+00  0.00000000000E+00  0.13177152873E+04  0.13177152873E+04  0.25500000920E-02 0. -1.
        2   -1    0    0  501    0  0.00000000000E+00  0.00000000000E+00 -0.23521184253E+04  0.23521184253E+04  0.25500000920E-02 0.  1.
    10030    2    1    2    0    0  0.00000000000E+00  0.00000000000E+00 -0.10344031380E+04  0.36698337126E+04  0.35210353060E+04 0.  0.
        3    1    3    3  502    0 -0.15663846462E+04 -0.80323927847E+03 -0.49025964315E+03  0.18273228303E+04  0.10100000352E+00 0. -1.
       -3    1    3    3    0  502  0.15663846462E+04  0.80323927847E+03 -0.54414349481E+03  0.18425108823E+04  0.10100000352E+00 0.  1.
</event>
<event>
 5   0  0.2073287E-06  0.3467748E+04  0.7818609E-02  0.8121476E-01
       -2   -1    0    0    0  501  0.00000000000E+00  0.00000000000E+00  0.16382562092E+04  0.16382562092E+04  0.25500000920E-02 0. -1.
        2   -1    0    0  501    0  0.00000000000E+00  0.00000000000E+00 -0.18350724525E+04  0.18350724525E+04  0.25500000920E-02 0.  1.
    10030    2    1    2    0    0  0.00000000000E+00  0.00000000000E+00 -0.19681624333E+03  0.34733286617E+04  0.34677478799E+04 0.  0.
        1    1    3    3  502    0 -0.21891142607E+03 -0.14748484521E+03  0.16180139032E+04  0.16394032399E+04  0.50400001928E-02 0. -1.
       -1    1    3    3    0  502  0.21891142607E+03  0.14748484521E+03 -0.18148301465E+04  0.18339254218E+04  0.50400001928E-02 0.  1.
</event>
<event>
 5   0  0.2023479E-06  0.3500560E+04  0.7818609E-02  0.8113657E-01
        2   -1    0    0  501    0  0.00000000000E+00  0.00000000000E+00  0.17738790568E+04  0.17738790568E+04  0.25500000920E-02 0. -1.
       -2   -1    0    0    0  501  0.00000000000E+00  0.00000000000E+00 -0.17269948067E+04  0.17269948067E+04  0.25500000920E-02 0.  1.
    10030    2    1    2    0    0  0.00000000000E+00  0.00000000000E+00  0.46884250099E+02  0.35008738634E+04  0.35005599087E+04 0.  0.
        5    1    3    3  502    0  0.52610395853E+03  0.12277200798E+04 -0.11077543018E+04  0.17352877723E+04  0.46999998093E+01 0.  1.
       -5    1    3    3    0  502 -0.52610395853E+03 -0.12277200798E+04  0.11546385519E+04  0.17655860911E+04  0.46999998093E+01 0. -1.
</event>
<event>
 5   0  0.6630125E-07  0.3117499E+04  0.7818609E-02  0.8210952E-01
       -1   -1    0    0    0  501  0.00000000000E+00  0.00000000000E+00  0.17247587472E+04  0.17247587472E+04  0.50400001928E-02 0.  1.
        1   -1    0    0  501    0  0.00000000000E+00  0.00000000000E+00 -0.14087186548E+04  0.14087186548E+04  0.50400001928E-02 0. -1.
    10030    2    1    2    0    0  0.00000000000E+00  0.00000000000E+00  0.31604009244E+03  0.31334774020E+04  0.31174988835E+04 0.  0.
        4    1    3    3  502    0 -0.11470147672E+04 -0.80416011937E+03 -0.52913727076E+03  0.14974325487E+04  0.12699999809E+01 0.  1.
       -4    1    3    3    0  502  0.11470147672E+04  0.80416011937E+03  0.84517736320E+03  0.16360448533E+04  0.12699999809E+01 0. -1.
</event>
<event>
 5   0  0.6630125E-07  0.3247598E+04  0.7818609E-02  0.8176359E-01
        1   -1    0    0  501    0  0.00000000000E+00  0.00000000000E+00  0.15827100182E+04  0.15827100182E+04  0.50400001928E-02 0.  1.
       -1   -1    0    0    0  501  0.00000000000E+00  0.00000000000E+00 -0.16659542933E+04  0.16659542933E+04  0.50400001928E-02 0. -1.
    10030    2    1    2    0    0  0.00000000000E+00  0.00000000000E+00 -0.83244275079E+02  0.32486643116E+04  0.32475976044E+04 0.  0.
        5    1    3    3  502    0 -0.16089509796E+04  0.19456941014E+03  0.59008865562E+02  0.16217535714E+04  0.46999998093E+01 0.  1.
       -5    1    3    3    0  502  0.16089509796E+04 -0.19456941014E+03 -0.14225314064E+03  0.16269107401E+04  0.46999998093E+01 0. -1.
</event>
<event>
 5   0  0.1999883E-06  0.3301526E+04  0.7818609E-02  0.8162507E-01
       -2   -1    0    0    0  501  0.00000000000E+00  0.00000000000E+00  0.12530393883E+04  0.12530393883E+04  0.25500000920E-02 0.  1.
        2   -1    0    0  501    0  0.00000000000E+00  0.00000000000E+00 -0.21747265960E+04  0.21747265960E+04  0.25500000920E-02 0. -1.
    10030    2    1    2    0    0  0.00000000000E+00  0.00000000000E+00 -0.92168720773E+03  0.34277659844E+04  0.33015257586E+04 0.  0.
        4    1    3    3  502    0  0.29520875943E+03  0.11837126811E+04  0.69374521276E+03  0.14034272180E+04  0.12699999809E+01 0.  1.
       -4    1    3    3    0  502 -0.29520875943E+03 -0.11837126811E+04 -0.16154324205E+04  0.20243387664E+04  0.12699999809E+01 0. -1.
</event>
<event>
 5   0  0.2001768E-06  0.3190399E+04  0.7818609E-02  0.8191357E-01
        2   -1    0    0  501    0  0.00000000000E+00  0.00000000000E+00  0.28585733438E+04  0.28585733438E+04  0.25500000920E-02 0.  1.
       -2   -1    0    0    0  501  0.00000000000E+00  0.00000000000E+00 -0.89018602300E+03  0.89018602301E+03  0.25500000920E-02 0. -1.
    10030    2    1    2    0    0  0.00000000000E+00  0.00000000000E+00  0.19683873208E+04  0.37487593668E+04  0.31903993709E+04 0.  0.
        2    1    3    3  502    0  0.25151343822E+02 -0.49311648007E+02 -0.88905713868E+03  0.89077877420E+03  0.25500000920E-02 0. -1.
       -2    1    3    3    0  502 -0.25151343822E+02  0.49311648007E+02  0.28574444595E+04  0.28579805926E+04  0.25500000920E-02 0.  1.
</event>
<event>
 5   0  0.6630125E-07  0.3487638E+04  0.7818609E-02  0.8116726E-01
        1   -1    0    0  501    0  0.00000000000E+00  0.00000000000E+00  0.25515990687E+04  0.25515990687E+04  0.50400001928E-02 0.  1.
       -1   -1    0    0    0  501  0.00000000000E+00  0.00000000000E+00 -0.11917639757E+04  0.11917639757E+04  0.50400001928E-02 0. -1.
    10030    2    1    2    0    0  0.00000000000E+00  0.00000000000E+00  0.13598350929E+04  0.37433630444E+04  0.34876375102E+04 0.  0.
        5    1    3    3  502    0 -0.14713079709E+04 -0.59486998345E+03  0.14555853877E+04  0.21534549806E+04  0.46999998093E+01 0. -1.
       -5    1    3    3    0  502  0.14713079709E+04  0.59486998345E+03 -0.95750294832E+02  0.15899080638E+04  0.46999998093E+01 0.  1.
</event>
<event>
 5   0  0.7378896E-07  0.3299143E+04  0.7818609E-02  0.8163114E-01
       -1   -1    0    0    0  501  0.00000000000E+00  0.00000000000E+00  0.26227804999E+04  0.26227805000E+04  0.50400001928E-02 0. -1.
        1   -1    0    0  501    0  0.00000000000E+00  0.00000000000E+00 -0.10374812134E+04  0.10374812134E+04  0.50400001928E-02 0.  1.
    10030    2    1    2    0    0  0.00000000000E+00  0.00000000000E+00  0.15852992865E+04  0.36602617134E+04  0.32991426133E+04 0.  0.
        2    1    3    3  502    0 -0.90688597217E+03 -0.55628508843E+03 -0.60596796923E+03  0.12243743079E+04  0.25500000920E-02 0.  1.
       -2    1    3    3    0  502  0.90688597217E+03  0.55628508843E+03  0.21912672557E+04  0.24358874055E+04  0.25500000920E-02 0. -1.
</event>
<event>
 5   0  0.2023479E-06  0.3396898E+04  0.7818609E-02  0.8138668E-01
       -2   -1    0    0    0  501  0.00000000000E+00  0.00000000000E+00  0.26393957692E+04  0.26393957692E+04  0.25500000920E-02 0.  1.
        2   -1    0    0  501    0  0.00000000000E+00  0.00000000000E+00 -0.10929505774E+04  0.10929505774E+04  0.25500000920E-02 0. -1.
    10030    2    1    2    0    0  0.00000000000E+00  0.00000000000E+00  0.15464451918E+04  0.37323463465E+04  0.33968980731E+04 0.  0.
        5    1    3    3  502    0 -0.39156261649E+03 -0.67907408909E+03  0.24287474441E+04  0.25521165996E+04  0.46999998093E+01 0.  1.
       -5    1    3    3    0  502  0.39156261649E+03  0.67907408909E+03 -0.88230225226E+03  0.11802297469E+04  0.46999998093E+01 0. -1.
</event>
<event>
 5   0  0.7378896E-07  0.2364865E+04  0.7818609E-02  0.8452776E-01
        1   -1    0    0  501    0  0.00000000000E+00  0.00000000000E+00  0.23375465015E+04  0.23375465016E+04  0.50400001928E-02 0.  1.
       -1   -1    0    0    0  501  0.00000000000E+00  0.00000000000E+00 -0.59812589861E+03  0.59812589863E+03  0.50400001928E-02 0. -1.
    10030    2    1    2    0    0  0.00000000000E+00  0.00000000000E+00  0.17394206029E+04  0.29356724002E+04  0.23648654100E+04 0.  0.
        2    1    3    3  502    0  0.41818274754E+03  0.10565544019E+03 -0.49698493190E+03  0.65805311710E+03  0.25500000920E-02 0. -1.
       -2    1    3    3    0  502 -0.41818274754E+03 -0.10565544019E+03  0.22364055348E+04  0.22776192831E+04  0.25500000920E-02 0.  1.
</event>
<event>
 5   0  0.6890600E-07  0.3512238E+04  0.7818609E-02  0.8110896E-01
       -1   -1    0    0    0  501  0.00000000000E+00  0.00000000000E+00  0.16234519218E+04  0.16234519218E+04  0.50400001928E-02 0. -1.
        1   -1    0    0  501    0  0.00000000000E+00  0.00000000000E+00 -0.18996273425E+04  0.18996273425E+04  0.50400001928E-02 0.  1.
    10030    2    1    2    0    0  0.00000000000E+00  0.00000000000E+00 -0.27617542067E+03  0.35230792643E+04  0.35122378392E+04 0.  0.
        3    1    3    3  502    0 -0.36179899021E+03 -0.14684812892E+04  0.75720183250E+03  0.16913575705E+04  0.10100000352E+00 0. -1.
       -3    1    3    3    0  502  0.36179899021E+03  0.14684812892E+04 -0.10333772532E+04  0.18317216938E+04  0.10100000352E+00 0.  1.
</event>
<event>
 5   0  0.6630125E-07  0.3527665E+04  0.7818609E-02  0.8107265E-01
       -1   -1    0    0    0  501  0.00000000000E+00  0.00000000000E+00  0.17287615976E+04  0.17287615976E+04  0.50400001928E-02 0.  1.
        1   -1    0    0  501    0  0.00000000000E+00  0.00000000000E+00 -0.17996147400E+04  0.17996147400E+04  0.50400001928E-02 0. -1.
    10030    2    1    2    0    0  0.00000000000E+00  0.00000000000E+00 -0.70853142392E+02  0.35283763376E+04  0.35276648667E+04 0.  0.
        1    1    3    3  502    0  0.72119821024E+03 -0.15907779993E+04 -0.28124707226E+03  0.17691244775E+04  0.50400001928E-02 0.  1.
       -1    1    3    3    0  502 -0.72119821024E+03  0.15907779993E+04  0.21039392986E+03  0.17592518601E+04  0.50400001928E-02 0. -1.
</event>
<event>
 5   0  0.2073287E-06  0.3527589E+04  0.7818609E-02  0.8107283E-01
       -2   -1    0    0    0  501  0.00000000000E+00  0.00000000000E+00  0.13723367580E+04  0.13723367580E+04  0.25500000920E-02 0. -1.
        2   -1    0    0  501    0  0.00000000000E+00  0.00000000000E+00 -0.22669149876E+04  0.22669149876E+04  0.25500000920E-02 0.  1.
    10030    2    1    2    0    0  0.00000000000E+00  0.00000000000E+00 -0.89457822955E+03  0.36392517456E+04  0.35275888450E+04 0.  0.
        1    1    3    3  502    0  0.15972762403E+04 -0.74785725070E+03 -0.46763414817E+03  0.18246269624E+04  0.50400001928E-02 0. -1.
       -1    1    3    3    0  502 -0.15972762403E+04  0.74785725070E+03 -0.42694408138E+03  0.18146247832E+04  0.50400001928E-02 0.  1.
</event>
<event>
 5   0  0.2020725E-06  0.3481337E+04  0.7818609E-02  0.8118227E-01
        2   -1    0    0  501    0  0.00000000000E+00  0.00000000000E+00  0.19346439697E+04  0.19346439697E+04  0.25500000920E-02 0. -1.
       -2   -1    0    0    0  501  0.00000000000E+00  0.00000000000E+00 -0.15661417110E+04  0.15661417110E+04  0.25500000920E-02 0.  1.
    10030    2    1    2    0    0  0.00000000000E+00  0.00000000000E+00  0.36850225864E+03  0.35007856807E+04  0.34813368794E+04 0.  0.
        3    1    3    3  502    0  0.90427929521E+03 -0.41750175721E+03  0.16197758583E+04  0.19015000926E+04  0.10100000352E+00 0. -1.
       -3    1    3    3    0  502 -0.90427929521E+03  0.41750175721E+03 -0.12512735996E+04  0.15992855881E+04  0.10100000352E+00 0.  1.
</event>
<event>
 5   0  0.2023479E-06  0.2327854E+04  0.7818609E-02  0.8467019E-01
        2   -1    0    0  501    0  0.00000000000E+00  0.00000000000E+00  0.81550728980E+03  0.81550728980E+03  0.25500000920E-02 0. -1.
       -2   -1    0    0    0  501  0.00000000000E+00  0.00000000000E+00 -0.16612071155E+04  0.16612071155E+04  0.25500000920E-02 0.  1.
    10030    2    1    2    0    0  0.00000000000E+00  0.00000000000E+00 -0.84569982573E+03  0.24767144053E+04  0.23278543877E+04 0.  0.
        5    1    3    3  502    0  0.41229664782E+03  0.65491821728E+03 -0.13478100062E+04  0.15541944215E+04  0.46999998093E+01 0.  1.
       -5    1    3    3    0  502 -0.41229664782E+03 -0.65491821728E+03  0.50211018048E+03  0.92251998378E+03  0.46999998093E+01 0. -1.
</event>
<event>
 5   0  0.1999883E-06  0.3438412E+04  0.7818609E-02  0.8128543E-01
        2   -1    0    0  501    0  0.00000000000E+00  0.00000000000E+00  0.28281254063E+04  0.28281254063E+04  0.25500000920E-02 0. -1.
       -2   -1    0    0    0  501  0.00000000000E+00  0.00000000000E+00 -0.10450983135E+04  0.10450983135E+04  0.25500000920E-02 0.  1.
    10030    2    1    2    0    0  0.00000000000E+00  0.00000000000E+00  0.17830270928E+04  0.38732237198E+04  0.34384118965E+04 0.  0.
        4    1    3    3  502    0 -0.35579129841E+03 -0.13746384750E+04 -0.20030711410E+03  0.14339954455E+04  0.12699999809E+01 0.  1.
       -4    1    3    3    0  502  0.35579129841E+03  0.13746384750E+04  0.19833342069E+04  0.24392282743E+04  0.12699999809E+01 0. -1.
</event>
<event>
 5   0  0.2073287E-06  0.3468585E+04  0.7818609E-02  0.8121276E-01
       -2   -1    0    0    0  501  0.00000000000E+00  0.00000000000E+00  0.17114088116E+04  0.17114088116E+04  0.25500000920E-02 0. -1.
        2   -1    0    0  501    0  0.00000000000E+00  0.00000000000E+00 -0.17574821213E+04  0.17574821213E+04  0.25500000920E-02 0.  1.
    10030    2    1    2    0    0  0.00000000000E+00  0.00000000000E+00 -0.46073309645E+02  0.34688909329E+04  0.34685849499E+04 0.  0.
        1    1    3    3  502    0 -0.91923295055E+03  0.23943896924E+03 -0.14741815940E+04  0.17537193645E+04  0.50400001928E-02 0.  1.
       -1    1    3    3    0  502  0.91923295055E+03 -0.23943896924E+03  0.14281082843E+04  0.17151715684E+04  0.50400001928E-02 0. -1.
</event>
<event>
 5   0  0.7378896E-07  0.3497190E+04  0.7818609E-02  0.8114456E-01
        1   -1    0    0  501    0  0.00000000000E+00  0.00000000000E+00  0.15448285649E+04  0.15448285649E+04  0.50400001928E-02 0.  1.
       -1   -1    0    0    0  501  0.00000000000E+00  0.00000000000E+00 -0.19792385048E+04  0.19792385048E+04  0.50400001928E-02 0. -1.
    10030    2    1    2    0    0  0.00000000000E+00  0.00000000000E+00 -0.43440993993E+03  0.35240670697E+04  0.34971898313E+04 0.  0.
        2    1    3    3  502    0 -0.35085463345E+03  0.14434796503E+04  0.71230038237E+03  0.16474538869E+04  0.25500000920E-02 0.  1.
       -2    1    3    3    0  502  0.35085463345E+03 -0.14434796503E+04 -0.11467103223E+04  0.18766131828E+04  0.25500000920E-02 0. -1.
</event>
<event>
 5   0  0.6890600E-07  0.2661515E+04  0.7818609E-02  0.8347601E-01
        1   -1    0    0  501    0  0.00000000000E+00  0.00000000000E+00  0.61235436091E+03  0.61235436093E+03  0.50400001928E-02 0.  1.
       -1   -1    0    0    0  501  0.00000000000E+00  0.00000000000E+00 -0.28919785833E+04  0.28919785833E+04  0.50400001928E-02 0. -1.
    10030    2    1    2    0    0  0.00000000000E+00  0.00000000000E+00 -0.22796242224E+04  0.35043329442E+04  0.26615151303E+04 0.  0.
        3    1    3    3  502    0  0.51230620313E+03  0.89795286399E+03 -0.36526698724E+02  0.10344617932E+04  0.10100000352E+00 0.  1.
       -3    1    3    3    0  502 -0.51230620313E+03 -0.89795286399E+03 -0.22430975237E+04  0.24698711510E+04  0.10100000352E+00 0. -1.
</event>
<event>
 5   0  0.2020725E-06  0.2380912E+04  0.7818609E-02  0.8446685E-01
       -2   -1    0    0    0  501  0.00000000000E+00  0.00000000000E+00  0.11862932826E+04  0.11862932826E+04  0.25500000920E-02 0. -1.
        2   -1    0    0  501    0  0.00000000000E+00  0.00000000000E+00 -0.11946333364E+04  0.11946333364E+04  0.25500000920E-02 0.  1.
    10030    2    1    2    0    0  0.00000000000E+00  0.00000000000E+00 -0.83400538083E+01  0.23809266189E+04  0.23809120119E+04 0.  0.
        3    1    3    3  502    0  0.44045790339E+03  0.98366397319E+03 -0.50972976734E+03  0.11922342147E+04  0.10100000352E+00 0.  1.
       -3    1    3    3    0  502 -0.44045790339E+03 -0.98366397319E+03  0.50138971353E+03  0.11886924042E+04  0.10100000352E+00 0. -1.
</event>
<event>
 5   0  0.2020725E-06  0.3501142E+04  0.7818609E-02  0.8113519E-01
       -2   -1    0    0    0  501  0.00000000000E+00  0.00000000000E+00  0.22103163482E+04  0.22103163482E+04  0.25500000920E-02 0.  1.
        2   -1    0    0  501    0  0.00000000000E+00  0.00000000000E+00 -0.13864529426E+04  0.13864529426E+04  0.25500000920E-02 0. -1.
    10030    2    1    2    0    0  0.00000000000E+00  0.00000000000E+00  0.82386340558E+03  0.35967692908E+04  0.35011424450E+04 0.  0.
        3    1    3    3  502    0  0.11356422334E+04 -0.60960235582E+03 -0.80499042237E+03  0.15196407157E+04  0.10100000352E+00 0.  1.
       -3    1    3    3    0  502 -0.11356422334E+04  0.60960235582E+03  0.16288538279E+04  0.20771285751E+04  0.10100000352E+00 0. -1.
</event>
<event>
 5   0  0.7378896E-07  0.2717274E+04  0.7818609E-02  0.8329422E-01
       -1   -1    0    0    0  501  0.00000000000E+00  0.00000000000E+00  0.14289148078E+04  0.14289148078E+04  0.50400001928E-02 0. -1.
        1   -1    0    0  501    0  0.00000000000E+00  0.00000000000E+00 -0.12918158704E+04  0.12918158704E+04  0.50400001928E-02 0.  1.
    10030    2    1    2    0    0  0.00000000000E+00  0.00000000000E+00  0.13709893744E+03  0.27207306782E+04  0.27172742418E+04 0.  0.
        2    1    3    3  502    0 -0.50596236719E+03 -0.57585245135E+03  0.11917119905E+04  0.14169620429E+04  0.25500000920E-02 0. -1.
       -2    1    3    3    0  502  0.50596236719E+03  0.57585245135E+03 -0.10546130531E+04  0.13037686353E+04  0.25500000920E-02 0.  1.
</event>
<event>
 5   0  0.6630125E-07  0.3334210E+04  0.7818609E-02  0.8154245E-01
       -1   -1    0    0    0  501  0.00000000000E+00  0.00000000000E+00  0.19548860373E+04  0.19548860374E+04  0.50400001928E-02 0.  1.
        1   -1    0    0  501    0  0.00000000000E+00  0.00000000000E+00 -0.14216884931E+04  0.14216884931E+04  0.50400001928E-02 0. -1.
    10030    2    1    2    0    0  0.00000000000E+00  0.00000000000E+00  0.53319754424E+03  0.33765745305E+04  0.33342099422E+04 0.  0.
        1    1    3    3  502    0 -0.94856572835E+02 -0.24981586213E+02  0.19519610407E+04  0.19544241488E+04  0.50400001928E-02 0.  1.
       -1    1    3    3    0  502  0.94856572835E+02  0.24981586213E+02 -0.14187634965E+04  0.14221503816E+04  0.50400001928E-02 0. -1.
</event>
<event>
 5   0  0.2023479E-06  0.3576337E+04  0.7818609E-02  0.8095934E-01
       -2   -1    0    0    0  501  0.00000000000E+00  0.00000000000E+00  0.25806644724E+04  0.25806644724E+04  0.25500000920E-02 0.  1.
        2   -1    0    0  501    0  0.00000000000E+00  0.00000000000E+00 -0.12390400950E+04  0.12390400950E+04  0.25500000920E-02 0. -1.
    10030    2    1    2    0    0  0.00000000000E+00  0.00000000000E+00  0.13416243774E+04  0.38197045675E+04  0.35763370944E+04 0.  0.
        5    1    3    3  502    0 -0.17272185088E+02  0.17830881597E+04  0.52822480011E+03  0.18597702125E+04  0.46999998093E+01 0.  1.
       -5    1    3    3    0  502  0.17272185088E+02 -0.17830881597E+04  0.81339957729E+03  0.19599343550E+04  0.46999998093E+01 0. -1.
</event>
<event>
 5   0  0.6630125E-07  0.3172567E+04  0.7818609E-02  0.8196100E-01
       -1   -1    0    0    0  501  0.00000000000E+00  0.00000000000E+00  0.90358568789E+03  0.90358568790E+03  0.50400001928E-02 0. -1.
        1   -1    0    0  501    0  0.00000000000E+00  0.00000000000E+00 -0.27847886449E+04  0.27847886449E+04  0.50400001928E-02 0.  1.
    10030    2    1    2    0    0  0.00000000000E+00  0.00000000000E+00 -0.18812029570E+04  0.36883743328E+04  0.31725668871E+04 0.  0.
        4    1    3    3  502    0 -0.79235095783E+03  0.20347221986E+02  0.65686606204E+03  0.10294215299E+04  0.12699999809E+01 0. -1.
       -4    1    3    3    0  502  0.79235095783E+03 -0.20347221986E+02 -0.25380690190E+04  0.26589528029E+04  0.12699999809E+01 0.  1.
</event>
<event>
 5   0  0.6630125E-07  0.3481129E+04  0.7818609E-02  0.8118277E-01
        1   -1    0    0  501    0  0.00000000000E+00  0.00000000000E+00  0.19149486537E+04  0.19149486537E+04  0.50400001928E-02 0. -1.
       -1   -1    0    0    0  501  0.00000000000E+00  0.00000000000E+00 -0.15820608647E+04  0.15820608647E+04  0.50400001928E-02 0.  1.
    10030    2    1    2    0    0  0.00000000000E+00  0.00000000000E+00  0.33288778903E+03  0.34970095185E+04  0.34811293127E+04 0.  0.
        1    1    3    3  502    0 -0.14860750118E+04 -0.19700931881E+01 -0.74385900015E+03  0.16618510866E+04  0.50400001928E-02 0. -1.
       -1    1    3    3    0  502  0.14860750118E+04  0.19700931881E+01  0.10767467892E+04  0.18351584318E+04  0.50400001928E-02 0.  1.
</event>
<event>
 5   0  0.1999883E-06  0.3495248E+04  0.7818609E-02  0.8114917E-01
        2   -1    0    0  501    0  0.00000000000E+00  0.00000000000E+00  0.16287738684E+04  0.16287738684E+04  0.25500000920E-02 0. -1.
       -2   -1    0    0    0  501  0.00000000000E+00  0.00000000000E+00 -0.18751466064E+04  0.18751466064E+04  0.25500000920E-02 0.  1.
    10030    2    1    2    0    0  0.00000000000E+00  0.00000000000E+00 -0.24637273798E+03  0.35039204749E+04  0.34952480839E+04 0.  0.
        4    1    3    3  502    0  0.92835260092E+03  0.11662841628E+04 -0.10376618248E+04  0.18162601619E+04  0.12699999809E+01 0.  1.
       -4    1    3    3    0  502 -0.92835260092E+03 -0.11662841628E+04  0.79128908683E+03  0.16876603130E+04  0.12699999809E+01 0. -1.
</event>
<event>
 5   0  0.6630125E-07  0.3213896E+04  0.7818609E-02  0.8185157E-01
       -1   -1    0    0    0  501  0.00000000000E+00  0.00000000000E+00  0.15560305528E+04  0.15560305528E+04  0.50400001928E-02 0.  1.
        1   -1    0    0  501    0  0.00000000000E+00  0.00000000000E+00 -0.16595315590E+04  0.16595315590E+04  0.50400001928E-02 0. -1.
    10030    2    1    2    0    0  0.00000000000E+00  0.00000000000E+00 -0.10350100618E+03  0.32155621118E+04  0.32138959592E+04 0.  0.
        1    1    3    3  502    0  0.10889185704E+04 -0.62981692168E+03  0.94870228290E+03  0.15755789505E+04  0.50400001928E-02 0. -1.
       -1    1    3    3    0  502 -0.10889185704E+04  0.62981692168E+03 -0.10522032891E+04  0.16399831613E+04  0.50400001928E-02 0.  1.
</event>
<event>
 5   0  0.6630125E-07  0.3548181E+04  0.7818609E-02  0.8102466E-01
        1   -1    0    0  501    0  0.00000000000E+00  0.00000000000E+00  0.23147156781E+04  0.23147156781E+04  0.50400001928E-02 0. -1.
       -1   -1    0    0    0  501  0.00000000000E+00  0.00000000000E+00 -0.13597341374E+04  0.13597341374E+04  0.50400001928E-02 0.  1.
    10030    2    1    2    0    0  0.00000000000E+00  0.00000000000E+00  0.95498154073E+03  0.36744498155E+04  0.35481814643E+04 0.  0.
        1    1    3    3  502    0 -0.36422754373E+03  0.37858955695E+03 -0.12773342262E+04  0.13811496956E+04  0.50400001928E-02 0.  1.
       -1    1    3    3    0  502  0.36422754373E+03 -0.37858955695E+03  0.22323157670E+04  0.22933001199E+04  0.50400001928E-02 0. -1.
</event>
<event>
 5   0  0.6630125E-07  0.3521095E+04  0.7818609E-02  0.8108809E-01
        1   -1    0    0  501    0  0.00000000000E+00  0.00000000000E+00  0.22046676857E+04  0.22046676857E+04  0.50400001928E-02 0. -1.
       -1   -1    0    0    0  501  0.00000000000E+00  0.00000000000E+00 -0.14058929280E+04  0.14058929280E+04  0.50400001928E-02 0.  1.
    10030    2    1    2    0    0  0.00000000000E+00  0.00000000000E+00  0.79877475773E+03  0.36105606137E+04  0.35210945503E+04 0.  0.
        1    1    3    3  502    0  0.52612405082E+03  0.30469974474E+03 -0.12948278956E+04  0.14304641661E+04  0.50400001928E-02 0.  1.
       -1    1    3    3    0  502 -0.52612405082E+03 -0.30469974474E+03  0.20936026533E+04  0.21800964477E+04  0.50400001928E-02 0. -1.
</event>
<event>
 5   0  0.6630125E-07  0.3474865E+04  0.7818609E-02  0.8119773E-01
        1   -1    0    0  501    0  0.00000000000E+00  0.00000000000E+00  0.16463327409E+04  0.16463327409E+04  0.50400001928E-02 0.  1.
       -1   -1    0    0    0  501  0.00000000000E+00  0.00000000000E+00 -0.18335731506E+04  0.18335731506E+04  0.50400001928E-02 0. -1.
    10030    2    1    2    0    0  0.00000000000E+00  0.00000000000E+00 -0.18724040968E+03  0.34799058915E+04  0.34748648956E+04 0.  0.
        5    1    3    3  502    0 -0.13024144215E+02 -0.10306333793E+04 -0.14943181354E+04  0.18153191374E+04  0.46999998093E+01 0. -1.
       -5    1    3    3    0  502  0.13024144215E+02  0.10306333793E+04  0.13070777257E+04  0.16645867541E+04  0.46999998093E+01 0.  1.
</event>
<event>
 5   0  0.6630125E-07  0.3422719E+04  0.7818609E-02  0.8132353E-01
       -1   -1    0    0    0  501  0.00000000000E+00  0.00000000000E+00  0.19334993527E+04  0.19334993527E+04  0.50400001928E-02 0. -1.
        1   -1    0    0  501    0  0.00000000000E+00  0.00000000000E+00 -0.15147413012E+04  0.15147413012E+04  0.50400001928E-02 0.  1.
    10030    2    1    2    0    0  0.00000000000E+00  0.00000000000E+00  0.41875805150E+03  0.34482406540E+04  0.34227189925E+04 0.  0.
        5    1    3    3  502    0  0.18887054015E+03  0.40573114086E+03 -0.14547365245E+04  0.15220283458E+04  0.46999998093E+01 0.  1.
       -5    1    3    3    0  502 -0.18887054015E+03 -0.40573114086E+03  0.18734945760E+04  0.19262123081E+04  0.46999998093E+01 0. -1.
</event>
<event>
 5   0  0.7378896E-07  0.3486280E+04  0.7818609E-02  0.8117049E-01
        1   -1    0    0  501    0  0.00000000000E+00  0.00000000000E+00  0.21609073890E+04  0.21609073890E+04  0.50400001928E-02 0. -1.
       -1   -1    0    0    0  501  0.00000000000E+00  0.00000000000E+00 -0.14061390529E+04  0.14061390529E+04  0.50400001928E-02 0.  1.
    10030    2    1    2    0    0  0.00000000000E+00  0.00000000000E+00  0.75476833607E+03  0.35670464420E+04  0.34862795467E+04 0.  0.
        2    1    3    3  502    0 -0.63311545014E+03  0.91041142753E+03  0.17534781274E+04  0.20746974922E+04  0.25500000920E-02 0. -1.
       -2    1    3    3    0  502  0.63311545014E+03 -0.91041142753E+03 -0.99870979137E+03  0.14923489498E+04  0.25500000920E-02 0.  1.
</event>
<event>
 5   0  0.7378896E-07  0.3485323E+04  0.7818609E-02  0.8117277E-01
        1   -1    0    0  501    0  0.00000000000E+00  0.00000000000E+00  0.30403280865E+04  0.30403280865E+04  0.50400001928E-02 0. -1.
       -1   -1    0    0    0  501  0.00000000000E+00  0.00000000000E+00 -0.99886214493E+03  0.99886214494E+03  0.50400001928E-02 0.  1.
    10030    2    1    2    0    0  0.00000000000E+00  0.00000000000E+00  0.20414659416E+04  0.40391902314E+04  0.34853227304E+04 0.  0.
        2    1    3    3  502    0 -0.79986917110E+03  0.17886629984E+03 -0.76154182797E+03  0.11188073113E+04  0.25500000920E-02 0.  1.
       -2    1    3    3    0  502  0.79986917110E+03 -0.17886629984E+03  0.28030077695E+04  0.29203829201E+04  0.25500000920E-02 0. -1.
</event>
<event>
 5   0  0.7378896E-07  0.3512864E+04  0.7818609E-02  0.8110748E-01
       -1   -1    0    0    0  501  0.00000000000E+00  0.00000000000E+00  0.25312865842E+04  0.25312865842E+04  0.50400001928E-02 0.  1.
        1   -1    0    0  501    0  0.00000000000E+00  0.00000000000E+00 -0.12187691922E+04  0.12187691922E+04  0.50400001928E-02 0. -1.
    10030    2    1    2    0    0  0.00000000000E+00  0.00000000000E+00  0.13125173920E+04  0.37500557763E+04  0.35128644183E+04 0.  0.
        2    1    3    3  502    0 -0.31551349032E+03 -0.11742938111E+04 -0.69681679638E+03  0.14014522343E+04  0.25500000920E-02 0. -1.
       -2    1    3    3    0  502  0.31551349032E+03  0.11742938111E+04  0.20093341884E+04  0.23486035421E+04  0.25500000920E-02 0.  1.
</event>
<event>
 5   0  0.2020725E-06  0.3406173E+04  0.7818609E-02  0.8136393E-01
        2   -1    0    0  501    0  0.00000000000E+00  0.00000000000E+00  0.13166167840E+04  0.13166167840E+04  0.25500000920E-02 0. -1.
       -2   -1    0    0    0  501  0.00000000000E+00  0.00000000000E+00 -0.22029978300E+04  0.22029978300E+04  0.25500000920E-02 0.  1.
    10030    2    1    2    0    0  0.00000000000E+00  0.00000000000E+00 -0.88638104598E+03  0.35196146139E+04  0.34061731712E+04 0.  0.
        3    1    3    3  502    0 -0.21705276175E+03 -0.36694256267E+03  0.12605860373E+04  0.13307275879E+04  0.10100000352E+00 0. -1.
       -3    1    3    3    0  502  0.21705276175E+03  0.36694256267E+03 -0.21469670833E+04  0.21888870260E+04  0.10100000352E+00 0.  1.
</event>
<event>
 5   0  0.6630125E-07  0.2137366E+04  0.7818609E-02  0.8544960E-01
        1   -1    0    0  501    0  0.00000000000E+00  0.00000000000E+00  0.23982212830E+04  0.23982212831E+04  0.50400001928E-02 0. -1.
       -1   -1    0    0    0  501  0.00000000000E+00  0.00000000000E+00 -0.47622080377E+03  0.47622080380E+03  0.50400001928E-02 0.  1.
    10030    2    1    2    0    0  0.00000000000E+00  0.00000000000E+00  0.19220004793E+04  0.28744420869E+04  0.21373655439E+04 0.  0.
        1    1    3    3  502    0  0.71789766047E+01 -0.44630132127E+03  0.22668561125E+04  0.23103837434E+04  0.50400001928E-02 0. -1.
       -1    1    3    3    0  502 -0.71789766047E+01  0.44630132127E+03 -0.34485563318E+03  0.56405834347E+03  0.50400001928E-02 0.  1.
</event>
<event>
 5   0  0.6630125E-07  0.2264754E+04  0.7818609E-02  0.8491949E-01
       -3   -1    0    0    0  501  0.00000000000E+00  0.00000000000E+00  0.18192041074E+04  0.18192041102E+04  0.10100000352E+00 0. -1.
        3   -1    0    0  501    0  0.00000000000E+00  0.00000000000E+00 -0.70485627871E+03  0.70485628595E+03  0.10100000352E+00 0.  1.
    10030    2    1    2    0    0  0.00000000000E+00  0.00000000000E+00  0.11143478287E+04  0.25240603962E+04  0.22647538056E+04 0.  0.
        4    1    3    3  502    0  0.46660788904E+03  0.57183517237E+03 -0.39996874232E+03  0.83946113323E+03  0.12699999809E+01 0.  1.
       -4    1    3    3    0  502 -0.46660788904E+03 -0.57183517237E+03  0.15143165710E+04  0.16845992629E+04  0.12699999809E+01 0. -1.
</event>
<event>
 5   0  0.2020725E-06  0.3414411E+04  0.7818609E-02  0.8134379E-01
       -2   -1    0    0    0  501  0.00000000000E+00  0.00000000000E+00  0.20810053310E+04  0.20810053310E+04  0.25500000920E-02 0.  1.
        2   -1    0    0  501    0  0.00000000000E+00  0.00000000000E+00 -0.14005490341E+04  0.14005490341E+04  0.25500000920E-02 0. -1.
    10030    2    1    2    0    0  0.00000000000E+00  0.00000000000E+00  0.68045629698E+03  0.34815543651E+04  0.34144106409E+04 0.  0.
        3    1    3    3  502    0 -0.92113141330E+03 -0.12472431564E+04 -0.38828037924E+03  0.15983930164E+04  0.10100000352E+00 0.  1.
       -3    1    3    3    0  502  0.92113141330E+03  0.12472431564E+04  0.10687366762E+04  0.18831613487E+04  0.10100000352E+00 0. -1.
</event>
<event>
 5   0  0.6630125E-07  0.3463392E+04  0.7818609E-02  0.8122521E-01
       -1   -1    0    0    0  501  0.00000000000E+00  0.00000000000E+00  0.10557815827E+04  0.10557815828E+04  0.50400001928E-02 0. -1.
        1   -1    0    0  501    0  0.00000000000E+00  0.00000000000E+00 -0.28403323608E+04  0.28403323608E+04  0.50400001928E-02 0.  1.
    10030    2    1    2    0    0  0.00000000000E+00  0.00000000000E+00 -0.17845507781E+04  0.38961139436E+04  0.34633917454E+04 0.  0.
        4    1    3    3  502    0  0.10602259397E+04  0.11551810042E+04 -0.17191242421E+04  0.23267814613E+04  0.12699999809E+01 0.  1.
       -4    1    3    3    0  502 -0.10602259397E+04 -0.11551810042E+04 -0.65426535947E+02  0.15693324823E+04  0.12699999809E+01 0. -1.
</event>
<event>
 5   0  0.1999883E-06  0.3421625E+04  0.7818609E-02  0.8132619E-01
        2   -1    0    0  501    0  0.00000000000E+00  0.00000000000E+00  0.21427560585E+04  0.21427560585E+04  0.25500000920E-02 0.  1.
       -2   -1    0    0    0  501  0.00000000000E+00  0.00000000000E+00 -0.13659411103E+04  0.13659411103E+04  0.25500000920E-02 0. -1.
    10030    2    1    2    0    0  0.00000000000E+00  0.00000000000E+00  0.77681494823E+03  0.35086971688E+04  0.34216245204E+04 0.  0.
        4    1    3    3  502    0 -0.15476066817E+04  0.72911461166E+03  0.37455752956E+03  0.17512822485E+04  0.12699999809E+01 0.  1.
       -4    1    3    3    0  502  0.15476066817E+04 -0.72911461166E+03  0.40225741867E+03  0.17574149202E+04  0.12699999809E+01 0. -1.
</event>
<event>
 5   0  0.2073287E-06  0.3436950E+04  0.7818609E-02  0.8128897E-01
        2   -1    0    0  501    0  0.00000000000E+00  0.00000000000E+00  0.20337808179E+04  0.20337808179E+04  0.25500000920E-02 0. -1.
       -2   -1    0    0    0  501  0.00000000000E+00  0.00000000000E+00 -0.14520520964E+04  0.14520520964E+04  0.25500000920E-02 0.  1.
    10030    2    1    2    0    0  0.00000000000E+00  0.00000000000E+00  0.58172872152E+03  0.34858329144E+04  0.34369496361E+04 0.  0.
        1    1    3    3  502    0  0.61056429005E+03  0.92875944259E+03 -0.10384150095E+04  0.15210813872E+04  0.50400001928E-02 0.  1.
       -1    1    3    3    0  502 -0.61056429005E+03 -0.92875944259E+03  0.16201437310E+04  0.19647515272E+04  0.50400001928E-02 0. -1.
</event>
<event>
 5   0  0.6890600E-07  0.2192382E+04  0.7818609E-02  0.8521606E-01
       -1   -1    0    0    0  501  0.00000000000E+00  0.00000000000E+00  0.19177195096E+04  0.19177195096E+04  0.50400001928E-02 0.  1.
        1   -1    0    0  501    0  0.00000000000E+00  0.00000000000E+00 -0.62659565698E+03  0.62659565700E+03  0.50400001928E-02 0. -1.
    10030    2    1    2    0    0  0.00000000000E+00  0.00000000000E+00  0.12911238526E+04  0.25443151666E+04  0.21923820069E+04 0.  0.
        3    1    3    3  502    0  0.93513146514E+03  0.49529410964E+03  0.31354697940E+03  0.11036751472E+04  0.10100000352E+00 0. -1.
       -3    1    3    3    0  502 -0.93513146514E+03 -0.49529410964E+03  0.97757687321E+03  0.14406400194E+04  0.10100000352E+00 0.  1.
</event>
<event>
 5   0  0.2020725E-06  0.3413808E+04  0.7818609E-02  0.8134526E-01
        2   -1    0    0  501    0  0.00000000000E+00  0.00000000000E+00  0.26662235144E+04  0.26662235144E+04  0.25500000920E-02 0.  1.
       -2   -1    0    0    0  501  0.00000000000E+00  0.00000000000E+00 -0.10927518291E+04  0.10927518291E+04  0.25500000920E-02 0. -1.
    10030    2    1    2    0    0  0.00000000000E+00  0.00000000000E+00  0.15734716853E+04  0.37589753434E+04  0.34138076232E+04 0.  0.
        3    1    3    3  502    0 -0.21444844331E+03 -0.16601942514E+04  0.11540635385E+04  0.20332475865E+04  0.10100000352E+00 0.  1.
       -3    1    3    3    0  502  0.21444844331E+03  0.16601942514E+04  0.41940814681E+03  0.17257277569E+04  0.10100000352E+00 0. -1.
</event>
<event>
 5   0  0.6630125E-07  0.3333611E+04  0.7818609E-02  0.8154395E-01
        1   -1    0    0  501    0  0.00000000000E+00  0.00000000000E+00  0.21262331709E+04  0.21262331709E+04  0.50400001928E-02 0. -1.
       -1   -1    0    0    0  501  0.00000000000E+00  0.00000000000E+00 -0.13066488777E+04  0.13066488777E+04  0.50400001928E-02 0.  1.
    10030    2    1    2    0    0  0.00000000000E+00  0.00000000000E+00  0.81958429314E+03  0.34328820486E+04  0.33336107670E+04 0.  0.
        4    1    3    3  502    0  0.10305256279E+03  0.10309123424E+04 -0.93478464831E+03  0.13954296973E+04  0.12699999809E+01 0.  1.
       -4    1    3    3    0  502 -0.10305256279E+03 -0.10309123424E+04  0.17543689415E+04  0.20374523513E+04  0.12699999809E+01 0. -1.
</event>
<event>
 5   0  0.2001768E-06  0.3159604E+04  0.7818609E-02  0.8199568E-01
        2   -1    0    0  501    0  0.00000000000E+00  0.00000000000E+00  0.17811075880E+04  0.17811075880E+04  0.25500000920E-02 0.  1.
       -2   -1    0    0    0  501  0.00000000000E+00  0.00000000000E+00 -0.14012483020E+04  0.14012483020E+04  0.25500000920E-02 0. -1.
    10030    2    1    2    0    0  0.00000000000E+00  0.00000000000E+00  0.37985928606E+03  0.31823558900E+04  0.31596037621E+04 0.  0.
        2    1    3    3  502    0 -0.62191658653E+03  0.13934938915E+04 -0.22187701962E+03  0.15420229824E+04  0.25500000920E-02 0. -1.
       -2    1    3    3    0  502  0.62191658653E+03 -0.13934938915E+04  0.60173630569E+03  0.16403329076E+04  0.25500000920E-02 0.  1.
</event>
<event>
 5   0  0.6630125E-07  0.3479857E+04  0.7818609E-02  0.8118580E-01
       -1   -1    0    0    0  501  0.00000000000E+00  0.00000000000E+00  0.18864162253E+04  0.18864162253E+04  0.50400001928E-02 0.  1.
        1   -1    0    0  501    0  0.00000000000E+00  0.00000000000E+00 -0.16048158879E+04  0.16048158879E+04  0.50400001928E-02 0. -1.
    10030    2    1    2    0    0  0.00000000000E+00  0.00000000000E+00  0.28160033738E+03  0.34912321132E+04  0.34798567382E+04 0.  0.
        4    1    3    3  502    0 -0.16311018954E+04 -0.59974940152E+03  0.55928250028E+02  0.17387703471E+04  0.12699999809E+01 0. -1.
       -4    1    3    3    0  502  0.16311018954E+04  0.59974940152E+03  0.22567208735E+03  0.17524617661E+04  0.12699999809E+01 0.  1.
</event>
<event>
 5   0  0.6630125E-07  0.3407436E+04  0.7818609E-02  0.8136084E-01
       -1   -1    0    0    0  501  0.00000000000E+00  0.00000000000E+00  0.32243178473E+04  0.32243178473E+04  0.50400001928E-02 0. -1.
        1   -1    0    0  501    0  0.00000000000E+00  0.00000000000E+00 -0.90023832769E+03  0.90023832770E+03  0.50400001928E-02 0.  1.
    10030    2    1    2    0    0  0.00000000000E+00  0.00000000000E+00  0.23240795196E+04  0.41245561750E+04  0.34074356967E+04 0.  0.
        4    1    3    3  502    0 -0.10730480628E+04 -0.20650091126E+03 -0.42018062188E+03  0.11707382882E+04  0.12699999809E+01 0.  1.
       -4    1    3    3    0  502  0.10730480628E+04  0.20650091126E+03  0.27442601414E+04  0.29538178868E+04  0.12699999809E+01 0. -1.
</event>
<event>
 5   0  0.7378896E-07  0.3394240E+04  0.7818609E-02  0.8139322E-01
        1   -1    0    0  501    0  0.00000000000E+00  0.00000000000E+00  0.11461724198E+04  0.11461724198E+04  0.50400001928E-02 0.  1.
       -1   -1    0    0    0  501  0.00000000000E+00  0.00000000000E+00 -0.25128991650E+04  0.25128991650E+04  0.50400001928E-02 0. -1.
    10030    2    1    2    0    0  0.00000000000E+00  0.00000000000E+00 -0.13667267452E+04  0.36590715849E+04  0.33942396596E+04 0.  0.
        2    1    3    3  502    0  0.35320699322E+03 -0.54295635496E+03 -0.23744042775E+04  0.24611689208E+04  0.25500000920E-02 0. -1.
       -2    1    3    3    0  502 -0.35320699322E+03  0.54295635496E+03  0.10076775323E+04  0.11979026641E+04  0.25500000920E-02 0.  1.
</event>
<event>
 5   0  0.2001768E-06  0.2828605E+04  0.7818609E-02  0.8294442E-01
       -2   -1    0    0    0  501  0.00000000000E+00  0.00000000000E+00  0.85367359297E+03  0.85367359298E+03  0.25500000920E-02 0. -1.
        2   -1    0    0  501    0  0.00000000000E+00  0.00000000000E+00 -0.23431097199E+04  0.23431097199E+04  0.25500000920E-02 0.  1.
    10030    2    1    2    0    0  0.00000000000E+00  0.00000000000E+00 -0.14894361269E+04  0.31967833129E+04  0.28286045275E+04 0.  0.
        2    1    3    3  502    0  0.94241062273E+03 -0.34172315540E+03 -0.18722434951E+04  0.21237250768E+04  0.25500000920E-02 0.  1.
       -2    1    3    3    0  502 -0.94241062273E+03  0.34172315540E+03  0.38280736823E+03  0.10730582361E+04  0.25500000920E-02 0. -1.
</event>
<event>
 5   0  0.2073287E-06  0.3473187E+04  0.7818609E-02  0.8120174E-01
       -2   -1    0    0    0  501  0.00000000000E+00  0.00000000000E+00  0.18798013113E+04  0.18798013113E+04  0.25500000920E-02 0. -1.
        2   -1    0    0  501    0  0.00000000000E+00  0.00000000000E+00 -0.16042954308E+04  0.16042954308E+04  0.25500000920E-02 0.  1.
    10030    2    1    2    0    0  0.00000000000E+00  0.00000000000E+00  0.27550588053E+03  0.34840967421E+04  0.34731868101E+04 0.  0.
        1    1    3    3  502    0  0.14733825708E+04  0.83460651364E+03  0.52410221961E+03  0.17725990435E+04  0.50400001928E-02 0.  1.
       -1    1    3    3    0  502 -0.14733825708E+04 -0.83460651364E+03 -0.24859633908E+03  0.17114976986E+04  0.50400001928E-02 0. -1.
</event>
<event>
 5   0  0.2023479E-06  0.3480954E+04  0.7818609E-02  0.8118318E-01
        2   -1    0    0  501    0  0.00000000000E+00  0.00000000000E+00  0.24615358485E+04  0.24615358485E+04  0.25500000920E-02 0. -1.
       -2   -1    0    0    0  501  0.00000000000E+00  0.00000000000E+00 -0.12306386075E+04  0.12306386075E+04  0.25500000920E-02 0.  1.
    10030    2    1    2    0    0  0.00000000000E+00  0.00000000000E+00  0.12308972411E+04  0.36921744560E+04  0.34809544949E+04 0.  0.
        5    1    3    3  502    0 -0.10998964911E+03  0.95204985846E+03  0.21564444896E+04  0.23598244813E+04  0.46999998093E+01 0. -1.
       -5    1    3    3    0  502  0.10998964911E+03 -0.95204985846E+03 -0.92554724851E+03  0.13323499747E+04  0.46999998093E+01 0.  1.
</event>
<event>
 5   0  0.2073287E-06  0.3476023E+04  0.7818609E-02  0.8119496E-01
       -2   -1    0    0    0  501  0.00000000000E+00  0.00000000000E+00  0.12194974991E+04  0.12194974991E+04  0.25500000920E-02 0. -1.
        2   -1    0    0  501    0  0.00000000000E+00  0.00000000000E+00 -0.24769907733E+04  0.24769907733E+04  0.25500000920E-02 0.  1.
    10030    2    1    2    0    0  0.00000000000E+00  0.00000000000E+00 -0.12574932742E+04  0.36964882724E+04  0.34760230456E+04 0.  0.
        1    1    3    3  502    0 -0.42857655661E+03  0.24114085584E+03 -0.24014652572E+04  0.24512980559E+04  0.50400001928E-02 0.  1.
       -1    1    3    3    0  502  0.42857655661E+03 -0.24114085584E+03  0.11439719831E+04  0.12451902165E+04  0.50400001928E-02 0. -1.
</event>
<event>
 5   0  0.6630125E-07  0.3282222E+04  0.7818609E-02  0.8167434E-01
       -1   -1    0    0    0  501  0.00000000000E+00  0.00000000000E+00  0.13515756452E+04  0.13515756452E+04  0.50400001928E-02 0.  1.
        1   -1    0    0  501    0  0.00000000000E+00  0.00000000000E+00 -0.19926707990E+04  0.19926707990E+04  0.50400001928E-02 0. -1.
    10030    2    1    2    0    0  0.00000000000E+00  0.00000000000E+00 -0.64109515374E+03  0.33442464442E+04  0.32822220040E+04 0.  0.
        1    1    3    3  502    0  0.11905928186E+04  0.37261334779E+03 -0.14069486482E+04  0.18803873179E+04  0.50400001928E-02 0. -1.
       -1    1    3    3    0  502 -0.11905928186E+04 -0.37261334779E+03  0.76585349444E+03  0.14638591263E+04  0.50400001928E-02 0.  1.
</event>
<event>
 5   0  0.2023479E-06  0.3486148E+04  0.7818609E-02  0.8117081E-01
       -2   -1    0    0    0  501  0.00000000000E+00  0.00000000000E+00  0.15528579207E+04  0.15528579207E+04  0.25500000920E-02 0.  1.
        2   -1    0    0  501    0  0.00000000000E+00  0.00000000000E+00 -0.19565901003E+04  0.19565901003E+04  0.25500000920E-02 0. -1.
    10030    2    1    2    0    0  0.00000000000E+00  0.00000000000E+00 -0.40373217969E+03  0.35094480210E+04  0.34861476933E+04 0.  0.
        5    1    3    3  502    0  0.10290200460E+04  0.12523240591E+04 -0.84731171433E+03  0.18289770461E+04  0.46999998093E+01 0. -1.
       -5    1    3    3    0  502 -0.10290200460E+04 -0.12523240591E+04  0.44357953464E+03  0.16804709749E+04  0.46999998093E+01 0.  1.
</event>
<event>
 5   0  0.6630125E-07  0.3532788E+04  0.7818609E-02  0.8106063E-01
        3   -1    0    0  501    0  0.00000000000E+00  0.00000000000E+00  0.24667087457E+04  0.24667087477E+04  0.10100000352E+00 0. -1.
       -3   -1    0    0    0  501  0.00000000000E+00  0.00000000000E+00 -0.12649028372E+04  0.12649028412E+04  0.10100000352E+00 0.  1.
    10030    2    1    2    0    0  0.00000000000E+00  0.00000000000E+00  0.12018059085E+04  0.37316115889E+04  0.35327875126E+04 0.  0.
        3    1    3    3  502    0 -0.73879778909E+03 -0.72545432795E+03  0.21125423853E+04  0.23526456374E+04  0.10100000352E+00 0. -1.
       -3    1    3    3    0  502  0.73879778909E+03  0.72545432795E+03 -0.91073647681E+03  0.13789659515E+04  0.10100000352E+00 0.  1.
</event>
<event>
 5   0  0.1999883E-06  0.3432069E+04  0.7818609E-02  0.8130080E-01
       -2   -1    0    0    0  501  0.00000000000E+00  0.00000000000E+00  0.15293821521E+04  0.15293821521E+04  0.25500000920E-02 0. -1.
        2   -1    0    0  501    0  0.00000000000E+00  0.00000000000E+00 -0.19254663434E+04  0.19254663434E+04  0.25500000920E-02 0.  1.
    10030    2    1    2    0    0  0.00000000000E+00  0.00000000000E+00 -0.39608419140E+03  0.34548484955E+04  0.34320686823E+04 0.  0.
        4    1    3    3  502    0 -0.27886821692E+03  0.19934618127E+03 -0.18906499883E+04  0.19214747913E+04  0.12699999809E+01 0.  1.
       -4    1    3    3    0  502  0.27886821692E+03 -0.19934618127E+03  0.14945657969E+04  0.15333737042E+04  0.12699999809E+01 0. -1.
</event>
<event>
 5   0  0.1999883E-06  0.3510219E+04  0.7818609E-02  0.8111372E-01
       -2   -1    0    0    0  501  0.00000000000E+00  0.00000000000E+00  0.18683686540E+04  0.18683686540E+04  0.25500000920E-02 0. -1.
        2   -1    0    0  501    0  0.00000000000E+00  0.00000000000E+00 -0.16487162646E+04  0.16487162646E+04  0.25500000920E-02 0.  1.
    10030    2    1    2    0    0  0.00000000000E+00  0.00000000000E+00  0.21965238939E+03  0.35170849186E+04  0.35102192456E+04 0.  0.
        4    1    3    3  502    0 -0.33793241845E+00 -0.65029760809E+03  0.17432052054E+04  0.18605518252E+04  0.12699999809E+01 0. -1.
       -4    1    3    3    0  502  0.33793241845E+00  0.65029760809E+03 -0.15235528160E+04  0.16565330934E+04  0.12699999809E+01 0.  1.
</event>
<event>
 5   0  0.7378896E-07  0.2209187E+04  0.7818609E-02  0.8514614E-01
       -1   -1    0    0    0  501  0.00000000000E+00  0.00000000000E+00  0.72610631905E+03  0.72610631907E+03  0.50400001928E-02 0. -1.
        1   -1    0    0  501    0  0.00000000000E+00  0.00000000000E+00 -0.16803700475E+04  0.16803700475E+04  0.50400001928E-02 0.  1.
    10030    2    1    2    0    0  0.00000000000E+00  0.00000000000E+00 -0.95426372842E+03  0.24064763666E+04  0.22091874614E+04 0.  0.
        2    1    3    3  502    0  0.52990365554E+03 -0.93903941539E+03 -0.73841587448E+03  0.13068477002E+04  0.25500000920E-02 0.  1.
       -2    1    3    3    0  502 -0.52990365554E+03  0.93903941539E+03 -0.21584785394E+03  0.10996286664E+04  0.25500000920E-02 0. -1.
</event>
<event>
 5   0  0.6890600E-07  0.3504429E+04  0.7818609E-02  0.8112741E-01
       -1   -1    0    0    0  501  0.00000000000E+00  0.00000000000E+00  0.11827968066E+04  0.11827968067E+04  0.50400001928E-02 0. -1.
        1   -1    0    0  501    0  0.00000000000E+00  0.00000000000E+00 -0.25957591706E+04  0.25957591706E+04  0.50400001928E-02 0.  1.
    10030    2    1    2    0    0  0.00000000000E+00  0.00000000000E+00 -0.14129623639E+04  0.37785559772E+04  0.35044290022E+04 0.  0.
        3    1    3    3  502    0 -0.65754118409E+03  0.63918019443E+03 -0.23163746209E+04  0.24912854361E+04  0.10100000352E+00 0.  1.
       -3    1    3    3    0  502  0.65754118409E+03 -0.63918019443E+03  0.90341225698E+03  0.12872705411E+04  0.10100000352E+00 0. -1.
</event>
<event>
 5   0  0.6630125E-07  0.3551621E+04  0.7818609E-02  0.8101664E-01
       -1   -1    0    0    0  501  0.00000000000E+00  0.00000000000E+00  0.16072361274E+04  0.16072361274E+04  0.50400001928E-02 0. -1.
        1   -1    0    0  501    0  0.00000000000E+00  0.00000000000E+00 -0.19620653450E+04  0.19620653450E+04  0.50400001928E-02 0.  1.
    10030    2    1    2    0    0  0.00000000000E+00  0.00000000000E+00 -0.35482921764E+03  0.35693014724E+04  0.35516206480E+04 0.  0.
        5    1    3    3  502    0  0.30066495316E+03  0.12436544777E+04  0.10601394211E+04  0.16616237709E+04  0.46999998093E+01 0. -1.
       -5    1    3    3    0  502 -0.30066495316E+03 -0.12436544777E+04 -0.14149686387E+04  0.19076777014E+04  0.46999998093E+01 0.  1.
</event>
<event>
 5   0  0.1999883E-06  0.3513347E+04  0.7818609E-02  0.8110634E-01
       -2   -1    0    0    0  501  0.00000000000E+00  0.00000000000E+00  0.24882368822E+04  0.24882368822E+04  0.25500000920E-02 0. -1.
        2   -1    0    0  501    0  0.00000000000E+00  0.00000000000E+00 -0.12401961894E+04  0.12401961894E+04  0.25500000920E-02 0.  1.
    10030    2    1    2    0    0  0.00000000000E+00  0.00000000000E+00  0.12480406927E+04  0.37284330716E+04  0.35133470649E+04 0.  0.
        4    1    3    3  502    0  0.13004401368E+04  0.62706348967E+03  0.16860606315E+04  0.22197196299E+04  0.12699999809E+01 0. -1.
       -4    1    3    3    0  502 -0.13004401368E+04 -0.62706348967E+03 -0.43801993878E+03  0.15087134417E+04  0.12699999809E+01 0.  1.
</event>
<event>
 5   0  0.2023479E-06  0.3503137E+04  0.7818609E-02  0.8113047E-01
       -2   -1    0    0    0  501  0.00000000000E+00  0.00000000000E+00  0.11665635067E+04  0.11665635067E+04  0.25500000920E-02 0.  1.
        2   -1    0    0  501    0  0.00000000000E+00  0.00000000000E+00 -0.26299399717E+04  0.26299399717E+04  0.25500000920E-02 0. -1.
    10030    2    1    2    0    0  0.00000000000E+00  0.00000000000E+00 -0.14633764650E+04  0.37965034784E+04  0.35031368776E+04 0.  0.
        5    1    3    3  502    0  0.72058472232E+03 -0.42564255688E+03  0.93585392945E+03  0.12554913761E+04  0.46999998093E+01 0.  1.
       -5    1    3    3    0  502 -0.72058472232E+03  0.42564255688E+03 -0.23992303945E+04  0.25410121023E+04  0.46999998093E+01 0. -1.
</event>
<event>
 5   0  0.2073287E-06  0.3247255E+04  0.7818609E-02  0.8176448E-01
        2   -1    0    0  501    0  0.00000000000E+00  0.00000000000E+00  0.20761347846E+04  0.20761347846E+04  0.25500000920E-02 0.  1.
       -2   -1    0    0    0  501  0.00000000000E+00  0.00000000000E+00 -0.12697471102E+04  0.12697471102E+04  0.25500000920E-02 0. -1.
    10030    2    1    2    0    0  0.00000000000E+00  0.00000000000E+00  0.80638767441E+03  0.33458818948E+04  0.32472549288E+04 0.  0.
        1    1    3    3  502    0  0.13876989694E+03 -0.65347626192E+03 -0.11215755570E+04  0.13054577892E+04  0.50400001928E-02 0. -1.
       -1    1    3    3    0  502 -0.13876989694E+03  0.65347626192E+03  0.19279632314E+04  0.20404241057E+04  0.50400001928E-02 0.  1.
</event>
<event>
 5   0  0.2073287E-06  0.3549180E+04  0.7818609E-02  0.8102233E-01
        2   -1    0    0  501    0  0.00000000000E+00  0.00000000000E+00  0.18244762687E+04  0.18244762687E+04  0.25500000920E-02 0. -1.
       -2   -1    0    0    0  501  0.00000000000E+00  0.00000000000E+00 -0.17260677883E+04  0.17260677883E+04  0.25500000920E-02 0.  1.
    10030    2    1    2    0    0  0.00000000000E+00  0.00000000000E+00  0.98408480340E+02  0.35505440570E+04  0.35491800281E+04 0.  0.
        1    1    3    3  502    0  0.90599415516E+03 -0.10050883995E+04  0.11977489694E+04  0.18071056122E+04  0.50400001928E-02 0. -1.
       -1    1    3    3    0  502 -0.90599415516E+03  0.10050883995E+04 -0.10993404891E+04  0.17434384448E+04  0.50400001928E-02 0.  1.
</event>
<event>
 5   0  0.6630125E-07  0.3550394E+04  0.7818609E-02  0.8101950E-01
       -1   -1    0    0    0  501  0.00000000000E+00  0.00000000000E+00  0.28209021559E+04  0.28209021559E+04  0.50400001928E-02 0. -1.
        1   -1    0    0  501    0  0.00000000000E+00  0.00000000000E+00 -0.11171333402E+04  0.11171333402E+04  0.50400001928E-02 0.  1.
    10030    2    1    2    0    0  0.00000000000E+00  0.00000000000E+00  0.17037688157E+04  0.39380354961E+04  0.35503936952E+04 0.  0.
        5    1    3    3  502    0  0.85755015690E+03 -0.14000650934E+04  0.10310206019E+03  0.16450612944E+04  0.46999998093E+01 0.  1.
       -5    1    3    3    0  502 -0.85755015690E+03  0.14000650934E+04  0.16006667555E+04  0.22929742017E+04  0.46999998093E+01 0. -1.
</event>
<event>
 5   0  0.6630125E-07  0.3536407E+04  0.7818609E-02  0.8105216E-01
        1   -1    0    0  501    0  0.00000000000E+00  0.00000000000E+00  0.17770502437E+04  0.17770502437E+04  0.50400001928E-02 0. -1.
       -1   -1    0    0    0  501  0.00000000000E+00  0.00000000000E+00 -0.17594012519E+04  0.17594012519E+04  0.50400001928E-02 0.  1.
    10030    2    1    2    0    0  0.00000000000E+00  0.00000000000E+00  0.17648991722E+02  0.35364514956E+04  0.35364074559E+04 0.  0.
        5    1    3    3  502    0 -0.74146735934E+03 -0.37842194795E+03  0.15688263963E+04  0.17760110831E+04  0.46999998093E+01 0. -1.
       -5    1    3    3    0  502  0.74146735934E+03  0.37842194795E+03 -0.15511774045E+04  0.17604404125E+04  0.46999998093E+01 0.  1.
</event>
<event>
 5   0  0.1999883E-06  0.3496635E+04  0.7818609E-02  0.8114588E-01
        2   -1    0    0  501    0  0.00000000000E+00  0.00000000000E+00  0.12783834998E+04  0.12783834998E+04  0.25500000920E-02 0.  1.
       -2   -1    0    0    0  501  0.00000000000E+00  0.00000000000E+00 -0.23909989139E+04  0.23909989139E+04  0.25500000920E-02 0. -1.
    10030    2    1    2    0    0  0.00000000000E+00  0.00000000000E+00 -0.11126154141E+04  0.36693824137E+04  0.34966347019E+04 0.  0.
        4    1    3    3  502    0 -0.14372008041E+04  0.57374878657E+03 -0.14100596909E+04  0.20935624582E+04  0.12699999809E+01 0. -1.
       -4    1    3    3    0  502  0.14372008041E+04 -0.57374878657E+03  0.29744427678E+03  0.15758199555E+04  0.12699999809E+01 0.  1.
</event>
<event>
 5   0  0.6630125E-07  0.3282531E+04  0.7818609E-02  0.8167355E-01
        1   -1    0    0  501    0  0.00000000000E+00  0.00000000000E+00  0.20469089869E+04  0.20469089869E+04  0.50400001928E-02 0.  1.
       -1   -1    0    0    0  501  0.00000000000E+00  0.00000000000E+00 -0.13160097590E+04  0.13160097590E+04  0.50400001928E-02 0. -1.
    10030    2    1    2    0    0  0.00000000000E+00  0.00000000000E+00  0.73089922797E+03  0.33629187459E+04  0.32825308544E+04 0.  0.
        4    1    3    3  502    0  0.51690477476E+03 -0.64010328246E+03 -0.10894799542E+04  0.13652439130E+04  0.12699999809E+01 0. -1.
       -4    1    3    3    0  502 -0.51690477476E+03  0.64010328246E+03  0.18203791822E+04  0.19976748329E+04  0.12699999809E+01 0.  1.
</event>
<event>
 5   0  0.1999883E-06  0.3480025E+04  0.7818609E-02  0.8118540E-01
       -2   -1    0    0    0  501  0.00000000000E+00  0.00000000000E+00  0.11365924112E+04  0.11365924112E+04  0.25500000920E-02 0.  1.
        2   -1    0    0  501    0  0.00000000000E+00  0.00000000000E+00 -0.26637896418E+04  0.26637896418E+04  0.25500000920E-02 0. -1.
    10030    2    1    2    0    0  0.00000000000E+00  0.00000000000E+00 -0.15271972306E+04  0.38003820530E+04  0.34800247653E+04 0.  0.
        4    1    3    3  502    0 -0.16535842182E+04 -0.50192958223E+03 -0.98571166328E+03  0.19894479557E+04  0.12699999809E+01 0. -1.
       -4    1    3    3    0  502  0.16535842182E+04  0.50192958223E+03 -0.54148556729E+03  0.18109340973E+04  0.12699999809E+01 0.  1.
</event>
<event>
 5   0  0.6890600E-07  0.3499946E+04  0.7818609E-02  0.8113803E-01
        1   -1    0    0  501    0  0.00000000000E+00  0.00000000000E+00  0.22790694889E+04  0.22790694889E+04  0.50400001928E-02 0. -1.
       -1   -1    0    0    0  501  0.00000000000E+00  0.00000000000E+00 -0.13437088695E+04  0.13437088695E+04  0.50400001928E-02 0.  1.
    10030    2    1    2    0    0  0.00000000000E+00  0.00000000000E+00  0.93536061942E+03  0.36227783584E+04  0.34999462204E+04 0.  0.
        3    1    3    3  502    0 -0.78116531106E+03 -0.11783736239E+04 -0.59983496407E+03  0.15357687440E+04  0.10100000352E+00 0.  1.
       -3    1    3    3    0  502  0.78116531106E+03  0.11783736239E+04  0.15351955835E+04  0.20870096144E+04  0.10100000352E+00 0. -1.
</event>
<event>
 5   0  0.6630125E-07  0.2200142E+04  0.7818609E-02  0.8518369E-01
        1   -1    0    0  501    0  0.00000000000E+00  0.00000000000E+00  0.15164210878E+04  0.15164210879E+04  0.50400001928E-02 0. -1.
       -1   -1    0    0    0  501  0.00000000000E+00  0.00000000000E+00 -0.79803425252E+03  0.79803425254E+03  0.50400001928E-02 0.  1.
    10030    2    1    2    0    0  0.00000000000E+00  0.00000000000E+00  0.71838683532E+03  0.23144553404E+04  0.22001417858E+04 0.  0.
        4    1    3    3  502    0 -0.52310488020E+03 -0.67683251168E+03 -0.36841849318E+03  0.93138325279E+03  0.12699999809E+01 0.  1.
       -4    1    3    3    0  502  0.52310488020E+03  0.67683251168E+03  0.10868053285E+04  0.13830720876E+04  0.12699999809E+01 0. -1.
</event>
<event>
 5   0  0.7378896E-07  0.3449986E+04  0.7818609E-02  0.8125746E-01
        1   -1    0    0  501    0  0.00000000000E+00  0.00000000000E+00  0.22468040065E+04  0.22468040065E+04  0.50400001928E-02 0. -1.
       -1   -1    0    0    0  501  0.00000000000E+00  0.00000000000E+00 -0.13243703830E+04  0.13243703830E+04  0.50400001928E-02 0.  1.
    10030    2    1    2    0    0  0.00000000000E+00  0.00000000000E+00  0.92243362355E+03  0.35711743895E+04  0.34499859030E+04 0.  0.
        2    1    3    3  502    0 -0.27427984960E+03 -0.18734993367E+03 -0.12909546756E+04  0.13330016535E+04  0.25500000920E-02 0.  1.
       -2    1    3    3    0  502  0.27427984960E+03  0.18734993367E+03  0.22133882992E+04  0.22381727361E+04  0.25500000920E-02 0. -1.
</event>
<event>
 5   0  0.2073287E-06  0.3389576E+04  0.7818609E-02  0.8140469E-01
       -2   -1    0    0    0  501  0.00000000000E+00  0.00000000000E+00  0.21067461643E+04  0.21067461643E+04  0.25500000920E-02 0. -1.
        2   -1    0    0  501    0  0.00000000000E+00  0.00000000000E+00 -0.13633854444E+04  0.13633854444E+04  0.25500000920E-02 0.  1.
    10030    2    1    2    0    0  0.00000000000E+00  0.00000000000E+00  0.74336071987E+03  0.34701316087E+04  0.33895764074E+04 0.  0.
        1    1    3    3  502    0 -0.84514291813E+03 -0.85434202205E+03 -0.85176884203E+03  0.14729823499E+04  0.50400001928E-02 0.  1.
       -1    1    3    3    0  502  0.84514291813E+03  0.85434202205E+03  0.15951295619E+04  0.19971492588E+04  0.50400001928E-02 0. -1.
</event>
<event>
 5   0  0.6630125E-07  0.3477843E+04  0.7818609E-02  0.8119061E-01
       -1   -1    0    0    0  501  0.00000000000E+00  0.00000000000E+00  0.17964576719E+04  0.17964576719E+04  0.50400001928E-02 0.  1.
        1   -1    0    0  501    0  0.00000000000E+00  0.00000000000E+00 -0.16832283480E+04  0.16832283480E+04  0.50400001928E-02 0. -1.
    10030    2    1    2    0    0  0.00000000000E+00  0.00000000000E+00  0.11322932385E+03  0.34796860199E+04  0.34778432854E+04 0.  0.
        1    1    3    3  502    0  0.58175981565E+03  0.13169777792E+04  0.10323100748E+04  0.17715922343E+04  0.50400001928E-02 0.  1.
       -1    1    3    3    0  502 -0.58175981565E+03 -0.13169777792E+04 -0.91908075095E+03  0.17080937857E+04  0.50400001928E-02 0. -1.
</event>
<event>
 5   0  0.2073287E-06  0.2806298E+04  0.7818609E-02  0.8301316E-01
       -2   -1    0    0    0  501  0.00000000000E+00  0.00000000000E+00  0.93501629706E+03  0.93501629707E+03  0.25500000920E-02 0. -1.
        2   -1    0    0  501    0  0.00000000000E+00  0.00000000000E+00 -0.21056614970E+04  0.21056614970E+04  0.25500000920E-02 0.  1.
    10030    2    1    2    0    0  0.00000000000E+00  0.00000000000E+00 -0.11706451999E+04  0.30406777941E+04  0.28062984986E+04 0.  0.
        1    1    3    3  502    0  0.23202795617E+03  0.12533754168E+04  0.50215485234E+02  0.12756600263E+04  0.50400001928E-02 0. -1.
       -1    1    3    3    0  502 -0.23202795617E+03 -0.12533754168E+04 -0.12208606852E+04  0.17650177677E+04  0.50400001928E-02 0.  1.
</event>
<event>
 5   0  0.2001768E-06  0.3467417E+04  0.7818609E-02  0.8121555E-01
        2   -1    0    0  501    0  0.00000000000E+00  0.00000000000E+00  0.17976408477E+04  0.17976408477E+04  0.25500000920E-02 0.  1.
       -2   -1    0    0    0  501  0.00000000000E+00  0.00000000000E+00 -0.16720500780E+04  0.16720500780E+04  0.25500000920E-02 0. -1.
    10030    2    1    2    0    0  0.00000000000E+00  0.00000000000E+00  0.12559076971E+03  0.34696909258E+04  0.34674172058E+04 0.  0.
        2    1    3    3  502    0  0.57895413462E+03  0.89581520124E+02 -0.15700015339E+04  0.16757438812E+04  0.25500000920E-02 0. -1.
       -2    1    3    3    0  502 -0.57895413462E+03 -0.89581520124E+02  0.16955923036E+04  0.17939470446E+04  0.25500000920E-02 0.  1.
</event>
<event>
 5   0  0.1999883E-06  0.3502118E+04  0.7818609E-02  0.8113288E-01
       -2   -1    0    0    0  501  0.00000000000E+00  0.00000000000E+00  0.18422076066E+04  0.18422076066E+04  0.25500000920E-02 0. -1.
        2   -1    0    0  501    0  0.00000000000E+00  0.00000000000E+00 -0.16644205841E+04  0.16644205841E+04  0.25500000920E-02 0.  1.
    10030    2    1    2    0    0  0.00000000000E+00  0.00000000000E+00  0.17778702246E+03  0.35066281907E+04  0.35021183650E+04 0.  0.
        4    1    3    3  502    0 -0.65945965204E+03 -0.14666651587E+04 -0.60497283367E+03  0.17181348791E+04  0.12699999809E+01 0. -1.
       -4    1    3    3    0  502  0.65945965204E+03  0.14666651587E+04  0.78275985613E+03  0.17884933116E+04  0.12699999809E+01 0.  1.
</event>
<event>
 5   0  0.6630125E-07  0.3293808E+04  0.7818609E-02  0.8164473E-01
       -1   -1    0    0    0  501  0.00000000000E+00  0.00000000000E+00  0.92214121708E+03  0.92214121710E+03  0.50400001928E-02 0.  1.
        1   -1    0    0  501    0  0.00000000000E+00  0.00000000000E+00 -0.29412984436E+04  0.29412984436E+04  0.50400001928E-02 0. -1.
    10030    2    1    2    0    0  0.00000000000E+00  0.00000000000E+00 -0.20191572265E+04  0.38634396607E+04  0.32938078430E+04 0.  0.
        4    1    3    3  502    0  0.16142368913E+04  0.31037328175E+03 -0.11280316291E+04  0.19936271678E+04  0.12699999809E+01 0. -1.
       -4    1    3    3    0  502 -0.16142368913E+04 -0.31037328175E+03 -0.89112559736E+03  0.18698124928E+04  0.12699999809E+01 0.  1.
</event>
<event>
 5   0  0.6630125E-07  0.3601078E+04  0.7818609E-02  0.8090245E-01
        1   -1    0    0  501    0  0.00000000000E+00  0.00000000000E+00  0.21474930936E+04  0.21474930936E+04  0.50400001928E-02 0.  1.
       -1   -1    0    0    0  501  0.00000000000E+00  0.00000000000E+00 -0.15096399234E+04  0.15096399234E+04  0.50400001928E-02 0. -1.
    10030    2    1    2    0    0  0.00000000000E+00  0.00000000000E+00  0.63785317027E+03  0.36571330170E+04  0.36010783437E+04 0.  0.
        1    1    3    3  502    0  0.76912731346E+03  0.10470897159E+04  0.15849215054E+04  0.20493730446E+04  0.50400001928E-02 0.  1.
       -1    1    3    3    0  502 -0.76912731346E+03 -0.10470897159E+04 -0.94706833516E+03  0.16077599724E+04  0.50400001928E-02 0. -1.
</event>
<event>
 5   0  0.1999883E-06  0.2775802E+04  0.7818609E-02  0.8310821E-01
       -2   -1    0    0    0  501  0.00000000000E+00  0.00000000000E+00  0.11016044833E+04  0.11016044833E+04  0.25500000920E-02 0. -1.
        2   -1    0    0  501    0  0.00000000000E+00  0.00000000000E+00 -0.17486030883E+04  0.17486030883E+04  0.25500000920E-02 0.  1.
    10030    2    1    2    0    0  0.00000000000E+00  0.00000000000E+00 -0.64699860499E+03  0.28502075716E+04  0.27758018673E+04 0.  0.
        4    1    3    3  502    0 -0.77654837248E+03  0.72851131848E+03 -0.12375930747E+04  0.16326035488E+04  0.12699999809E+01 0.  1.
       -4    1    3    3    0  502  0.77654837248E+03 -0.72851131848E+03  0.59059446973E+03  0.12176040229E+04  0.12699999809E+01 0. -1.
</event>
<event>
 5   0  0.2020725E-06  0.3108102E+04  0.7818609E-02  0.8213518E-01
        2   -1    0    0  501    0  0.00000000000E+00  0.00000000000E+00  0.17093033195E+04  0.17093033195E+04  0.25500000920E-02 0.  1.
       -2   -1    0    0    0  501  0.00000000000E+00  0.00000000000E+00 -0.14129002028E+04  0.14129002028E+04  0.25500000920E-02 0. -1.
    10030    2    1    2    0    0  0.00000000000E+00  0.00000000000E+00  0.29640311674E+03  0.31222035223E+04  0.31081023192E+04 0.  0.
        3    1    3    3  502    0 -0.14927136850E+04  0.42650520182E+03  0.21904929088E+03  0.15678276163E+04  0.10100000352E+00 0. -1.
       -3    1    3    3    0  502  0.14927136850E+04 -0.42650520182E+03  0.77353825866E+02  0.15543759060E+04  0.10100000352E+00 0.  1.
</event>
<event>
 5   0  0.7378896E-07  0.3513051E+04  0.7818609E-02  0.8110704E-01
       -1   -1    0    0    0  501  0.00000000000E+00  0.00000000000E+00  0.18015484079E+04  0.18015484079E+04  0.50400001928E-02 0. -1.
        1   -1    0    0  501    0  0.00000000000E+00  0.00000000000E+00 -0.17126279759E+04  0.17126279759E+04  0.50400001928E-02 0.  1.
    10030    2    1    2    0    0  0.00000000000E+00  0.00000000000E+00  0.88920431970E+02  0.35141763838E+04  0.35130512113E+04 0.  0.
        2    1    3    3  502    0  0.49047268241E+03  0.13714169126E+04  0.10266272234E+04  0.17819403066E+04  0.25500000920E-02 0. -1.
       -2    1    3    3    0  502 -0.49047268241E+03 -0.13714169126E+04 -0.93770679143E+03  0.17322360772E+04  0.25500000920E-02 0.  1.
</event>
<event>
 5   0  0.6890600E-07  0.3626966E+04  0.7818609E-02  0.8084343E-01
        1   -1    0    0  501    0  0.00000000000E+00  0.00000000000E+00  0.19030006117E+04  0.19030006117E+04  0.50400001928E-02 0. -1.
       -1   -1    0    0    0  501  0.00000000000E+00  0.00000000000E+00 -0.17281766508E+04  0.17281766508E+04  0.50400001928E-02 0.  1.
    10030    2    1    2    0    0  0.00000000000E+00  0.00000000000E+00  0.17482396089E+03  0.36311772625E+04  0.36269663487E+04 0.  0.
        3    1    3    3  502    0 -0.70140059829E+03 -0.15100863119E+04  0.80685448542E+03  0.18502263752E+04  0.10100000352E+00 0. -1.
       -3    1    3    3    0  502  0.70140059829E+03  0.15100863119E+04 -0.63203052453E+03  0.17809508873E+04  0.10100000352E+00 0.  1.
</event>
<event>
 5   0  0.2001768E-06  0.3487912E+04  0.7818609E-02  0.8116661E-01
        2   -1    0    0  501    0  0.00000000000E+00  0.00000000000E+00  0.19942676309E+04  0.19942676309E+04  0.25500000920E-02 0.  1.
       -2   -1    0    0    0  501  0.00000000000E+00  0.00000000000E+00 -0.15250620056E+04  0.15250620056E+04  0.25500000920E-02 0. -1.
    10030    2    1    2    0    0  0.00000000000E+00  0.00000000000E+00  0.46920562523E+03  0.35193296365E+04  0.34879115774E+04 0.  0.
        2    1    3    3  502    0 -0.16075505660E+04  0.67518149673E+03  0.19832176552E+03  0.17548277404E+04  0.25500000920E-02 0.  1.
       -2    1    3    3    0  502  0.16075505660E+04 -0.67518149673E+03  0.27088385972E+03  0.17645018961E+04  0.25500000920E-02 0. -1.
</event>
<event>
 5   0  0.1999883E-06  0.3595864E+04  0.7818609E-02  0.8091440E-01
        2   -1    0    0  501    0  0.00000000000E+00  0.00000000000E+00  0.29139570989E+04  0.29139570989E+04  0.25500000920E-02 0.  1.
       -2   -1    0    0    0  501  0.00000000000E+00  0.00000000000E+00 -0.11093368585E+04  0.11093368585E+04  0.25500000920E-02 0. -1.
    10030    2    1    2    0    0  0.00000000000E+00  0.00000000000E+00  0.18046202403E+04  0.40232939574E+04  0.35958642988E+04 0.  0.
        4    1    3    3  502    0 -0.10926533770E+03 -0.17726971414E+04  0.58949856938E+03  0.18713375551E+04  0.12699999809E+01 0. -1.
       -4    1    3    3    0  502  0.10926533770E+03  0.17726971414E+04  0.12151216710E+04  0.21519564022E+04  0.12699999809E+01 0.  1.
</event>
<event>
 5   0  0.6630125E-07  0.3544800E+04  0.7818609E-02  0.8103254E-01
        1   -1    0    0  501    0  0.00000000000E+00  0.00000000000E+00  0.13732468131E+04  0.13732468131E+04  0.50400001928E-02 0.  1.
       -1   -1    0    0    0  501  0.00000000000E+00  0.00000000000E+00 -0.22875723785E+04  0.22875723785E+04  0.50400001928E-02 0. -1.
    10030    2    1    2    0    0  0.00000000000E+00  0.00000000000E+00 -0.91432556544E+03  0.36608191916E+04  0.35447998412E+04 0.  0.
        1    1    3    3  502    0  0.93904514019E+03 -0.80034305484E+03 -0.17712259718E+04  0.21586097897E+04  0.50400001928E-02 0. -1.
       -1    1    3    3    0  502 -0.93904514019E+03  0.80034305484E+03  0.85690040641E+03  0.15022094019E+04  0.50400001928E-02 0.  1.
</event>
<event>
 5   0  0.6630125E-07  0.3476370E+04  0.7818609E-02  0.8119413E-01
       -1   -1    0    0    0  501  0.00000000000E+00  0.00000000000E+00  0.28494676830E+04  0.28494676830E+04  0.50400001928E-02 0. -1.
        1   -1    0    0  501    0  0.00000000000E+00  0.00000000000E+00 -0.10602985671E+04  0.10602985671E+04  0.50400001928E-02 0.  1.
    10030    2    1    2    0    0  0.00000000000E+00  0.00000000000E+00  0.17891691159E+04  0.39097662501E+04  0.34763696588E+04 0.  0.
        1    1    3    3  502    0  0.82064262127E+03  0.11878829859E+04  0.19831146739E+04  0.24530112331E+04  0.50400001928E-02 0. -1.
       -1    1    3    3    0  502 -0.82064262127E+03 -0.11878829859E+04 -0.19394555799E+03  0.14567550170E+04  0.50400001928E-02 0.  1.
</event>
<event>
 5   0  0.2020725E-06  0.2755997E+04  0.7818609E-02  0.8317061E-01
        2   -1    0    0  501    0  0.00000000000E+00  0.00000000000E+00  0.13931220788E+04  0.13931220788E+04  0.25500000920E-02 0. -1.
       -2   -1    0    0    0  501  0.00000000000E+00  0.00000000000E+00 -0.13630388254E+04  0.13630388254E+04  0.25500000920E-02 0.  1.
    10030    2    1    2    0    0  0.00000000000E+00  0.00000000000E+00  0.30083253385E+02  0.27561609042E+04  0.27559967213E+04 0.  0.
        3    1    3    3  502    0 -0.20420292936E+03  0.11224159847E+04  0.78798028416E+03  0.13865170094E+04  0.10100000352E+00 0. -1.
       -3    1    3    3    0  502  0.20420292936E+03 -0.11224159847E+04 -0.75789703078E+03  0.13696438948E+04  0.10100000352E+00 0.  1.
</event>
<event>
 5   0  0.6630125E-07  0.3397265E+04  0.7818609E-02  0.8138578E-01
       -1   -1    0    0    0  501  0.00000000000E+00  0.00000000000E+00  0.12608468429E+04  0.12608468430E+04  0.50400001928E-02 0.  1.
        1   -1    0    0  501    0  0.00000000000E+00  0.00000000000E+00 -0.22884236549E+04  0.22884236549E+04  0.50400001928E-02 0. -1.
    10030    2    1    2    0    0  0.00000000000E+00  0.00000000000E+00 -0.10275768119E+04  0.35492704978E+04  0.33972646294E+04 0.  0.
        4    1    3    3  502    0  0.90288298802E+03  0.11668982765E+03  0.98443946409E+03  0.13408716856E+04  0.12699999809E+01 0.  1.
       -4    1    3    3    0  502 -0.90288298802E+03 -0.11668982765E+03 -0.20120162760E+04  0.22083988122E+04  0.12699999809E+01 0. -1.
</event>
<event>
 5   0  0.6630125E-07  0.3520311E+04  0.7818609E-02  0.8108993E-01
       -1   -1    0    0    0  501  0.00000000000E+00  0.00000000000E+00  0.25854310055E+04  0.25854310055E+04  0.50400001928E-02 0. -1.
        1   -1    0    0  501    0  0.00000000000E+00  0.00000000000E+00 -0.11983099128E+04  0.11983099128E+04  0.50400001928E-02 0.  1.
    10030    2    1    2    0    0  0.00000000000E+00  0.00000000000E+00  0.13871210927E+04  0.37837409183E+04  0.35203111242E+04 0.  0.
        1    1    3    3  502    0 -0.96780155750E+03 -0.46930432230E+03 -0.80399289985E+03  0.13428667040E+04  0.50400001928E-02 0.  1.
       -1    1    3    3    0  502  0.96780155750E+03  0.46930432230E+03  0.21911139926E+04  0.24408742143E+04  0.50400001928E-02 0. -1.
</event>
<event>
 5   0  0.6630125E-07  0.3269279E+04  0.7818609E-02  0.8170757E-01
       -1   -1    0    0    0  501  0.00000000000E+00  0.00000000000E+00  0.19900968989E+04  0.19900968989E+04  0.50400001928E-02 0.  1.
        1   -1    0    0  501    0  0.00000000000E+00  0.00000000000E+00 -0.13426715624E+04  0.13426715624E+04  0.50400001928E-02 0. -1.
    10030    2    1    2    0    0  0.00000000000E+00  0.00000000000E+00  0.64742533652E+03  0.33327684613E+04  0.32692791331E+04 0.  0.
        1    1    3    3  502    0  0.80071120064E+03 -0.28126208921E+03 -0.11004866262E+04  0.13897185342E+04  0.50400001928E-02 0. -1.
       -1    1    3    3    0  502 -0.80071120064E+03  0.28126208921E+03  0.17479119628E+04  0.19430499271E+04  0.50400001928E-02 0.  1.
</event>
<event>
 5   0  0.6890600E-07  0.3534098E+04  0.7818609E-02  0.8105756E-01
        1   -1    0    0  501    0  0.00000000000E+00  0.00000000000E+00  0.15370540557E+04  0.15370540557E+04  0.50400001928E-02 0.  1.
       -1   -1    0    0    0  501  0.00000000000E+00  0.00000000000E+00 -0.20314591569E+04  0.20314591569E+04  0.50400001928E-02 0. -1.
    10030    2    1    2    0    0  0.00000000000E+00  0.00000000000E+00 -0.49440510119E+03  0.35685132126E+04  0.35340982080E+04 0.  0.
        3    1    3    3  502    0  0.13800067727E+04  0.73947838231E+03 -0.10744581235E+04  0.18988699903E+04  0.10100000352E+00 0. -1.
       -3    1    3    3    0  502 -0.13800067727E+04 -0.73947838231E+03  0.58005302233E+03  0.16696432222E+04  0.10100000352E+00 0.  1.
</event>
<event>
 5   0  0.2023479E-06  0.3468291E+04  0.7818609E-02  0.8121346E-01
       -2   -1    0    0    0  501  0.00000000000E+00  0.00000000000E+00  0.15411365006E+04  0.15411365006E+04  0.25500000920E-02 0.  1.
        2   -1    0    0  501    0  0.00000000000E+00  0.00000000000E+00 -0.19513270881E+04  0.19513270881E+04  0.25500000920E-02 0. -1.
    10030    2    1    2    0    0  0.00000000000E+00  0.00000000000E+00 -0.41019058752E+03  0.34924635887E+04  0.34682914526E+04 0.  0.
        5    1    3    3  502    0  0.30864060366E+03  0.95860759417E+03  0.12164987365E+04  0.15792652747E+04  0.46999998093E+01 0.  1.
       -5    1    3    3    0  502 -0.30864060366E+03 -0.95860759417E+03 -0.16266893240E+04  0.19131983140E+04  0.46999998093E+01 0. -1.
</event>
<event>
 5   0  0.6630125E-07  0.3480571E+04  0.7818609E-02  0.8118410E-01
       -1   -1    0    0    0  501  0.00000000000E+00  0.00000000000E+00  0.12512221386E+04  0.12512221386E+04  0.50400001928E-02 0.  1.
        1   -1    0    0  501    0  0.00000000000E+00  0.00000000000E+00 -0.24205080218E+04  0.24205080218E+04  0.50400001928E-02 0. -1.
    10030    2    1    2    0    0  0.00000000000E+00  0.00000000000E+00 -0.11692858833E+04  0.36717301604E+04  0.34805707713E+04 0.  0.
        4    1    3    3  502    0 -0.13095551922E+04 -0.45130288871E+02 -0.17928025557E+04  0.22206112134E+04  0.12699999809E+01 0. -1.
       -4    1    3    3    0  502  0.13095551922E+04  0.45130288871E+02  0.62351667249E+03  0.14511189470E+04  0.12699999809E+01 0.  1.
</event>
<event>
 5   0  0.6630125E-07  0.3642150E+04  0.7818609E-02  0.8080904E-01
       -1   -1    0    0    0  501  0.00000000000E+00  0.00000000000E+00  0.20141347089E+04  0.20141347090E+04  0.50400001928E-02 0. -1.
        1   -1    0    0  501    0  0.00000000000E+00  0.00000000000E+00 -0.16465208261E+04  0.16465208261E+04  0.50400001928E-02 0.  1.
    10030    2    1    2    0    0  0.00000000000E+00  0.00000000000E+00  0.36761388285E+03  0.36606555351E+04  0.36421503236E+04 0.  0.
        1    1    3    3  502    0 -0.34058079301E+02 -0.85496500667E+03 -0.14319022183E+04  0.16680734631E+04  0.50400001928E-02 0.  1.
       -1    1    3    3    0  502  0.34058079301E+02  0.85496500667E+03  0.17995161011E+04  0.19925820720E+04  0.50400001928E-02 0. -1.
</event>
<event>
 5   0  0.6630125E-07  0.3486285E+04  0.7818609E-02  0.8117048E-01
        1   -1    0    0  501    0  0.00000000000E+00  0.00000000000E+00  0.10299274050E+04  0.10299274050E+04  0.50400001928E-02 0.  1.
       -1   -1    0    0    0  501  0.00000000000E+00  0.00000000000E+00 -0.29502530421E+04  0.29502530421E+04  0.50400001928E-02 0. -1.
    10030    2    1    2    0    0  0.00000000000E+00  0.00000000000E+00 -0.19203256371E+04  0.39801804472E+04  0.34862853927E+04 0.  0.
        1    1    3    3  502    0  0.75166737758E+03  0.42563090483E+03  0.76839225291E+03  0.11561107940E+04  0.50400001928E-02 0.  1.
       -1    1    3    3    0  502 -0.75166737758E+03 -0.42563090483E+03 -0.26887178900E+04  0.28240696532E+04  0.50400001928E-02 0. -1.
</event>
<event>
 5   0  0.2023479E-06  0.3477585E+04  0.7818609E-02  0.8119123E-01
        2   -1    0    0  501    0  0.00000000000E+00  0.00000000000E+00  0.16402865114E+04  0.16402865114E+04  0.25500000920E-02 0. -1.
       -2   -1    0    0    0  501  0.00000000000E+00  0.00000000000E+00 -0.18432142209E+04  0.18432142209E+04  0.25500000920E-02 0.  1.
    10030    2    1    2    0    0  0.00000000000E+00  0.00000000000E+00 -0.20292770954E+03  0.34835007322E+04  0.34775850380E+04 0.  0.
        5    1    3    3  502    0  0.14621651497E+04  0.14088917956E+03  0.83049541831E+03  0.16874600486E+04  0.46999998093E+01 0. -1.
       -5    1    3    3    0  502 -0.14621651497E+04 -0.14088917956E+03 -0.10334231278E+04  0.17960406836E+04  0.46999998093E+01 0.  1.
</event>
<event>
 5   0  0.1999883E-06  0.3504998E+04  0.7818609E-02  0.8112606E-01
       -2   -1    0    0    0  501  0.00000000000E+00  0.00000000000E+00  0.14590815244E+04  0.14590815244E+04  0.25500000920E-02 0.  1.
        2   -1    0    0  501    0  0.00000000000E+00  0.00000000000E+00 -0.21049221042E+04  0.21049221042E+04  0.25500000920E-02 0. -1.
    10030    2    1    2    0    0  0.00000000000E+00  0.00000000000E+00 -0.64584057983E+03  0.35640036286E+04  0.35049981184E+04 0.  0.
        4    1    3    3  502    0  0.16468567672E+03  0.13856890910E+03 -0.20914318957E+04  0.21024775152E+04  0.12699999809E+01 0. -1.
       -4    1    3    3    0  502 -0.16468567672E+03 -0.13856890910E+03  0.14455913159E+04  0.14615261134E+04  0.12699999809E+01 0.  1.
</event>
<event>
 5   0  0.6630125E-07  0.3503136E+04  0.7818609E-02  0.8113047E-01
        1   -1    0    0  501    0  0.00000000000E+00  0.00000000000E+00  0.22978084785E+04  0.22978084785E+04  0.50400001928E-02 0.  1.
       -1   -1    0    0    0  501  0.00000000000E+00  0.00000000000E+00 -0.13351810366E+04  0.13351810366E+04  0.50400001928E-02 0. -1.
    10030    2    1    2    0    0  0.00000000000E+00  0.00000000000E+00  0.96262744191E+03  0.36329895151E+04  0.35031359130E+04 0.  0.
        5    1    3    3  502    0 -0.67305561043E+03 -0.74065605497E+03  0.19720939179E+04  0.22115044105E+04  0.46999998093E+01 0.  1.
       -5    1    3    3    0  502  0.67305561043E+03  0.74065605497E+03 -0.10094664760E+04  0.14214851046E+04  0.46999998093E+01 0. -1.
</event>
<event>
 5   0  0.1999883E-06  0.2156210E+04  0.7818609E-02  0.8536879E-01
        2   -1    0    0  501    0  0.00000000000E+00  0.00000000000E+00  0.13281199125E+04  0.13281199125E+04  0.25500000920E-02 0. -1.
       -2   -1    0    0    0  501  0.00000000000E+00  0.00000000000E+00 -0.87515472377E+03  0.87515472377E+03  0.25500000920E-02 0.  1.
    10030    2    1    2    0    0  0.00000000000E+00  0.00000000000E+00  0.45296518869E+03  0.22032746362E+04  0.21562100224E+04 0.  0.
        4    1    3    3  502    0 -0.10580370119E+03  0.10104632754E+04  0.59501873297E+03  0.11774036519E+04  0.12699999809E+01 0. -1.
       -4    1    3    3    0  502  0.10580370119E+03 -0.10104632754E+04 -0.14205354428E+03  0.10258709843E+04  0.12699999809E+01 0.  1.
</event>
<event>
 5   0  0.6890600E-07  0.3461354E+04  0.7818609E-02  0.8123010E-01
        1   -1    0    0  501    0  0.00000000000E+00  0.00000000000E+00  0.22328705152E+04  0.22328705152E+04  0.50400001928E-02 0.  1.
       -1   -1    0    0    0  501  0.00000000000E+00  0.00000000000E+00 -0.13414315281E+04  0.13414315281E+04  0.50400001928E-02 0. -1.
    10030    2    1    2    0    0  0.00000000000E+00  0.00000000000E+00  0.89143898709E+03  0.35743020433E+04  0.34613540167E+04 0.  0.
        3    1    3    3  502    0  0.13438123226E+04 -0.27654294977E+03  0.15351014940E+04  0.20588453483E+04  0.10100000352E+00 0.  1.
       -3    1    3    3    0  502 -0.13438123226E+04  0.27654294977E+03 -0.64366250688E+03  0.15154566950E+04  0.10100000352E+00 0. -1.
</event>
<event>
 5   0  0.2001768E-06  0.3479309E+04  0.7818609E-02  0.8118711E-01
        2   -1    0    0  501    0  0.00000000000E+00  0.00000000000E+00  0.19879205588E+04  0.19879205588E+04  0.25500000920E-02 0. -1.
       -2   -1    0    0    0  501  0.00000000000E+00  0.00000000000E+00 -0.15223935826E+04  0.15223935826E+04  0.25500000920E-02 0.  1.
    10030    2    1    2    0    0  0.00000000000E+00  0.00000000000E+00  0.46552697618E+03  0.35103141414E+04  0.34793088402E+04 0.  0.
        2    1    3    3  502    0 -0.13425804453E+03 -0.17340957066E+04  0.26892081009E+03  0.17599521426E+04  0.25500000920E-02 0. -1.
       -2    1    3    3    0  502  0.13425804453E+03  0.17340957066E+04  0.19660616609E+03  0.17503619988E+04  0.25500000920E-02 0.  1.
</event>
<event>
 5   0  0.2073287E-06  0.3497511E+04  0.7818609E-02  0.8114380E-01
       -2   -1    0    0    0  501  0.00000000000E+00  0.00000000000E+00  0.10821369883E+04  0.10821369883E+04  0.25500000920E-02 0.  1.
        2   -1    0    0  501    0  0.00000000000E+00  0.00000000000E+00 -0.28260251008E+04  0.28260251008E+04  0.25500000920E-02 0. -1.
    10030    2    1    2    0    0  0.00000000000E+00  0.00000000000E+00 -0.17438881125E+04  0.39081620891E+04  0.34975112817E+04 0.  0.
        1    1    3    3  502    0 -0.15354272267E+04  0.36002600577E+03 -0.27583381612E+02  0.15773130115E+04  0.50400001928E-02 0. -1.
       -1    1    3    3    0  502  0.15354272267E+04 -0.36002600577E+03 -0.17163047309E+04  0.23308490776E+04  0.50400001928E-02 0.  1.
</event>
<event>
 5   0  0.6630125E-07  0.3703967E+04  0.7818609E-02  0.8067083E-01
        1   -1    0    0  501    0  0.00000000000E+00  0.00000000000E+00  0.21899642428E+04  0.21899642428E+04  0.50400001928E-02 0.  1.
       -1   -1    0    0    0  501  0.00000000000E+00  0.00000000000E+00 -0.15661640143E+04  0.15661640143E+04  0.50400001928E-02 0. -1.
    10030    2    1    2    0    0  0.00000000000E+00  0.00000000000E+00  0.62380022850E+03  0.37561282572E+04  0.37039671650E+04 0.  0.
        4    1    3    3  502    0 -0.90003025290E+03  0.64102086107E+02 -0.13281813813E+04  0.16056870579E+04  0.12699999809E+01 0. -1.
       -4    1    3    3    0  502  0.90003025290E+03 -0.64102086107E+02  0.19519816098E+04  0.21504411992E+04  0.12699999809E+01 0.  1.
</event>
<event>
 5   0  0.2073287E-06  0.3569094E+04  0.7818609E-02  0.8097608E-01
        2   -1    0    0  501    0  0.00000000000E+00  0.00000000000E+00  0.27657448672E+04  0.27657448672E+04  0.25500000920E-02 0.  1.
       -2   -1    0    0    0  501  0.00000000000E+00  0.00000000000E+00 -0.11514468526E+04  0.11514468526E+04  0.25500000920E-02 0. -1.
    10030    2    1    2    0    0  0.00000000000E+00  0.00000000000E+00  0.16142980146E+04  0.39171917198E+04  0.35690941274E+04 0.  0.
        1    1    3    3  502    0  0.64667557763E+03  0.12105559255E+04 -0.44469730133E+03  0.14427025478E+04  0.50400001928E-02 0. -1.
       -1    1    3    3    0  502 -0.64667557763E+03 -0.12105559255E+04  0.20589953159E+04  0.24744891720E+04  0.50400001928E-02 0.  1.
</event>
<event>
 5   0  0.7378896E-07  0.3466434E+04  0.7818609E-02  0.8121791E-01
       -1   -1    0    0    0  501  0.00000000000E+00  0.00000000000E+00  0.18901888252E+04  0.18901888252E+04  0.50400001928E-02 0. -1.
        1   -1    0    0  501    0  0.00000000000E+00  0.00000000000E+00 -0.15892810680E+04  0.15892810680E+04  0.50400001928E-02 0.  1.
    10030    2    1    2    0    0  0.00000000000E+00  0.00000000000E+00  0.30090775719E+03  0.34794698932E+04  0.34664340841E+04 0.  0.
        2    1    3    3  502    0 -0.80704824999E+03  0.97992154187E+03 -0.10340126184E+04  0.16373011943E+04  0.25500000920E-02 0.  1.
       -2    1    3    3    0  502  0.80704824999E+03 -0.97992154187E+03  0.13349203756E+04  0.18421686989E+04  0.25500000920E-02 0. -1.
</event>
<event>
 5   0  0.1999883E-06  0.2394956E+04  0.7818609E-02  0.8441394E-01
        2   -1    0    0  501    0  0.00000000000E+00  0.00000000000E+00  0.83651369751E+03  0.83651369752E+03  0.25500000920E-02 0.  1.
       -2   -1    0    0    0  501  0.00000000000E+00  0.00000000000E+00 -0.17142020862E+04  0.17142020862E+04  0.25500000920E-02 0. -1.
    10030    2    1    2    0    0  0.00000000000E+00  0.00000000000E+00 -0.87768838865E+03  0.25507157837E+04  0.23949559707E+04 0.  0.
        4    1    3    3  502    0 -0.78745654641E+02 -0.21731814371E+03 -0.16902163701E+04  0.17059487227E+04  0.12699999809E+01 0. -1.
       -4    1    3    3    0  502  0.78745654641E+02  0.21731814371E+03  0.81252798149E+03  0.84476706098E+03  0.12699999809E+01 0.  1.
</event>
<event>
 5   0  0.2020725E-06  0.2788165E+04  0.7818609E-02  0.8306952E-01
        2   -1    0    0  501    0  0.00000000000E+00  0.00000000000E+00  0.11005605157E+04  0.11005605157E+04  0.25500000920E-02 0.  1.
       -2   -1    0    0    0  501  0.00000000000E+00  0.00000000000E+00 -0.17658869842E+04  0.17658869842E+04  0.25500000920E-02 0. -1.
    10030    2    1    2    0    0  0.00000000000E+00  0.00000000000E+00 -0.66532646850E+03  0.28664474998E+04  0.27881646220E+04 0.  0.
        3    1    3    3  502    0 -0.15181349199E+03 -0.45014886826E+03  0.10147781255E+04  0.11204713268E+04  0.10100000352E+00 0.  1.
       -3    1    3    3    0  502  0.15181349199E+03  0.45014886826E+03 -0.16801045940E+04  0.17459761731E+04  0.10100000352E+00 0. -1.
</event>
<event>
 5   0  0.7378896E-07  0.3544065E+04  0.7818609E-02  0.8103426E-01
       -1   -1    0    0    0  501  0.00000000000E+00  0.00000000000E+00  0.16608277983E+04  0.16608277983E+04  0.50400001928E-02 0. -1.
        1   -1    0    0  501    0  0.00000000000E+00  0.00000000000E+00 -0.18906832297E+04  0.18906832297E+04  0.50400001928E-02 0.  1.
    10030    2    1    2    0    0  0.00000000000E+00  0.00000000000E+00 -0.22985543140E+03  0.35515110280E+04  0.35440650477E+04 0.  0.
        2    1    3    3  502    0  0.56645847495E+03 -0.60926154843E+03  0.14529758825E+04  0.16742800701E+04  0.25500000920E-02 0. -1.
       -2    1    3    3    0  502 -0.56645847495E+03  0.60926154843E+03 -0.16828313139E+04  0.18772309579E+04  0.25500000920E-02 0.  1.
</event>
<event>
 5   0  0.6630125E-07  0.3506464E+04  0.7818609E-02  0.8112260E-01
       -1   -1    0    0    0  501  0.00000000000E+00  0.00000000000E+00  0.13712305900E+04  0.13712305900E+04  0.50400001928E-02 0. -1.
        1   -1    0    0  501    0  0.00000000000E+00  0.00000000000E+00 -0.22416523021E+04  0.22416523021E+04  0.50400001928E-02 0.  1.
    10030    2    1    2    0    0  0.00000000000E+00  0.00000000000E+00 -0.87042171210E+03  0.36128828921E+04  0.35064638648E+04 0.  0.
        4    1    3    3  502    0  0.13908487885E+04  0.10441403045E+04 -0.66359371397E+03  0.18614638213E+04  0.12699999809E+01 0. -1.
       -4    1    3    3    0  502 -0.13908487885E+04 -0.10441403045E+04 -0.20682799813E+03  0.17514190708E+04  0.12699999809E+01 0.  1.
</event>
<event>
 5   0  0.6890600E-07  0.3533684E+04  0.7818609E-02  0.8105853E-01
        1   -1    0    0  501    0  0.00000000000E+00  0.00000000000E+00  0.23005261955E+04  0.23005261955E+04  0.50400001928E-02 0.  1.
       -1   -1    0    0    0  501  0.00000000000E+00  0.00000000000E+00 -0.13569640080E+04  0.13569640081E+04  0.50400001928E-02 0. -1.
    10030    2    1    2    0    0  0.00000000000E+00  0.00000000000E+00  0.94356218742E+03  0.36574902035E+04  0.35336843361E+04 0.  0.
        3    1    3    3  502    0 -0.43847992014E+03  0.16823636159E+04  0.14591854812E+03  0.17446788270E+04  0.10100000352E+00 0.  1.
       -3    1    3    3    0  502  0.43847992014E+03 -0.16823636159E+04  0.79764363930E+03  0.19128113765E+04  0.10100000352E+00 0. -1.
</event>
<event>
 5   0  0.6890600E-07  0.3496068E+04  0.7818609E-02  0.8114722E-01
       -1   -1    0    0    0  501  0.00000000000E+00  0.00000000000E+00  0.27295670502E+04  0.27295670502E+04  0.50400001928E-02 0. -1.
        1   -1    0    0  501    0  0.00000000000E+00  0.00000000000E+00 -0.11194534103E+04  0.11194534103E+04  0.50400001928E-02 0.  1.
    10030    2    1    2    0    0  0.00000000000E+00  0.00000000000E+00  0.16101136399E+04  0.38490204605E+04  0.34960681589E+04 0.  0.
        3    1    3    3  502    0  0.38905613200E+03  0.85653116395E+03  0.24270966374E+04  0.26030383029E+04  0.10100000352E+00 0. -1.
       -3    1    3    3    0  502 -0.38905613200E+03 -0.85653116395E+03 -0.81698299751E+03  0.12459821576E+04  0.10100000352E+00 0.  1.
</event>
<event>
 5   0  0.2073287E-06  0.3492097E+04  0.7818609E-02  0.8115665E-01
        2   -1    0    0  501    0  0.00000000000E+00  0.00000000000E+00  0.21875792838E+04  0.21875792838E+04  0.25500000920E-02 0. -1.
       -2   -1    0    0    0  501  0.00000000000E+00  0.00000000000E+00 -0.13936341884E+04  0.13936341884E+04  0.25500000920E-02 0.  1.
    10030    2    1    2    0    0  0.00000000000E+00  0.00000000000E+00  0.79394509540E+03  0.35812134721E+04  0.34920969515E+04 0.  0.
        1    1    3    3  502    0 -0.57487946824E+03  0.11646880526E+04 -0.79972591771E+03  0.15253020049E+04  0.50400001928E-02 0.  1.
       -1    1    3    3    0  502  0.57487946824E+03 -0.11646880526E+04  0.15936710131E+04  0.20559114672E+04  0.50400001928E-02 0. -1.
</event>
<event>
 5   0  0.2020725E-06  0.3413172E+04  0.7818609E-02  0.8134681E-01
       -2   -1    0    0    0  501  0.00000000000E+00  0.00000000000E+00  0.10910709261E+04  0.10910709261E+04  0.25500000920E-02 0.  1.
        2   -1    0    0  501    0  0.00000000000E+00  0.00000000000E+00 -0.26693367607E+04  0.26693367607E+04  0.25500000920E-02 0. -1.
    10030    2    1    2    0    0  0.00000000000E+00  0.00000000000E+00 -0.15782658346E+04  0.37604076868E+04  0.34131719743E+04 0.  0.
        3    1    3    3  502    0  0.39834213225E+03 -0.10042374471E+04 -0.22446175578E+04  0.24910795442E+04  0.10100000352E+00 0. -1.
       -3    1    3    3    0  502 -0.39834213225E+03  0.10042374471E+04  0.66635172320E+03  0.12693281426E+04  0.10100000352E+00 0.  1.
</event>
<event>
 5   0  0.2001768E-06  0.3477682E+04  0.7818609E-02  0.8119100E-01
       -2   -1    0    0    0  501  0.00000000000E+00  0.00000000000E+00  0.13839757385E+04  0.13839757385E+04  0.25500000920E-02 0. -1.
        2   -1    0    0  501    0  0.00000000000E+00  0.00000000000E+00 -0.21846970511E+04  0.21846970511E+04  0.25500000920E-02 0.  1.
    10030    2    1    2    0    0  0.00000000000E+00  0.00000000000E+00 -0.80072131262E+03  0.35686727895E+04  0.34776818225E+04 0.  0.
        2    1    3    3  502    0  0.11345202051E+04  0.84349586942E+02 -0.17498024611E+04  0.20871175341E+04  0.25500000920E-02 0.  1.
       -2    1    3    3    0  502 -0.11345202051E+04 -0.84349586942E+02  0.94908114843E+03  0.14815552554E+04  0.25500000920E-02 0. -1.
</event>
<event>
 5   0  0.6630125E-07  0.3138789E+04  0.7818609E-02  0.8205172E-01
       -1   -1    0    0    0  501  0.00000000000E+00  0.00000000000E+00  0.15362594980E+04  0.15362594980E+04  0.50400001928E-02 0. -1.
        1   -1    0    0  501    0  0.00000000000E+00  0.00000000000E+00 -0.16032443529E+04  0.16032443529E+04  0.50400001928E-02 0.  1.
    10030    2    1    2    0    0  0.00000000000E+00  0.00000000000E+00 -0.66984854931E+02  0.31395038509E+04  0.31387891708E+04 0.  0.
        1    1    3    3  502    0 -0.58621478030E+03  0.14152148052E+04 -0.37491843416E+03  0.15770366343E+04  0.50400001928E-02 0.  1.
       -1    1    3    3    0  502  0.58621478030E+03 -0.14152148052E+04  0.30793357922E+03  0.15624672166E+04  0.50400001928E-02 0. -1.
</event>
<event>
 5   0  0.2001768E-06  0.3434243E+04  0.7818609E-02  0.8129553E-01
        2   -1    0    0  501    0  0.00000000000E+00  0.00000000000E+00  0.20012172200E+04  0.20012172200E+04  0.25500000920E-02 0. -1.
       -2   -1    0    0    0  501  0.00000000000E+00  0.00000000000E+00 -0.14733562877E+04  0.14733562877E+04  0.25500000920E-02 0.  1.
    10030    2    1    2    0    0  0.00000000000E+00  0.00000000000E+00  0.52786093230E+03  0.34745735076E+04  0.34342428417E+04 0.  0.
        2    1    3    3  502    0  0.32644803203E+03 -0.15625362781E+04  0.90414763700E+03  0.18345492328E+04  0.25500000920E-02 0.  1.
       -2    1    3    3    0  502 -0.32644803203E+03  0.15625362781E+04 -0.37628670470E+03  0.16400242749E+04  0.25500000920E-02 0. -1.
</event>
<event>
 5   0  0.6630125E-07  0.3483005E+04  0.7818609E-02  0.8117829E-01
       -1   -1    0    0    0  501  0.00000000000E+00  0.00000000000E+00  0.12101446133E+04  0.12101446133E+04  0.50400001928E-02 0. -1.
        1   -1    0    0  501    0  0.00000000000E+00  0.00000000000E+00 -0.25061722537E+04  0.25061722537E+04  0.50400001928E-02 0.  1.
    10030    2    1    2    0    0  0.00000000000E+00  0.00000000000E+00 -0.12960276404E+04  0.37163168670E+04  0.34830049399E+04 0.  0.
        1    1    3    3  502    0  0.60207664526E+02  0.16105233052E+04 -0.13520794089E+04  0.21036941336E+04  0.50400001928E-02 0.  1.
       -1    1    3    3    0  502 -0.60207664526E+02 -0.16105233052E+04  0.56051768523E+02  0.16126227334E+04  0.50400001928E-02 0. -1.
</event>
<event>
 5   0  0.6630125E-07  0.2388623E+04  0.7818609E-02  0.8443775E-01
        1   -1    0    0  501    0  0.00000000000E+00  0.00000000000E+00  0.10663480546E+04  0.10663480546E+04  0.50400001928E-02 0.  1.
       -1   -1    0    0    0  501  0.00000000000E+00  0.00000000000E+00 -0.13376303400E+04  0.13376303400E+04  0.50400001928E-02 0. -1.
    10030    2    1    2    0    0  0.00000000000E+00  0.00000000000E+00 -0.27128228541E+03  0.24039783946E+04  0.23886226247E+04 0.  0.
        5    1    3    3  502    0 -0.99766058880E+02  0.75018698473E+03 -0.10654982953E+04  0.13069209945E+04  0.46999998093E+01 0. -1.
       -5    1    3    3    0  502  0.99766058880E+02 -0.75018698473E+03  0.79421600992E+03  0.10970574000E+04  0.46999998093E+01 0.  1.
</event>
<event>
 5   0  0.1999883E-06  0.3293855E+04  0.7818609E-02  0.8164461E-01
        2   -1    0    0  501    0  0.00000000000E+00  0.00000000000E+00  0.25716745659E+04  0.25716745659E+04  0.25500000920E-02 0.  1.
       -2   -1    0    0    0  501  0.00000000000E+00  0.00000000000E+00 -0.10547096365E+04  0.10547096365E+04  0.25500000920E-02 0. -1.
    10030    2    1    2    0    0  0.00000000000E+00  0.00000000000E+00  0.15169649294E+04  0.36263842024E+04  0.32938548520E+04 0.  0.
        4    1    3    3  502    0 -0.24905351160E+03  0.14118526320E+04 -0.13391079433E+03  0.14398920862E+04  0.12699999809E+01 0. -1.
       -4    1    3    3    0  502  0.24905351160E+03 -0.14118526320E+04  0.16508757238E+04  0.21864921162E+04  0.12699999809E+01 0.  1.
</event>
<event>
 5   0  0.6890600E-07  0.3495542E+04  0.7818609E-02  0.8114847E-01
        1   -1    0    0  501    0  0.00000000000E+00  0.00000000000E+00  0.21616426346E+04  0.21616426346E+04  0.50400001928E-02 0. -1.
       -1   -1    0    0    0  501  0.00000000000E+00  0.00000000000E+00 -0.14131396959E+04  0.14131396960E+04  0.50400001928E-02 0.  1.
    10030    2    1    2    0    0  0.00000000000E+00  0.00000000000E+00  0.74850293863E+03  0.35747823305E+04  0.34955417408E+04 0.  0.
        3    1    3    3  502    0 -0.94925870098E+03  0.71184794193E+03 -0.93814949348E+03  0.15125951395E+04  0.10100000352E+00 0.  1.
       -3    1    3    3    0  502  0.94925870098E+03 -0.71184794193E+03  0.16866524321E+04  0.20621871910E+04  0.10100000352E+00 0. -1.
</event>
<event>
 5   0  0.6630125E-07  0.3437272E+04  0.7818609E-02  0.8128819E-01
       -3   -1    0    0    0  501  0.00000000000E+00  0.00000000000E+00  0.14124027728E+04  0.14124027764E+04  0.10100000352E+00 0.  1.
        3   -1    0    0  501    0  0.00000000000E+00  0.00000000000E+00 -0.20912661263E+04  0.20912661287E+04  0.10100000352E+00 0. -1.
    10030    2    1    2    0    0  0.00000000000E+00  0.00000000000E+00 -0.67886335347E+03  0.35036689051E+04  0.34372722243E+04 0.  0.
        4    1    3    3  502    0 -0.10229442446E+04 -0.48670096441E+03 -0.16568430669E+04  0.20070932508E+04  0.12699999809E+01 0. -1.
       -4    1    3    3    0  502  0.10229442446E+04  0.48670096441E+03  0.97797971341E+03  0.14965756543E+04  0.12699999809E+01 0.  1.
</event>
<event>
 5   0  0.6630125E-07  0.3457255E+04  0.7818609E-02  0.8123995E-01
       -1   -1    0    0    0  501  0.00000000000E+00  0.00000000000E+00  0.14175781952E+04  0.14175781952E+04  0.50400001928E-02 0. -1.
        1   -1    0    0  501    0  0.00000000000E+00  0.00000000000E+00 -0.21079276709E+04  0.21079276709E+04  0.50400001928E-02 0.  1.
    10030    2    1    2    0    0  0.00000000000E+00  0.00000000000E+00 -0.69034947568E+03  0.35255058661E+04  0.34572545775E+04 0.  0.
        1    1    3    3  502    0 -0.29062236185E+03  0.53135133591E+03 -0.19961978101E+04  0.20860492076E+04  0.50400001928E-02 0.  1.
       -1    1    3    3    0  502  0.29062236185E+03 -0.53135133591E+03  0.13058483344E+04  0.14394566586E+04  0.50400001928E-02 0. -1.
</event>
<event>
 5   0  0.7378896E-07  0.3438115E+04  0.7818609E-02  0.8128615E-01
       -1   -1    0    0    0  501  0.00000000000E+00  0.00000000000E+00  0.15337893702E+04  0.15337893702E+04  0.50400001928E-02 0. -1.
        1   -1    0    0  501    0  0.00000000000E+00  0.00000000000E+00 -0.19267040743E+04  0.19267040743E+04  0.50400001928E-02 0.  1.
    10030    2    1    2    0    0  0.00000000000E+00  0.00000000000E+00 -0.39291470412E+03  0.34604934446E+04  0.34381147327E+04 0.  0.
        2    1    3    3  502    0  0.15952876499E+04  0.57212548538E+03  0.93319321272E+02  0.16973446181E+04  0.25500000920E-02 0. -1.
       -2    1    3    3    0  502 -0.15952876499E+04 -0.57212548538E+03 -0.48623402539E+03  0.17631488265E+04  0.25500000920E-02 0.  1.
</event>
<event>
 5   0  0.6630125E-07  0.2547699E+04  0.7818609E-02  0.8386187E-01
       -1   -1    0    0    0  501  0.00000000000E+00  0.00000000000E+00  0.13348097737E+04  0.13348097737E+04  0.50400001928E-02 0. -1.
        1   -1    0    0  501    0  0.00000000000E+00  0.00000000000E+00 -0.12156732423E+04  0.12156732423E+04  0.50400001928E-02 0.  1.
    10030    2    1    2    0    0  0.00000000000E+00  0.00000000000E+00  0.11913653139E+03  0.25504830161E+04  0.25476989818E+04 0.  0.
        4    1    3    3  502    0 -0.77090975251E+03  0.92051196834E+03  0.48552915747E+03  0.12951387208E+04  0.12699999809E+01 0. -1.
       -4    1    3    3    0  502  0.77090975251E+03 -0.92051196834E+03 -0.36639262608E+03  0.12553442953E+04  0.12699999809E+01 0.  1.
</event>
<event>
 5   0  0.6630125E-07  0.3511783E+04  0.7818609E-02  0.8111003E-01
        1   -1    0    0  501    0  0.00000000000E+00  0.00000000000E+00  0.14236210610E+04  0.14236210610E+04  0.50400001928E-02 0. -1.
       -1   -1    0    0    0  501  0.00000000000E+00  0.00000000000E+00 -0.21657129715E+04  0.21657129715E+04  0.50400001928E-02 0.  1.
    10030    2    1    2    0    0  0.00000000000E+00  0.00000000000E+00 -0.74209191050E+03  0.35893340326E+04  0.35117827942E+04 0.  0.
        5    1    3    3  502    0  0.29273127176E+02  0.44411583553E+03  0.13650027386E+04  0.14357403518E+04  0.46999998093E+01 0. -1.
       -5    1    3    3    0  502 -0.29273127176E+02 -0.44411583553E+03 -0.21070946491E+04  0.21535936808E+04  0.46999998093E+01 0.  1.
</event>
<event>
 5   0  0.2073287E-06  0.2629975E+04  0.7818609E-02  0.8358090E-01
       -2   -1    0    0    0  501  0.00000000000E+00  0.00000000000E+00  0.99255351886E+03  0.99255351886E+03  0.25500000920E-02 0. -1.
        2   -1    0    0  501    0  0.00000000000E+00  0.00000000000E+00 -0.17421651277E+04  0.17421651277E+04  0.25500000920E-02 0.  1.
    10030    2    1    2    0    0  0.00000000000E+00  0.00000000000E+00 -0.74961160888E+03  0.27347186466E+04  0.26299750021E+04 0.  0.
        1    1    3    3  502    0  0.27308163257E+02  0.10592903226E+04  0.43489182391E+03  0.11454137339E+04  0.50400001928E-02 0. -1.
       -1    1    3    3    0  502 -0.27308163257E+02 -0.10592903226E+04 -0.11845034328E+04  0.15893049127E+04  0.50400001928E-02 0.  1.
</event>
<event>
 5   0  0.7378896E-07  0.3307407E+04  0.7818609E-02  0.8161013E-01
       -1   -1    0    0    0  501  0.00000000000E+00  0.00000000000E+00  0.18899350230E+04  0.18899350230E+04  0.50400001928E-02 0.  1.
        1   -1    0    0  501    0  0.00000000000E+00  0.00000000000E+00 -0.14469995925E+04  0.14469995925E+04  0.50400001928E-02 0. -1.
    10030    2    1    2    0    0  0.00000000000E+00  0.00000000000E+00  0.44293543052E+03  0.33369346156E+04  0.33074069651E+04 0.  0.
        2    1    3    3  502    0 -0.15761930797E+04 -0.44686921204E+03 -0.56161014478E+01  0.16383248328E+04  0.25500000920E-02 0.  1.
       -2    1    3    3    0  502  0.15761930797E+04  0.44686921204E+03  0.44855153197E+03  0.16986097828E+04  0.25500000920E-02 0. -1.
</event>
<event>
 5   0  0.2020725E-06  0.3505503E+04  0.7818609E-02  0.8112487E-01
        2   -1    0    0  501    0  0.00000000000E+00  0.00000000000E+00  0.22499828665E+04  0.22499828665E+04  0.25500000920E-02 0. -1.
       -2   -1    0    0    0  501  0.00000000000E+00  0.00000000000E+00 -0.13654048297E+04  0.13654048298E+04  0.25500000920E-02 0.  1.
    10030    2    1    2    0    0  0.00000000000E+00  0.00000000000E+00  0.88457803673E+03  0.36153876962E+04  0.35055028015E+04 0.  0.
        3    1    3    3  502    0 -0.83811935701E+03  0.48965008494E+03  0.19474669929E+04  0.21759662132E+04  0.10100000352E+00 0. -1.
       -3    1    3    3    0  502  0.83811935701E+03 -0.48965008494E+03 -0.10628889562E+04  0.14394214830E+04  0.10100000352E+00 0.  1.
</event>
<event>
 5   0  0.6630125E-07  0.3538332E+04  0.7818609E-02  0.8104765E-01
        1   -1    0    0  501    0  0.00000000000E+00  0.00000000000E+00  0.17031312024E+04  0.17031312024E+04  0.50400001928E-02 0.  1.
       -1   -1    0    0    0  501  0.00000000000E+00  0.00000000000E+00 -0.18377609259E+04  0.18377609259E+04  0.50400001928E-02 0. -1.
    10030    2    1    2    0    0  0.00000000000E+00  0.00000000000E+00 -0.13462972347E+03  0.35408921282E+04  0.35383317964E+04 0.  0.
        4    1    3    3  502    0 -0.10611518087E+03  0.86733420472E+03  0.14721146493E+04  0.17119147783E+04  0.12699999809E+01 0.  1.
       -4    1    3    3    0  502  0.10611518087E+03 -0.86733420472E+03 -0.16067443728E+04  0.18289773500E+04  0.12699999809E+01 0. -1.
</event>
<event>
 5   0  0.2073287E-06  0.3403464E+04  0.7818609E-02  0.8137057E-01
       -2   -1    0    0    0  501  0.00000000000E+00  0.00000000000E+00  0.12194119987E+04  0.12194119987E+04  0.25500000920E-02 0. -1.
        2   -1    0    0  501    0  0.00000000000E+00  0.00000000000E+00 -0.23748267022E+04  0.23748267022E+04  0.25500000920E-02 0.  1.
    10030    2    1    2    0    0  0.00000000000E+00  0.00000000000E+00 -0.11554147035E+04  0.35942387009E+04  0.34034642208E+04 0.  0.
        1    1    3    3  502    0  0.69125415954E+02 -0.61014203716E+03 -0.22537538561E+04  0.23359062636E+04  0.50400001928E-02 0.  1.
       -1    1    3    3    0  502 -0.69125415954E+02  0.61014203716E+03  0.10983391526E+04  0.12583324373E+04  0.50400001928E-02 0. -1.
</event>
<event>
 5   0  0.6890600E-07  0.3188429E+04  0.7818609E-02  0.8191880E-01
       -1   -1    0    0    0  501  0.00000000000E+00  0.00000000000E+00  0.15513317644E+04  0.15513317644E+04  0.50400001928E-02 0. -1.
        1   -1    0    0  501    0  0.00000000000E+00  0.00000000000E+00 -0.16382822715E+04  0.16382822715E+04  0.50400001928E-02 0.  1.
    10030    2    1    2    0    0  0.00000000000E+00  0.00000000000E+00 -0.86950507073E+02  0.31896140359E+04  0.31884286580E+04 0.  0.
        3    1    3    3  502    0  0.41396376118E+02 -0.55324815023E+03 -0.15385950927E+04  0.16355647481E+04  0.10100000352E+00 0.  1.
       -3    1    3    3    0  502 -0.41396376118E+02  0.55324815023E+03  0.14516445856E+04  0.15540492878E+04  0.10100000352E+00 0. -1.
</event>
<event>
 5   0  0.1999883E-06  0.3518312E+04  0.7818609E-02  0.8109464E-01
        2   -1    0    0  501    0  0.00000000000E+00  0.00000000000E+00  0.27438283617E+04  0.27438283617E+04  0.25500000920E-02 0.  1.
       -2   -1    0    0    0  501  0.00000000000E+00  0.00000000000E+00 -0.11278513481E+04  0.11278513481E+04  0.25500000920E-02 0. -1.
    10030    2    1    2    0    0  0.00000000000E+00  0.00000000000E+00  0.16159770136E+04  0.38716797097E+04  0.35183123890E+04 0.  0.
        4    1    3    3  502    0 -0.68416794404E+03  0.83639367717E+03  0.23355707939E+04  0.25734282009E+04  0.12699999809E+01 0.  1.
       -4    1    3    3    0  502  0.68416794404E+03 -0.83639367717E+03 -0.71959378026E+03  0.12982515089E+04  0.12699999809E+01 0. -1.
</event>
<event>
 5   0  0.2001768E-06  0.3528406E+04  0.7818609E-02  0.8107091E-01
       -2   -1    0    0    0  501  0.00000000000E+00  0.00000000000E+00  0.24116361048E+04  0.24116361048E+04  0.25500000920E-02 0. -1.
        2   -1    0    0  501    0  0.00000000000E+00  0.00000000000E+00 -0.12905814253E+04  0.12905814253E+04  0.25500000920E-02 0.  1.
    10030    2    1    2    0    0  0.00000000000E+00  0.00000000000E+00  0.11210546796E+04  0.37022175301E+04  0.35284063039E+04 0.  0.
        2    1    3    3  502    0  0.49139086246E+03 -0.14034534831E+03 -0.12112170497E+04  0.13146134558E+04  0.25500000920E-02 0.  1.
       -2    1    3    3    0  502 -0.49139086246E+03  0.14034534831E+03  0.23322717293E+04  0.23876040743E+04  0.25500000920E-02 0. -1.
</event>
<event>
 5   0  0.2023479E-06  0.3612626E+04  0.7818609E-02  0.8087606E-01
       -2   -1    0    0    0  501  0.00000000000E+00  0.00000000000E+00  0.11534925504E+04  0.11534925504E+04  0.25500000920E-02 0.  1.
        2   -1    0    0  501    0  0.00000000000E+00  0.00000000000E+00 -0.28285976525E+04  0.28285976525E+04  0.25500000920E-02 0. -1.
    10030    2    1    2    0    0  0.00000000000E+00  0.00000000000E+00 -0.16751051021E+04  0.39820902030E+04  0.36126258153E+04 0.  0.
        5    1    3    3  502    0 -0.17822921884E+04  0.12816295599E+03 -0.54643412819E+03  0.18685832961E+04  0.46999998093E+01 0.  1.
       -5    1    3    3    0  502  0.17822921884E+04 -0.12816295599E+03 -0.11286709739E+04  0.21135069069E+04  0.46999998093E+01 0. -1.
</event>
<event>
 5   0  0.2001768E-06  0.3486695E+04  0.7818609E-02  0.8116950E-01
       -2   -1    0    0    0  501  0.00000000000E+00  0.00000000000E+00  0.16226443742E+04  0.16226443742E+04  0.25500000920E-02 0. -1.
        2   -1    0    0  501    0  0.00000000000E+00  0.00000000000E+00 -0.18730293105E+04  0.18730293105E+04  0.25500000920E-02 0.  1.
    10030    2    1    2    0    0  0.00000000000E+00  0.00000000000E+00 -0.25038493627E+03  0.34956736847E+04  0.34866949815E+04 0.  0.
        2    1    3    3  502    0  0.11041300771E+04  0.81930672758E+03  0.94943233127E+03  0.16708645943E+04  0.25500000920E-02 0. -1.
       -2    1    3    3    0  502 -0.11041300771E+04 -0.81930672758E+03 -0.11998172675E+04  0.18248090904E+04  0.25500000920E-02 0.  1.
</event>
<event>
 5   0  0.2020725E-06  0.3506325E+04  0.7818609E-02  0.8112293E-01
        2   -1    0    0  501    0  0.00000000000E+00  0.00000000000E+00  0.24869011297E+04  0.24869011297E+04  0.25500000920E-02 0. -1.
       -2   -1    0    0    0  501  0.00000000000E+00  0.00000000000E+00 -0.12359071518E+04  0.12359071518E+04  0.25500000920E-02 0.  1.
    10030    2    1    2    0    0  0.00000000000E+00  0.00000000000E+00  0.12509939779E+04  0.37228082816E+04  0.35063250803E+04 0.  0.
        3    1    3    3  502    0 -0.13608721547E+04  0.44472143698E+03 -0.44881925837E+03  0.15003962526E+04  0.10100000352E+00 0.  1.
       -3    1    3    3    0  502  0.13608721547E+04 -0.44472143698E+03  0.16998132363E+04  0.22224120289E+04  0.10100000352E+00 0. -1.
</event>
<event>
 5   0  0.2020725E-06  0.2713361E+04  0.7818609E-02  0.8330683E-01
        2   -1    0    0  501    0  0.00000000000E+00  0.00000000000E+00  0.16433027873E+04  0.16433027873E+04  0.25500000920E-02 0.  1.
       -2   -1    0    0    0  501  0.00000000000E+00  0.00000000000E+00 -0.11200502519E+04  0.11200502519E+04  0.25500000920E-02 0. -1.
    10030    2    1    2    0    0  0.00000000000E+00  0.00000000000E+00  0.52325253534E+03  0.27633530392E+04  0.27133607949E+04 0.  0.
        3    1    3    3  502    0 -0.43212082917E+03 -0.10789569076E+04  0.97430896762E+03  0.15166259902E+04  0.10100000352E+00 0.  1.
       -3    1    3    3    0  502  0.43212082917E+03  0.10789569076E+04 -0.45105643227E+03  0.12467270490E+04  0.10100000352E+00 0. -1.
</event>
<event>
 5   0  0.2001768E-06  0.3501890E+04  0.7818609E-02  0.8113342E-01
       -2   -1    0    0    0  501  0.00000000000E+00  0.00000000000E+00  0.13265301435E+04  0.13265301435E+04  0.25500000920E-02 0. -1.
        2   -1    0    0  501    0  0.00000000000E+00  0.00000000000E+00 -0.23111484373E+04  0.23111484373E+04  0.25500000920E-02 0.  1.
    10030    2    1    2    0    0  0.00000000000E+00  0.00000000000E+00 -0.98461829380E+03  0.36376785808E+04  0.35018898145E+04 0.  0.
        2    1    3    3  502    0  0.99943111978E+03  0.20614930754E+03  0.98569330790E+03  0.14187851837E+04  0.25500000920E-02 0. -1.
       -2    1    3    3    0  502 -0.99943111978E+03 -0.20614930754E+03 -0.19703116017E+04  0.22188933972E+04  0.25500000920E-02 0.  1.
</event>
<event>
 5   0  0.6630125E-07  0.2292985E+04  0.7818609E-02  0.8480692E-01
       -3   -1    0    0    0  501  0.00000000000E+00  0.00000000000E+00  0.87928280360E+03  0.87928280940E+03  0.10100000352E+00 0. -1.
        3   -1    0    0  501    0  0.00000000000E+00  0.00000000000E+00 -0.14949054419E+04  0.14949054453E+04  0.10100000352E+00 0.  1.
    10030    2    1    2    0    0  0.00000000000E+00  0.00000000000E+00 -0.61562263830E+03  0.23741882547E+04  0.22929846567E+04 0.  0.
        3    1    3    3  502    0 -0.76865008615E+03  0.52447095974E+03  0.38564699078E+03  0.10072816658E+04  0.10100000352E+00 0. -1.
       -3    1    3    3    0  502  0.76865008615E+03 -0.52447095974E+03 -0.10012696291E+04  0.13669065889E+04  0.10100000352E+00 0.  1.
</event>
<event>
 5   0  0.2023479E-06  0.3507420E+04  0.7818609E-02  0.8112034E-01
       -2   -1    0    0    0  501  0.00000000000E+00  0.00000000000E+00  0.23139896672E+04  0.23139896672E+04  0.25500000920E-02 0. -1.
        2   -1    0    0  501    0  0.00000000000E+00  0.00000000000E+00 -0.13290893937E+04  0.13290893937E+04  0.25500000920E-02 0.  1.
    10030    2    1    2    0    0  0.00000000000E+00  0.00000000000E+00  0.98490027345E+03  0.36430790609E+04  0.35074202051E+04 0.  0.
        5    1    3    3  502    0  0.13334996271E+04  0.82793745735E+03  0.13048629831E+04  0.20411739719E+04  0.46999998093E+01 0. -1.
       -5    1    3    3    0  502 -0.13334996271E+04 -0.82793745735E+03 -0.31996270962E+03  0.16019050891E+04  0.46999998093E+01 0.  1.
</event>
<event>
 5   0  0.2020725E-06  0.3429103E+04  0.7818609E-02  0.8130800E-01
        2   -1    0    0  501    0  0.00000000000E+00  0.00000000000E+00  0.18680441907E+04  0.18680441907E+04  0.25500000920E-02 0.  1.
       -2   -1    0    0    0  501  0.00000000000E+00  0.00000000000E+00 -0.15736706292E+04  0.15736706292E+04  0.25500000920E-02 0. -1.
    10030    2    1    2    0    0  0.00000000000E+00  0.00000000000E+00  0.29437356150E+03  0.34417148198E+04  0.34291026680E+04 0.  0.
        3    1    3    3  502    0 -0.11262818731E+04 -0.20191779437E+03  0.14287560693E+04  0.18304714063E+04  0.10100000352E+00 0.  1.
       -3    1    3    3    0  502  0.11262818731E+04  0.20191779437E+03 -0.11343825078E+04  0.16112434135E+04  0.10100000352E+00 0. -1.
</event>
<event>
 5   0  0.6630125E-07  0.3076777E+04  0.7818609E-02  0.8222140E-01
       -1   -1    0    0    0  501  0.00000000000E+00  0.00000000000E+00  0.14450345876E+04  0.14450345876E+04  0.50400001928E-02 0.  1.
        1   -1    0    0  501    0  0.00000000000E+00  0.00000000000E+00 -0.16377735473E+04  0.16377735473E+04  0.50400001928E-02 0. -1.
    10030    2    1    2    0    0  0.00000000000E+00  0.00000000000E+00 -0.19273895967E+03  0.30828081349E+04  0.30767771596E+04 0.  0.
        4    1    3    3  502    0 -0.38314845216E+03  0.13258256302E+04  0.58468449647E+03  0.14988241763E+04  0.12699999809E+01 0.  1.
       -4    1    3    3    0  502  0.38314845216E+03 -0.13258256302E+04 -0.77742345614E+03  0.15839839586E+04  0.12699999809E+01 0. -1.
</event>
<event>
 5   0  0.2073287E-06  0.3479206E+04  0.7818609E-02  0.8118736E-01
        2   -1    0    0  501    0  0.00000000000E+00  0.00000000000E+00  0.21893965836E+04  0.21893965836E+04  0.25500000920E-02 0. -1.
       -2   -1    0    0    0  501  0.00000000000E+00  0.00000000000E+00 -0.13822156107E+04  0.13822156107E+04  0.25500000920E-02 0.  1.
    10030    2    1    2    0    0  0.00000000000E+00  0.00000000000E+00  0.80718097289E+03  0.35716121943E+04  0.34792057346E+04 0.  0.
        1    1    3    3  502    0  0.11611366551E+04 -0.80056714771E+03 -0.64182432930E+03  0.15495433390E+04  0.50400001928E-02 0.  1.
       -1    1    3    3    0  502 -0.11611366551E+04  0.80056714771E+03  0.14490053022E+04  0.20220688553E+04  0.50400001928E-02 0. -1.
</event>
<event>
 5   0  0.2001768E-06  0.3511337E+04  0.7818609E-02  0.8111108E-01
        2   -1    0    0  501    0  0.00000000000E+00  0.00000000000E+00  0.18381054048E+04  0.18381054048E+04  0.25500000920E-02 0.  1.
       -2   -1    0    0    0  501  0.00000000000E+00  0.00000000000E+00 -0.16769288683E+04  0.16769288683E+04  0.25500000920E-02 0. -1.
    10030    2    1    2    0    0  0.00000000000E+00  0.00000000000E+00  0.16117653653E+03  0.35150342731E+04  0.35113370766E+04 0.  0.
        2    1    3    3  502    0 -0.16407677784E+03 -0.31352461965E+03  0.18020364309E+04  0.18364515170E+04  0.25500000920E-02 0.  1.
       -2    1    3    3    0  502  0.16407677784E+03  0.31352461965E+03 -0.16408598944E+04  0.16785827561E+04  0.25500000920E-02 0. -1.
</event>
<event>
 5   0  0.7378896E-07  0.3537340E+04  0.7818609E-02  0.8104997E-01
        1   -1    0    0  501    0  0.00000000000E+00  0.00000000000E+00  0.14248951137E+04  0.14248951138E+04  0.50400001928E-02 0.  1.
       -1   -1    0    0    0  501  0.00000000000E+00  0.00000000000E+00 -0.21953851991E+04  0.21953851991E+04  0.50400001928E-02 0. -1.
    10030    2    1    2    0    0  0.00000000000E+00  0.00000000000E+00 -0.77049008531E+03  0.36202803128E+04  0.35373400419E+04 0.  0.
        2    1    3    3  502    0 -0.74132243987E+02 -0.16357530351E+04  0.29901950211E+03  0.16645108123E+04  0.25500000920E-02 0.  1.
       -2    1    3    3    0  502  0.74132243987E+02  0.16357530351E+04 -0.10695095874E+04  0.19557695005E+04  0.25500000920E-02 0. -1.
</event>
<event>
 5   0  0.2023479E-06  0.2497985E+04  0.7818609E-02  0.8403704E-01
       -2   -1    0    0    0  501  0.00000000000E+00  0.00000000000E+00  0.14549015884E+04  0.14549015884E+04  0.25500000920E-02 0. -1.
        2   -1    0    0  501    0  0.00000000000E+00  0.00000000000E+00 -0.10722254681E+04  0.10722254681E+04  0.25500000920E-02 0.  1.
    10030    2    1    2    0    0  0.00000000000E+00  0.00000000000E+00  0.38267612036E+03  0.25271270565E+04  0.24979852175E+04 0.  0.
        5    1    3    3  502    0  0.58727761993E+03  0.63152377175E+03  0.11053397392E+04  0.14019683685E+04  0.46999998093E+01 0. -1.
       -5    1    3    3    0  502 -0.58727761993E+03 -0.63152377175E+03 -0.72266361889E+03  0.11251586880E+04  0.46999998093E+01 0.  1.
</event>
<event>
 5   0  0.6890600E-07  0.3408481E+04  0.7818609E-02  0.8135828E-01
       -1   -1    0    0    0  501  0.00000000000E+00  0.00000000000E+00  0.16277106097E+04  0.16277106097E+04  0.50400001928E-02 0.  1.
        1   -1    0    0  501    0  0.00000000000E+00  0.00000000000E+00 -0.17843691012E+04  0.17843691012E+04  0.50400001928E-02 0. -1.
    10030    2    1    2    0    0  0.00000000000E+00  0.00000000000E+00 -0.15665849150E+03  0.34120797109E+04  0.34084814904E+04 0.  0.
        3    1    3    3  502    0  0.75535733055E+03 -0.21134725472E+02  0.14508386237E+04  0.16358313164E+04  0.10100000352E+00 0.  1.
       -3    1    3    3    0  502 -0.75535733055E+03  0.21134725472E+02 -0.16074971152E+04  0.17762483945E+04  0.10100000352E+00 0. -1.
</event>
<event>
 5   0  0.6890600E-07  0.2183265E+04  0.7818609E-02  0.8525426E-01
       -1   -1    0    0    0  501  0.00000000000E+00  0.00000000000E+00  0.10144031915E+04  0.10144031916E+04  0.50400001928E-02 0.  1.
        1   -1    0    0  501    0  0.00000000000E+00  0.00000000000E+00 -0.11747411873E+04  0.11747411873E+04  0.50400001928E-02 0. -1.
    10030    2    1    2    0    0  0.00000000000E+00  0.00000000000E+00 -0.16033799573E+03  0.21891443788E+04  0.21832647202E+04 0.  0.
        3    1    3    3  502    0  0.73411797991E+02 -0.97278890363E+03  0.41100084530E+03  0.10585977745E+04  0.10100000352E+00 0.  1.
       -3    1    3    3    0  502 -0.73411797991E+02  0.97278890363E+03 -0.57133884103E+03  0.11305466043E+04  0.10100000352E+00 0. -1.
</event>
<event>
 5   0  0.6630125E-07  0.2240773E+04  0.7818609E-02  0.8501646E-01
        1   -1    0    0  501    0  0.00000000000E+00  0.00000000000E+00  0.99850774566E+03  0.99850774568E+03  0.50400001928E-02 0. -1.
       -1   -1    0    0    0  501  0.00000000000E+00  0.00000000000E+00 -0.12571421654E+04  0.12571421654E+04  0.50400001928E-02 0.  1.
    10030    2    1    2    0    0  0.00000000000E+00  0.00000000000E+00 -0.25863441969E+03  0.22556499110E+04  0.22407732500E+04 0.  0.
        4    1    3    3  502    0 -0.10136145191E+04 -0.47291764933E+02  0.34882434747E+03  0.10730009052E+04  0.12699999809E+01 0. -1.
       -4    1    3    3    0  502  0.10136145191E+04  0.47291764933E+02 -0.60745876716E+03  0.11826490058E+04  0.12699999809E+01 0.  1.
</event>
<event>
 5   0  0.1999883E-06  0.3232826E+04  0.7818609E-02  0.8180201E-01
       -2   -1    0    0    0  501  0.00000000000E+00  0.00000000000E+00  0.12662022686E+04  0.12662022686E+04  0.25500000920E-02 0.  1.
        2   -1    0    0  501    0  0.00000000000E+00  0.00000000000E+00 -0.20634863823E+04  0.20634863823E+04  0.25500000920E-02 0. -1.
    10030    2    1    2    0    0  0.00000000000E+00  0.00000000000E+00 -0.79728411370E+03  0.33296886509E+04  0.32328260940E+04 0.  0.
        4    1    3    3  502    0 -0.88396311171E+03 -0.13065514790E+04 -0.35484375905E+02  0.15778872913E+04  0.12699999809E+01 0.  1.
       -4    1    3    3    0  502  0.88396311171E+03  0.13065514790E+04 -0.76179973779E+03  0.17518013596E+04  0.12699999809E+01 0. -1.
</event>
<event>
 5   0  0.2001768E-06  0.2849654E+04  0.7818609E-02  0.8288016E-01
       -2   -1    0    0    0  501  0.00000000000E+00  0.00000000000E+00  0.14799182690E+04  0.14799182690E+04  0.25500000920E-02 0.  1.
        2   -1    0    0  501    0  0.00000000000E+00  0.00000000000E+00 -0.13717869294E+04  0.13717869294E+04  0.25500000920E-02 0. -1.
    10030    2    1    2    0    0  0.00000000000E+00  0.00000000000E+00  0.10813133953E+03  0.28517051984E+04  0.28496543917E+04 0.  0.
        2    1    3    3  502    0  0.41949462597E+02  0.13702329849E+04  0.44271914929E+03  0.14405896139E+04  0.25500000920E-02 0.  1.
       -2    1    3    3    0  502 -0.41949462597E+02 -0.13702329849E+04 -0.33458780976E+03  0.14111155845E+04  0.25500000920E-02 0. -1.
</event>
<event>
 5   0  0.1999883E-06  0.3334912E+04  0.7818609E-02  0.8154068E-01
        2   -1    0    0  501    0  0.00000000000E+00  0.00000000000E+00  0.21772466125E+04  0.21772466125E+04  0.25500000920E-02 0.  1.
       -2   -1    0    0    0  501  0.00000000000E+00  0.00000000000E+00 -0.12770301903E+04  0.12770301903E+04  0.25500000920E-02 0. -1.
    10030    2    1    2    0    0  0.00000000000E+00  0.00000000000E+00  0.90021642218E+03  0.34542768028E+04  0.33349120864E+04 0.  0.
        4    1    3    3  502    0 -0.58680394268E+02 -0.83903130527E+03  0.19414303586E+04  0.21157907199E+04  0.12699999809E+01 0.  1.
       -4    1    3    3    0  502  0.58680394268E+02  0.83903130527E+03 -0.10412139365E+04  0.13384860830E+04  0.12699999809E+01 0. -1.
</event>
<event>
 5   0  0.2073287E-06  0.3387263E+04  0.7818609E-02  0.8141039E-01
        2   -1    0    0  501    0  0.00000000000E+00  0.00000000000E+00  0.21883960477E+04  0.21883960477E+04  0.25500000920E-02 0. -1.
       -2   -1    0    0    0  501  0.00000000000E+00  0.00000000000E+00 -0.13107260156E+04  0.13107260156E+04  0.25500000920E-02 0.  1.
    10030    2    1    2    0    0  0.00000000000E+00  0.00000000000E+00  0.87767003212E+03  0.34991220632E+04  0.33872629848E+04 0.  0.
        1    1    3    3  502    0 -0.86408979198E+03 -0.12706456519E+04 -0.29686052725E+03  0.15650296208E+04  0.50400001928E-02 0.  1.
       -1    1    3    3    0  502  0.86408979198E+03  0.12706456519E+04  0.11745305594E+04  0.19340924425E+04  0.50400001928E-02 0. -1.
</event>
<event>
 5   0  0.2020725E-06  0.3483258E+04  0.7818609E-02  0.8117769E-01
        2   -1    0    0  501    0  0.00000000000E+00  0.00000000000E+00  0.23703712837E+04  0.23703712837E+04  0.25500000920E-02 0. -1.
       -2   -1    0    0    0  501  0.00000000000E+00  0.00000000000E+00 -0.12796607091E+04  0.12796607091E+04  0.25500000920E-02 0.  1.
    10030    2    1    2    0    0  0.00000000000E+00  0.00000000000E+00  0.10907105747E+04  0.36500319928E+04  0.34832576693E+04 0.  0.
        3    1    3    3  502    0 -0.25022444405E+03  0.11870069572E+04  0.18548572317E+04  0.22163242428E+04  0.10100000352E+00 0. -1.
       -3    1    3    3    0  502  0.25022444405E+03 -0.11870069572E+04 -0.76414665705E+03  0.14337077500E+04  0.10100000352E+00 0.  1.
</event>
<event>
 5   0  0.6630125E-07  0.3497364E+04  0.7818609E-02  0.8114415E-01
       -1   -1    0    0    0  501  0.00000000000E+00  0.00000000000E+00  0.29263275061E+04  0.29263275061E+04  0.50400001928E-02 0.  1.
        1   -1    0    0  501    0  0.00000000000E+00  0.00000000000E+00 -0.10449578256E+04  0.10449578256E+04  0.50400001928E-02 0. -1.
    10030    2    1    2    0    0  0.00000000000E+00  0.00000000000E+00  0.18813696806E+04  0.39712853317E+04  0.34973640518E+04 0.  0.
        1    1    3    3  502    0  0.20063516991E+02  0.87873549374E+03  0.26572600266E+04  0.27988585998E+04  0.50400001928E-02 0.  1.
       -1    1    3    3    0  502 -0.20063516991E+02 -0.87873549374E+03 -0.77589034602E+03  0.11724267319E+04  0.50400001928E-02 0. -1.
</event>
<event>
 5   0  0.2001768E-06  0.3498375E+04  0.7818609E-02  0.8114175E-01
        2   -1    0    0  501    0  0.00000000000E+00  0.00000000000E+00  0.10876415042E+04  0.10876415042E+04  0.25500000920E-02 0. -1.
       -2   -1    0    0    0  501  0.00000000000E+00  0.00000000000E+00 -0.28131111143E+04  0.28131111143E+04  0.25500000920E-02 0.  1.
    10030    2    1    2    0    0  0.00000000000E+00  0.00000000000E+00 -0.17254696101E+04  0.39007526185E+04  0.34983747106E+04 0.  0.
        2    1    3    3  502    0 -0.11051297613E+04 -0.71176086405E+03  0.42400869546E+03  0.13811946607E+04  0.25500000920E-02 0. -1.
       -2    1    3    3    0  502  0.11051297613E+04  0.71176086405E+03 -0.21494783055E+04  0.25195579578E+04  0.25500000920E-02 0.  1.
</event>
<event>
 5   0  0.7378896E-07  0.3492316E+04  0.7818609E-02  0.8115613E-01
       -1   -1    0    0    0  501  0.00000000000E+00  0.00000000000E+00  0.10858947187E+04  0.10858947187E+04  0.50400001928E-02 0. -1.
        1   -1    0    0  501    0  0.00000000000E+00  0.00000000000E+00 -0.28078845717E+04  0.28078845717E+04  0.50400001928E-02 0.  1.
    10030    2    1    2    0    0  0.00000000000E+00  0.00000000000E+00 -0.17219898530E+04  0.38937792904E+04  0.34923155798E+04 0.  0.
        2    1    3    3  502    0 -0.99205759351E+02 -0.17358019181E+04 -0.10415247241E+04  0.20267273701E+04  0.25500000920E-02 0. -1.
       -2    1    3    3    0  502  0.99205759351E+02  0.17358019181E+04 -0.68046512891E+03  0.18670519204E+04  0.25500000920E-02 0.  1.
</event>
<event>
 5   0  0.2001768E-06  0.2278971E+04  0.7818609E-02  0.8486259E-01
       -2   -1    0    0    0  501  0.00000000000E+00  0.00000000000E+00  0.54397706556E+03  0.54397706557E+03  0.25500000920E-02 0.  1.
        2   -1    0    0  501    0  0.00000000000E+00  0.00000000000E+00 -0.23869159880E+04  0.23869159880E+04  0.25500000920E-02 0. -1.
    10030    2    1    2    0    0  0.00000000000E+00  0.00000000000E+00 -0.18429389224E+04  0.29308930535E+04  0.22789713073E+04 0.  0.
        2    1    3    3  502    0 -0.86488500252E+02  0.11099382342E+04 -0.12338109930E+04  0.16618461755E+04  0.25500000920E-02 0. -1.
       -2    1    3    3    0  502  0.86488500252E+02 -0.11099382342E+04 -0.60912792935E+03  0.12690468780E+04  0.25500000920E-02 0.  1.
</event>
<event>
 5   0  0.1999883E-06  0.3601186E+04  0.7818609E-02  0.8090220E-01
        2   -1    0    0  501    0  0.00000000000E+00  0.00000000000E+00  0.15045148766E+04  0.15045148766E+04  0.25500000920E-02 0.  1.
       -2   -1    0    0    0  501  0.00000000000E+00  0.00000000000E+00 -0.21549374835E+04  0.21549374835E+04  0.25500000920E-02 0. -1.
    10030    2    1    2    0    0  0.00000000000E+00  0.00000000000E+00 -0.65042260693E+03  0.36594523602E+04  0.36011861947E+04 0.  0.
        4    1    3    3  502    0 -0.11881401722E+04 -0.55625219611E+03  0.92804784545E+03  0.16069747947E+04  0.12699999809E+01 0.  1.
       -4    1    3    3    0  502  0.11881401722E+04  0.55625219611E+03 -0.15784704524E+04  0.20524775654E+04  0.12699999809E+01 0. -1.
</event>
<event>
 5   0  0.6630125E-07  0.3678967E+04  0.7818609E-02  0.8072639E-01
       -1   -1    0    0    0  501  0.00000000000E+00  0.00000000000E+00  0.29454670817E+04  0.29454670817E+04  0.50400001928E-02 0. -1.
        1   -1    0    0  501    0  0.00000000000E+00  0.00000000000E+00 -0.11487821818E+04  0.11487821818E+04  0.50400001928E-02 0.  1.
    10030    2    1    2    0    0  0.00000000000E+00  0.00000000000E+00  0.17966848999E+04  0.40942492636E+04  0.36789673011E+04 0.  0.
        1    1    3    3  502    0  0.17251294508E+04 -0.47079036243E+03  0.13782827405E+04  0.22577374737E+04  0.50400001928E-02 0. -1.
       -1    1    3    3    0  502 -0.17251294508E+04  0.47079036243E+03  0.41840215938E+03  0.18365117899E+04  0.50400001928E-02 0.  1.
</event>
<event>
 5   0  0.6890600E-07  0.3352616E+04  0.7818609E-02  0.8149635E-01
        1   -1    0    0  501    0  0.00000000000E+00  0.00000000000E+00  0.26451412259E+04  0.26451412259E+04  0.50400001928E-02 0.  1.
       -1   -1    0    0    0  501  0.00000000000E+00  0.00000000000E+00 -0.10623284916E+04  0.10623284917E+04  0.50400001928E-02 0. -1.
    10030    2    1    2    0    0  0.00000000000E+00  0.00000000000E+00  0.15828127343E+04  0.37074697176E+04  0.33526162254E+04 0.  0.
        3    1    3    3  502    0  0.12199171760E+03 -0.10305516794E+04 -0.66440244901E+03  0.12322131989E+04  0.10100000352E+00 0. -1.
       -3    1    3    3    0  502 -0.12199171760E+03  0.10305516794E+04  0.22472151833E+04  0.24752565187E+04  0.10100000352E+00 0.  1.
</event>
<event>
 5   0  0.2020725E-06  0.3536686E+04  0.7818609E-02  0.8105150E-01
       -2   -1    0    0    0  501  0.00000000000E+00  0.00000000000E+00  0.17397875320E+04  0.17397875320E+04  0.25500000920E-02 0.  1.
        2   -1    0    0  501    0  0.00000000000E+00  0.00000000000E+00 -0.17973671442E+04  0.17973671442E+04  0.25500000920E-02 0. -1.
    10030    2    1    2    0    0  0.00000000000E+00  0.00000000000E+00 -0.57579612194E+02  0.35371546762E+04  0.35366859900E+04 0.  0.
        3    1    3    3  502    0 -0.91858224085E+03 -0.23207220456E+03 -0.15221005634E+04  0.17928862141E+04  0.10100000352E+00 0. -1.
       -3    1    3    3    0  502  0.91858224085E+03  0.23207220456E+03  0.14645209512E+04  0.17442684621E+04  0.10100000352E+00 0.  1.
</event>
<event>
 5   0  0.6630125E-07  0.3508560E+04  0.7818609E-02  0.8111764E-01
        1   -1    0    0  501    0  0.00000000000E+00  0.00000000000E+00  0.15889341712E+04  0.15889341712E+04  0.50400001928E-02 0.  1.
       -1   -1    0    0    0  501  0.00000000000E+00  0.00000000000E+00 -0.19368316728E+04  0.19368316728E+04  0.50400001928E-02 0. -1.
    10030    2    1    2    0    0  0.00000000000E+00  0.00000000000E+00 -0.34789750164E+03  0.35257658440E+04  0.35085598349E+04 0.  0.
        5    1    3    3  502    0 -0.58094774353E+01  0.14702336469E+04 -0.11356451492E+04  0.18577762840E+04  0.46999998093E+01 0. -1.
       -5    1    3    3    0  502  0.58094774353E+01 -0.14702336469E+04  0.78774764753E+03  0.16679895601E+04  0.46999998093E+01 0.  1.
</event>
<event>
 5   0  0.6630125E-07  0.2772136E+04  0.7818609E-02  0.8311972E-01
       -1   -1    0    0    0  501  0.00000000000E+00  0.00000000000E+00  0.77243872037E+03  0.77243872038E+03  0.50400001928E-02 0.  1.
        1   -1    0    0  501    0  0.00000000000E+00  0.00000000000E+00 -0.24871675543E+04  0.24871675543E+04  0.50400001928E-02 0. -1.
    10030    2    1    2    0    0  0.00000000000E+00  0.00000000000E+00 -0.17147288339E+04  0.32596062747E+04  0.27721360162E+04 0.  0.
        4    1    3    3  502    0 -0.10692282450E+04  0.81429827204E+03 -0.12558570147E+04  0.18394317519E+04  0.12699999809E+01 0. -1.
       -4    1    3    3    0  502  0.10692282450E+04 -0.81429827204E+03 -0.45887181922E+03  0.14201745228E+04  0.12699999809E+01 0.  1.
</event>
<event>
 5   0  0.1999883E-06  0.3456682E+04  0.7818609E-02  0.8124133E-01
       -2   -1    0    0    0  501  0.00000000000E+00  0.00000000000E+00  0.11023592088E+04  0.11023592088E+04  0.25500000920E-02 0. -1.
        2   -1    0    0  501    0  0.00000000000E+00  0.00000000000E+00 -0.27097898708E+04  0.27097898708E+04  0.25500000920E-02 0.  1.
    10030    2    1    2    0    0  0.00000000000E+00  0.00000000000E+00 -0.16074306620E+04  0.38121490795E+04  0.34566815403E+04 0.  0.
        4    1    3    3  502    0  0.77213169055E+03  0.14970080992E+04 -0.37667519807E+03  0.17260088106E+04  0.12699999809E+01 0.  1.
       -4    1    3    3    0  502 -0.77213169055E+03 -0.14970080992E+04 -0.12307554639E+04  0.20861402689E+04  0.12699999809E+01 0. -1.
</event>
<event>
 5   0  0.2073287E-06  0.3495802E+04  0.7818609E-02  0.8114786E-01
        2   -1    0    0  501    0  0.00000000000E+00  0.00000000000E+00  0.16123154854E+04  0.16123154854E+04  0.25500000920E-02 0. -1.
       -2   -1    0    0    0  501  0.00000000000E+00  0.00000000000E+00 -0.18948884235E+04  0.18948884235E+04  0.25500000920E-02 0.  1.
    10030    2    1    2    0    0  0.00000000000E+00  0.00000000000E+00 -0.28257293811E+03  0.35072039089E+04  0.34958020243E+04 0.  0.
        1    1    3    3  502    0 -0.68124069173E+03 -0.15866906066E+04 -0.41324621887E+03  0.17755135591E+04  0.50400001928E-02 0.  1.
       -1    1    3    3    0  502  0.68124069173E+03  0.15866906066E+04  0.13067328076E+03  0.17316903498E+04  0.50400001928E-02 0. -1.
</event>
<event>
 5   0  0.7378896E-07  0.3585112E+04  0.7818609E-02  0.8093910E-01
        1   -1    0    0  501    0  0.00000000000E+00  0.00000000000E+00  0.19026657750E+04  0.19026657750E+04  0.50400001928E-02 0.  1.
       -1   -1    0    0    0  501  0.00000000000E+00  0.00000000000E+00 -0.16888184430E+04  0.16888184430E+04  0.50400001928E-02 0. -1.
    10030    2    1    2    0    0  0.00000000000E+00  0.00000000000E+00  0.21384733200E+03  0.35914842181E+04  0.35851120216E+04 0.  0.
        2    1    3    3  502    0  0.37042572493E+03  0.19633753512E+03  0.18528620140E+04  0.18997003154E+04  0.25500000920E-02 0.  1.
       -2    1    3    3    0  502 -0.37042572493E+03 -0.19633753512E+03 -0.16390146820E+04  0.16917839027E+04  0.25500000920E-02 0. -1.
</event>
<event>
 5   0  0.2001768E-06  0.3506379E+04  0.7818609E-02  0.8112280E-01
        2   -1    0    0  501    0  0.00000000000E+00  0.00000000000E+00  0.21242201070E+04  0.21242201070E+04  0.25500000920E-02 0.  1.
       -2   -1    0    0    0  501  0.00000000000E+00  0.00000000000E+00 -0.14469657304E+04  0.14469657304E+04  0.25500000920E-02 0. -1.
    10030    2    1    2    0    0  0.00000000000E+00  0.00000000000E+00  0.67725437655E+03  0.35711858374E+04  0.35063791573E+04 0.  0.
        2    1    3    3  502    0 -0.12946817826E+04  0.21123640776E+03 -0.84599186137E+03  0.15609368878E+04  0.25500000920E-02 0. -1.
       -2    1    3    3    0  502  0.12946817826E+04 -0.21123640776E+03  0.15232462379E+04  0.20102489496E+04  0.25500000920E-02 0.  1.
</event>
<event>
 5   0  0.2073287E-06  0.3492120E+04  0.7818609E-02  0.8115660E-01
       -2   -1    0    0    0  501  0.00000000000E+00  0.00000000000E+00  0.13809973565E+04  0.13809973565E+04  0.25500000920E-02 0. -1.
        2   -1    0    0  501    0  0.00000000000E+00  0.00000000000E+00 -0.22076259092E+04  0.22076259092E+04  0.25500000920E-02 0.  1.
    10030    2    1    2    0    0  0.00000000000E+00  0.00000000000E+00 -0.82662855269E+03  0.35886232657E+04  0.34921200122E+04 0.  0.
        1    1    3    3  502    0 -0.63735603374E+02  0.94718171787E+03  0.10926210342E+04  0.14474239732E+04  0.50400001928E-02 0. -1.
       -1    1    3    3    0  502  0.63735603374E+02 -0.94718171787E+03 -0.19192495869E+04  0.21411992926E+04  0.50400001928E-02 0.  1.
</event>
<event>
 5   0  0.2020725E-06  0.3446553E+04  0.7818609E-02  0.8126574E-01
       -2   -1    0    0    0  501  0.00000000000E+00  0.00000000000E+00  0.17813734752E+04  0.17813734752E+04  0.25500000920E-02 0.  1.
        2   -1    0    0  501    0  0.00000000000E+00  0.00000000000E+00 -0.16670743961E+04  0.16670743961E+04  0.25500000920E-02 0. -1.
    10030    2    1    2    0    0  0.00000000000E+00  0.00000000000E+00  0.11429907906E+03  0.34484478713E+04  0.34465531247E+04 0.  0.
        3    1    3    3  502    0 -0.24018696724E+02 -0.15779732585E+04 -0.63540552704E+03  0.17012691429E+04  0.10100000352E+00 0. -1.
       -3    1    3    3    0  502  0.24018696724E+02  0.15779732585E+04  0.74970460610E+03  0.17471787284E+04  0.10100000352E+00 0.  1.
</event>
<event>
 5   0  0.2001768E-06  0.3467159E+04  0.7818609E-02  0.8121617E-01
        2   -1    0    0  501    0  0.00000000000E+00  0.00000000000E+00  0.24357194245E+04  0.24357194245E+04  0.25500000920E-02 0.  1.
       -2   -1    0    0    0  501  0.00000000000E+00  0.00000000000E+00 -0.12338442558E+04  0.12338442558E+04  0.25500000920E-02 0. -1.
    10030    2    1    2    0    0  0.00000000000E+00  0.00000000000E+00  0.12018751686E+04  0.36695636803E+04  0.34671593103E+04 0.  0.
        2    1    3    3  502    0 -0.39298719390E+03 -0.14607299682E+04  0.14972074680E+04  0.21283329573E+04  0.25500000920E-02 0.  1.
       -2    1    3    3    0  502  0.39298719390E+03  0.14607299682E+04 -0.29533229939E+03  0.15412307230E+04  0.25500000920E-02 0. -1.
</event>
<event>
 5   0  0.6630125E-07  0.3540015E+04  0.7818609E-02  0.8104372E-01
       -1   -1    0    0    0  501  0.00000000000E+00  0.00000000000E+00  0.14785531269E+04  0.14785531269E+04  0.50400001928E-02 0.  1.
        1   -1    0    0  501    0  0.00000000000E+00  0.00000000000E+00 -0.21189137052E+04  0.21189137052E+04  0.50400001928E-02 0. -1.
    10030    2    1    2    0    0  0.00000000000E+00  0.00000000000E+00 -0.64036057838E+03  0.35974668321E+04  0.35400149629E+04 0.  0.
        5    1    3    3  502    0  0.60520718657E+03 -0.41540204637E+03 -0.19569309665E+04  0.20900802607E+04  0.46999998093E+01 0. -1.
       -5    1    3    3    0  502 -0.60520718657E+03  0.41540204637E+03  0.13165703881E+04  0.15073865714E+04  0.46999998093E+01 0.  1.
</event>
<event>
 5   0  0.1999883E-06  0.3457109E+04  0.7818609E-02  0.8124030E-01
       -2   -1    0    0    0  501  0.00000000000E+00  0.00000000000E+00  0.13606486627E+04  0.13606486627E+04  0.25500000920E-02 0.  1.
        2   -1    0    0  501    0  0.00000000000E+00  0.00000000000E+00 -0.21959382096E+04  0.21959382096E+04  0.25500000920E-02 0. -1.
    10030    2    1    2    0    0  0.00000000000E+00  0.00000000000E+00 -0.83528954688E+03  0.35565868723E+04  0.34571088431E+04 0.  0.
        4    1    3    3  502    0  0.17254189089E+04 -0.83459781274E+02 -0.48158484655E+03  0.17933102139E+04  0.12699999809E+01 0. -1.
       -4    1    3    3    0  502 -0.17254189089E+04  0.83459781274E+02 -0.35370470034E+03  0.17632766584E+04  0.12699999809E+01 0.  1.
</event>
<event>
 5   0  0.6890600E-07  0.3356844E+04  0.7818609E-02  0.8148580E-01
        1   -1    0    0  501    0  0.00000000000E+00  0.00000000000E+00  0.19835964522E+04  0.19835964522E+04  0.50400001928E-02 0.  1.
       -1   -1    0    0    0  501  0.00000000000E+00  0.00000000000E+00 -0.14201987253E+04  0.14201987253E+04  0.50400001928E-02 0. -1.
    10030    2    1    2    0    0  0.00000000000E+00  0.00000000000E+00  0.56339772690E+03  0.34037951775E+04  0.33568444426E+04 0.  0.
        3    1    3    3  502    0 -0.37757152318E+03  0.69498900824E+03 -0.12193887037E+04  0.14534368915E+04  0.10100000352E+00 0. -1.
       -3    1    3    3    0  502  0.37757152318E+03 -0.69498900824E+03  0.17827864306E+04  0.19503582860E+04  0.10100000352E+00 0.  1.
</event>
<event>
 5   0  0.6630125E-07  0.3388398E+04  0.7818609E-02  0.8140760E-01
       -1   -1    0    0    0  501  0.00000000000E+00  0.00000000000E+00  0.12066991813E+04  0.12066991813E+04  0.50400001928E-02 0.  1.
        1   -1    0    0  501    0  0.00000000000E+00  0.00000000000E+00 -0.23786455209E+04  0.23786455209E+04  0.50400001928E-02 0. -1.
    10030    2    1    2    0    0  0.00000000000E+00  0.00000000000E+00 -0.11719463396E+04  0.35853447022E+04  0.33883976170E+04 0.  0.
        1    1    3    3  502    0 -0.17377743680E+03  0.76805456223E+03  0.10012844359E+04  0.12738433694E+04  0.50400001928E-02 0.  1.
       -1    1    3    3    0  502  0.17377743680E+03 -0.76805456223E+03 -0.21732307755E+04  0.23115013328E+04  0.50400001928E-02 0. -1.
</event>
<event>
 5   0  0.2020725E-06  0.3462807E+04  0.7818609E-02  0.8122661E-01
       -2   -1    0    0    0  501  0.00000000000E+00  0.00000000000E+00  0.19294525551E+04  0.19294525551E+04  0.25500000920E-02 0. -1.
        2   -1    0    0  501    0  0.00000000000E+00  0.00000000000E+00 -0.15536835385E+04  0.15536835385E+04  0.25500000920E-02 0.  1.
    10030    2    1    2    0    0  0.00000000000E+00  0.00000000000E+00  0.37576901661E+03  0.34831360936E+04  0.34628073427E+04 0.  0.
        3    1    3    3  502    0 -0.12501591588E+04 -0.11518909861E+04  0.51845940289E+03  0.17772312537E+04  0.10100000352E+00 0. -1.
       -3    1    3    3    0  502  0.12501591588E+04  0.11518909861E+04 -0.14269038628E+03  0.17059048399E+04  0.10100000352E+00 0.  1.
</event>
<event>
 5   0  0.6630125E-07  0.2757445E+04  0.7818609E-02  0.8316603E-01
       -3   -1    0    0    0  501  0.00000000000E+00  0.00000000000E+00  0.20064354309E+04  0.20064354334E+04  0.10100000352E+00 0. -1.
        3   -1    0    0  501    0  0.00000000000E+00  0.00000000000E+00 -0.94738956511E+03  0.94738957050E+03  0.10100000352E+00 0.  1.
    10030    2    1    2    0    0  0.00000000000E+00  0.00000000000E+00  0.10590458658E+04  0.29538250039E+04  0.27574451958E+04 0.  0.
        4    1    3    3  502    0  0.11703624521E+04  0.19990574904E+03  0.12802655210E+04  0.17460790345E+04  0.12699999809E+01 0. -1.
       -4    1    3    3    0  502 -0.11703624521E+04 -0.19990574904E+03 -0.22121965522E+03  0.12077459694E+04  0.12699999809E+01 0.  1.
</event>
<event>
 5   0  0.6890600E-07  0.3073321E+04  0.7818609E-02  0.8223098E-01
        1   -1    0    0  501    0  0.00000000000E+00  0.00000000000E+00  0.30487627492E+04  0.30487627492E+04  0.50400001928E-02 0.  1.
       -1   -1    0    0    0  501  0.00000000000E+00  0.00000000000E+00 -0.77451950876E+03  0.77451950878E+03  0.50400001928E-02 0. -1.
    10030    2    1    2    0    0  0.00000000000E+00  0.00000000000E+00  0.22742432404E+04  0.38232822580E+04  0.30733214780E+04 0.  0.
        3    1    3    3  502    0 -0.14779674027E+04  0.36626716116E+03  0.87979543341E+03  0.17585730839E+04  0.10100000352E+00 0.  1.
       -3    1    3    3    0  502  0.14779674027E+04 -0.36626716116E+03  0.13944478070E+04  0.20647091740E+04  0.10100000352E+00 0. -1.
</event>
<event>
 5   0  0.6630125E-07  0.3479286E+04  0.7818609E-02  0.8118717E-01
        1   -1    0    0  501    0  0.00000000000E+00  0.00000000000E+00  0.19487499203E+04  0.19487499203E+04  0.50400001928E-02 0. -1.
       -1   -1    0    0    0  501  0.00000000000E+00  0.00000000000E+00 -0.15529737466E+04  0.15529737466E+04  0.50400001928E-02 0.  1.
    10030    2    1    2    0    0  0.00000000000E+00  0.00000000000E+00  0.39577617366E+03  0.35017236669E+04  0.34792858261E+04 0.  0.
        4    1    3    3  502    0  0.49137058968E+02 -0.72040777612E+03 -0.13950234011E+04  0.15708258073E+04  0.12699999809E+01 0.  1.
       -4    1    3    3    0  502 -0.49137058968E+02  0.72040777612E+03  0.17907995747E+04  0.19308978596E+04  0.12699999809E+01 0. -1.
</event>
<event>
 5   0  0.6630125E-07  0.3015550E+04  0.7818609E-02  0.8239304E-01
        1   -1    0    0  501    0  0.00000000000E+00  0.00000000000E+00  0.19141331376E+04  0.19141331376E+04  0.50400001928E-02 0.  1.
       -1   -1    0    0    0  501  0.00000000000E+00  0.00000000000E+00 -0.11876838319E+04  0.11876838319E+04  0.50400001928E-02 0. -1.
    10030    2    1    2    0    0  0.00000000000E+00  0.00000000000E+00  0.72644930579E+03  0.31018169695E+04  0.30155496876E+04 0.  0.
        5    1    3    3  502    0 -0.43654666672E+02  0.36876290254E+02  0.19130113002E+04  0.19138704020E+04  0.46999998093E+01 0.  1.
       -5    1    3    3    0  502  0.43654666672E+02 -0.36876290254E+02 -0.11865619944E+04  0.11879465676E+04  0.46999998093E+01 0. -1.
</event>
<event>
 5   0  0.6630125E-07  0.3410033E+04  0.7818609E-02  0.8135448E-01
       -1   -1    0    0    0  501  0.00000000000E+00  0.00000000000E+00  0.13948527819E+04  0.13948527820E+04  0.50400001928E-02 0.  1.
        1   -1    0    0  501    0  0.00000000000E+00  0.00000000000E+00 -0.20841491515E+04  0.20841491515E+04  0.50400001928E-02 0. -1.
    10030    2    1    2    0    0  0.00000000000E+00  0.00000000000E+00 -0.68929636957E+03  0.34790019335E+04  0.34100329864E+04 0.  0.
        4    1    3    3  502    0 -0.42275911634E+03  0.15822875474E+04 -0.82828284014E+03  0.18353237396E+04  0.12699999809E+01 0. -1.
       -4    1    3    3    0  502  0.42275911634E+03 -0.15822875474E+04  0.13898647057E+03  0.16436781939E+04  0.12699999809E+01 0.  1.
</event>
<event>
 5   0  0.2073287E-06  0.3439423E+04  0.7818609E-02  0.8128298E-01
        2   -1    0    0  501    0  0.00000000000E+00  0.00000000000E+00  0.21287089527E+04  0.21287089527E+04  0.25500000920E-02 0.  1.
       -2   -1    0    0    0  501  0.00000000000E+00  0.00000000000E+00 -0.13892967218E+04  0.13892967218E+04  0.25500000920E-02 0. -1.
    10030    2    1    2    0    0  0.00000000000E+00  0.00000000000E+00  0.73941223090E+03  0.35180056744E+04  0.34394234223E+04 0.  0.
        1    1    3    3  502    0 -0.14044195229E+04 -0.84556201868E+03 -0.16181946857E+03  0.16472871226E+04  0.50400001928E-02 0. -1.
       -1    1    3    3    0  502  0.14044195229E+04  0.84556201868E+03  0.90123169947E+03  0.18707185518E+04  0.50400001928E-02 0.  1.
</event>
<event>
 5   0  0.6630125E-07  0.3492009E+04  0.7818609E-02  0.8115686E-01
        1   -1    0    0  501    0  0.00000000000E+00  0.00000000000E+00  0.21766542734E+04  0.21766542734E+04  0.50400001928E-02 0. -1.
       -1   -1    0    0    0  501  0.00000000000E+00  0.00000000000E+00 -0.14005587124E+04  0.14005587124E+04  0.50400001928E-02 0.  1.
    10030    2    1    2    0    0  0.00000000000E+00  0.00000000000E+00  0.77609556097E+03  0.35772129858E+04  0.34920092247E+04 0.  0.
        1    1    3    3  502    0 -0.29619517017E+03 -0.98013957010E+03 -0.10607180591E+04  0.14742889665E+04  0.50400001928E-02 0.  1.
       -1    1    3    3    0  502  0.29619517017E+03  0.98013957010E+03  0.18368136201E+04  0.21029240193E+04  0.50400001928E-02 0. -1.
</event>
<event>
 5   0  0.2020725E-06  0.3468206E+04  0.7818609E-02  0.8121366E-01
       -2   -1    0    0    0  501  0.00000000000E+00  0.00000000000E+00  0.14043959007E+04  0.14043959007E+04  0.25500000920E-02 0. -1.
        2   -1    0    0  501    0  0.00000000000E+00  0.00000000000E+00 -0.21412141479E+04  0.21412141479E+04  0.25500000920E-02 0.  1.
    10030    2    1    2    0    0  0.00000000000E+00  0.00000000000E+00 -0.73681824729E+03  0.35456100486E+04  0.34682055140E+04 0.  0.
        3    1    3    3  502    0 -0.84588202132E+03 -0.10873180835E+04  0.70834754948E+03  0.15490426946E+04  0.10100000352E+00 0. -1.
       -3    1    3    3    0  502  0.84588202132E+03  0.10873180835E+04 -0.14451657968E+04  0.19965673540E+04  0.10100000352E+00 0.  1.
</event>
<event>
 5   0  0.1999883E-06  0.3532562E+04  0.7818609E-02  0.8106116E-01
        2   -1    0    0  501    0  0.00000000000E+00  0.00000000000E+00  0.18909066228E+04  0.18909066228E+04  0.25500000920E-02 0. -1.
       -2   -1    0    0    0  501  0.00000000000E+00  0.00000000000E+00 -0.16498695841E+04  0.16498695841E+04  0.25500000920E-02 0.  1.
    10030    2    1    2    0    0  0.00000000000E+00  0.00000000000E+00  0.24103703866E+03  0.35407762069E+04  0.35325624259E+04 0.  0.
        4    1    3    3  502    0 -0.15965706005E+04  0.45756592552E+03  0.72303471808E+03  0.18114041722E+04  0.12699999809E+01 0.  1.
       -4    1    3    3    0  502  0.15965706005E+04 -0.45756592552E+03 -0.48199767942E+03  0.17293720347E+04  0.12699999809E+01 0. -1.
</event>
<event>
 5   0  0.6630125E-07  0.3453115E+04  0.7818609E-02  0.8124992E-01
       -1   -1    0    0    0  501  0.00000000000E+00  0.00000000000E+00  0.14600640982E+04  0.14600640982E+04  0.50400001928E-02 0. -1.
        1   -1    0    0  501    0  0.00000000000E+00  0.00000000000E+00 -0.20416919319E+04  0.20416919319E+04  0.50400001928E-02 0.  1.
    10030    2    1    2    0    0  0.00000000000E+00  0.00000000000E+00 -0.58162783374E+03  0.35017560301E+04  0.34531151671E+04 0.  0.
        4    1    3    3  502    0  0.90784749474E+03 -0.74883986860E+03 -0.15719587783E+04  0.19636711120E+04  0.12699999809E+01 0.  1.
       -4    1    3    3    0  502 -0.90784749474E+03  0.74883986860E+03  0.99033094458E+03  0.15380849181E+04  0.12699999809E+01 0. -1.
</event>
<event>
 5   0  0.6630125E-07  0.3509624E+04  0.7818609E-02  0.8111513E-01
       -1   -1    0    0    0  501  0.00000000000E+00  0.00000000000E+00  0.17028898810E+04  0.17028898810E+04  0.50400001928E-02 0. -1.
        1   -1    0    0  501    0  0.00000000000E+00  0.00000000000E+00 -0.18083171135E+04  0.18083171135E+04  0.50400001928E-02 0.  1.
    10030    2    1    2    0    0  0.00000000000E+00  0.00000000000E+00 -0.10542723252E+03  0.35112069945E+04  0.35096238626E+04 0.  0.
        1    1    3    3  502    0 -0.44394539132E+03  0.16976124753E+04 -0.72452887864E+02  0.17561961871E+04  0.50400001928E-02 0. -1.
       -1    1    3    3    0  502  0.44394539132E+03 -0.16976124753E+04 -0.32974344660E+02  0.17550108074E+04  0.50400001928E-02 0.  1.
</event>
<event>
 5   0  0.2001768E-06  0.3449995E+04  0.7818609E-02  0.8125744E-01
        2   -1    0    0  501    0  0.00000000000E+00  0.00000000000E+00  0.18155783302E+04  0.18155783302E+04  0.25500000920E-02 0.  1.
       -2   -1    0    0    0  501  0.00000000000E+00  0.00000000000E+00 -0.16389354093E+04  0.16389354093E+04  0.25500000920E-02 0. -1.
    10030    2    1    2    0    0  0.00000000000E+00  0.00000000000E+00  0.17664292089E+03  0.34545137394E+04  0.34499945586E+04 0.  0.
        2    1    3    3  502    0 -0.61215085135E+03  0.20856339308E+03  0.16895998693E+04  0.18091365543E+04  0.25500000920E-02 0.  1.
       -2    1    3    3    0  502  0.61215085135E+03 -0.20856339308E+03 -0.15129569484E+04  0.16453771852E+04  0.25500000920E-02 0. -1.
</event>
<event>
 5   0  0.2020725E-06  0.3497117E+04  0.7818609E-02  0.8114473E-01
       -2   -1    0    0    0  501  0.00000000000E+00  0.00000000000E+00  0.27104586028E+04  0.27104586028E+04  0.25500000920E-02 0. -1.
        2   -1    0    0  501    0  0.00000000000E+00  0.00000000000E+00 -0.11280220333E+04  0.11280220333E+04  0.25500000920E-02 0.  1.
    10030    2    1    2    0    0  0.00000000000E+00  0.00000000000E+00  0.15824365695E+04  0.38384806361E+04  0.34971171123E+04 0.  0.
        3    1    3    3  502    0  0.24714273201E+03 -0.95169521645E+02  0.26883176071E+04  0.27013308451E+04  0.10100000352E+00 0. -1.
       -3    1    3    3    0  502 -0.24714273201E+03  0.95169521645E+02 -0.11058810376E+04  0.11371497911E+04  0.10100000352E+00 0.  1.
</event>
<event>
 5   0  0.6630125E-07  0.3418492E+04  0.7818609E-02  0.8133383E-01
       -1   -1    0    0    0  501  0.00000000000E+00  0.00000000000E+00  0.25160975646E+04  0.25160975646E+04  0.50400001928E-02 0. -1.
        1   -1    0    0  501    0  0.00000000000E+00  0.00000000000E+00 -0.11611318982E+04  0.11611318982E+04  0.50400001928E-02 0.  1.
    10030    2    1    2    0    0  0.00000000000E+00  0.00000000000E+00  0.13549656664E+04  0.36772294628E+04  0.34184915628E+04 0.  0.
        4    1    3    3  502    0 -0.36918084610E+03 -0.41776104338E+02  0.24721348644E+04  0.24998984261E+04  0.12699999809E+01 0. -1.
       -4    1    3    3    0  502  0.36918084610E+03  0.41776104338E+02 -0.11171691980E+04  0.11773310367E+04  0.12699999809E+01 0.  1.
</event>
<event>
 5   0  0.7378896E-07  0.2399824E+04  0.7818609E-02  0.8439569E-01
        1   -1    0    0  501    0  0.00000000000E+00  0.00000000000E+00  0.83833739031E+03  0.83833739033E+03  0.50400001928E-02 0. -1.
       -1   -1    0    0    0  501  0.00000000000E+00  0.00000000000E+00 -0.17174335646E+04  0.17174335647E+04  0.50400001928E-02 0.  1.
    10030    2    1    2    0    0  0.00000000000E+00  0.00000000000E+00 -0.87909617433E+03  0.25557709550E+04  0.23998239708E+04 0.  0.
        2    1    3    3  502    0 -0.56215979029E+03  0.84440369393E+02  0.68582922392E+03  0.89079488671E+03  0.25500000920E-02 0. -1.
       -2    1    3    3    0  502  0.56215979029E+03 -0.84440369393E+02 -0.15649253983E+04  0.16649760683E+04  0.25500000920E-02 0.  1.
</event>
<event>
 5   0  0.6630125E-07  0.3580896E+04  0.7818609E-02  0.8094882E-01
       -1   -1    0    0    0  501  0.00000000000E+00  0.00000000000E+00  0.13203820354E+04  0.13203820354E+04  0.50400001928E-02 0.  1.
        1   -1    0    0  501    0  0.00000000000E+00  0.00000000000E+00 -0.24278606479E+04  0.24278606479E+04  0.50400001928E-02 0. -1.
    10030    2    1    2    0    0  0.00000000000E+00  0.00000000000E+00 -0.11074786125E+04  0.37482426833E+04  0.35808957449E+04 0.  0.
        1    1    3    3  502    0  0.51737253930E+03 -0.11507200165E+04 -0.18834913308E+04  0.22670179739E+04  0.50400001928E-02 0. -1.
       -1    1    3    3    0  502 -0.51737253930E+03  0.11507200165E+04  0.77601271832E+03  0.14812247094E+04  0.50400001928E-02 0.  1.
</event>
<event>
 5   0  0.2001768E-06  0.3456116E+04  0.7818609E-02  0.8124269E-01
       -2   -1    0    0    0  501  0.00000000000E+00  0.00000000000E+00  0.23851090383E+04  0.23851090383E+04  0.25500000920E-02 0. -1.
        2   -1    0    0  501    0  0.00000000000E+00  0.00000000000E+00 -0.12520119392E+04  0.12520119392E+04  0.25500000920E-02 0.  1.
    10030    2    1    2    0    0  0.00000000000E+00  0.00000000000E+00  0.11330970991E+04  0.36371209775E+04  0.34561163130E+04 0.  0.
        2    1    3    3  502    0  0.14548957909E+04 -0.30514948916E+03 -0.36070251749E+03  0.15296876410E+04  0.25500000920E-02 0.  1.
       -2    1    3    3    0  502 -0.14548957909E+04  0.30514948916E+03  0.14937996166E+04  0.21074333365E+04  0.25500000920E-02 0. -1.
</event>
<event>
 5   0  0.6630125E-07  0.3511989E+04  0.7818609E-02  0.8110955E-01
        1   -1    0    0  501    0  0.00000000000E+00  0.00000000000E+00  0.18553469265E+04  0.18553469265E+04  0.50400001928E-02 0. -1.
       -1   -1    0    0    0  501  0.00000000000E+00  0.00000000000E+00 -0.16619619216E+04  0.16619619216E+04  0.50400001928E-02 0.  1.
    10030    2    1    2    0    0  0.00000000000E+00  0.00000000000E+00  0.19338500492E+03  0.35173088481E+04  0.35119885781E+04 0.  0.
        5    1    3    3  502    0  0.23160213096E+03 -0.18380130355E+03  0.18302309903E+04  0.18539660283E+04  0.46999998093E+01 0. -1.
       -5    1    3    3    0  502 -0.23160213096E+03  0.18380130355E+03 -0.16368459854E+04  0.16633428198E+04  0.46999998093E+01 0.  1.
</event>
<event>
 5   0  0.6890600E-07  0.2439961E+04  0.7818609E-02  0.8424693E-01
       -1   -1    0    0    0  501  0.00000000000E+00  0.00000000000E+00  0.10956536776E+04  0.10956536776E+04  0.50400001928E-02 0.  1.
        1   -1    0    0  501    0  0.00000000000E+00  0.00000000000E+00 -0.13584147071E+04  0.13584147071E+04  0.50400001928E-02 0. -1.
    10030    2    1    2    0    0  0.00000000000E+00  0.00000000000E+00 -0.26276102956E+03  0.24540683847E+04  0.24399607124E+04 0.  0.
        3    1    3    3  502    0 -0.80274811998E+03  0.64863864976E+03 -0.78569203546E+03  0.12970923741E+04  0.10100000352E+00 0. -1.
       -3    1    3    3    0  502  0.80274811998E+03 -0.64863864976E+03  0.52293100591E+03  0.11569760107E+04  0.10100000352E+00 0.  1.
</event>
<event>
 5   0  0.2020725E-06  0.3528853E+04  0.7818609E-02  0.8106986E-01
       -2   -1    0    0    0  501  0.00000000000E+00  0.00000000000E+00  0.94723469595E+03  0.94723469596E+03  0.25500000920E-02 0. -1.
        2   -1    0    0  501    0  0.00000000000E+00  0.00000000000E+00 -0.32866211836E+04  0.32866211836E+04  0.25500000920E-02 0.  1.
    10030    2    1    2    0    0  0.00000000000E+00  0.00000000000E+00 -0.23393864876E+04  0.42338558795E+04  0.35288534215E+04 0.  0.
        3    1    3    3  502    0  0.10434615306E+04  0.10292387147E+04  0.89408604951E+01  0.14656821780E+04  0.10100000352E+00 0. -1.
       -3    1    3    3    0  502 -0.10434615306E+04 -0.10292387147E+04 -0.23483273481E+04  0.27681737015E+04  0.10100000352E+00 0.  1.
</event>
<event>
 5   0  0.2020725E-06  0.2188679E+04  0.7818609E-02  0.8523155E-01
       -2   -1    0    0    0  501  0.00000000000E+00  0.00000000000E+00  0.83934283481E+03  0.83934283482E+03  0.25500000920E-02 0.  1.
        2   -1    0    0  501    0  0.00000000000E+00  0.00000000000E+00 -0.14268059976E+04  0.14268059976E+04  0.25500000920E-02 0. -1.
    10030    2    1    2    0    0  0.00000000000E+00  0.00000000000E+00 -0.58746316275E+03  0.22661488324E+04  0.21886794107E+04 0.  0.
        3    1    3    3  502    0 -0.19532614773E+03 -0.10344035770E+04 -0.60337598042E+03  0.12133448183E+04  0.10100000352E+00 0. -1.
       -3    1    3    3    0  502  0.19532614773E+03  0.10344035770E+04  0.15912817671E+02  0.10528040141E+04  0.10100000352E+00 0.  1.
</event>
<event>
 5   0  0.6630125E-07  0.3137199E+04  0.7818609E-02  0.8205602E-01
       -1   -1    0    0    0  501  0.00000000000E+00  0.00000000000E+00  0.14440348256E+04  0.14440348256E+04  0.50400001928E-02 0. -1.
        1   -1    0    0  501    0  0.00000000000E+00  0.00000000000E+00 -0.17039097014E+04  0.17039097014E+04  0.50400001928E-02 0.  1.
    10030    2    1    2    0    0  0.00000000000E+00  0.00000000000E+00 -0.25987487581E+03  0.31479445270E+04  0.31371993551E+04 0.  0.
        1    1    3    3  502    0 -0.95955264496E+03  0.89787825362E+03  0.72948798199E+03  0.15030234039E+04  0.50400001928E-02 0. -1.
       -1    1    3    3    0  502  0.95955264496E+03 -0.89787825362E+03 -0.98936285780E+03  0.16449211231E+04  0.50400001928E-02 0.  1.
</event>
<event>
 5   0  0.2073287E-06  0.3485139E+04  0.7818609E-02  0.8117321E-01
        2   -1    0    0  501    0  0.00000000000E+00  0.00000000000E+00  0.19407041507E+04  0.19407041507E+04  0.25500000920E-02 0.  1.
       -2   -1    0    0    0  501  0.00000000000E+00  0.00000000000E+00 -0.15646632859E+04  0.15646632859E+04  0.25500000920E-02 0. -1.
    10030    2    1    2    0    0  0.00000000000E+00  0.00000000000E+00  0.37604086479E+03  0.35053674366E+04  0.34851390408E+04 0.  0.
        1    1    3    3  502    0  0.15638956562E+04  0.76135184046E+03  0.29409479990E+03  0.17640629240E+04  0.50400001928E-02 0. -1.
       -1    1    3    3    0  502 -0.15638956562E+04 -0.76135184046E+03  0.81946064889E+02  0.17413045127E+04  0.50400001928E-02 0.  1.
</event>
<event>
 5   0  0.7378896E-07  0.3496805E+04  0.7818609E-02  0.8114548E-01
       -1   -1    0    0    0  501  0.00000000000E+00  0.00000000000E+00  0.16493582767E+04  0.16493582767E+04  0.50400001928E-02 0. -1.
        1   -1    0    0  501    0  0.00000000000E+00  0.00000000000E+00 -0.18533944150E+04  0.18533944150E+04  0.50400001928E-02 0.  1.
    10030    2    1    2    0    0  0.00000000000E+00  0.00000000000E+00 -0.20403613832E+03  0.35027526918E+04  0.34968050666E+04 0.  0.
        2    1    3    3  502    0  0.56115813853E+03  0.80867468383E+03 -0.15494873458E+04  0.18356917594E+04  0.25500000920E-02 0.  1.
       -2    1    3    3    0  502 -0.56115813853E+03 -0.80867468383E+03  0.13454512074E+04  0.16670609324E+04  0.25500000920E-02 0. -1.
</event>
<event>
 5   0  0.6630125E-07  0.2435694E+04  0.7818609E-02  0.8426260E-01
        1   -1    0    0  501    0  0.00000000000E+00  0.00000000000E+00  0.11972168733E+04  0.11972168733E+04  0.50400001928E-02 0. -1.
       -1   -1    0    0    0  501  0.00000000000E+00  0.00000000000E+00 -0.12388330123E+04  0.12388330123E+04  0.50400001928E-02 0.  1.
    10030    2    1    2    0    0  0.00000000000E+00  0.00000000000E+00 -0.41616139048E+02  0.24360498856E+04  0.24356943860E+04 0.  0.
        1    1    3    3  502    0 -0.96070833827E+03  0.59630120728E+03 -0.47321925190E+03  0.12257536871E+04  0.50400001928E-02 0.  1.
       -1    1    3    3    0  502  0.96070833827E+03 -0.59630120728E+03  0.43160311285E+03  0.12102961985E+04  0.50400001928E-02 0. -1.
</event>
<event>
 5   0  0.2023479E-06  0.2914661E+04  0.7818609E-02  0.8268529E-01
       -2   -1    0    0    0  501  0.00000000000E+00  0.00000000000E+00  0.11634271756E+04  0.11634271756E+04  0.25500000920E-02 0.  1.
        2   -1    0    0  501    0  0.00000000000E+00  0.00000000000E+00 -0.18254788956E+04  0.18254788956E+04  0.25500000920E-02 0. -1.
    10030    2    1    2    0    0  0.00000000000E+00  0.00000000000E+00 -0.66205171994E+03  0.29889060712E+04  0.29146607046E+04 0.  0.
        5    1    3    3  502    0  0.70190245835E+03  0.39279773342E+03 -0.15772320054E+04  0.17704914598E+04  0.46999998093E+01 0. -1.
       -5    1    3    3    0  502 -0.70190245835E+03 -0.39279773342E+03  0.91518028545E+03  0.12184146114E+04  0.46999998093E+01 0.  1.
</event>
<event>
 5   0  0.2073287E-06  0.3399602E+04  0.7818609E-02  0.8138004E-01
       -2   -1    0    0    0  501  0.00000000000E+00  0.00000000000E+00  0.10425149142E+04  0.10425149142E+04  0.25500000920E-02 0.  1.
        2   -1    0    0  501    0  0.00000000000E+00  0.00000000000E+00 -0.27714930347E+04  0.27714930347E+04  0.25500000920E-02 0. -1.
    10030    2    1    2    0    0  0.00000000000E+00  0.00000000000E+00 -0.17289781206E+04  0.38140079489E+04  0.33996016374E+04 0.  0.
        1    1    3    3  502    0  0.16359922584E+04 -0.99535419926E+02 -0.13698976116E+04  0.21361173740E+04  0.50400001928E-02 0. -1.
       -1    1    3    3    0  502 -0.16359922584E+04  0.99535419926E+02 -0.35908050893E+03  0.16778905749E+04  0.50400001928E-02 0.  1.
</event>
<event>
 5   0  0.6630125E-07  0.3555160E+04  0.7818609E-02  0.8100841E-01
       -1   -1    0    0    0  501  0.00000000000E+00  0.00000000000E+00  0.22389495254E+04  0.22389495254E+04  0.50400001928E-02 0. -1.
        1   -1    0    0  501    0  0.00000000000E+00  0.00000000000E+00 -0.14112828769E+04  0.14112828769E+04  0.50400001928E-02 0.  1.
    10030    2    1    2    0    0  0.00000000000E+00  0.00000000000E+00  0.82766664853E+03  0.36502324023E+04  0.35551602650E+04 0.  0.
        4    1    3    3  502    0  0.23943150270E+03 -0.12134059581E+04  0.17247332196E+04  0.21223542954E+04  0.12699999809E+01 0. -1.
       -4    1    3    3    0  502 -0.23943150270E+03  0.12134059581E+04 -0.89706657111E+03  0.15278781069E+04  0.12699999809E+01 0.  1.
</event>
<event>
 5   0  0.7378896E-07  0.3428394E+04  0.7818609E-02  0.8130973E-01
        1   -1    0    0  501    0  0.00000000000E+00  0.00000000000E+00  0.21158585468E+04  0.21158585468E+04  0.50400001928E-02 0.  1.
       -1   -1    0    0    0  501  0.00000000000E+00  0.00000000000E+00 -0.13887841674E+04  0.13887841674E+04  0.50400001928E-02 0. -1.
    10030    2    1    2    0    0  0.00000000000E+00  0.00000000000E+00  0.72707437936E+03  0.35046427142E+04  0.34283937056E+04 0.  0.
        2    1    3    3  502    0  0.22201239743E+03 -0.16325864724E+04  0.84717982909E+03  0.18526580249E+04  0.25500000920E-02 0.  1.
       -2    1    3    3    0  502 -0.22201239743E+03  0.16325864724E+04 -0.12010544974E+03  0.16519846893E+04  0.25500000920E-02 0. -1.
</event>
<event>
 5   0  0.2001768E-06  0.2826286E+04  0.7818609E-02  0.8295154E-01
        2   -1    0    0  501    0  0.00000000000E+00  0.00000000000E+00  0.24868417435E+04  0.24868417435E+04  0.25500000920E-02 0. -1.
       -2   -1    0    0    0  501  0.00000000000E+00  0.00000000000E+00 -0.80301560650E+03  0.80301560650E+03  0.25500000920E-02 0.  1.
    10030    2    1    2    0    0  0.00000000000E+00  0.00000000000E+00  0.16838261370E+04  0.32898573500E+04  0.28262857116E+04 0.  0.
        2    1    3    3  502    0  0.57949761804E+03 -0.10902221555E+04  0.16421055908E+04  0.20544859720E+04  0.25500000920E-02 0. -1.
       -2    1    3    3    0  502 -0.57949761804E+03  0.10902221555E+04  0.41720546243E+02  0.12353713781E+04  0.25500000920E-02 0.  1.
</event>
<event>
 5   0  0.6890600E-07  0.3494910E+04  0.7818609E-02  0.8114997E-01
       -1   -1    0    0    0  501  0.00000000000E+00  0.00000000000E+00  0.11980721234E+04  0.11980721234E+04  0.50400001928E-02 0. -1.
        1   -1    0    0  501    0  0.00000000000E+00  0.00000000000E+00 -0.25487609300E+04  0.25487609300E+04  0.50400001928E-02 0.  1.
    10030    2    1    2    0    0  0.00000000000E+00  0.00000000000E+00 -0.13506888065E+04  0.37468330534E+04  0.34949102532E+04 0.  0.
        3    1    3    3  502    0  0.78320770264E+03 -0.31100128589E+03 -0.23165288539E+04  0.24650440253E+04  0.10100000352E+00 0.  1.
       -3    1    3    3    0  502 -0.78320770264E+03  0.31100128589E+03  0.96584004740E+03  0.12817890281E+04  0.10100000352E+00 0. -1.
</event>
<event>
 5   0  0.2023479E-06  0.3479803E+04  0.7818609E-02  0.8118593E-01
       -2   -1    0    0    0  501  0.00000000000E+00  0.00000000000E+00  0.10972234385E+04  0.10972234385E+04  0.25500000920E-02 0.  1.
        2   -1    0    0  501    0  0.00000000000E+00  0.00000000000E+00 -0.27590160543E+04  0.27590160543E+04  0.25500000920E-02 0. -1.
    10030    2    1    2    0    0  0.00000000000E+00  0.00000000000E+00 -0.16617926158E+04  0.38562394928E+04  0.34798029151E+04 0.  0.
        5    1    3    3  502    0  0.32993748509E+03  0.72601644026E+03  0.88276202522E+03  0.11896425929E+04  0.46999998093E+01 0.  1.
       -5    1    3    3    0  502 -0.32993748509E+03 -0.72601644026E+03 -0.25445546410E+04  0.26665968999E+04  0.46999998093E+01 0. -1.
</event>
<event>
 5   0  0.6890600E-07  0.3491823E+04  0.7818609E-02  0.8115730E-01
        1   -1    0    0  501    0  0.00000000000E+00  0.00000000000E+00  0.15771865992E+04  0.15771865992E+04  0.50400001928E-02 0. -1.
       -1   -1    0    0    0  501  0.00000000000E+00  0.00000000000E+00 -0.19326864507E+04  0.19326864507E+04  0.50400001928E-02 0.  1.
    10030    2    1    2    0    0  0.00000000000E+00  0.00000000000E+00 -0.35549985148E+03  0.35098730498E+04  0.34918231172E+04 0.  0.
        3    1    3    3  502    0  0.88828927203E+03 -0.91931164238E+03  0.10175207025E+04  0.16338727358E+04  0.10100000352E+00 0. -1.
       -3    1    3    3    0  502 -0.88828927203E+03  0.91931164238E+03 -0.13730205539E+04  0.18760003141E+04  0.10100000352E+00 0.  1.
</event>
<event>
 5   0  0.2001768E-06  0.3078013E+04  0.7818609E-02  0.8221798E-01
        2   -1    0    0  501    0  0.00000000000E+00  0.00000000000E+00  0.18352374516E+04  0.18352374516E+04  0.25500000920E-02 0. -1.
       -2   -1    0    0    0  501  0.00000000000E+00  0.00000000000E+00 -0.12905909547E+04  0.12905909547E+04  0.25500000920E-02 0.  1.
    10030    2    1    2    0    0  0.00000000000E+00  0.00000000000E+00  0.54464649689E+03  0.31258284063E+04  0.30780129011E+04 0.  0.
        2    1    3    3  502    0 -0.11072920174E+04 -0.72460367932E+03  0.10702741398E+04  0.17019497167E+04  0.25500000920E-02 0. -1.
       -2    1    3    3    0  502  0.11072920174E+04  0.72460367932E+03 -0.52562764289E+03  0.14238786896E+04  0.25500000920E-02 0.  1.
</event>
<event>
 5   0  0.2001768E-06  0.3509684E+04  0.7818609E-02  0.8111499E-01
        2   -1    0    0  501    0  0.00000000000E+00  0.00000000000E+00  0.10965625865E+04  0.10965625865E+04  0.25500000920E-02 0.  1.
       -2   -1    0    0    0  501  0.00000000000E+00  0.00000000000E+00 -0.28082937323E+04  0.28082937323E+04  0.25500000920E-02 0. -1.
    10030    2    1    2    0    0  0.00000000000E+00  0.00000000000E+00 -0.17117311458E+04  0.39048563188E+04  0.35096836545E+04 0.  0.
        2    1    3    3  502    0 -0.93009012986E+03  0.76640853264E+03  0.56330158135E+03  0.13303226526E+04  0.25500000920E-02 0.  1.
       -2    1    3    3    0  502  0.93009012986E+03 -0.76640853264E+03 -0.22750327271E+04  0.25745336661E+04  0.25500000920E-02 0. -1.
</event>
<event>
 5   0  0.6630125E-07  0.3500514E+04  0.7818609E-02  0.8113668E-01
        1   -1    0    0  501    0  0.00000000000E+00  0.00000000000E+00  0.21466607103E+04  0.21466607103E+04  0.50400001928E-02 0. -1.
       -1   -1    0    0    0  501  0.00000000000E+00  0.00000000000E+00 -0.14270533114E+04  0.14270533114E+04  0.50400001928E-02 0.  1.
    10030    2    1    2    0    0  0.00000000000E+00  0.00000000000E+00  0.71960739887E+03  0.35737140217E+04  0.35005138338E+04 0.  0.
        1    1    3    3  502    0  0.14335304595E+04 -0.50163390036E+03 -0.52830292573E+03  0.16080267814E+04  0.50400001928E-02 0.  1.
       -1    1    3    3    0  502 -0.14335304595E+04  0.50163390036E+03  0.12479103246E+04  0.19656872403E+04  0.50400001928E-02 0. -1.
</event>
<event>
 5   0  0.2020725E-06  0.3518958E+04  0.7818609E-02  0.8109312E-01
       -2   -1    0    0    0  501  0.00000000000E+00  0.00000000000E+00  0.14357181866E+04  0.14357181866E+04  0.25500000920E-02 0. -1.
        2   -1    0    0  501    0  0.00000000000E+00  0.00000000000E+00 -0.21562498898E+04  0.21562498898E+04  0.25500000920E-02 0.  1.
    10030    2    1    2    0    0  0.00000000000E+00  0.00000000000E+00 -0.72053170320E+03  0.35919680763E+04  0.35189584718E+04 0.  0.
        3    1    3    3  502    0  0.14210921767E+04  0.23575901164E+03  0.67098312396E+03  0.15891204010E+04  0.10100000352E+00 0. -1.
       -3    1    3    3    0  502 -0.14210921767E+04 -0.23575901164E+03 -0.13915148272E+04  0.20028476753E+04  0.10100000352E+00 0.  1.
</event>
<event>
 5   0  0.2001768E-06  0.3406894E+04  0.7818609E-02  0.8136216E-01
        2   -1    0    0  501    0  0.00000000000E+00  0.00000000000E+00  0.19170564599E+04  0.19170564599E+04  0.25500000920E-02 0.  1.
       -2   -1    0    0    0  501  0.00000000000E+00  0.00000000000E+00 -0.15136392190E+04  0.15136392190E+04  0.25500000920E-02 0. -1.
    10030    2    1    2    0    0  0.00000000000E+00  0.00000000000E+00  0.40341724087E+03  0.34306956789E+04  0.34068940945E+04 0.  0.
        2    1    3    3  502    0 -0.28925301636E+03  0.81240810299E+03  0.16810046073E+04  0.18892990031E+04  0.25500000920E-02 0.  1.
       -2    1    3    3    0  502  0.28925301636E+03 -0.81240810299E+03 -0.12775873665E+04  0.15413966758E+04  0.25500000920E-02 0. -1.
</event>
<event>
 5   0  0.6890600E-07  0.3616295E+04  0.7818609E-02  0.8086769E-01
        1   -1    0    0  501    0  0.00000000000E+00  0.00000000000E+00  0.19806873642E+04  0.19806873642E+04  0.50400001928E-02 0. -1.
       -1   -1    0    0    0  501  0.00000000000E+00  0.00000000000E+00 -0.16506374690E+04  0.16506374690E+04  0.50400001928E-02 0.  1.
    10030    2    1    2    0    0  0.00000000000E+00  0.00000000000E+00  0.33004989523E+03  0.36313248332E+04  0.36162946659E+04 0.  0.
        3    1    3    3  502    0 -0.11505898833E+04  0.33374476637E+03 -0.11949133415E+04  0.16920580820E+04  0.10100000352E+00 0.  1.
       -3    1    3    3    0  502  0.11505898833E+04 -0.33374476637E+03  0.15249632368E+04  0.19392667512E+04  0.10100000352E+00 0. -1.
</event>
<event>
 5   0  0.6890600E-07  0.3520014E+04  0.7818609E-02  0.8109063E-01
        1   -1    0    0  501    0  0.00000000000E+00  0.00000000000E+00  0.13656910315E+04  0.13656910315E+04  0.50400001928E-02 0.  1.
       -1   -1    0    0    0  501  0.00000000000E+00  0.00000000000E+00 -0.22681738564E+04  0.22681738564E+04  0.50400001928E-02 0. -1.
    10030    2    1    2    0    0  0.00000000000E+00  0.00000000000E+00 -0.90248282490E+03  0.36338648878E+04  0.35200140303E+04 0.  0.
        3    1    3    3  502    0  0.82077956449E+03  0.13758849223E+04 -0.12034272082E+04  0.20037403696E+04  0.10100000352E+00 0. -1.
       -3    1    3    3    0  502 -0.82077956449E+03 -0.13758849223E+04  0.30094438333E+03  0.16301245183E+04  0.10100000352E+00 0.  1.
</event>
<event>
 5   0  0.6630125E-07  0.3538906E+04  0.7818609E-02  0.8104631E-01
        1   -1    0    0  501    0  0.00000000000E+00  0.00000000000E+00  0.21823334254E+04  0.21823334254E+04  0.50400001928E-02 0.  1.
       -1   -1    0    0    0  501  0.00000000000E+00  0.00000000000E+00 -0.14346864793E+04  0.14346864793E+04  0.50400001928E-02 0. -1.
    10030    2    1    2    0    0  0.00000000000E+00  0.00000000000E+00  0.74764694613E+03  0.36170199048E+04  0.35389061919E+04 0.  0.
        4    1    3    3  502    0 -0.84016491226E+03  0.12731676596E+03  0.19601371588E+04  0.21364049084E+04  0.12699999809E+01 0.  1.
       -4    1    3    3    0  502  0.84016491226E+03 -0.12731676596E+03 -0.12124902126E+04  0.14806149963E+04  0.12699999809E+01 0. -1.
</event>
<event>
 5   0  0.2020725E-06  0.3506299E+04  0.7818609E-02  0.8112299E-01
       -2   -1    0    0    0  501  0.00000000000E+00  0.00000000000E+00  0.14344511955E+04  0.14344511955E+04  0.25500000920E-02 0.  1.
        2   -1    0    0  501    0  0.00000000000E+00  0.00000000000E+00 -0.21426548372E+04  0.21426548372E+04  0.25500000920E-02 0. -1.
    10030    2    1    2    0    0  0.00000000000E+00  0.00000000000E+00 -0.70820364168E+03  0.35771060328E+04  0.35062993557E+04 0.  0.
        3    1    3    3  502    0  0.11308529559E+04  0.13249572795E+04 -0.15213022250E+03  0.17485662170E+04  0.10100000352E+00 0. -1.
       -3    1    3    3    0  502 -0.11308529559E+04 -0.13249572795E+04 -0.55607341917E+03  0.18285398158E+04  0.10100000352E+00 0.  1.
</event>
<event>
 5   0  0.2001768E-06  0.3468466E+04  0.7818609E-02  0.8121304E-01
        2   -1    0    0  501    0  0.00000000000E+00  0.00000000000E+00  0.13228861501E+04  0.13228861501E+04  0.25500000920E-02 0.  1.
       -2   -1    0    0    0  501  0.00000000000E+00  0.00000000000E+00 -0.22734861413E+04  0.22734861413E+04  0.25500000920E-02 0. -1.
    10030    2    1    2    0    0  0.00000000000E+00  0.00000000000E+00 -0.95059999117E+03  0.35963722914E+04  0.34684655563E+04 0.  0.
        2    1    3    3  502    0 -0.19829518389E+03  0.53417450568E+03 -0.21736589887E+04  0.22470996377E+04  0.25500000920E-02 0. -1.
       -2    1    3    3    0  502  0.19829518389E+03 -0.53417450568E+03  0.12230589976E+04  0.13492726537E+04  0.25500000920E-02 0.  1.
</event>
<event>
 5   0  0.1999883E-06  0.2699618E+04  0.7818609E-02  0.8335129E-01
       -2   -1    0    0    0  501  0.00000000000E+00  0.00000000000E+00  0.89467895425E+03  0.89467895425E+03  0.25500000920E-02 0.  1.
        2   -1    0    0  501    0  0.00000000000E+00  0.00000000000E+00 -0.20364673424E+04  0.20364673424E+04  0.25500000920E-02 0. -1.
    10030    2    1    2    0    0  0.00000000000E+00  0.00000000000E+00 -0.11417883882E+04  0.29311462967E+04  0.26996181006E+04 0.  0.
        4    1    3    3  502    0  0.73733122991E+03 -0.10175860521E+04 -0.11059498766E+04  0.16739968514E+04  0.12699999809E+01 0.  1.
       -4    1    3    3    0  502 -0.73733122991E+03  0.10175860521E+04 -0.35838511626E+02  0.12571494453E+04  0.12699999809E+01 0. -1.
</event>
<event>
 5   0  0.7378896E-07  0.3542593E+04  0.7818609E-02  0.8103770E-01
        1   -1    0    0  501    0  0.00000000000E+00  0.00000000000E+00  0.22060575027E+04  0.22060575027E+04  0.50400001928E-02 0. -1.
       -1   -1    0    0    0  501  0.00000000000E+00  0.00000000000E+00 -0.14222164261E+04  0.14222164261E+04  0.50400001928E-02 0.  1.
    10030    2    1    2    0    0  0.00000000000E+00  0.00000000000E+00  0.78384107663E+03  0.36282739288E+04  0.35425929584E+04 0.  0.
        2    1    3    3  502    0  0.12880330174E+04 -0.94801486699E+03  0.11717357296E+04  0.19826058262E+04  0.25500000920E-02 0. -1.
       -2    1    3    3    0  502 -0.12880330174E+04  0.94801486699E+03 -0.38789465300E+03  0.16456681026E+04  0.25500000920E-02 0.  1.
</event>
<event>
 5   0  0.6630125E-07  0.3524463E+04  0.7818609E-02  0.8108017E-01
       -3   -1    0    0    0  501  0.00000000000E+00  0.00000000000E+00  0.18252647515E+04  0.18252647543E+04  0.10100000352E+00 0. -1.
        3   -1    0    0  501    0  0.00000000000E+00  0.00000000000E+00 -0.17013752678E+04  0.17013752708E+04  0.10100000352E+00 0.  1.
    10030    2    1    2    0    0  0.00000000000E+00  0.00000000000E+00  0.12388948366E+03  0.35266400251E+04  0.35244632588E+04 0.  0.
        1    1    3    3  502    0 -0.98197409843E+03 -0.14389065383E+04 -0.20418034329E+03  0.17539711425E+04  0.50400001928E-02 0. -1.
       -1    1    3    3    0  502  0.98197409843E+03  0.14389065383E+04  0.32806982695E+03  0.17726688826E+04  0.50400001928E-02 0.  1.
</event>
<event>
 5   0  0.2073287E-06  0.3482006E+04  0.7818609E-02  0.8118067E-01
       -2   -1    0    0    0  501  0.00000000000E+00  0.00000000000E+00  0.14894721784E+04  0.14894721784E+04  0.25500000920E-02 0. -1.
        2   -1    0    0  501    0  0.00000000000E+00  0.00000000000E+00 -0.20350108656E+04  0.20350108656E+04  0.25500000920E-02 0.  1.
    10030    2    1    2    0    0  0.00000000000E+00  0.00000000000E+00 -0.54553868718E+03  0.35244830440E+04  0.34820063567E+04 0.  0.
        1    1    3    3  502    0 -0.65883654855E+03 -0.14243809237E+04  0.49019330566E+03  0.16441460065E+04  0.50400001928E-02 0. -1.
       -1    1    3    3    0  502  0.65883654855E+03  0.14243809237E+04 -0.10357319928E+04  0.18803370375E+04  0.50400001928E-02 0.  1.
</event>
<event>
 5   0  0.2001768E-06  0.3527480E+04  0.7818609E-02  0.8107308E-01
       -2   -1    0    0    0  501  0.00000000000E+00  0.00000000000E+00  0.24815223065E+04  0.24815223065E+04  0.25500000920E-02 0.  1.
        2   -1    0    0  501    0  0.00000000000E+00  0.00000000000E+00 -0.12535771450E+04  0.12535771450E+04  0.25500000920E-02 0. -1.
    10030    2    1    2    0    0  0.00000000000E+00  0.00000000000E+00  0.12279451614E+04  0.37350994515E+04  0.35274804880E+04 0.  0.
        2    1    3    3  502    0  0.10916549869E+04 -0.13799263479E+04  0.48484268618E+03  0.18250971937E+04  0.25500000920E-02 0.  1.
       -2    1    3    3    0  502 -0.10916549869E+04  0.13799263479E+04  0.74310247526E+03  0.19100022578E+04  0.25500000920E-02 0. -1.
</event>
<event>
 5   0  0.6630125E-07  0.3672830E+04  0.7818609E-02  0.8074010E-01
       -1   -1    0    0    0  501  0.00000000000E+00  0.00000000000E+00  0.16787105641E+04  0.16787105641E+04  0.50400001928E-02 0. -1.
        1   -1    0    0  501    0  0.00000000000E+00  0.00000000000E+00 -0.20089346241E+04  0.20089346241E+04  0.50400001928E-02 0.  1.
    10030    2    1    2    0    0  0.00000000000E+00  0.00000000000E+00 -0.33022406001E+03  0.36876451883E+04  0.36728298497E+04 0.  0.
        1    1    3    3  502    0 -0.12065228169E+04  0.10653800922E+04  0.72258540639E+03  0.17643303880E+04  0.50400001928E-02 0.  1.
       -1    1    3    3    0  502  0.12065228169E+04 -0.10653800922E+04 -0.10528094664E+04  0.19233148003E+04  0.50400001928E-02 0. -1.
</event>
<event>
 5   0  0.6890600E-07  0.3421790E+04  0.7818609E-02  0.8132579E-01
       -1   -1    0    0    0  501  0.00000000000E+00  0.00000000000E+00  0.15152114642E+04  0.15152114642E+04  0.50400001928E-02 0. -1.
        1   -1    0    0  501    0  0.00000000000E+00  0.00000000000E+00 -0.19318500625E+04  0.19318500625E+04  0.50400001928E-02 0.  1.
    10030    2    1    2    0    0  0.00000000000E+00  0.00000000000E+00 -0.41663859839E+03  0.34470615267E+04  0.34217898017E+04 0.  0.
        3    1    3    3  502    0  0.15672581357E+04 -0.10044692575E+02 -0.89950793331E+03  0.18070731839E+04  0.10100000352E+00 0.  1.
       -3    1    3    3    0  502 -0.15672581357E+04  0.10044692575E+02  0.48286933493E+03  0.16399883428E+04  0.10100000352E+00 0. -1.
</event>
<event>
 5   0  0.6630125E-07  0.3328013E+04  0.7818609E-02  0.8155804E-01
       -1   -1    0    0    0  501  0.00000000000E+00  0.00000000000E+00  0.15614123031E+04  0.15614123031E+04  0.50400001928E-02 0. -1.
        1   -1    0    0  501    0  0.00000000000E+00  0.00000000000E+00 -0.17733414045E+04  0.17733414045E+04  0.50400001928E-02 0.  1.
    10030    2    1    2    0    0  0.00000000000E+00  0.00000000000E+00 -0.21192910142E+03  0.33347537076E+04  0.33280126722E+04 0.  0.
        4    1    3    3  502    0 -0.94811205075E+03 -0.13611425735E+04  0.25792882742E+02  0.16590034515E+04  0.12699999809E+01 0.  1.
       -4    1    3    3    0  502  0.94811205075E+03  0.13611425735E+04 -0.23772198416E+03  0.16757502561E+04  0.12699999809E+01 0. -1.
</event>
<event>
 5   0  0.6630125E-07  0.3375648E+04  0.7818609E-02  0.8143909E-01
       -1   -1    0    0    0  501  0.00000000000E+00  0.00000000000E+00  0.18356264043E+04  0.18356264043E+04  0.50400001928E-02 0. -1.
        1   -1    0    0  501    0  0.00000000000E+00  0.00000000000E+00 -0.15519225119E+04  0.15519225119E+04  0.50400001928E-02 0.  1.
    10030    2    1    2    0    0  0.00000000000E+00  0.00000000000E+00  0.28370389247E+03  0.33875489162E+04  0.33756480506E+04 0.  0.
        1    1    3    3  502    0 -0.12493370331E+04 -0.71165479952E+03 -0.74526367217E+03  0.16194793969E+04  0.50400001928E-02 0.  1.
       -1    1    3    3    0  502  0.12493370331E+04  0.71165479952E+03  0.10289675646E+04  0.17680695193E+04  0.50400001928E-02 0. -1.
</event>
<event>
 5   0  0.2020725E-06  0.3513951E+04  0.7818609E-02  0.8110492E-01
       -2   -1    0    0    0  501  0.00000000000E+00  0.00000000000E+00  0.15016599367E+04  0.15016599367E+04  0.25500000920E-02 0. -1.
        2   -1    0    0  501    0  0.00000000000E+00  0.00000000000E+00 -0.20557004832E+04  0.20557004832E+04  0.25500000920E-02 0.  1.
    10030    2    1    2    0    0  0.00000000000E+00  0.00000000000E+00 -0.55404054654E+03  0.35573604199E+04  0.35139510852E+04 0.  0.
        3    1    3    3  502    0  0.10935717279E+04  0.12498354410E+04  0.30362888183E+03  0.16882470974E+04  0.10100000352E+00 0. -1.
       -3    1    3    3    0  502 -0.10935717279E+04 -0.12498354410E+04 -0.85766942837E+03  0.18691133225E+04  0.10100000352E+00 0.  1.
</event>
<event>
 5   0  0.7378896E-07  0.3435988E+04  0.7818609E-02  0.8129130E-01
        1   -1    0    0  501    0  0.00000000000E+00  0.00000000000E+00  0.20618885956E+04  0.20618885956E+04  0.50400001928E-02 0.  1.
       -1   -1    0    0    0  501  0.00000000000E+00  0.00000000000E+00 -0.14314566312E+04  0.14314566312E+04  0.50400001928E-02 0. -1.
    10030    2    1    2    0    0  0.00000000000E+00  0.00000000000E+00  0.63043196434E+03  0.34933452268E+04  0.34359884185E+04 0.  0.
        2    1    3    3  502    0 -0.13801287992E+04 -0.43551733216E+03  0.12564525391E+04  0.19165343284E+04  0.25500000920E-02 0.  1.
       -2    1    3    3    0  502  0.13801287992E+04  0.43551733216E+03 -0.62602057475E+03  0.15768108983E+04  0.25500000920E-02 0. -1.
</event>
<event>
 5   0  0.2073287E-06  0.2251630E+04  0.7818609E-02  0.8497241E-01
       -2   -1    0    0    0  501  0.00000000000E+00  0.00000000000E+00  0.13246637834E+04  0.13246637834E+04  0.25500000920E-02 0.  1.
        2   -1    0    0  501    0  0.00000000000E+00  0.00000000000E+00 -0.95681565579E+03  0.95681565580E+03  0.25500000920E-02 0. -1.
    10030    2    1    2    0    0  0.00000000000E+00  0.00000000000E+00  0.36784812757E+03  0.22814794392E+04  0.22516296734E+04 0.  0.
        1    1    3    3  502    0  0.60815558155E+02 -0.14251135473E+02  0.13229066570E+04  0.13243804779E+04  0.50400001928E-02 0.  1.
       -1    1    3    3    0  502 -0.60815558155E+02  0.14251135473E+02 -0.95505852945E+03  0.95709896128E+03  0.50400001928E-02 0. -1.
</event>
<event>
 5   0  0.7378896E-07  0.3509655E+04  0.7818609E-02  0.8111506E-01
        1   -1    0    0  501    0  0.00000000000E+00  0.00000000000E+00  0.17391321582E+04  0.17391321582E+04  0.50400001928E-02 0. -1.
       -1   -1    0    0    0  501  0.00000000000E+00  0.00000000000E+00 -0.17706641926E+04  0.17706641926E+04  0.50400001928E-02 0.  1.
    10030    2    1    2    0    0  0.00000000000E+00  0.00000000000E+00 -0.31532034394E+02  0.35097963509E+04  0.35096547060E+04 0.  0.
        2    1    3    3  502    0 -0.84431119128E+03  0.13485483820E+04 -0.75604916881E+03  0.17615488843E+04  0.25500000920E-02 0.  1.
       -2    1    3    3    0  502  0.84431119128E+03 -0.13485483820E+04  0.72451713441E+03  0.17482474665E+04  0.25500000920E-02 0. -1.
</event>
<event>
 5   0  0.6890600E-07  0.3421894E+04  0.7818609E-02  0.8132554E-01
       -1   -1    0    0    0  501  0.00000000000E+00  0.00000000000E+00  0.29223981057E+04  0.29223981057E+04  0.50400001928E-02 0.  1.
        1   -1    0    0  501    0  0.00000000000E+00  0.00000000000E+00 -0.10016908896E+04  0.10016908896E+04  0.50400001928E-02 0. -1.
    10030    2    1    2    0    0  0.00000000000E+00  0.00000000000E+00  0.19207072161E+04  0.39240889953E+04  0.34218939541E+04 0.  0.
        3    1    3    3  502    0 -0.45109755938E+03  0.12514461069E+04 -0.27353666935E+03  0.13580974509E+04  0.10100000352E+00 0. -1.
       -3    1    3    3    0  502  0.45109755938E+03 -0.12514461069E+04  0.21942438855E+04  0.25659915443E+04  0.10100000352E+00 0.  1.
</event>
<event>
 5   0  0.1999883E-06  0.3480781E+04  0.7818609E-02  0.8118360E-01
       -2   -1    0    0    0  501  0.00000000000E+00  0.00000000000E+00  0.29094040578E+04  0.29094040578E+04  0.25500000920E-02 0. -1.
        2   -1    0    0  501    0  0.00000000000E+00  0.00000000000E+00 -0.10410927318E+04  0.10410927318E+04  0.25500000920E-02 0.  1.
    10030    2    1    2    0    0  0.00000000000E+00  0.00000000000E+00  0.18683113260E+04  0.39504967896E+04  0.34807811872E+04 0.  0.
        4    1    3    3  502    0  0.13645792185E+04  0.10255255713E+04  0.13193332510E+04  0.21574107122E+04  0.12699999809E+01 0. -1.
       -4    1    3    3    0  502 -0.13645792185E+04 -0.10255255713E+04  0.54897807500E+03  0.17930860773E+04  0.12699999809E+01 0.  1.
</event>
<event>
 5   0  0.6630125E-07  0.3415582E+04  0.7818609E-02  0.8134093E-01
        1   -1    0    0  501    0  0.00000000000E+00  0.00000000000E+00  0.24560567711E+04  0.24560567711E+04  0.50400001928E-02 0. -1.
       -1   -1    0    0    0  501  0.00000000000E+00  0.00000000000E+00 -0.11874927778E+04  0.11874927778E+04  0.50400001928E-02 0.  1.
    10030    2    1    2    0    0  0.00000000000E+00  0.00000000000E+00  0.12685639933E+04  0.36435495489E+04  0.34155817528E+04 0.  0.
        4    1    3    3  502    0 -0.95581123818E+03  0.53684215412E+03  0.20311757318E+04  0.23081271819E+04  0.12699999809E+01 0. -1.
       -4    1    3    3    0  502  0.95581123818E+03 -0.53684215412E+03 -0.76261173857E+03  0.13354223670E+04  0.12699999809E+01 0.  1.
</event>
<event>
 5   0  0.2001768E-06  0.3526531E+04  0.7818609E-02  0.8107531E-01
        2   -1    0    0  501    0  0.00000000000E+00  0.00000000000E+00  0.12080583998E+04  0.12080583998E+04  0.25500000920E-02 0.  1.
       -2   -1    0    0    0  501  0.00000000000E+00  0.00000000000E+00 -0.25736385931E+04  0.25736385931E+04  0.25500000920E-02 0. -1.
    10030    2    1    2    0    0  0.00000000000E+00  0.00000000000E+00 -0.13655801933E+04  0.37816969929E+04  0.35265312818E+04 0.  0.
        2    1    3    3  502    0  0.71631167847E+03 -0.80821210220E+02  0.10428273892E+04  0.12677237288E+04  0.25500000920E-02 0.  1.
       -2    1    3    3    0  502 -0.71631167847E+03  0.80821210220E+02 -0.24084075826E+04  0.25139732641E+04  0.25500000920E-02 0. -1.
</event>
<event>
 5   0  0.6630125E-07  0.2164267E+04  0.7818609E-02  0.8533450E-01
       -1   -1    0    0    0  501  0.00000000000E+00  0.00000000000E+00  0.12080759965E+04  0.12080759966E+04  0.50400001928E-02 0. -1.
        1   -1    0    0  501    0  0.00000000000E+00  0.00000000000E+00 -0.96932025122E+03  0.96932025123E+03  0.50400001928E-02 0.  1.
    10030    2    1    2    0    0  0.00000000000E+00  0.00000000000E+00  0.23875574533E+03  0.21773962478E+04  0.21642666458E+04 0.  0.
        5    1    3    3  502    0 -0.55011784441E+03 -0.10340504707E+03 -0.81234413897E+03  0.98653298810E+03  0.46999998093E+01 0.  1.
       -5    1    3    3    0  502  0.55011784441E+03  0.10340504707E+03  0.10510998843E+04  0.11908632597E+04  0.46999998093E+01 0. -1.
</event>
<event>
 5   0  0.2020725E-06  0.3607135E+04  0.7818609E-02  0.8088859E-01
       -2   -1    0    0    0  501  0.00000000000E+00  0.00000000000E+00  0.26029745696E+04  0.26029745696E+04  0.25500000920E-02 0. -1.
        2   -1    0    0  501    0  0.00000000000E+00  0.00000000000E+00 -0.12496689372E+04  0.12496689372E+04  0.25500000920E-02 0.  1.
    10030    2    1    2    0    0  0.00000000000E+00  0.00000000000E+00  0.13533056324E+04  0.38526435067E+04  0.36071354085E+04 0.  0.
        3    1    3    3  502    0  0.44712672076E+03  0.71818602187E+03 -0.10245999756E+04  0.13287281838E+04  0.10100000352E+00 0.  1.
       -3    1    3    3    0  502 -0.44712672076E+03 -0.71818602187E+03  0.23779056080E+04  0.25239153229E+04  0.10100000352E+00 0. -1.
</event>
<event>
 5   0  0.7378896E-07  0.3403173E+04  0.7818609E-02  0.8137128E-01
       -1   -1    0    0    0  501  0.00000000000E+00  0.00000000000E+00  0.23920179676E+04  0.23920179676E+04  0.50400001928E-02 0.  1.
        1   -1    0    0  501    0  0.00000000000E+00  0.00000000000E+00 -0.12104411605E+04  0.12104411605E+04  0.50400001928E-02 0. -1.
    10030    2    1    2    0    0  0.00000000000E+00  0.00000000000E+00  0.11815768071E+04  0.36024591281E+04  0.34031732278E+04 0.  0.
        2    1    3    3  502    0  0.24636011477E+03 -0.66551793252E+03  0.22278932377E+04  0.23381864133E+04  0.25500000920E-02 0.  1.
       -2    1    3    3    0  502 -0.24636011477E+03  0.66551793252E+03 -0.10463164306E+04  0.12642727148E+04  0.25500000920E-02 0. -1.
</event>
<event>
 5   0  0.2001768E-06  0.3505327E+04  0.7818609E-02  0.8112529E-01
       -2   -1    0    0    0  501  0.00000000000E+00  0.00000000000E+00  0.16749210328E+04  0.16749210328E+04  0.25500000920E-02 0. -1.
        2   -1    0    0  501    0  0.00000000000E+00  0.00000000000E+00 -0.18340148352E+04  0.18340148352E+04  0.25500000920E-02 0.  1.
    10030    2    1    2    0    0  0.00000000000E+00  0.00000000000E+00 -0.15909380237E+03  0.35089358680E+04  0.35053273867E+04 0.  0.
        2    1    3    3  502    0  0.96825704781E+03 -0.56720110968E+03  0.12681641201E+04  0.16933632348E+04  0.25500000920E-02 0. -1.
       -2    1    3    3    0  502 -0.96825704781E+03  0.56720110968E+03 -0.14272579224E+04  0.18155726332E+04  0.25500000920E-02 0.  1.
</event>
<event>
 5   0  0.2073287E-06  0.3362038E+04  0.7818609E-02  0.8147287E-01
        2   -1    0    0  501    0  0.00000000000E+00  0.00000000000E+00  0.13505540607E+04  0.13505540607E+04  0.25500000920E-02 0. -1.
       -2   -1    0    0    0  501  0.00000000000E+00  0.00000000000E+00 -0.20923444662E+04  0.20923444662E+04  0.25500000920E-02 0.  1.
    10030    2    1    2    0    0  0.00000000000E+00  0.00000000000E+00 -0.74179040558E+03  0.34428985269E+04  0.33620376650E+04 0.  0.
        1    1    3    3  502    0  0.13560988530E+04 -0.55807214249E+03  0.47068277718E+03  0.15401269078E+04  0.50400001928E-02 0. -1.
       -1    1    3    3    0  502 -0.13560988530E+04  0.55807214249E+03 -0.12124731828E+04  0.19027716191E+04  0.50400001928E-02 0.  1.
</event>
<event>
 5   0  0.6890600E-07  0.2875895E+04  0.7818609E-02  0.8280086E-01
        1   -1    0    0  501    0  0.00000000000E+00  0.00000000000E+00  0.19474889796E+04  0.19474889797E+04  0.50400001928E-02 0.  1.
       -1   -1    0    0    0  501  0.00000000000E+00  0.00000000000E+00 -0.10617226051E+04  0.10617226051E+04  0.50400001928E-02 0. -1.
    10030    2    1    2    0    0  0.00000000000E+00  0.00000000000E+00  0.88576637451E+03  0.30092115848E+04  0.28758950419E+04 0.  0.
        3    1    3    3  502    0 -0.25947470174E+03  0.75897601683E+03  0.16916567181E+04  0.18721843331E+04  0.10100000352E+00 0.  1.
       -3    1    3    3    0  502  0.25947470174E+03 -0.75897601683E+03 -0.80589034361E+03  0.11370272517E+04  0.10100000352E+00 0. -1.
</event>
<event>
 5   0  0.6630125E-07  0.3459363E+04  0.7818609E-02  0.8123489E-01
       -1   -1    0    0    0  501  0.00000000000E+00  0.00000000000E+00  0.19029313678E+04  0.19029313678E+04  0.50400001928E-02 0.  1.
        1   -1    0    0  501    0  0.00000000000E+00  0.00000000000E+00 -0.15722045499E+04  0.15722045499E+04  0.50400001928E-02 0. -1.
    10030    2    1    2    0    0  0.00000000000E+00  0.00000000000E+00  0.33072681789E+03  0.34751359177E+04  0.34593625740E+04 0.  0.
        4    1    3    3  502    0  0.13634202204E+04  0.71869515179E+03 -0.62330118651E+03  0.16625111731E+04  0.12699999809E+01 0. -1.
       -4    1    3    3    0  502 -0.13634202204E+04 -0.71869515179E+03  0.95402800440E+03  0.18126247446E+04  0.12699999809E+01 0.  1.
</event>
<event>
 5   0  0.2001768E-06  0.2811989E+04  0.7818609E-02  0.8299556E-01
        2   -1    0    0  501    0  0.00000000000E+00  0.00000000000E+00  0.15768077053E+04  0.15768077053E+04  0.25500000920E-02 0.  1.
       -2   -1    0    0    0  501  0.00000000000E+00  0.00000000000E+00 -0.12536851798E+04  0.12536851798E+04  0.25500000920E-02 0. -1.
    10030    2    1    2    0    0  0.00000000000E+00  0.00000000000E+00  0.32312252555E+03  0.28304928851E+04  0.28119889413E+04 0.  0.
        2    1    3    3  502    0  0.42302420352E+03  0.12358421726E+04  0.68514282766E+03  0.14750173038E+04  0.25500000920E-02 0.  1.
       -2    1    3    3    0  502 -0.42302420352E+03 -0.12358421726E+04 -0.36202030210E+03  0.13554755813E+04  0.25500000920E-02 0. -1.
</event>
<event>
 5   0  0.1999883E-06  0.3543687E+04  0.7818609E-02  0.8103514E-01
        2   -1    0    0  501    0  0.00000000000E+00  0.00000000000E+00  0.19977081142E+04  0.19977081142E+04  0.25500000920E-02 0. -1.
       -2   -1    0    0    0  501  0.00000000000E+00  0.00000000000E+00 -0.15715156969E+04  0.15715156969E+04  0.25500000920E-02 0.  1.
    10030    2    1    2    0    0  0.00000000000E+00  0.00000000000E+00  0.42619241731E+03  0.35692238111E+04  0.35436871529E+04 0.  0.
        4    1    3    3  502    0  0.13891430050E+04 -0.71258540678E+03 -0.63075497761E+03  0.16838496682E+04  0.12699999809E+01 0. -1.
       -4    1    3    3    0  502 -0.13891430050E+04  0.71258540678E+03  0.10569473949E+04  0.18853741429E+04  0.12699999809E+01 0.  1.
</event>
<event>
 5   0  0.2020725E-06  0.3402813E+04  0.7818609E-02  0.8137216E-01
        2   -1    0    0  501    0  0.00000000000E+00  0.00000000000E+00  0.21424591664E+04  0.21424591664E+04  0.25500000920E-02 0.  1.
       -2   -1    0    0    0  501  0.00000000000E+00  0.00000000000E+00 -0.13511498497E+04  0.13511498497E+04  0.25500000920E-02 0. -1.
    10030    2    1    2    0    0  0.00000000000E+00  0.00000000000E+00  0.79130931673E+03  0.34936090161E+04  0.34028125900E+04 0.  0.
        3    1    3    3  502    0  0.12896920402E+04 -0.58840206186E+03  0.13616430152E+04  0.19656027717E+04  0.10100000352E+00 0.  1.
       -3    1    3    3    0  502 -0.12896920402E+04  0.58840206186E+03 -0.57033369852E+03  0.15280062444E+04  0.10100000352E+00 0. -1.
</event>
<event>
 5   0  0.2023479E-06  0.3502619E+04  0.7818609E-02  0.8113170E-01
        2   -1    0    0  501    0  0.00000000000E+00  0.00000000000E+00  0.21330641450E+04  0.21330641451E+04  0.25500000920E-02 0.  1.
       -2   -1    0    0    0  501  0.00000000000E+00  0.00000000000E+00 -0.14378775223E+04  0.14378775223E+04  0.25500000920E-02 0. -1.
    10030    2    1    2    0    0  0.00000000000E+00  0.00000000000E+00  0.69518662275E+03  0.35709416674E+04  0.35026190131E+04 0.  0.
        5    1    3    3  502    0 -0.43592862327E+03 -0.26478135725E+03 -0.13604735619E+04  0.14529464321E+04  0.46999998093E+01 0. -1.
       -5    1    3    3    0  502  0.43592862327E+03  0.26478135725E+03  0.20556601847E+04  0.21179952353E+04  0.46999998093E+01 0.  1.
</event>
<event>
 5   0  0.6630125E-07  0.3486952E+04  0.7818609E-02  0.8116889E-01
        1   -1    0    0  501    0  0.00000000000E+00  0.00000000000E+00  0.23836841327E+04  0.23836841327E+04  0.50400001928E-02 0.  1.
       -1   -1    0    0    0  501  0.00000000000E+00  0.00000000000E+00 -0.12752146139E+04  0.12752146139E+04  0.50400001928E-02 0. -1.
    10030    2    1    2    0    0  0.00000000000E+00  0.00000000000E+00  0.11084695188E+04  0.36588987466E+04  0.34869521597E+04 0.  0.
        4    1    3    3  502    0  0.48434722043E+03  0.13640338816E+04  0.15740265031E+04  0.21383969944E+04  0.12699999809E+01 0.  1.
       -4    1    3    3    0  502 -0.48434722043E+03 -0.13640338816E+04 -0.46555698426E+03  0.15205017523E+04  0.12699999809E+01 0. -1.
</event>
<event>
 5   0  0.6630125E-07  0.3491569E+04  0.7818609E-02  0.8115791E-01
        1   -1    0    0  501    0  0.00000000000E+00  0.00000000000E+00  0.15800835392E+04  0.15800835392E+04  0.50400001928E-02 0. -1.
       -1   -1    0    0    0  501  0.00000000000E+00  0.00000000000E+00 -0.19288620661E+04  0.19288620661E+04  0.50400001928E-02 0.  1.
    10030    2    1    2    0    0  0.00000000000E+00  0.00000000000E+00 -0.34877852689E+03  0.35089456054E+04  0.34915688165E+04 0.  0.
        5    1    3    3  502    0 -0.20782212427E+03 -0.16434620211E+04  0.37933713190E+03  0.16994340822E+04  0.46999998093E+01 0. -1.
       -5    1    3    3    0  502  0.20782212427E+03  0.16434620211E+04 -0.72811565879E+03  0.18095115232E+04  0.46999998093E+01 0.  1.
</event>
<event>
 5   0  0.6630125E-07  0.3228074E+04  0.7818609E-02  0.8181442E-01
        1   -1    0    0  501    0  0.00000000000E+00  0.00000000000E+00  0.25173091341E+04  0.25173091341E+04  0.50400001928E-02 0. -1.
       -1   -1    0    0    0  501  0.00000000000E+00  0.00000000000E+00 -0.10348808683E+04  0.10348808683E+04  0.50400001928E-02 0.  1.
    10030    2    1    2    0    0  0.00000000000E+00  0.00000000000E+00  0.14824282658E+04  0.35521900024E+04  0.32280737678E+04 0.  0.
        1    1    3    3  502    0 -0.94149561781E+03  0.37518341304E+03 -0.64107142097E+03  0.11992285681E+04  0.50400001928E-02 0.  1.
       -1    1    3    3    0  502  0.94149561781E+03 -0.37518341304E+03  0.21234996867E+04  0.23529614343E+04  0.50400001928E-02 0. -1.
</event>
<event>
 5   0  0.1999883E-06  0.3272511E+04  0.7818609E-02  0.8169925E-01
        2   -1    0    0  501    0  0.00000000000E+00  0.00000000000E+00  0.16337308659E+04  0.16337308659E+04  0.25500000920E-02 0. -1.
       -2   -1    0    0    0  501  0.00000000000E+00  0.00000000000E+00 -0.16387838297E+04  0.16387838297E+04  0.25500000920E-02 0.  1.
    10030    2    1    2    0    0  0.00000000000E+00  0.00000000000E+00 -0.50529638932E+01  0.32725146956E+04  0.32725107946E+04 0.  0.
        4    1    3    3  502    0 -0.15976255998E+04  0.30272357690E+03  0.17990451945E+03  0.16359756631E+04  0.12699999809E+01 0.  1.
       -4    1    3    3    0  502  0.15976255998E+04 -0.30272357690E+03 -0.18495748334E+03  0.16365390325E+04  0.12699999809E+01 0. -1.
</event>
<event>
 5   0  0.1999883E-06  0.3435063E+04  0.7818609E-02  0.8129354E-01
        2   -1    0    0  501    0  0.00000000000E+00  0.00000000000E+00  0.17223854029E+04  0.17223854029E+04  0.25500000920E-02 0.  1.
       -2   -1    0    0    0  501  0.00000000000E+00  0.00000000000E+00 -0.17126915551E+04  0.17126915551E+04  0.25500000920E-02 0. -1.
    10030    2    1    2    0    0  0.00000000000E+00  0.00000000000E+00  0.96938477598E+01  0.34350769580E+04  0.34350632799E+04 0.  0.
        4    1    3    3  502    0 -0.39693248398E+03  0.35341681347E+03 -0.16283939413E+04  0.17129294445E+04  0.12699999809E+01 0. -1.
       -4    1    3    3    0  502  0.39693248398E+03 -0.35341681347E+03  0.16380877890E+04  0.17221475135E+04  0.12699999809E+01 0.  1.
</event>
<event>
 5   0  0.6630125E-07  0.2300737E+04  0.7818609E-02  0.8477630E-01
        1   -1    0    0  501    0  0.00000000000E+00  0.00000000000E+00  0.12568899819E+04  0.12568899819E+04  0.50400001928E-02 0.  1.
       -1   -1    0    0    0  501  0.00000000000E+00  0.00000000000E+00 -0.10528751200E+04  0.10528751200E+04  0.50400001928E-02 0. -1.
    10030    2    1    2    0    0  0.00000000000E+00  0.00000000000E+00  0.20401486191E+03  0.23097651020E+04  0.23007374388E+04 0.  0.
        5    1    3    3  502    0  0.48171416841E+03  0.21407393344E+03  0.11284918718E+04  0.12455489487E+04  0.46999998093E+01 0.  1.
       -5    1    3    3    0  502 -0.48171416841E+03 -0.21407393344E+03 -0.92447700986E+03  0.10642161532E+04  0.46999998093E+01 0. -1.
</event>
<event>
 5   0  0.2001768E-06  0.3421975E+04  0.7818609E-02  0.8132534E-01
        2   -1    0    0  501    0  0.00000000000E+00  0.00000000000E+00  0.19041509871E+04  0.19041509871E+04  0.25500000920E-02 0.  1.
       -2   -1    0    0    0  501  0.00000000000E+00  0.00000000000E+00 -0.15374193160E+04  0.15374193160E+04  0.25500000920E-02 0. -1.
    10030    2    1    2    0    0  0.00000000000E+00  0.00000000000E+00  0.36673167107E+03  0.34415703031E+04  0.34219751654E+04 0.  0.
        2    1    3    3  502    0 -0.76873448324E+03 -0.79013429216E+03  0.14993745457E+04  0.18610182518E+04  0.25500000920E-02 0.  1.
       -2    1    3    3    0  502  0.76873448324E+03  0.79013429216E+03 -0.11326428746E+04  0.15805520513E+04  0.25500000920E-02 0. -1.
</event>
<event>
 5   0  0.7378896E-07  0.3477275E+04  0.7818609E-02  0.8119197E-01
        1   -1    0    0  501    0  0.00000000000E+00  0.00000000000E+00  0.19511313688E+04  0.19511313688E+04  0.50400001928E-02 0. -1.
       -1   -1    0    0    0  501  0.00000000000E+00  0.00000000000E+00 -0.15492855590E+04  0.15492855590E+04  0.50400001928E-02 0.  1.
    10030    2    1    2    0    0  0.00000000000E+00  0.00000000000E+00  0.40184580986E+03  0.35004169278E+04  0.34772745957E+04 0.  0.
        2    1    3    3  502    0 -0.48745084859E+03  0.10282024297E+04  0.15242252329E+04  0.19021227949E+04  0.25500000920E-02 0. -1.
       -2    1    3    3    0  502  0.48745084859E+03 -0.10282024297E+04 -0.11223794230E+04  0.15982941329E+04  0.25500000920E-02 0.  1.
</event>
<event>
 5   0  0.6890600E-07  0.3480596E+04  0.7818609E-02  0.8118404E-01
       -1   -1    0    0    0  501  0.00000000000E+00  0.00000000000E+00  0.13786651248E+04  0.13786651248E+04  0.50400001928E-02 0. -1.
        1   -1    0    0  501    0  0.00000000000E+00  0.00000000000E+00 -0.21967898126E+04  0.21967898126E+04  0.50400001928E-02 0.  1.
    10030    2    1    2    0    0  0.00000000000E+00  0.00000000000E+00 -0.81812468784E+03  0.35754549374E+04  0.34805962139E+04 0.  0.
        3    1    3    3  502    0  0.40819559322E+03  0.95804256592E+03 -0.18413973071E+04  0.21154699840E+04  0.10100000352E+00 0.  1.
       -3    1    3    3    0  502 -0.40819559322E+03 -0.95804256592E+03  0.10232726193E+04  0.14599849533E+04  0.10100000352E+00 0. -1.
</event>
<event>
 5   0  0.2020725E-06  0.3489101E+04  0.7818609E-02  0.8116378E-01
       -2   -1    0    0    0  501  0.00000000000E+00  0.00000000000E+00  0.10744635182E+04  0.10744635182E+04  0.25500000920E-02 0.  1.
        2   -1    0    0  501    0  0.00000000000E+00  0.00000000000E+00 -0.28325357315E+04  0.28325357315E+04  0.25500000920E-02 0. -1.
    10030    2    1    2    0    0  0.00000000000E+00  0.00000000000E+00 -0.17580722133E+04  0.39069992497E+04  0.34891009200E+04 0.  0.
        3    1    3    3  502    0 -0.87235955985E+03  0.13041150652E+04 -0.17330995851E+04  0.23378112599E+04  0.10100000352E+00 0. -1.
       -3    1    3    3    0  502  0.87235955985E+03 -0.13041150652E+04 -0.24972628241E+02  0.15691879898E+04  0.10100000352E+00 0.  1.
</event>
<event>
 5   0  0.2073287E-06  0.3521778E+04  0.7818609E-02  0.8108648E-01
       -2   -1    0    0    0  501  0.00000000000E+00  0.00000000000E+00  0.16194048435E+04  0.16194048435E+04  0.25500000920E-02 0. -1.
        2   -1    0    0  501    0  0.00000000000E+00  0.00000000000E+00 -0.19147348082E+04  0.19147348082E+04  0.25500000920E-02 0.  1.
    10030    2    1    2    0    0  0.00000000000E+00  0.00000000000E+00 -0.29532996467E+03  0.35341396517E+04  0.35217784271E+04 0.  0.
        1    1    3    3  502    0 -0.10340493098E+04 -0.13985435461E+04  0.12816117820E+03  0.17440204452E+04  0.50400001928E-02 0.  1.
       -1    1    3    3    0  502  0.10340493098E+04  0.13985435461E+04 -0.42349114287E+03  0.17901192065E+04  0.50400001928E-02 0. -1.
</event>
<event>
 5   0  0.6630125E-07  0.2556935E+04  0.7818609E-02  0.8382978E-01
       -1   -1    0    0    0  501  0.00000000000E+00  0.00000000000E+00  0.12634830618E+04  0.12634830618E+04  0.50400001928E-02 0. -1.
        1   -1    0    0  501    0  0.00000000000E+00  0.00000000000E+00 -0.12936301540E+04  0.12936301540E+04  0.50400001928E-02 0.  1.
    10030    2    1    2    0    0  0.00000000000E+00  0.00000000000E+00 -0.30147092208E+02  0.25571132157E+04  0.25569355000E+04 0.  0.
        4    1    3    3  502    0  0.38121047655E+02  0.23506282054E+03  0.12411070776E+04  0.12637468635E+04  0.12699999809E+01 0. -1.
       -4    1    3    3    0  502 -0.38121047655E+02 -0.23506282054E+03 -0.12712541699E+04  0.12933663523E+04  0.12699999809E+01 0.  1.
</event>
<event>
 5   0  0.6630125E-07  0.3538303E+04  0.7818609E-02  0.8104772E-01
       -1   -1    0    0    0  501  0.00000000000E+00  0.00000000000E+00  0.23699979143E+04  0.23699979143E+04  0.50400001928E-02 0.  1.
        1   -1    0    0  501    0  0.00000000000E+00  0.00000000000E+00 -0.13206328828E+04  0.13206328828E+04  0.50400001928E-02 0. -1.
    10030    2    1    2    0    0  0.00000000000E+00  0.00000000000E+00  0.10493650315E+04  0.36906307972E+04  0.35383030837E+04 0.  0.
        4    1    3    3  502    0 -0.86021727020E+03  0.15743774288E+03 -0.10794252956E+04  0.13892159575E+04  0.12699999809E+01 0. -1.
       -4    1    3    3    0  502  0.86021727020E+03 -0.15743774288E+03  0.21287903271E+04  0.23014148397E+04  0.12699999809E+01 0.  1.
</event>
<event>
 5   0  0.6630125E-07  0.3458364E+04  0.7818609E-02  0.8123728E-01
        1   -1    0    0  501    0  0.00000000000E+00  0.00000000000E+00  0.17874030708E+04  0.17874030708E+04  0.50400001928E-02 0. -1.
       -1   -1    0    0    0  501  0.00000000000E+00  0.00000000000E+00 -0.16728578458E+04  0.16728578458E+04  0.50400001928E-02 0.  1.
    10030    2    1    2    0    0  0.00000000000E+00  0.00000000000E+00  0.11454522497E+03  0.34602609167E+04  0.34583644983E+04 0.  0.
        5    1    3    3  502    0 -0.12854032972E+04 -0.97141948820E+03 -0.57087073938E+03  0.17093369912E+04  0.46999998093E+01 0.  1.
       -5    1    3    3    0  502  0.12854032972E+04  0.97141948820E+03  0.68541596434E+03  0.17509239254E+04  0.46999998093E+01 0. -1.
</event>
<event>
 5   0  0.1999883E-06  0.3446892E+04  0.7818609E-02  0.8126492E-01
       -2   -1    0    0    0  501  0.00000000000E+00  0.00000000000E+00  0.15520729655E+04  0.15520729655E+04  0.25500000920E-02 0. -1.
        2   -1    0    0  501    0  0.00000000000E+00  0.00000000000E+00 -0.19137414185E+04  0.19137414185E+04  0.25500000920E-02 0.  1.
    10030    2    1    2    0    0  0.00000000000E+00  0.00000000000E+00 -0.36166845298E+03  0.34658143840E+04  0.34468921182E+04 0.  0.
        4    1    3    3  502    0 -0.13440282566E+04 -0.65357684815E+03  0.68218408841E+03  0.16428485610E+04  0.12699999809E+01 0. -1.
       -4    1    3    3    0  502  0.13440282566E+04  0.65357684815E+03 -0.10438525414E+04  0.18229658231E+04  0.12699999809E+01 0.  1.
</event>
<event>
 5   0  0.6630125E-07  0.2684558E+04  0.7818609E-02  0.8340033E-01
        1   -1    0    0  501    0  0.00000000000E+00  0.00000000000E+00  0.12768232438E+04  0.12768232438E+04  0.50400001928E-02 0.  1.
       -1   -1    0    0    0  501  0.00000000000E+00  0.00000000000E+00 -0.14110907071E+04  0.14110907072E+04  0.50400001928E-02 0. -1.
    10030    2    1    2    0    0  0.00000000000E+00  0.00000000000E+00 -0.13426746333E+03  0.26879139510E+04  0.26845583726E+04 0.  0.
        5    1    3    3  502    0  0.11303208813E+04 -0.47650725741E+03  0.47853083342E+03  0.13166997796E+04  0.46999998093E+01 0.  1.
       -5    1    3    3    0  502 -0.11303208813E+04  0.47650725741E+03 -0.61279829675E+03  0.13712141713E+04  0.46999998093E+01 0. -1.
</event>
<event>
 5   0  0.2020725E-06  0.3515174E+04  0.7818609E-02  0.8110203E-01
       -2   -1    0    0    0  501  0.00000000000E+00  0.00000000000E+00  0.20866397777E+04  0.20866397777E+04  0.25500000920E-02 0. -1.
        2   -1    0    0  501    0  0.00000000000E+00  0.00000000000E+00 -0.14804240658E+04  0.14804240658E+04  0.25500000920E-02 0.  1.
    10030    2    1    2    0    0  0.00000000000E+00  0.00000000000E+00  0.60621571197E+03  0.35670638435E+04  0.35151738185E+04 0.  0.
        3    1    3    3  502    0  0.40086876000E+03  0.79523312639E+02  0.20377545037E+04  0.20783318184E+04  0.10100000352E+00 0. -1.
       -3    1    3    3    0  502 -0.40086876000E+03 -0.79523312639E+02 -0.14315387917E+04  0.14887320251E+04  0.10100000352E+00 0.  1.
</event>
<event>
 5   0  0.2020725E-06  0.3441902E+04  0.7818609E-02  0.8127698E-01
        2   -1    0    0  501    0  0.00000000000E+00  0.00000000000E+00  0.18744803202E+04  0.18744803202E+04  0.25500000920E-02 0.  1.
       -2   -1    0    0    0  501  0.00000000000E+00  0.00000000000E+00 -0.15799964648E+04  0.15799964648E+04  0.25500000920E-02 0. -1.
    10030    2    1    2    0    0  0.00000000000E+00  0.00000000000E+00  0.29448385536E+03  0.34544767850E+04  0.34419019621E+04 0.  0.
        3    1    3    3  502    0 -0.10856663348E+04  0.12930662455E+03  0.14811123463E+04  0.18409468722E+04  0.10100000352E+00 0.  1.
       -3    1    3    3    0  502  0.10856663348E+04 -0.12930662455E+03 -0.11866284910E+04  0.16135299128E+04  0.10100000352E+00 0. -1.
</event>
<event>
 5   0  0.6630125E-07  0.3449594E+04  0.7818609E-02  0.8125840E-01
        3   -1    0    0  501    0  0.00000000000E+00  0.00000000000E+00  0.16334450212E+04  0.16334450243E+04  0.10100000352E+00 0. -1.
       -3   -1    0    0    0  501  0.00000000000E+00  0.00000000000E+00 -0.18212581978E+04  0.18212582006E+04  0.10100000352E+00 0.  1.
    10030    2    1    2    0    0  0.00000000000E+00  0.00000000000E+00 -0.18781317659E+03  0.34547032248E+04  0.34495942634E+04 0.  0.
        4    1    3    3  502    0 -0.48159367307E+03 -0.68893264050E+02 -0.17511216167E+04  0.18174452611E+04  0.12699999809E+01 0.  1.
       -4    1    3    3    0  502  0.48159367307E+03  0.68893264050E+02  0.15633084401E+04  0.16372579637E+04  0.12699999809E+01 0. -1.
</event>
<event>
 5   0  0.6630125E-07  0.3435803E+04  0.7818609E-02  0.8129175E-01
        1   -1    0    0  501    0  0.00000000000E+00  0.00000000000E+00  0.99177588373E+03  0.99177588375E+03  0.50400001928E-02 0.  1.
       -1   -1    0    0    0  501  0.00000000000E+00  0.00000000000E+00 -0.29756576009E+04  0.29756576009E+04  0.50400001928E-02 0. -1.
    10030    2    1    2    0    0  0.00000000000E+00  0.00000000000E+00 -0.19838817171E+04  0.39674334846E+04  0.34358029320E+04 0.  0.
        5    1    3    3  502    0  0.21259116127E+03  0.89289111086E+03 -0.26687754733E+04  0.28222037763E+04  0.46999998093E+01 0. -1.
       -5    1    3    3    0  502 -0.21259116127E+03 -0.89289111086E+03  0.68489375618E+03  0.11452297084E+04  0.46999998093E+01 0.  1.
</event>
<event>
 5   0  0.2020725E-06  0.3333100E+04  0.7818609E-02  0.8154524E-01
        2   -1    0    0  501    0  0.00000000000E+00  0.00000000000E+00  0.15745634207E+04  0.15745634207E+04  0.25500000920E-02 0.  1.
       -2   -1    0    0    0  501  0.00000000000E+00  0.00000000000E+00 -0.17639107026E+04  0.17639107026E+04  0.25500000920E-02 0. -1.
    10030    2    1    2    0    0  0.00000000000E+00  0.00000000000E+00 -0.18934728188E+03  0.33384741233E+04  0.33331002204E+04 0.  0.
        3    1    3    3  502    0  0.11595254493E+04  0.43587131664E+03  0.10219808503E+04  0.16059040883E+04  0.10100000352E+00 0. -1.
       -3    1    3    3    0  502 -0.11595254493E+04 -0.43587131664E+03 -0.12113281322E+04  0.17325700350E+04  0.10100000352E+00 0.  1.
</event>
<event>
 5   0  0.6630125E-07  0.3473991E+04  0.7818609E-02  0.8119982E-01
        3   -1    0    0  501    0  0.00000000000E+00  0.00000000000E+00  0.22509921729E+04  0.22509921752E+04  0.10100000352E+00 0.  1.
       -3   -1    0    0    0  501  0.00000000000E+00  0.00000000000E+00 -0.13403659006E+04  0.13403659044E+04  0.10100000352E+00 0. -1.
    10030    2    1    2    0    0  0.00000000000E+00  0.00000000000E+00  0.91062627227E+03  0.35913580796E+04  0.34739908820E+04 0.  0.
        3    1    3    3  502    0 -0.38675532989E+03 -0.13807160424E+04 -0.55821583001E+03  0.15386882069E+04  0.10100000352E+00 0. -1.
       -3    1    3    3    0  502  0.38675532989E+03  0.13807160424E+04  0.14688421023E+04  0.20526698727E+04  0.10100000352E+00 0.  1.
</event>
<event>
 5   0  0.2001768E-06  0.3510039E+04  0.7818609E-02  0.8111415E-01
        2   -1    0    0  501    0  0.00000000000E+00  0.00000000000E+00  0.23960850314E+04  0.23960850314E+04  0.25500000920E-02 0.  1.
       -2   -1    0    0    0  501  0.00000000000E+00  0.00000000000E+00 -0.12854690272E+04  0.12854690272E+04  0.25500000920E-02 0. -1.
    10030    2    1    2    0    0  0.00000000000E+00  0.00000000000E+00  0.11106160042E+04  0.36815540587E+04  0.35100388001E+04 0.  0.
        2    1    3    3  502    0 -0.20616286011E+03 -0.16219201406E+04  0.12244184472E+04  0.20426278665E+04  0.25500000920E-02 0.  1.
       -2    1    3    3    0  502  0.20616286011E+03  0.16219201406E+04 -0.11380244303E+03  0.16389261921E+04  0.25500000920E-02 0. -1.
</event>
<event>
 5   0  0.2073287E-06  0.3520089E+04  0.7818609E-02  0.8109046E-01
       -2   -1    0    0    0  501  0.00000000000E+00  0.00000000000E+00  0.13052045441E+04  0.13052045441E+04  0.25500000920E-02 0.  1.
        2   -1    0    0  501    0  0.00000000000E+00  0.00000000000E+00 -0.23733872664E+04  0.23733872664E+04  0.25500000920E-02 0. -1.
    10030    2    1    2    0    0  0.00000000000E+00  0.00000000000E+00 -0.10681827222E+04  0.36785918105E+04  0.35200885472E+04 0.  0.
        1    1    3    3  502    0 -0.10085084542E+04 -0.24762866896E+03 -0.20191152623E+04  0.22705144136E+04  0.50400001928E-02 0. -1.
       -1    1    3    3    0  502  0.10085084542E+04  0.24762866896E+03  0.95093254007E+03  0.14080773969E+04  0.50400001928E-02 0.  1.
</event>
<event>
 5   0  0.6630125E-07  0.2809726E+04  0.7818609E-02  0.8300255E-01
        1   -1    0    0  501    0  0.00000000000E+00  0.00000000000E+00  0.14368293629E+04  0.14368293629E+04  0.50400001928E-02 0. -1.
       -1   -1    0    0    0  501  0.00000000000E+00  0.00000000000E+00 -0.13736077356E+04  0.13736077356E+04  0.50400001928E-02 0.  1.
    10030    2    1    2    0    0  0.00000000000E+00  0.00000000000E+00  0.63221627336E+02  0.28104370985E+04  0.28097259138E+04 0.  0.
        1    1    3    3  502    0  0.71117374823E+03 -0.62697081545E+02 -0.11786296951E+04  0.13779938252E+04  0.50400001928E-02 0.  1.
       -1    1    3    3    0  502 -0.71117374823E+03  0.62697081545E+02  0.12418513224E+04  0.14324432733E+04  0.50400001928E-02 0. -1.
</event>
<event>
 5   0  0.1999883E-06  0.3440090E+04  0.7818609E-02  0.8128136E-01
       -2   -1    0    0    0  501  0.00000000000E+00  0.00000000000E+00  0.13162266992E+04  0.13162266992E+04  0.25500000920E-02 0.  1.
        2   -1    0    0  501    0  0.00000000000E+00  0.00000000000E+00 -0.22477545058E+04  0.22477545058E+04  0.25500000920E-02 0. -1.
    10030    2    1    2    0    0  0.00000000000E+00  0.00000000000E+00 -0.93152780654E+03  0.35639812050E+04  0.34400898208E+04 0.  0.
        4    1    3    3  502    0  0.50342195266E+03 -0.55523435441E+03 -0.20696909246E+04  0.22012135260E+04  0.12699999809E+01 0. -1.
       -4    1    3    3    0  502 -0.50342195266E+03  0.55523435441E+03  0.11381631181E+04  0.13627676790E+04  0.12699999809E+01 0.  1.
</event>
<event>
 5   0  0.1999883E-06  0.3004637E+04  0.7818609E-02  0.8242408E-01
        2   -1    0    0  501    0  0.00000000000E+00  0.00000000000E+00  0.12158505388E+04  0.12158505388E+04  0.25500000920E-02 0.  1.
       -2   -1    0    0    0  501  0.00000000000E+00  0.00000000000E+00 -0.18562818544E+04  0.18562818544E+04  0.25500000920E-02 0. -1.
    10030    2    1    2    0    0  0.00000000000E+00  0.00000000000E+00 -0.64043131566E+03  0.30721323932E+04  0.30046372778E+04 0.  0.
        4    1    3    3  502    0  0.59208691221E+03  0.13133113387E+04  0.11550995329E+03  0.14452327654E+04  0.12699999809E+01 0. -1.
       -4    1    3    3    0  502 -0.59208691221E+03 -0.13133113387E+04 -0.75594126895E+03  0.16268996278E+04  0.12699999809E+01 0.  1.
</event>
<event>
 5   0  0.2020725E-06  0.3539977E+04  0.7818609E-02  0.8104381E-01
       -2   -1    0    0    0  501  0.00000000000E+00  0.00000000000E+00  0.11327094920E+04  0.11327094920E+04  0.25500000920E-02 0. -1.
        2   -1    0    0  501    0  0.00000000000E+00  0.00000000000E+00 -0.27658095751E+04  0.27658095751E+04  0.25500000920E-02 0.  1.
    10030    2    1    2    0    0  0.00000000000E+00  0.00000000000E+00 -0.16331000831E+04  0.38985190671E+04  0.35399766998E+04 0.  0.
        3    1    3    3  502    0  0.10610293958E+04 -0.13252937649E+04 -0.13679313055E+04  0.21802346224E+04  0.10100000352E+00 0.  1.
       -3    1    3    3    0  502 -0.10610293958E+04  0.13252937649E+04 -0.26516877756E+03  0.17182844447E+04  0.10100000352E+00 0. -1.
</event>
<event>
 5   0  0.6630125E-07  0.2937686E+04  0.7818609E-02  0.8261752E-01
        1   -1    0    0  501    0  0.00000000000E+00  0.00000000000E+00  0.19547175227E+04  0.19547175227E+04  0.50400001928E-02 0.  1.
       -1   -1    0    0    0  501  0.00000000000E+00  0.00000000000E+00 -0.11037399944E+04  0.11037399944E+04  0.50400001928E-02 0. -1.
    10030    2    1    2    0    0  0.00000000000E+00  0.00000000000E+00  0.85097752829E+03  0.30584575171E+04  0.29376861014E+04 0.  0.
        4    1    3    3  502    0 -0.24884176165E+03 -0.79011082027E+03  0.16883272929E+04  0.18805977751E+04  0.12699999809E+01 0.  1.
       -4    1    3    3    0  502  0.24884176165E+03  0.79011082027E+03 -0.83734976464E+03  0.11778597420E+04  0.12699999809E+01 0. -1.
</event>
<event>
 5   0  0.7378896E-07  0.3521376E+04  0.7818609E-02  0.8108743E-01
        1   -1    0    0  501    0  0.00000000000E+00  0.00000000000E+00  0.22214426973E+04  0.22214426974E+04  0.50400001928E-02 0.  1.
       -1   -1    0    0    0  501  0.00000000000E+00  0.00000000000E+00 -0.13954995585E+04  0.13954995585E+04  0.50400001928E-02 0. -1.
    10030    2    1    2    0    0  0.00000000000E+00  0.00000000000E+00  0.82594313884E+03  0.36169422559E+04  0.35213760398E+04 0.  0.
        2    1    3    3  502    0  0.15739733445E+04  0.71081203627E+03  0.61071234556E+02  0.17281132879E+04  0.25500000920E-02 0. -1.
       -2    1    3    3    0  502 -0.15739733445E+04 -0.71081203627E+03  0.76487190429E+03  0.18888289679E+04  0.25500000920E-02 0.  1.
</event>
<event>
 5   0  0.2020725E-06  0.3466427E+04  0.7818609E-02  0.8121793E-01
        2   -1    0    0  501    0  0.00000000000E+00  0.00000000000E+00  0.27866828800E+04  0.27866828800E+04  0.25500000920E-02 0. -1.
       -2   -1    0    0    0  501  0.00000000000E+00  0.00000000000E+00 -0.10779948152E+04  0.10779948152E+04  0.25500000920E-02 0.  1.
    10030    2    1    2    0    0  0.00000000000E+00  0.00000000000E+00  0.17086880648E+04  0.38646776952E+04  0.34664273806E+04 0.  0.
        3    1    3    3  502    0 -0.14963481001E+04 -0.40552721131E+03 -0.96183126505E+01  0.15503555973E+04  0.10100000352E+00 0.  1.
       -3    1    3    3    0  502  0.14963481001E+04  0.40552721131E+03  0.17183063774E+04  0.23143220979E+04  0.10100000352E+00 0. -1.
</event>
<event>
 5   0  0.1999883E-06  0.3442408E+04  0.7818609E-02  0.8127576E-01
       -2   -1    0    0    0  501  0.00000000000E+00  0.00000000000E+00  0.10530753970E+04  0.10530753970E+04  0.25500000920E-02 0. -1.
        2   -1    0    0  501    0  0.00000000000E+00  0.00000000000E+00 -0.28132294908E+04  0.28132294908E+04  0.25500000920E-02 0.  1.
    10030    2    1    2    0    0  0.00000000000E+00  0.00000000000E+00 -0.17601540938E+04  0.38663048877E+04  0.34424077404E+04 0.  0.
        4    1    3    3  502    0 -0.13796629660E+03 -0.13771887944E+04 -0.20292292876E+04  0.24563095873E+04  0.12699999809E+01 0.  1.
       -4    1    3    3    0  502  0.13796629660E+03  0.13771887944E+04  0.26907519383E+03  0.14099953004E+04  0.12699999809E+01 0. -1.
</event>
<event>
 5   0  0.1999883E-06  0.3473746E+04  0.7818609E-02  0.8120040E-01
        2   -1    0    0  501    0  0.00000000000E+00  0.00000000000E+00  0.22150251280E+04  0.22150251280E+04  0.25500000920E-02 0.  1.
       -2   -1    0    0    0  501  0.00000000000E+00  0.00000000000E+00 -0.13619381535E+04  0.13619381535E+04  0.25500000920E-02 0. -1.
    10030    2    1    2    0    0  0.00000000000E+00  0.00000000000E+00  0.85308697443E+03  0.35769632815E+04  0.34737456630E+04 0.  0.
        4    1    3    3  502    0 -0.71313635951E+02 -0.82987154275E+03 -0.11428675238E+04  0.14141853493E+04  0.12699999809E+01 0. -1.
       -4    1    3    3    0  502  0.71313635951E+02  0.82987154275E+03  0.19959544983E+04  0.21627779322E+04  0.12699999809E+01 0.  1.
</event>
<event>
 5   0  0.6890600E-07  0.3517207E+04  0.7818609E-02  0.8109724E-01
        1   -1    0    0  501    0  0.00000000000E+00  0.00000000000E+00  0.15195352611E+04  0.15195352611E+04  0.50400001928E-02 0. -1.
       -1   -1    0    0    0  501  0.00000000000E+00  0.00000000000E+00 -0.20352848439E+04  0.20352848440E+04  0.50400001928E-02 0.  1.
    10030    2    1    2    0    0  0.00000000000E+00  0.00000000000E+00 -0.51574958285E+03  0.35548201051E+04  0.35172074643E+04 0.  0.
        3    1    3    3  502    0 -0.47632085658E+03  0.32601063226E+03 -0.19368203660E+04  0.20209991665E+04  0.10100000352E+00 0.  1.
       -3    1    3    3    0  502  0.47632085658E+03 -0.32601063226E+03  0.14210707831E+04  0.15338209386E+04  0.10100000352E+00 0. -1.
</event>
<event>
 5   0  0.6630125E-07  0.3068396E+04  0.7818609E-02  0.8224465E-01
       -1   -1    0    0    0  501  0.00000000000E+00  0.00000000000E+00  0.14605091433E+04  0.14605091433E+04  0.50400001928E-02 0.  1.
        1   -1    0    0  501    0  0.00000000000E+00  0.00000000000E+00 -0.16116047645E+04  0.16116047645E+04  0.50400001928E-02 0. -1.
    10030    2    1    2    0    0  0.00000000000E+00  0.00000000000E+00 -0.15109562123E+03  0.30721139078E+04  0.30683959939E+04 0.  0.
        1    1    3    3  502    0  0.13015887692E+04 -0.37297797686E+03  0.64679543474E+03  0.15005299830E+04  0.50400001928E-02 0.  1.
       -1    1    3    3    0  502 -0.13015887692E+04  0.37297797686E+03 -0.79789105597E+03  0.15715839248E+04  0.50400001928E-02 0. -1.
</event>
<event>
 5   0  0.7378896E-07  0.3440300E+04  0.7818609E-02  0.8128086E-01
        1   -1    0    0  501    0  0.00000000000E+00  0.00000000000E+00  0.13984373008E+04  0.13984373008E+04  0.50400001928E-02 0. -1.
       -1   -1    0    0    0  501  0.00000000000E+00  0.00000000000E+00 -0.21158728034E+04  0.21158728034E+04  0.50400001928E-02 0.  1.
    10030    2    1    2    0    0  0.00000000000E+00  0.00000000000E+00 -0.71743550260E+03  0.35143101042E+04  0.34402996683E+04 0.  0.
        2    1    3    3  502    0 -0.16845265314E+04  0.10270964996E+03 -0.69864759267E+03  0.18265506744E+04  0.25500000920E-02 0.  1.
       -2    1    3    3    0  502  0.16845265314E+04 -0.10270964996E+03 -0.18787909934E+02  0.16877594298E+04  0.25500000920E-02 0. -1.
</event>
<event>
 5   0  0.2073287E-06  0.3498827E+04  0.7818609E-02  0.8114068E-01
       -2   -1    0    0    0  501  0.00000000000E+00  0.00000000000E+00  0.16590687995E+04  0.16590687995E+04  0.25500000920E-02 0.  1.
        2   -1    0    0  501    0  0.00000000000E+00  0.00000000000E+00 -0.18446779910E+04  0.18446779910E+04  0.25500000920E-02 0. -1.
    10030    2    1    2    0    0  0.00000000000E+00  0.00000000000E+00 -0.18560919146E+03  0.35037467905E+04  0.34988270606E+04 0.  0.
        1    1    3    3  502    0 -0.92473924679E+02  0.13456833736E+04 -0.12083874198E+04  0.18109708239E+04  0.50400001928E-02 0. -1.
       -1    1    3    3    0  502  0.92473924679E+02 -0.13456833736E+04  0.10227782284E+04  0.16927759666E+04  0.50400001928E-02 0.  1.
</event>
<event>
 5   0  0.1999883E-06  0.2694369E+04  0.7818609E-02  0.8336834E-01
       -2   -1    0    0    0  501  0.00000000000E+00  0.00000000000E+00  0.12845872274E+04  0.12845872274E+04  0.25500000920E-02 0.  1.
        2   -1    0    0  501    0  0.00000000000E+00  0.00000000000E+00 -0.14128325878E+04  0.14128325879E+04  0.25500000920E-02 0. -1.
    10030    2    1    2    0    0  0.00000000000E+00  0.00000000000E+00 -0.12824536044E+03  0.26974198153E+04  0.26943694601E+04 0.  0.
        4    1    3    3  502    0  0.11439677080E+04 -0.16837444298E+03  0.62795801803E+03  0.13158058198E+04  0.12699999809E+01 0.  1.
       -4    1    3    3    0  502 -0.11439677080E+04  0.16837444298E+03 -0.75620337847E+03  0.13816139955E+04  0.12699999809E+01 0. -1.
</event>
<event>
 5   0  0.6630125E-07  0.3487143E+04  0.7818609E-02  0.8116844E-01
       -1   -1    0    0    0  501  0.00000000000E+00  0.00000000000E+00  0.13923920899E+04  0.13923920899E+04  0.50400001928E-02 0.  1.
        1   -1    0    0  501    0  0.00000000000E+00  0.00000000000E+00 -0.21833224811E+04  0.21833224811E+04  0.50400001928E-02 0. -1.
    10030    2    1    2    0    0  0.00000000000E+00  0.00000000000E+00 -0.79093039125E+03  0.35757145711E+04  0.34871426426E+04 0.  0.
        5    1    3    3  502    0 -0.16635476188E+04  0.35871591719E+03 -0.78451086461E+03  0.18739122648E+04  0.46999998093E+01 0. -1.
       -5    1    3    3    0  502  0.16635476188E+04 -0.35871591719E+03 -0.64195266330E+01  0.17018023063E+04  0.46999998093E+01 0.  1.
</event>
<event>
 5   0  0.2073287E-06  0.3491776E+04  0.7818609E-02  0.8115742E-01
        2   -1    0    0  501    0  0.00000000000E+00  0.00000000000E+00  0.14075510230E+04  0.14075510231E+04  0.25500000920E-02 0.  1.
       -2   -1    0    0    0  501  0.00000000000E+00  0.00000000000E+00 -0.21655522750E+04  0.21655522750E+04  0.25500000920E-02 0. -1.
    10030    2    1    2    0    0  0.00000000000E+00  0.00000000000E+00 -0.75800125198E+03  0.35731032981E+04  0.34917762358E+04 0.  0.
        1    1    3    3  502    0  0.13583074253E+03  0.15769398495E+04  0.37500311846E+03  0.16265966367E+04  0.50400001928E-02 0.  1.
       -1    1    3    3    0  502 -0.13583074253E+03 -0.15769398495E+04 -0.11330043704E+04  0.19465066614E+04  0.50400001928E-02 0. -1.
</event>
<event>
 5   0  0.6890600E-07  0.3448176E+04  0.7818609E-02  0.8126182E-01
        1   -1    0    0  501    0  0.00000000000E+00  0.00000000000E+00  0.27495945476E+04  0.27495945476E+04  0.50400001928E-02 0.  1.
       -1   -1    0    0    0  501  0.00000000000E+00  0.00000000000E+00 -0.10810612495E+04  0.10810612495E+04  0.50400001928E-02 0. -1.
    10030    2    1    2    0    0  0.00000000000E+00  0.00000000000E+00  0.16685332981E+04  0.38306557971E+04  0.34481763976E+04 0.  0.
        3    1    3    3  502    0  0.76135089091E+03 -0.15467180129E+04  0.80971761733E+03  0.19046349835E+04  0.10100000352E+00 0. -1.
       -3    1    3    3    0  502 -0.76135089091E+03  0.15467180129E+04  0.85881568078E+03  0.19260208135E+04  0.10100000352E+00 0.  1.
</event>
<event>
 5   0  0.6630125E-07  0.2161942E+04  0.7818609E-02  0.8534438E-01
        1   -1    0    0  501    0  0.00000000000E+00  0.00000000000E+00  0.10856287562E+04  0.10856287562E+04  0.50400001928E-02 0.  1.
       -1   -1    0    0    0  501  0.00000000000E+00  0.00000000000E+00 -0.10763328849E+04  0.10763328849E+04  0.50400001928E-02 0. -1.
    10030    2    1    2    0    0  0.00000000000E+00  0.00000000000E+00  0.92958712740E+01  0.21619616411E+04  0.21619416561E+04 0.  0.
        5    1    3    3  502    0 -0.55084240956E+03 -0.40881728155E+03 -0.83077400232E+03  0.10773887241E+04  0.46999998093E+01 0. -1.
       -5    1    3    3    0  502  0.55084240956E+03  0.40881728155E+03  0.84006987359E+03  0.10845729170E+04  0.46999998093E+01 0.  1.
</event>
<event>
 5   0  0.6630125E-07  0.2275159E+04  0.7818609E-02  0.8487780E-01
       -1   -1    0    0    0  501  0.00000000000E+00  0.00000000000E+00  0.90129641983E+03  0.90129641984E+03  0.50400001928E-02 0.  1.
        1   -1    0    0  501    0  0.00000000000E+00  0.00000000000E+00 -0.14358062257E+04  0.14358062257E+04  0.50400001928E-02 0. -1.
    10030    2    1    2    0    0  0.00000000000E+00  0.00000000000E+00 -0.53450980586E+03  0.23371026455E+04  0.22751589050E+04 0.  0.
        5    1    3    3  502    0  0.71527806538E+03 -0.86259782712E+03 -0.46846329831E+03  0.12145689252E+04  0.46999998093E+01 0.  1.
       -5    1    3    3    0  502 -0.71527806538E+03  0.86259782712E+03 -0.66046507550E+02  0.11225337204E+04  0.46999998093E+01 0. -1.
</event>
<event>
 5   0  0.2023479E-06  0.3506109E+04  0.7818609E-02  0.8112344E-01
       -2   -1    0    0    0  501  0.00000000000E+00  0.00000000000E+00  0.18064606765E+04  0.18064606765E+04  0.25500000920E-02 0.  1.
        2   -1    0    0  501    0  0.00000000000E+00  0.00000000000E+00 -0.17012269710E+04  0.17012269710E+04  0.25500000920E-02 0. -1.
    10030    2    1    2    0    0  0.00000000000E+00  0.00000000000E+00  0.10523370544E+03  0.35076876475E+04  0.35061087404E+04 0.  0.
        5    1    3    3  502    0  0.17090285908E+04  0.86202744969E+02 -0.32830110921E+03  0.17424159509E+04  0.46999998093E+01 0. -1.
       -5    1    3    3    0  502 -0.17090285908E+04 -0.86202744969E+02  0.43353481465E+03  0.17652716967E+04  0.46999998093E+01 0.  1.
</event>
<event>
 5   0  0.2023479E-06  0.3519668E+04  0.7818609E-02  0.8109145E-01
        2   -1    0    0  501    0  0.00000000000E+00  0.00000000000E+00  0.26335348448E+04  0.26335348448E+04  0.25500000920E-02 0.  1.
       -2   -1    0    0    0  501  0.00000000000E+00  0.00000000000E+00 -0.11759915995E+04  0.11759915995E+04  0.25500000920E-02 0. -1.
    10030    2    1    2    0    0  0.00000000000E+00  0.00000000000E+00  0.14575432453E+04  0.38095264443E+04  0.35196675152E+04 0.  0.
        5    1    3    3  502    0  0.30461906285E+03  0.46391405133E+03 -0.10787868044E+04  0.12131826243E+04  0.46999998093E+01 0. -1.
       -5    1    3    3    0  502 -0.30461906285E+03 -0.46391405133E+03  0.25363300498E+04  0.25963438200E+04  0.46999998093E+01 0.  1.
</event>
<event>
 5   0  0.2001768E-06  0.3218382E+04  0.7818609E-02  0.8183979E-01
        2   -1    0    0  501    0  0.00000000000E+00  0.00000000000E+00  0.16992286892E+04  0.16992286892E+04  0.25500000920E-02 0. -1.
       -2   -1    0    0    0  501  0.00000000000E+00  0.00000000000E+00 -0.15239246282E+04  0.15239246282E+04  0.25500000920E-02 0.  1.
    10030    2    1    2    0    0  0.00000000000E+00  0.00000000000E+00  0.17530406099E+03  0.32231533174E+04  0.32183824810E+04 0.  0.
        2    1    3    3  502    0 -0.25506574149E+03 -0.34384686938E+03  0.16411469024E+04  0.16960696794E+04  0.25500000920E-02 0. -1.
       -2    1    3    3    0  502  0.25506574149E+03  0.34384686938E+03 -0.14658428414E+04  0.15270836381E+04  0.25500000920E-02 0.  1.
</event>
<event>
 5   0  0.6630125E-07  0.2304138E+04  0.7818609E-02  0.8476291E-01
       -1   -1    0    0    0  501  0.00000000000E+00  0.00000000000E+00  0.82329575185E+03  0.82329575186E+03  0.50400001928E-02 0.  1.
        1   -1    0    0  501    0  0.00000000000E+00  0.00000000000E+00 -0.16121342853E+04  0.16121342853E+04  0.50400001928E-02 0. -1.
    10030    2    1    2    0    0  0.00000000000E+00  0.00000000000E+00 -0.78883853341E+03  0.24354300371E+04  0.23041382845E+04 0.  0.
        1    1    3    3  502    0 -0.32075861398E+02  0.21674313078E+03  0.80107086571E+03  0.83049441752E+03  0.50400001928E-02 0.  1.
       -1    1    3    3    0  502  0.32075861398E+02 -0.21674313078E+03 -0.15899093991E+04  0.16049356196E+04  0.50400001928E-02 0. -1.
</event>
<event>
 5   0  0.2023479E-06  0.3359551E+04  0.7818609E-02  0.8147906E-01
       -2   -1    0    0    0  501  0.00000000000E+00  0.00000000000E+00  0.17484289409E+04  0.17484289409E+04  0.25500000920E-02 0.  1.
        2   -1    0    0  501    0  0.00000000000E+00  0.00000000000E+00 -0.16138181232E+04  0.16138181232E+04  0.25500000920E-02 0. -1.
    10030    2    1    2    0    0  0.00000000000E+00  0.00000000000E+00  0.13461081771E+03  0.33622470641E+04  0.33595513462E+04 0.  0.
        5    1    3    3  502    0  0.11700223684E+04 -0.12043626946E+04  0.20551983195E+02  0.16792517134E+04  0.46999998093E+01 0.  1.
       -5    1    3    3    0  502 -0.11700223684E+04  0.12043626946E+04  0.11405883452E+03  0.16829953507E+04  0.46999998093E+01 0. -1.
</event>
<event>
 5   0  0.6630125E-07  0.2562090E+04  0.7818609E-02  0.8381193E-01
       -1   -1    0    0    0  501  0.00000000000E+00  0.00000000000E+00  0.31158781689E+04  0.31158781689E+04  0.50400001928E-02 0.  1.
        1   -1    0    0  501    0  0.00000000000E+00  0.00000000000E+00 -0.52668194568E+03  0.52668194571E+03  0.50400001928E-02 0. -1.
    10030    2    1    2    0    0  0.00000000000E+00  0.00000000000E+00  0.25891962232E+04  0.36425601146E+04  0.25620903782E+04 0.  0.
        5    1    3    3  502    0 -0.11552832735E+04 -0.50356829841E+03  0.16212652468E+04  0.20534808408E+04  0.46999998093E+01 0.  1.
       -5    1    3    3    0  502  0.11552832735E+04  0.50356829841E+03  0.96793097642E+03  0.15890792738E+04  0.46999998093E+01 0. -1.
</event>
<event>
 5   0  0.2020725E-06  0.3317014E+04  0.7818609E-02  0.8158580E-01
        2   -1    0    0  501    0  0.00000000000E+00  0.00000000000E+00  0.16039629174E+04  0.16039629174E+04  0.25500000920E-02 0.  1.
       -2   -1    0    0    0  501  0.00000000000E+00  0.00000000000E+00 -0.17149055103E+04  0.17149055103E+04  0.25500000920E-02 0. -1.
    10030    2    1    2    0    0  0.00000000000E+00  0.00000000000E+00 -0.11094259294E+03  0.33188684277E+04  0.33170136239E+04 0.  0.
        3    1    3    3  502    0  0.11227165883E+04  0.10580193256E+04  0.55375948761E+03  0.16390689465E+04  0.10100000352E+00 0.  1.
       -3    1    3    3    0  502 -0.11227165883E+04 -0.10580193256E+04 -0.66470208055E+03  0.16797994812E+04  0.10100000352E+00 0. -1.
</event>
<event>
 5   0  0.2023479E-06  0.3565142E+04  0.7818609E-02  0.8098523E-01
       -2   -1    0    0    0  501  0.00000000000E+00  0.00000000000E+00  0.10552484697E+04  0.10552484697E+04  0.25500000920E-02 0. -1.
        2   -1    0    0  501    0  0.00000000000E+00  0.00000000000E+00 -0.30111950252E+04  0.30111950252E+04  0.25500000920E-02 0.  1.
    10030    2    1    2    0    0  0.00000000000E+00  0.00000000000E+00 -0.19559465556E+04  0.40664434949E+04  0.35651417600E+04 0.  0.
        5    1    3    3  502    0  0.30996074010E+02  0.84585962814E+03  0.81140580299E+03  0.11725360268E+04  0.46999998093E+01 0. -1.
       -5    1    3    3    0  502 -0.30996074010E+02 -0.84585962814E+03 -0.27673523585E+04  0.28939074680E+04  0.46999998093E+01 0.  1.
</event>
<event>
 5   0  0.6630125E-07  0.3528853E+04  0.7818609E-02  0.8106986E-01
       -1   -1    0    0    0  501  0.00000000000E+00  0.00000000000E+00  0.19920010428E+04  0.19920010428E+04  0.50400001928E-02 0.  1.
        1   -1    0    0  501    0  0.00000000000E+00  0.00000000000E+00 -0.15628508717E+04  0.15628508717E+04  0.50400001928E-02 0. -1.
    10030    2    1    2    0    0  0.00000000000E+00  0.00000000000E+00  0.42915017108E+03  0.35548519146E+04  0.35288528257E+04 0.  0.
        4    1    3    3  502    0 -0.43000878326E+02 -0.17408627389E+04 -0.71678301549E+02  0.17428687681E+04  0.12699999809E+01 0. -1.
       -4    1    3    3    0  502  0.43000878326E+02  0.17408627389E+04  0.50082847263E+03  0.18119831464E+04  0.12699999809E+01 0.  1.
</event>
<event>
 5   0  0.2020725E-06  0.3558472E+04  0.7818609E-02  0.8100071E-01
        2   -1    0    0  501    0  0.00000000000E+00  0.00000000000E+00  0.23619703840E+04  0.23619703841E+04  0.25500000920E-02 0. -1.
       -2   -1    0    0    0  501  0.00000000000E+00  0.00000000000E+00 -0.13402707897E+04  0.13402707897E+04  0.25500000920E-02 0.  1.
    10030    2    1    2    0    0  0.00000000000E+00  0.00000000000E+00  0.10216995943E+04  0.37022411738E+04  0.35584715326E+04 0.  0.
        3    1    3    3  502    0 -0.15867668886E+03  0.26232370792E+03  0.23342825558E+04  0.23543294332E+04  0.10100000352E+00 0. -1.
       -3    1    3    3    0  502  0.15867668886E+03 -0.26232370792E+03 -0.13125829615E+04  0.13479117406E+04  0.10100000352E+00 0.  1.
</event>
<event>
 5   0  0.2001768E-06  0.3239118E+04  0.7818609E-02  0.8178562E-01
        2   -1    0    0  501    0  0.00000000000E+00  0.00000000000E+00  0.89825292452E+03  0.89825292452E+03  0.25500000920E-02 0. -1.
       -2   -1    0    0    0  501  0.00000000000E+00  0.00000000000E+00 -0.29200808644E+04  0.29200808644E+04  0.25500000920E-02 0.  1.
    10030    2    1    2    0    0  0.00000000000E+00  0.00000000000E+00 -0.20218279399E+04  0.38183337889E+04  0.32391178900E+04 0.  0.
        2    1    3    3  502    0 -0.67665307492E+03 -0.56407756288E+03  0.59112159570E+03  0.10608805878E+04  0.25500000920E-02 0. -1.
       -2    1    3    3    0  502  0.67665307492E+03  0.56407756288E+03 -0.26129495356E+04  0.27574532011E+04  0.25500000920E-02 0.  1.
</event>
<event>
 5   0  0.1999883E-06  0.3542475E+04  0.7818609E-02  0.8103797E-01
        2   -1    0    0  501    0  0.00000000000E+00  0.00000000000E+00  0.23421476620E+04  0.23421476620E+04  0.25500000920E-02 0. -1.
       -2   -1    0    0    0  501  0.00000000000E+00  0.00000000000E+00 -0.13394899073E+04  0.13394899073E+04  0.25500000920E-02 0.  1.
    10030    2    1    2    0    0  0.00000000000E+00  0.00000000000E+00  0.10026577547E+04  0.36816375693E+04  0.35424754931E+04 0.  0.
        4    1    3    3  502    0 -0.73370363422E+02  0.25713428960E+03 -0.13183916428E+04  0.13452358120E+04  0.12699999809E+01 0.  1.
       -4    1    3    3    0  502  0.73370363422E+02 -0.25713428960E+03  0.23210493975E+04  0.23364017574E+04  0.12699999809E+01 0. -1.
</event>
<event>
 5   0  0.2020725E-06  0.3223008E+04  0.7818609E-02  0.8182767E-01
       -2   -1    0    0    0  501  0.00000000000E+00  0.00000000000E+00  0.18203302351E+04  0.18203302351E+04  0.25500000920E-02 0. -1.
        2   -1    0    0  501    0  0.00000000000E+00  0.00000000000E+00 -0.14266344174E+04  0.14266344174E+04  0.25500000920E-02 0.  1.
    10030    2    1    2    0    0  0.00000000000E+00  0.00000000000E+00  0.39369581769E+03  0.32469646525E+04  0.32230083862E+04 0.  0.
        3    1    3    3  502    0  0.38830084106E+02 -0.52943087978E+03 -0.13360203842E+04  0.14376214067E+04  0.10100000352E+00 0.  1.
       -3    1    3    3    0  502 -0.38830084106E+02  0.52943087978E+03  0.17297162018E+04  0.18093432458E+04  0.10100000352E+00 0. -1.
</event>
<event>
 5   0  0.2073287E-06  0.2803167E+04  0.7818609E-02  0.8302286E-01
       -2   -1    0    0    0  501  0.00000000000E+00  0.00000000000E+00  0.91306904595E+03  0.91306904595E+03  0.25500000920E-02 0.  1.
        2   -1    0    0  501    0  0.00000000000E+00  0.00000000000E+00 -0.21514645489E+04  0.21514645489E+04  0.25500000920E-02 0. -1.
    10030    2    1    2    0    0  0.00000000000E+00  0.00000000000E+00 -0.12383955029E+04  0.30645335948E+04  0.28031665545E+04 0.  0.
        1    1    3    3  502    0  0.87920027651E+03  0.72927625811E+03 -0.15070800100E+04  0.18910650817E+04  0.50400001928E-02 0. -1.
       -1    1    3    3    0  502 -0.87920027651E+03 -0.72927625811E+03  0.26868450705E+03  0.11734685131E+04  0.50400001928E-02 0.  1.
</event>
<event>
 5   0  0.2073287E-06  0.3426281E+04  0.7818609E-02  0.8131486E-01
       -2   -1    0    0    0  501  0.00000000000E+00  0.00000000000E+00  0.20288341235E+04  0.20288341235E+04  0.25500000920E-02 0. -1.
        2   -1    0    0  501    0  0.00000000000E+00  0.00000000000E+00 -0.14465698510E+04  0.14465698510E+04  0.25500000920E-02 0.  1.
    10030    2    1    2    0    0  0.00000000000E+00  0.00000000000E+00  0.58226427246E+03  0.34754039745E+04  0.34262809434E+04 0.  0.
        1    1    3    3  502    0  0.69675122013E+03 -0.14724447068E+04  0.82910828188E+03  0.18278337507E+04  0.50400001928E-02 0. -1.
       -1    1    3    3    0  502 -0.69675122013E+03  0.14724447068E+04 -0.24684400942E+03  0.16475702238E+04  0.50400001928E-02 0.  1.
</event>
<event>
 5   0  0.6630125E-07  0.3338153E+04  0.7818609E-02  0.8153255E-01
       -1   -1    0    0    0  501  0.00000000000E+00  0.00000000000E+00  0.33514194157E+04  0.33514194157E+04  0.50400001928E-02 0.  1.
        1   -1    0    0  501    0  0.00000000000E+00  0.00000000000E+00 -0.83123455507E+03  0.83123455508E+03  0.50400001928E-02 0. -1.
    10030    2    1    2    0    0  0.00000000000E+00  0.00000000000E+00  0.25201848606E+04  0.41826539707E+04  0.33381525590E+04 0.  0.
        1    1    3    3  502    0 -0.13021683483E+04 -0.45446246815E+03  0.24379227327E+04  0.28010079958E+04  0.50400001928E-02 0.  1.
       -1    1    3    3    0  502  0.13021683483E+04  0.45446246815E+03  0.82262127893E+02  0.13816459749E+04  0.50400001928E-02 0. -1.
</event>
<event>
 5   0  0.7378896E-07  0.2790900E+04  0.7818609E-02  0.8306099E-01
       -1   -1    0    0    0  501  0.00000000000E+00  0.00000000000E+00  0.14863824154E+04  0.14863824154E+04  0.50400001928E-02 0. -1.
        1   -1    0    0  501    0  0.00000000000E+00  0.00000000000E+00 -0.13100804937E+04  0.13100804937E+04  0.50400001928E-02 0.  1.
    10030    2    1    2    0    0  0.00000000000E+00  0.00000000000E+00  0.17630192166E+03  0.27964629092E+04  0.27908999328E+04 0.  0.
        2    1    3    3  502    0 -0.11694513605E+03 -0.31498346705E+03 -0.12689451900E+04  0.13126738531E+04  0.25500000920E-02 0.  1.
       -2    1    3    3    0  502  0.11694513605E+03  0.31498346705E+03  0.14452471116E+04  0.14837890561E+04  0.25500000920E-02 0. -1.
</event>
<event>
 5   0  0.2073287E-06  0.3517614E+04  0.7818609E-02  0.8109628E-01
        2   -1    0    0  501    0  0.00000000000E+00  0.00000000000E+00  0.11690666409E+04  0.11690666409E+04  0.25500000920E-02 0.  1.
       -2   -1    0    0    0  501  0.00000000000E+00  0.00000000000E+00 -0.26460446317E+04  0.26460446317E+04  0.25500000920E-02 0. -1.
    10030    2    1    2    0    0  0.00000000000E+00  0.00000000000E+00 -0.14769779908E+04  0.38151112727E+04  0.35176142537E+04 0.  0.
        1    1    3    3  502    0  0.30364200070E+02  0.16804083033E+04 -0.17627757170E+03  0.16899017228E+04  0.50400001928E-02 0. -1.
       -1    1    3    3    0  502 -0.30364200070E+02 -0.16804083033E+04 -0.13007004191E+04  0.21252095498E+04  0.50400001928E-02 0.  1.
</event>
<event>
 5   0  0.6630125E-07  0.3328630E+04  0.7818609E-02  0.8155648E-01
       -1   -1    0    0    0  501  0.00000000000E+00  0.00000000000E+00  0.11841745070E+04  0.11841745070E+04  0.50400001928E-02 0.  1.
        1   -1    0    0  501    0  0.00000000000E+00  0.00000000000E+00 -0.23391354653E+04  0.23391354653E+04  0.50400001928E-02 0. -1.
    10030    2    1    2    0    0  0.00000000000E+00  0.00000000000E+00 -0.11549609583E+04  0.35233099724E+04  0.33286301005E+04 0.  0.
        5    1    3    3  502    0 -0.51685313661E+03 -0.14244966553E+04 -0.13059119369E+04  0.20004389425E+04  0.46999998093E+01 0. -1.
       -5    1    3    3    0  502  0.51685313661E+03  0.14244966553E+04  0.15095097851E+03  0.15228710299E+04  0.46999998093E+01 0.  1.
</event>
<event>
 5   0  0.2023479E-06  0.2190462E+04  0.7818609E-02  0.8522408E-01
        2   -1    0    0  501    0  0.00000000000E+00  0.00000000000E+00  0.10067733858E+04  0.10067733858E+04  0.25500000920E-02 0.  1.
       -2   -1    0    0    0  501  0.00000000000E+00  0.00000000000E+00 -0.11914612322E+04  0.11914612322E+04  0.25500000920E-02 0. -1.
    10030    2    1    2    0    0  0.00000000000E+00  0.00000000000E+00 -0.18468784636E+03  0.21982346180E+04  0.21904624706E+04 0.  0.
        5    1    3    3  502    0 -0.81963754094E+03 -0.58506168285E+03 -0.52446027523E+03  0.11354221865E+04  0.46999998093E+01 0. -1.
       -5    1    3    3    0  502  0.81963754094E+03  0.58506168285E+03  0.33977242887E+03  0.10628124316E+04  0.46999998093E+01 0.  1.
</event>
<event>
 5   0  0.6890600E-07  0.3402531E+04  0.7818609E-02  0.8137285E-01
        1   -1    0    0  501    0  0.00000000000E+00  0.00000000000E+00  0.24233926998E+04  0.24233926998E+04  0.50400001928E-02 0.  1.
       -1   -1    0    0    0  501  0.00000000000E+00  0.00000000000E+00 -0.11943191361E+04  0.11943191361E+04  0.50400001928E-02 0. -1.
    10030    2    1    2    0    0  0.00000000000E+00  0.00000000000E+00  0.12290735636E+04  0.36177118359E+04  0.34025309848E+04 0.  0.
        3    1    3    3  502    0  0.22699812648E+03 -0.90328647073E+03  0.21282466809E+04  0.23231204322E+04  0.10100000352E+00 0.  1.
       -3    1    3    3    0  502 -0.22699812648E+03  0.90328647073E+03 -0.89917311722E+03  0.12945914037E+04  0.10100000352E+00 0. -1.
</event>
<event>
 5   0  0.2001768E-06  0.3479235E+04  0.7818609E-02  0.8118729E-01
        2   -1    0    0  501    0  0.00000000000E+00  0.00000000000E+00  0.20326036011E+04  0.20326036011E+04  0.25500000920E-02 0. -1.
       -2   -1    0    0    0  501  0.00000000000E+00  0.00000000000E+00 -0.14888630081E+04  0.14888630081E+04  0.25500000920E-02 0.  1.
    10030    2    1    2    0    0  0.00000000000E+00  0.00000000000E+00  0.54374059295E+03  0.35214666092E+04  0.34792345778E+04 0.  0.
        2    1    3    3  502    0  0.18753263671E+03  0.10632107348E+04  0.16524962407E+04  0.19739122022E+04  0.25500000920E-02 0. -1.
       -2    1    3    3    0  502 -0.18753263671E+03 -0.10632107348E+04 -0.11087556477E+04  0.15475544070E+04  0.25500000920E-02 0.  1.
</event>
<event>
 5   0  0.6630125E-07  0.2590530E+04  0.7818609E-02  0.8371425E-01
       -1   -1    0    0    0  501  0.00000000000E+00  0.00000000000E+00  0.12200119671E+04  0.12200119671E+04  0.50400001928E-02 0. -1.
        1   -1    0    0  501    0  0.00000000000E+00  0.00000000000E+00 -0.13751595952E+04  0.13751595952E+04  0.50400001928E-02 0.  1.
    10030    2    1    2    0    0  0.00000000000E+00  0.00000000000E+00 -0.15514762815E+03  0.25951715623E+04  0.25905298012E+04 0.  0.
        4    1    3    3  502    0  0.10898436303E+03 -0.38432825702E+03  0.11567555707E+04  0.12237936361E+04  0.12699999809E+01 0. -1.
       -4    1    3    3    0  502 -0.10898436303E+03  0.38432825702E+03 -0.13119031988E+04  0.13713779262E+04  0.12699999809E+01 0.  1.
</event>
<event>
 5   0  0.6630125E-07  0.3476902E+04  0.7818609E-02  0.8119286E-01
        1   -1    0    0  501    0  0.00000000000E+00  0.00000000000E+00  0.10633112542E+04  0.10633112542E+04  0.50400001928E-02 0.  1.
       -1   -1    0    0    0  501  0.00000000000E+00  0.00000000000E+00 -0.28422644744E+04  0.28422644744E+04  0.50400001928E-02 0. -1.
    10030    2    1    2    0    0  0.00000000000E+00  0.00000000000E+00 -0.17789532202E+04  0.39055757286E+04  0.34769019561E+04 0.  0.
        5    1    3    3  502    0 -0.39423524052E+03 -0.54905191892E+03  0.90965348962E+03  0.11333009290E+04  0.46999998093E+01 0.  1.
       -5    1    3    3    0  502  0.39423524052E+03  0.54905191892E+03 -0.26886067098E+04  0.27722747996E+04  0.46999998093E+01 0. -1.
</event>
<event>
 5   0  0.6630125E-07  0.2148521E+04  0.7818609E-02  0.8540166E-01
        1   -1    0    0  501    0  0.00000000000E+00  0.00000000000E+00  0.16389763611E+04  0.16389763611E+04  0.50400001928E-02 0.  1.
       -1   -1    0    0    0  501  0.00000000000E+00  0.00000000000E+00 -0.70411953126E+03  0.70411953128E+03  0.50400001928E-02 0. -1.
    10030    2    1    2    0    0  0.00000000000E+00  0.00000000000E+00  0.93485682980E+03  0.23430958923E+04  0.21485206698E+04 0.  0.
        1    1    3    3  502    0  0.14235464690E+02  0.82005227622E+03  0.12240515359E+04  0.14734281614E+04  0.50400001928E-02 0.  1.
       -1    1    3    3    0  502 -0.14235464690E+02 -0.82005227622E+03 -0.28919470611E+03  0.86966773095E+03  0.50400001928E-02 0. -1.
</event>
<event>
 5   0  0.7378896E-07  0.2607270E+04  0.7818609E-02  0.8365736E-01
       -1   -1    0    0    0  501  0.00000000000E+00  0.00000000000E+00  0.77137985307E+03  0.77137985308E+03  0.50400001928E-02 0.  1.
        1   -1    0    0  501    0  0.00000000000E+00  0.00000000000E+00 -0.22031480338E+04  0.22031480338E+04  0.50400001928E-02 0. -1.
    10030    2    1    2    0    0  0.00000000000E+00  0.00000000000E+00 -0.14317681808E+04  0.29745278869E+04  0.26072698415E+04 0.  0.
        2    1    3    3  502    0 -0.17659007036E+03 -0.41446697576E+03 -0.21115131400E+04  0.21590402190E+04  0.25500000920E-02 0. -1.
       -2    1    3    3    0  502  0.17659007036E+03  0.41446697576E+03  0.67974495922E+03  0.81548766792E+03  0.25500000920E-02 0.  1.
</event>
<event>
 5   0  0.2020725E-06  0.2755959E+04  0.7818609E-02  0.8317073E-01
       -2   -1    0    0    0  501  0.00000000000E+00  0.00000000000E+00  0.16657581485E+04  0.16657581485E+04  0.25500000920E-02 0.  1.
        2   -1    0    0  501    0  0.00000000000E+00  0.00000000000E+00 -0.11399177742E+04  0.11399177742E+04  0.25500000920E-02 0. -1.
    10030    2    1    2    0    0  0.00000000000E+00  0.00000000000E+00  0.52584037434E+03  0.28056759227E+04  0.27559588683E+04 0.  0.
        3    1    3    3  502    0  0.12416580541E+04  0.13421770241E+03  0.85574655648E+03  0.15139456048E+04  0.10100000352E+00 0.  1.
       -3    1    3    3    0  502 -0.12416580541E+04 -0.13421770241E+03 -0.32990618214E+03  0.12917303179E+04  0.10100000352E+00 0. -1.
</event>
<event>
 5   0  0.2073287E-06  0.3502726E+04  0.7818609E-02  0.8113144E-01
       -2   -1    0    0    0  501  0.00000000000E+00  0.00000000000E+00  0.21247668751E+04  0.21247668751E+04  0.25500000920E-02 0. -1.
        2   -1    0    0  501    0  0.00000000000E+00  0.00000000000E+00 -0.14435804164E+04  0.14435804164E+04  0.25500000920E-02 0.  1.
    10030    2    1    2    0    0  0.00000000000E+00  0.00000000000E+00  0.68118645872E+03  0.35683472915E+04  0.35027257103E+04 0.  0.
        1    1    3    3  502    0  0.26313848259E+03  0.12171868859E+04  0.15951207672E+04  0.20236590717E+04  0.50400001928E-02 0. -1.
       -1    1    3    3    0  502 -0.26313848259E+03 -0.12171868859E+04 -0.91393430848E+03  0.15446882199E+04  0.50400001928E-02 0.  1.
</event>
<event>
 5   0  0.7378896E-07  0.3513219E+04  0.7818609E-02  0.8110664E-01
       -1   -1    0    0    0  501  0.00000000000E+00  0.00000000000E+00  0.17655788617E+04  0.17655788618E+04  0.50400001928E-02 0.  1.
        1   -1    0    0  501    0  0.00000000000E+00  0.00000000000E+00 -0.17476856781E+04  0.17476856781E+04  0.50400001928E-02 0. -1.
    10030    2    1    2    0    0  0.00000000000E+00  0.00000000000E+00  0.17893183691E+02  0.35132645398E+04  0.35132189742E+04 0.  0.
        2    1    3    3  502    0  0.13036046747E+04  0.53345364197E+03  0.10585882128E+04  0.17619781327E+04  0.25500000920E-02 0.  1.
       -2    1    3    3    0  502 -0.13036046747E+04 -0.53345364197E+03 -0.10406950291E+04  0.17512864071E+04  0.25500000920E-02 0. -1.
</event>
<event>
 5   0  0.6630125E-07  0.3516762E+04  0.7818609E-02  0.8109829E-01
        1   -1    0    0  501    0  0.00000000000E+00  0.00000000000E+00  0.12046671496E+04  0.12046671496E+04  0.50400001928E-02 0.  1.
       -1   -1    0    0    0  501  0.00000000000E+00  0.00000000000E+00 -0.25666035342E+04  0.25666035342E+04  0.50400001928E-02 0. -1.
    10030    2    1    2    0    0  0.00000000000E+00  0.00000000000E+00 -0.13619363846E+04  0.37712706839E+04  0.35167615579E+04 0.  0.
        4    1    3    3  502    0 -0.15482711679E+04  0.74340763284E+02  0.20931309211E+03  0.15641239535E+04  0.12699999809E+01 0. -1.
       -4    1    3    3    0  502  0.15482711679E+04 -0.74340763284E+02 -0.15712494767E+04  0.22071467304E+04  0.12699999809E+01 0.  1.
</event>
<event>
 5   0  0.6890600E-07  0.3552654E+04  0.7818609E-02  0.8101424E-01
        1   -1    0    0  501    0  0.00000000000E+00  0.00000000000E+00  0.17152424449E+04  0.17152424449E+04  0.50400001928E-02 0. -1.
       -1   -1    0    0    0  501  0.00000000000E+00  0.00000000000E+00 -0.18395874105E+04  0.18395874105E+04  0.50400001928E-02 0.  1.
    10030    2    1    2    0    0  0.00000000000E+00  0.00000000000E+00 -0.12434496560E+03  0.35548298554E+04  0.35526544485E+04 0.  0.
        3    1    3    3  502    0  0.24291676239E+03 -0.58968178963E+03  0.15967345019E+04  0.17193877533E+04  0.10100000352E+00 0. -1.
       -3    1    3    3    0  502 -0.24291676239E+03  0.58968178963E+03 -0.17210794675E+04  0.18354421021E+04  0.10100000352E+00 0.  1.
</event>
<event>
 5   0  0.6630125E-07  0.3503203E+04  0.7818609E-02  0.8113031E-01
        1   -1    0    0  501    0  0.00000000000E+00  0.00000000000E+00  0.17655263129E+04  0.17655263129E+04  0.50400001928E-02 0.  1.
       -1   -1    0    0    0  501  0.00000000000E+00  0.00000000000E+00 -0.17377864520E+04  0.17377864520E+04  0.50400001928E-02 0. -1.
    10030    2    1    2    0    0  0.00000000000E+00  0.00000000000E+00  0.27739860870E+02  0.35033127649E+04  0.35032029386E+04 0.  0.
        4    1    3    3  502    0  0.62873198632E+03 -0.14848866129E+04  0.69793372085E+03  0.17570729226E+04  0.12699999809E+01 0.  1.
       -4    1    3    3    0  502 -0.62873198632E+03  0.14848866129E+04 -0.67019385998E+03  0.17462398423E+04  0.12699999809E+01 0. -1.
</event>
<event>
 5   0  0.2001768E-06  0.2208080E+04  0.7818609E-02  0.8515072E-01
       -2   -1    0    0    0  501  0.00000000000E+00  0.00000000000E+00  0.91070790261E+03  0.91070790262E+03  0.25500000920E-02 0.  1.
        2   -1    0    0  501    0  0.00000000000E+00  0.00000000000E+00 -0.13384144410E+04  0.13384144410E+04  0.25500000920E-02 0. -1.
    10030    2    1    2    0    0  0.00000000000E+00  0.00000000000E+00 -0.42770653838E+03  0.22491223436E+04  0.22080802598E+04 0.  0.
        2    1    3    3  502    0  0.74617081716E+03 -0.41930760626E+03 -0.92417809107E+03  0.12596407826E+04  0.25500000920E-02 0. -1.
       -2    1    3    3    0  502 -0.74617081716E+03  0.41930760626E+03  0.49647155269E+03  0.98948156106E+03  0.25500000920E-02 0.  1.
</event>
<event>
 5   0  0.2073287E-06  0.4002740E+04  0.7818609E-02  0.8003994E-01
        2   -1    0    0  501    0  0.00000000000E+00  0.00000000000E+00  0.27593349103E+04  0.27593349103E+04  0.25500000920E-02 0. -1.
       -2   -1    0    0    0  501  0.00000000000E+00  0.00000000000E+00 -0.14516114974E+04  0.14516114974E+04  0.25500000920E-02 0.  1.
    10030    2    1    2    0    0  0.00000000000E+00  0.00000000000E+00  0.13077234129E+04  0.42109464077E+04  0.40027402019E+04 0.  0.
        1    1    3    3  502    0 -0.14072105580E+04  0.64328709587E+03  0.19893098063E+04  0.25202010531E+04  0.50400001928E-02 0. -1.
       -1    1    3    3    0  502  0.14072105580E+04 -0.64328709587E+03 -0.68158639342E+03  0.16907453546E+04  0.50400001928E-02 0.  1.
</event>
<event>
 5   0  0.6630125E-07  0.3462681E+04  0.7818609E-02  0.8122691E-01
       -1   -1    0    0    0  501  0.00000000000E+00  0.00000000000E+00  0.13219001790E+04  0.13219001791E+04  0.50400001928E-02 0. -1.
        1   -1    0    0  501    0  0.00000000000E+00  0.00000000000E+00 -0.22675995172E+04  0.22675995172E+04  0.50400001928E-02 0.  1.
    10030    2    1    2    0    0  0.00000000000E+00  0.00000000000E+00 -0.94569933815E+03  0.35894996963E+04  0.34626811622E+04 0.  0.
        1    1    3    3  502    0 -0.22370156953E+03  0.17141754196E+04 -0.57173975784E+03  0.18208036995E+04  0.50400001928E-02 0. -1.
       -1    1    3    3    0  502  0.22370156953E+03 -0.17141754196E+04 -0.37395958032E+03  0.17686959968E+04  0.50400001928E-02 0.  1.
</event>
<event>
 5   0  0.2001768E-06  0.3137612E+04  0.7818609E-02  0.8205491E-01
       -2   -1    0    0    0  501  0.00000000000E+00  0.00000000000E+00  0.17748155823E+04  0.17748155823E+04  0.25500000920E-02 0.  1.
        2   -1    0    0  501    0  0.00000000000E+00  0.00000000000E+00 -0.13867083148E+04  0.13867083148E+04  0.25500000920E-02 0. -1.
    10030    2    1    2    0    0  0.00000000000E+00  0.00000000000E+00  0.38810726754E+03  0.31615238971E+04  0.31376115280E+04 0.  0.
        2    1    3    3  502    0  0.17179512082E+03 -0.11153100408E+04 -0.90407850286E+03  0.14459557358E+04  0.25500000920E-02 0. -1.
       -2    1    3    3    0  502 -0.17179512082E+03  0.11153100408E+04  0.12921857704E+04  0.17155681612E+04  0.25500000920E-02 0.  1.
</event>
<event>
 5   0  0.6890600E-07  0.3558157E+04  0.7818609E-02  0.8100144E-01
       -1   -1    0    0    0  501  0.00000000000E+00  0.00000000000E+00  0.33418195111E+04  0.33418195111E+04  0.50400001928E-02 0. -1.
        1   -1    0    0  501    0  0.00000000000E+00  0.00000000000E+00 -0.94712494563E+03  0.94712494565E+03  0.50400001928E-02 0.  1.
    10030    2    1    2    0    0  0.00000000000E+00  0.00000000000E+00  0.23946945655E+04  0.42889444568E+04  0.35581571763E+04 0.  0.
        3    1    3    3  502    0  0.44323338921E+03 -0.17090058848E+04  0.93336094230E+03  0.19970777678E+04  0.10100000352E+00 0. -1.
       -3    1    3    3    0  502 -0.44323338921E+03  0.17090058848E+04  0.14613336232E+04  0.22918666890E+04  0.10100000352E+00 0.  1.
</event>
<event>
 5   0  0.2073287E-06  0.3491538E+04  0.7818609E-02  0.8115798E-01
       -2   -1    0    0    0  501  0.00000000000E+00  0.00000000000E+00  0.14490499114E+04  0.14490499114E+04  0.25500000920E-02 0. -1.
        2   -1    0    0  501    0  0.00000000000E+00  0.00000000000E+00 -0.21032464157E+04  0.21032464157E+04  0.25500000920E-02 0.  1.
    10030    2    1    2    0    0  0.00000000000E+00  0.00000000000E+00 -0.65419650423E+03  0.35522963271E+04  0.34915377886E+04 0.  0.
        1    1    3    3  502    0  0.14010495389E+04 -0.83630968171E+03 -0.95867063307E+03  0.18924595311E+04  0.50400001928E-02 0. -1.
       -1    1    3    3    0  502 -0.14010495389E+04  0.83630968171E+03  0.30447412884E+03  0.16598367960E+04  0.50400001928E-02 0.  1.
</event>
<event>
 5   0  0.6890600E-07  0.3489158E+04  0.7818609E-02  0.8116364E-01
       -1   -1    0    0    0  501  0.00000000000E+00  0.00000000000E+00  0.18016304495E+04  0.18016304496E+04  0.50400001928E-02 0.  1.
        1   -1    0    0  501    0  0.00000000000E+00  0.00000000000E+00 -0.16893341109E+04  0.16893341109E+04  0.50400001928E-02 0. -1.
    10030    2    1    2    0    0  0.00000000000E+00  0.00000000000E+00  0.11229633866E+03  0.34909645604E+04  0.34891579349E+04 0.  0.
        3    1    3    3  502    0 -0.13172697830E+03 -0.15430052687E+04  0.85989375760E+03  0.17713369359E+04  0.10100000352E+00 0. -1.
       -3    1    3    3    0  502  0.13172697830E+03  0.15430052687E+04 -0.74759741894E+03  0.17196276245E+04  0.10100000352E+00 0.  1.
</event>
<event>
 5   0  0.2023479E-06  0.3244333E+04  0.7818609E-02  0.8177206E-01
        2   -1    0    0  501    0  0.00000000000E+00  0.00000000000E+00  0.96100706108E+03  0.96100706109E+03  0.25500000920E-02 0.  1.
       -2   -1    0    0    0  501  0.00000000000E+00  0.00000000000E+00 -0.27381940521E+04  0.27381940521E+04  0.25500000920E-02 0. -1.
    10030    2    1    2    0    0  0.00000000000E+00  0.00000000000E+00 -0.17771869910E+04  0.36992011132E+04  0.32443327934E+04 0.  0.
        5    1    3    3  502    0  0.77318744894E+03 -0.42308253321E+02  0.73666433396E+03  0.10687868124E+04  0.46999998093E+01 0.  1.
       -5    1    3    3    0  502 -0.77318744894E+03  0.42308253321E+02 -0.25138513249E+04  0.26304143007E+04  0.46999998093E+01 0. -1.
</event>
<event>
 5   0  0.2073287E-06  0.3444957E+04  0.7818609E-02  0.8126960E-01
        2   -1    0    0  501    0  0.00000000000E+00  0.00000000000E+00  0.22140363352E+04  0.22140363352E+04  0.25500000920E-02 0.  1.
       -2   -1    0    0    0  501  0.00000000000E+00  0.00000000000E+00 -0.13400554431E+04  0.13400554431E+04  0.25500000920E-02 0. -1.
    10030    2    1    2    0    0  0.00000000000E+00  0.00000000000E+00  0.87398089203E+03  0.35540917783E+04  0.34449565700E+04 0.  0.
        1    1    3    3  502    0 -0.62562344787E+03  0.87179826530E+03 -0.95309776271E+03  0.14352115730E+04  0.50400001928E-02 0. -1.
       -1    1    3    3    0  502  0.62562344787E+03 -0.87179826530E+03  0.18270786547E+04  0.21188802053E+04  0.50400001928E-02 0.  1.
</event>
<event>
 5   0  0.7378896E-07  0.2878898E+04  0.7818609E-02  0.8279184E-01
       -1   -1    0    0    0  501  0.00000000000E+00  0.00000000000E+00  0.10640149057E+04  0.10640149057E+04  0.50400001928E-02 0.  1.
        1   -1    0    0  501    0  0.00000000000E+00  0.00000000000E+00 -0.19473534095E+04  0.19473534095E+04  0.50400001928E-02 0. -1.
    10030    2    1    2    0    0  0.00000000000E+00  0.00000000000E+00 -0.88333850383E+03  0.30113683152E+04  0.28788977434E+04 0.  0.
        2    1    3    3  502    0  0.63737147233E+03  0.85518257524E+03 -0.14528104818E+04  0.18022868603E+04  0.25500000920E-02 0. -1.
       -2    1    3    3    0  502 -0.63737147233E+03 -0.85518257524E+03  0.56947197800E+03  0.12090814549E+04  0.25500000920E-02 0.  1.
</event>
<event>
 5   0  0.2001768E-06  0.2304717E+04  0.7818609E-02  0.8476063E-01
       -2   -1    0    0    0  501  0.00000000000E+00  0.00000000000E+00  0.44704669039E+03  0.44704669039E+03  0.25500000920E-02 0.  1.
        2   -1    0    0  501    0  0.00000000000E+00  0.00000000000E+00 -0.29704513828E+04  0.29704513828E+04  0.25500000920E-02 0. -1.
    10030    2    1    2    0    0  0.00000000000E+00  0.00000000000E+00 -0.25234046924E+04  0.34174980732E+04  0.23047173012E+04 0.  0.
        2    1    3    3  502    0 -0.82298492554E+03 -0.24201837979E+03 -0.24026639964E+04  0.25512097842E+04  0.25500000920E-02 0. -1.
       -2    1    3    3    0  502  0.82298492554E+03  0.24201837979E+03 -0.12074069602E+03  0.86628828891E+03  0.25500000920E-02 0.  1.
</event>
<event>
 5   0  0.2073287E-06  0.2751373E+04  0.7818609E-02  0.8318526E-01
       -2   -1    0    0    0  501  0.00000000000E+00  0.00000000000E+00  0.10885019829E+04  0.10885019829E+04  0.25500000920E-02 0.  1.
        2   -1    0    0  501    0  0.00000000000E+00  0.00000000000E+00 -0.17386396732E+04  0.17386396732E+04  0.25500000920E-02 0. -1.
    10030    2    1    2    0    0  0.00000000000E+00  0.00000000000E+00 -0.65013769026E+03  0.28271416561E+04  0.27513725534E+04 0.  0.
        1    1    3    3  502    0  0.19685620007E+03 -0.78529172754E+03 -0.14679381876E+04  0.16763883749E+04  0.50400001928E-02 0. -1.
       -1    1    3    3    0  502 -0.19685620007E+03  0.78529172754E+03  0.81780049733E+03  0.11507532812E+04  0.50400001928E-02 0.  1.
</event>
<event>
 5   0  0.7378896E-07  0.3545982E+04  0.7818609E-02  0.8102978E-01
        1   -1    0    0  501    0  0.00000000000E+00  0.00000000000E+00  0.25778748558E+04  0.25778748558E+04  0.50400001928E-02 0.  1.
       -1   -1    0    0    0  501  0.00000000000E+00  0.00000000000E+00 -0.12194144281E+04  0.12194144281E+04  0.50400001928E-02 0. -1.
    10030    2    1    2    0    0  0.00000000000E+00  0.00000000000E+00  0.13584604276E+04  0.37972892839E+04  0.35459823987E+04 0.  0.
        2    1    3    3  502    0 -0.40256264342E+03 -0.27619001503E+03  0.25044793435E+04  0.25516179942E+04  0.25500000920E-02 0.  1.
       -2    1    3    3    0  502  0.40256264342E+03  0.27619001503E+03 -0.11460189159E+04  0.12456712897E+04  0.25500000920E-02 0. -1.
</event>
<event>
 5   0  0.6630125E-07  0.3488865E+04  0.7818609E-02  0.8116434E-01
       -1   -1    0    0    0  501  0.00000000000E+00  0.00000000000E+00  0.17388826766E+04  0.17388826766E+04  0.50400001928E-02 0. -1.
        1   -1    0    0  501    0  0.00000000000E+00  0.00000000000E+00 -0.17499999054E+04  0.17499999054E+04  0.50400001928E-02 0.  1.
    10030    2    1    2    0    0  0.00000000000E+00  0.00000000000E+00 -0.11117228872E+02  0.34888825820E+04  0.34888648696E+04 0.  0.
        4    1    3    3  502    0  0.69034225603E+03  0.13848011989E+04 -0.81104151522E+03  0.17470079402E+04  0.12699999809E+01 0.  1.
       -4    1    3    3    0  502 -0.69034225603E+03 -0.13848011989E+04  0.79992428634E+03  0.17418746418E+04  0.12699999809E+01 0. -1.
</event>
<event>
 5   0  0.2023479E-06  0.3550467E+04  0.7818609E-02  0.8101933E-01
       -2   -1    0    0    0  501  0.00000000000E+00  0.00000000000E+00  0.13268582856E+04  0.13268582856E+04  0.25500000920E-02 0.  1.
        2   -1    0    0  501    0  0.00000000000E+00  0.00000000000E+00 -0.23751244285E+04  0.23751244285E+04  0.25500000920E-02 0. -1.
    10030    2    1    2    0    0  0.00000000000E+00  0.00000000000E+00 -0.10482661429E+04  0.37019827140E+04  0.35504667452E+04 0.  0.
        5    1    3    3  502    0 -0.14637502459E+04 -0.53725383253E+03 -0.14090103133E+04  0.21015562367E+04  0.46999998093E+01 0. -1.
       -5    1    3    3    0  502  0.14637502459E+04  0.53725383253E+03  0.36074417041E+03  0.16004264774E+04  0.46999998093E+01 0.  1.
</event>
<event>
 5   0  0.6890600E-07  0.3522712E+04  0.7818609E-02  0.8108429E-01
       -1   -1    0    0    0  501  0.00000000000E+00  0.00000000000E+00  0.12451744244E+04  0.12451744244E+04  0.50400001928E-02 0.  1.
        1   -1    0    0  501    0  0.00000000000E+00  0.00000000000E+00 -0.24915177483E+04  0.24915177483E+04  0.50400001928E-02 0. -1.
    10030    2    1    2    0    0  0.00000000000E+00  0.00000000000E+00 -0.12463433238E+04  0.37366921727E+04  0.35227115568E+04 0.  0.
        3    1    3    3  502    0  0.85736590404E+03 -0.11384234369E+04  0.47473078769E+03  0.15021496417E+04  0.10100000352E+00 0.  1.
       -3    1    3    3    0  502 -0.85736590404E+03  0.11384234369E+04 -0.17210741115E+04  0.22345425310E+04  0.10100000352E+00 0. -1.
</event>
<event>
 5   0  0.6890600E-07  0.3401856E+04  0.7818609E-02  0.8137451E-01
       -1   -1    0    0    0  501  0.00000000000E+00  0.00000000000E+00  0.20261737251E+04  0.20261737251E+04  0.50400001928E-02 0.  1.
        1   -1    0    0  501    0  0.00000000000E+00  0.00000000000E+00 -0.14278915449E+04  0.14278915449E+04  0.50400001928E-02 0. -1.
    10030    2    1    2    0    0  0.00000000000E+00  0.00000000000E+00  0.59828218020E+03  0.34540652700E+04  0.34018561584E+04 0.  0.
        3    1    3    3  502    0  0.11812146887E+04  0.11033470530E+04 -0.23862256417E+03  0.16338860421E+04  0.10100000352E+00 0.  1.
       -3    1    3    3    0  502 -0.11812146887E+04 -0.11033470530E+04  0.83690474438E+03  0.18201792279E+04  0.10100000352E+00 0. -1.
</event>
<event>
 5   0  0.2020725E-06  0.3515470E+04  0.7818609E-02  0.8110134E-01
       -2   -1    0    0    0  501  0.00000000000E+00  0.00000000000E+00  0.16171421359E+04  0.16171421359E+04  0.25500000920E-02 0. -1.
        2   -1    0    0  501    0  0.00000000000E+00  0.00000000000E+00 -0.19105505741E+04  0.19105505741E+04  0.25500000920E-02 0.  1.
    10030    2    1    2    0    0  0.00000000000E+00  0.00000000000E+00 -0.29340843828E+03  0.35276927100E+04  0.35154697189E+04 0.  0.
        3    1    3    3  502    0  0.62734317507E+03 -0.24344078177E+03 -0.17761755298E+04  0.18993742118E+04  0.10100000352E+00 0.  1.
       -3    1    3    3    0  502 -0.62734317507E+03  0.24344078177E+03  0.14827670916E+04  0.16283184982E+04  0.10100000352E+00 0. -1.
</event>
<event>
 5   0  0.2023479E-06  0.3566332E+04  0.7818609E-02  0.8098248E-01
        2   -1    0    0  501    0  0.00000000000E+00  0.00000000000E+00  0.10696343027E+04  0.10696343027E+04  0.25500000920E-02 0. -1.
       -2   -1    0    0    0  501  0.00000000000E+00  0.00000000000E+00 -0.29726801552E+04  0.29726801552E+04  0.25500000920E-02 0.  1.
    10030    2    1    2    0    0  0.00000000000E+00  0.00000000000E+00 -0.19030458525E+04  0.40423144579E+04  0.35663318214E+04 0.  0.
        5    1    3    3  502    0  0.12560617503E+03  0.54379673585E+03 -0.28711220653E+04  0.29248685107E+04  0.46999998093E+01 0.  1.
       -5    1    3    3    0  502 -0.12560617503E+03 -0.54379673585E+03  0.96807621281E+03  0.11174459472E+04  0.46999998093E+01 0. -1.
</event>
<event>
 5   0  0.6630125E-07  0.3343177E+04  0.7818609E-02  0.8151995E-01
       -1   -1    0    0    0  501  0.00000000000E+00  0.00000000000E+00  0.18615339788E+04  0.18615339788E+04  0.50400001928E-02 0. -1.
        1   -1    0    0  501    0  0.00000000000E+00  0.00000000000E+00 -0.15010248246E+04  0.15010248246E+04  0.50400001928E-02 0.  1.
    10030    2    1    2    0    0  0.00000000000E+00  0.00000000000E+00  0.36050915415E+03  0.33625588034E+04  0.33431773593E+04 0.  0.
        5    1    3    3  502    0 -0.59984500876E+03 -0.14449819110E+04  0.77222407379E+03  0.17447460754E+04  0.46999998093E+01 0. -1.
       -5    1    3    3    0  502  0.59984500876E+03  0.14449819110E+04 -0.41171491964E+03  0.16178127279E+04  0.46999998093E+01 0.  1.
</event>
<event>
 5   0  0.7378896E-07  0.3581069E+04  0.7818609E-02  0.8094842E-01
        1   -1    0    0  501    0  0.00000000000E+00  0.00000000000E+00  0.22250160273E+04  0.22250160273E+04  0.50400001928E-02 0.  1.
       -1   -1    0    0    0  501  0.00000000000E+00  0.00000000000E+00 -0.14408944704E+04  0.14408944705E+04  0.50400001928E-02 0. -1.
    10030    2    1    2    0    0  0.00000000000E+00  0.00000000000E+00  0.78412155689E+03  0.36659104978E+04  0.35810687178E+04 0.  0.
        2    1    3    3  502    0  0.17091801543E+04  0.50148018176E+03  0.57868210860E+03  0.18728727013E+04  0.25500000920E-02 0.  1.
       -2    1    3    3    0  502 -0.17091801543E+04 -0.50148018176E+03  0.20543944830E+03  0.17930377965E+04  0.25500000920E-02 0. -1.
</event>
<event>
 5   0  0.1999883E-06  0.3508138E+04  0.7818609E-02  0.8111864E-01
        2   -1    0    0  501    0  0.00000000000E+00  0.00000000000E+00  0.26243904159E+04  0.26243904159E+04  0.25500000920E-02 0. -1.
       -2   -1    0    0    0  501  0.00000000000E+00  0.00000000000E+00 -0.11723703266E+04  0.11723703267E+04  0.25500000920E-02 0.  1.
    10030    2    1    2    0    0  0.00000000000E+00  0.00000000000E+00  0.14520200892E+04  0.37967607425E+04  0.35081376536E+04 0.  0.
        4    1    3    3  502    0  0.92401847145E+03  0.21382487002E+03  0.23229486623E+04  0.25091080709E+04  0.12699999809E+01 0. -1.
       -4    1    3    3    0  502 -0.92401847145E+03 -0.21382487002E+03 -0.87092857307E+03  0.12876526717E+04  0.12699999809E+01 0.  1.
</event>
<event>
 5   0  0.2023479E-06  0.3582247E+04  0.7818609E-02  0.8094570E-01
       -2   -1    0    0    0  501  0.00000000000E+00  0.00000000000E+00  0.22178108412E+04  0.22178108412E+04  0.25500000920E-02 0. -1.
        2   -1    0    0  501    0  0.00000000000E+00  0.00000000000E+00 -0.14465268267E+04  0.14465268267E+04  0.25500000920E-02 0.  1.
    10030    2    1    2    0    0  0.00000000000E+00  0.00000000000E+00  0.77128401446E+03  0.36643376679E+04  0.35822467131E+04 0.  0.
        5    1    3    3  502    0 -0.12918547712E+04 -0.91315805200E+03 -0.47345793001E+03  0.16513421448E+04  0.46999998093E+01 0.  1.
       -5    1    3    3    0  502  0.12918547712E+04  0.91315805200E+03  0.12447419445E+04  0.20129955231E+04  0.46999998093E+01 0. -1.
</event>
<event>
 5   0  0.6630125E-07  0.3122117E+04  0.7818609E-02  0.8209694E-01
       -1   -1    0    0    0  501  0.00000000000E+00  0.00000000000E+00  0.10888692508E+04  0.10888692508E+04  0.50400001928E-02 0. -1.
        1   -1    0    0  501    0  0.00000000000E+00  0.00000000000E+00 -0.22380124635E+04  0.22380124635E+04  0.50400001928E-02 0.  1.
    10030    2    1    2    0    0  0.00000000000E+00  0.00000000000E+00 -0.11491432127E+04  0.33268817143E+04  0.31221165606E+04 0.  0.
        1    1    3    3  502    0 -0.82852461296E+03 -0.12978830758E+04 -0.84822057086E+03  0.17579623572E+04  0.50400001928E-02 0. -1.
       -1    1    3    3    0  502  0.82852461296E+03  0.12978830758E+04 -0.30092264188E+03  0.15689193571E+04  0.50400001928E-02 0.  1.
</event>
<event>
 5   0  0.2001768E-06  0.3521218E+04  0.7818609E-02  0.8108780E-01
        2   -1    0    0  501    0  0.00000000000E+00  0.00000000000E+00  0.11786013520E+04  0.11786013520E+04  0.25500000920E-02 0. -1.
       -2   -1    0    0    0  501  0.00000000000E+00  0.00000000000E+00 -0.26300196304E+04  0.26300196304E+04  0.25500000920E-02 0.  1.
    10030    2    1    2    0    0  0.00000000000E+00  0.00000000000E+00 -0.14514182784E+04  0.38086209824E+04  0.35212183643E+04 0.  0.
        2    1    3    3  502    0 -0.11763974966E+04 -0.50629413324E+03 -0.20324119589E+04  0.24022787495E+04  0.25500000920E-02 0.  1.
       -2    1    3    3    0  502  0.11763974966E+04  0.50629413324E+03  0.58099368048E+03  0.14063422330E+04  0.25500000920E-02 0. -1.
</event>
<event>
 5   0  0.7378896E-07  0.2918201E+04  0.7818609E-02  0.8267483E-01
        1   -1    0    0  501    0  0.00000000000E+00  0.00000000000E+00  0.15609513280E+04  0.15609513280E+04  0.50400001928E-02 0.  1.
       -1   -1    0    0    0  501  0.00000000000E+00  0.00000000000E+00 -0.13638954824E+04  0.13638954824E+04  0.50400001928E-02 0. -1.
    10030    2    1    2    0    0  0.00000000000E+00  0.00000000000E+00  0.19705584561E+03  0.29248468104E+04  0.29182011339E+04 0.  0.
        2    1    3    3  502    0 -0.13139579748E+04  0.89491311001E+02  0.72803484964E+03  0.15048352058E+04  0.25500000920E-02 0.  1.
       -2    1    3    3    0  502  0.13139579748E+04 -0.89491311001E+02 -0.53097900403E+03  0.14200116046E+04  0.25500000920E-02 0. -1.
</event>
<event>
 5   0  0.2073287E-06  0.3687540E+04  0.7818609E-02  0.8070729E-01
        2   -1    0    0  501    0  0.00000000000E+00  0.00000000000E+00  0.18814010859E+04  0.18814010859E+04  0.25500000920E-02 0. -1.
       -2   -1    0    0    0  501  0.00000000000E+00  0.00000000000E+00 -0.18068912571E+04  0.18068912571E+04  0.25500000920E-02 0.  1.
    10030    2    1    2    0    0  0.00000000000E+00  0.00000000000E+00  0.74509828881E+02  0.36882923430E+04  0.36875396530E+04 0.  0.
        1    1    3    3  502    0 -0.76501685082E+03 -0.14656419118E+04  0.85358949185E+03  0.18606375296E+04  0.50400001928E-02 0. -1.
       -1    1    3    3    0  502  0.76501685082E+03  0.14656419118E+04 -0.77907966297E+03  0.18276548134E+04  0.50400001928E-02 0.  1.
</event>
<event>
 5   0  0.6890600E-07  0.3543159E+04  0.7818609E-02  0.8103637E-01
       -1   -1    0    0    0  501  0.00000000000E+00  0.00000000000E+00  0.17235558979E+04  0.17235558979E+04  0.50400001928E-02 0. -1.
        1   -1    0    0  501    0  0.00000000000E+00  0.00000000000E+00 -0.18209415581E+04  0.18209415581E+04  0.50400001928E-02 0.  1.
    10030    2    1    2    0    0  0.00000000000E+00  0.00000000000E+00 -0.97385660146E+02  0.35444974560E+04  0.35431593598E+04 0.  0.
        3    1    3    3  502    0  0.51509991281E+03  0.14293940601E+04  0.86269417884E+03  0.17472082176E+04  0.10100000352E+00 0. -1.
       -3    1    3    3    0  502 -0.51509991281E+03 -0.14293940601E+04 -0.96007983898E+03  0.17972892384E+04  0.10100000352E+00 0.  1.
</event>
<event>
 5   0  0.6890600E-07  0.3343051E+04  0.7818609E-02  0.8152027E-01
       -1   -1    0    0    0  501  0.00000000000E+00  0.00000000000E+00  0.12554993485E+04  0.12554993485E+04  0.50400001928E-02 0.  1.
        1   -1    0    0  501    0  0.00000000000E+00  0.00000000000E+00 -0.22254067608E+04  0.22254067608E+04  0.50400001928E-02 0. -1.
    10030    2    1    2    0    0  0.00000000000E+00  0.00000000000E+00 -0.96990741228E+03  0.34809061093E+04  0.33430505460E+04 0.  0.
        3    1    3    3  502    0 -0.78834254884E+03 -0.30111363507E+03  0.10174041353E+04  0.13218413597E+04  0.10100000352E+00 0.  1.
       -3    1    3    3    0  502  0.78834254884E+03  0.30111363507E+03 -0.19873115476E+04  0.21590647496E+04  0.10100000352E+00 0. -1.
</event>
<event>
 5   0  0.1999883E-06  0.3504527E+04  0.7818609E-02  0.8112718E-01
       -2   -1    0    0    0  501  0.00000000000E+00  0.00000000000E+00  0.24101781198E+04  0.24101781198E+04  0.25500000920E-02 0. -1.
        2   -1    0    0  501    0  0.00000000000E+00  0.00000000000E+00 -0.12739424466E+04  0.12739424466E+04  0.25500000920E-02 0.  1.
    10030    2    1    2    0    0  0.00000000000E+00  0.00000000000E+00  0.11362356732E+04  0.36841205664E+04  0.35045274778E+04 0.  0.
        4    1    3    3  502    0 -0.21042718521E+03  0.17208804401E+04  0.83555099882E+03  0.19245405098E+04  0.12699999809E+01 0.  1.
       -4    1    3    3    0  502  0.21042718521E+03 -0.17208804401E+04  0.30068467438E+03  0.17595800566E+04  0.12699999809E+01 0. -1.
</event>
<event>
 5   0  0.2073287E-06  0.2279707E+04  0.7818609E-02  0.8485966E-01
       -2   -1    0    0    0  501  0.00000000000E+00  0.00000000000E+00  0.10055337432E+04  0.10055337432E+04  0.25500000920E-02 0. -1.
        2   -1    0    0  501    0  0.00000000000E+00  0.00000000000E+00 -0.12921155688E+04  0.12921155688E+04  0.25500000920E-02 0.  1.
    10030    2    1    2    0    0  0.00000000000E+00  0.00000000000E+00 -0.28658182563E+03  0.22976493120E+04  0.22797068272E+04 0.  0.
        1    1    3    3  502    0 -0.89950375712E+03 -0.66747219712E+03  0.69652980331E+02  0.11222645324E+04  0.50400001928E-02 0. -1.
       -1    1    3    3    0  502  0.89950375712E+03  0.66747219712E+03 -0.35623480596E+03  0.11753847796E+04  0.50400001928E-02 0.  1.
</event>
<event>
 5   0  0.2023479E-06  0.3351122E+04  0.7818609E-02  0.8150008E-01
        2   -1    0    0  501    0  0.00000000000E+00  0.00000000000E+00  0.21102627895E+04  0.21102627895E+04  0.25500000920E-02 0. -1.
       -2   -1    0    0    0  501  0.00000000000E+00  0.00000000000E+00 -0.13304052378E+04  0.13304052378E+04  0.25500000920E-02 0.  1.
    10030    2    1    2    0    0  0.00000000000E+00  0.00000000000E+00  0.77985755164E+03  0.34406680273E+04  0.33511220021E+04 0.  0.
        5    1    3    3  502    0  0.11624646671E+04 -0.11077968264E+04 -0.10133845779E+03  0.16089839912E+04  0.46999998093E+01 0.  1.
       -5    1    3    3    0  502 -0.11624646671E+04  0.11077968264E+04  0.88119600943E+03  0.18316840361E+04  0.46999998093E+01 0. -1.
</event>
<event>
 5   0  0.6630125E-07  0.2243080E+04  0.7818609E-02  0.8500708E-01
        1   -1    0    0  501    0  0.00000000000E+00  0.00000000000E+00  0.11200912872E+04  0.11200912872E+04  0.50400001928E-02 0.  1.
       -1   -1    0    0    0  501  0.00000000000E+00  0.00000000000E+00 -0.11229906015E+04  0.11229906015E+04  0.50400001928E-02 0. -1.
    10030    2    1    2    0    0  0.00000000000E+00  0.00000000000E+00 -0.28993143640E+01  0.22430818887E+04  0.22430800149E+04 0.  0.
        4    1    3    3  502    0 -0.98715459942E+03  0.38573146103E+03  0.36541222027E+03  0.11210667539E+04  0.12699999809E+01 0.  1.
       -4    1    3    3    0  502  0.98715459942E+03 -0.38573146103E+03 -0.36831153464E+03  0.11220151348E+04  0.12699999809E+01 0. -1.
</event>
<event>
 5   0  0.6630125E-07  0.3523966E+04  0.7818609E-02  0.8108134E-01
        1   -1    0    0  501    0  0.00000000000E+00  0.00000000000E+00  0.20263770040E+04  0.20263770040E+04  0.50400001928E-02 0. -1.
       -1   -1    0    0    0  501  0.00000000000E+00  0.00000000000E+00 -0.15320865070E+04  0.15320865070E+04  0.50400001928E-02 0.  1.
    10030    2    1    2    0    0  0.00000000000E+00  0.00000000000E+00  0.49429049700E+03  0.35584635111E+04  0.35239664392E+04 0.  0.
        5    1    3    3  502    0  0.19435069193E+03 -0.39499076112E+03  0.19699454479E+04  0.20185383451E+04  0.46999998093E+01 0. -1.
       -5    1    3    3    0  502 -0.19435069193E+03  0.39499076112E+03 -0.14756549509E+04  0.15399251660E+04  0.46999998093E+01 0.  1.
</event>
<event>
 5   0  0.2001768E-06  0.3639413E+04  0.7818609E-02  0.8081523E-01
       -2   -1    0    0    0  501  0.00000000000E+00  0.00000000000E+00  0.26679560887E+04  0.26679560887E+04  0.25500000920E-02 0. -1.
        2   -1    0    0  501    0  0.00000000000E+00  0.00000000000E+00 -0.12411491813E+04  0.12411491813E+04  0.25500000920E-02 0.  1.
    10030    2    1    2    0    0  0.00000000000E+00  0.00000000000E+00  0.14268069074E+04  0.39091052700E+04  0.36394128731E+04 0.  0.
        2    1    3    3  502    0 -0.14261463394E+04  0.16701440959E+03  0.19140685106E+04  0.23927903079E+04  0.25500000920E-02 0. -1.
       -2    1    3    3    0  502  0.14261463394E+04 -0.16701440959E+03 -0.48726160318E+03  0.15163149621E+04  0.25500000920E-02 0.  1.
</event>
<event>
 5   0  0.6630125E-07  0.3625843E+04  0.7818609E-02  0.8084598E-01
        1   -1    0    0  501    0  0.00000000000E+00  0.00000000000E+00  0.29730887152E+04  0.29730887152E+04  0.50400001928E-02 0.  1.
       -1   -1    0    0    0  501  0.00000000000E+00  0.00000000000E+00 -0.11054781313E+04  0.11054781313E+04  0.50400001928E-02 0. -1.
    10030    2    1    2    0    0  0.00000000000E+00  0.00000000000E+00  0.18676105839E+04  0.40785668465E+04  0.36258431059E+04 0.  0.
        4    1    3    3  502    0 -0.29031910665E+03  0.70729628082E+03  0.27828681494E+04  0.28859850939E+04  0.12699999809E+01 0.  1.
       -4    1    3    3    0  502  0.29031910665E+03 -0.70729628082E+03 -0.91525756550E+03  0.11925817526E+04  0.12699999809E+01 0. -1.
</event>
<event>
 5   0  0.2023479E-06  0.3433689E+04  0.7818609E-02  0.8129687E-01
        2   -1    0    0  501    0  0.00000000000E+00  0.00000000000E+00  0.18578729755E+04  0.18578729755E+04  0.25500000920E-02 0. -1.
       -2   -1    0    0    0  501  0.00000000000E+00  0.00000000000E+00 -0.15865208594E+04  0.15865208594E+04  0.25500000920E-02 0.  1.
    10030    2    1    2    0    0  0.00000000000E+00  0.00000000000E+00  0.27135211606E+03  0.34443938349E+04  0.34336885297E+04 0.  0.
        5    1    3    3  502    0 -0.11465327631E+04  0.54356680569E+03 -0.10244459180E+04  0.16308015753E+04  0.46999998093E+01 0.  1.
       -5    1    3    3    0  502  0.11465327631E+04 -0.54356680569E+03  0.12957980340E+04  0.18135922596E+04  0.46999998093E+01 0. -1.
</event>
<event>
 5   0  0.6630125E-07  0.3483932E+04  0.7818609E-02  0.8117608E-01
        1   -1    0    0  501    0  0.00000000000E+00  0.00000000000E+00  0.11888983199E+04  0.11888983199E+04  0.50400001928E-02 0.  1.
       -1   -1    0    0    0  501  0.00000000000E+00  0.00000000000E+00 -0.25523172039E+04  0.25523172039E+04  0.50400001928E-02 0. -1.
    10030    2    1    2    0    0  0.00000000000E+00  0.00000000000E+00 -0.13634188839E+04  0.37412155238E+04  0.34839320519E+04 0.  0.
        5    1    3    3  502    0 -0.17145601942E+04  0.20031203177E+03 -0.43082849585E+03  0.17791787016E+04  0.46999998093E+01 0. -1.
       -5    1    3    3    0  502  0.17145601942E+04 -0.20031203177E+03 -0.93259038810E+03  0.19620368222E+04  0.46999998093E+01 0.  1.
</event>
<event>
 5   0  0.6630125E-07  0.3573016E+04  0.7818609E-02  0.8096701E-01
        1   -1    0    0  501    0  0.00000000000E+00  0.00000000000E+00  0.15964583380E+04  0.15964583380E+04  0.50400001928E-02 0.  1.
       -1   -1    0    0    0  501  0.00000000000E+00  0.00000000000E+00 -0.19991824931E+04  0.19991824931E+04  0.50400001928E-02 0. -1.
    10030    2    1    2    0    0  0.00000000000E+00  0.00000000000E+00 -0.40272415516E+03  0.35956408311E+04  0.35730164065E+04 0.  0.
        1    1    3    3  502    0  0.85899146889E+03  0.24220918002E+02  0.13748117194E+04  0.16212835225E+04  0.50400001928E-02 0.  1.
       -1    1    3    3    0  502 -0.85899146889E+03 -0.24220918002E+02 -0.17775358746E+04  0.19743573086E+04  0.50400001928E-02 0. -1.
</event>
<event>
 5   0  0.2001768E-06  0.3534126E+04  0.7818609E-02  0.8105750E-01
       -2   -1    0    0    0  501  0.00000000000E+00  0.00000000000E+00  0.12950770853E+04  0.12950770854E+04  0.25500000920E-02 0. -1.
        2   -1    0    0  501    0  0.00000000000E+00  0.00000000000E+00 -0.24110620084E+04  0.24110620084E+04  0.25500000920E-02 0.  1.
    10030    2    1    2    0    0  0.00000000000E+00  0.00000000000E+00 -0.11159849230E+04  0.37061390937E+04  0.35341257241E+04 0.  0.
        2    1    3    3  502    0  0.76235523614E+03 -0.15140178580E+04 -0.10813582052E+04  0.20106643549E+04  0.25500000920E-02 0.  1.
       -2    1    3    3    0  502 -0.76235523614E+03  0.15140178580E+04 -0.34626717851E+02  0.16954747388E+04  0.25500000920E-02 0. -1.
</event>
<event>
 5   0  0.6630125E-07  0.3328478E+04  0.7818609E-02  0.8155687E-01
        1   -1    0    0  501    0  0.00000000000E+00  0.00000000000E+00  0.23834185624E+04  0.23834185624E+04  0.50400001928E-02 0. -1.
       -1   -1    0    0    0  501  0.00000000000E+00  0.00000000000E+00 -0.11620667115E+04  0.11620667115E+04  0.50400001928E-02 0.  1.
    10030    2    1    2    0    0  0.00000000000E+00  0.00000000000E+00  0.12213518509E+04  0.35454852739E+04  0.33284779530E+04 0.  0.
        5    1    3    3  502    0 -0.13663675954E+04 -0.10428946499E+03 -0.39526312741E+03  0.14262158771E+04  0.46999998093E+01 0.  1.
       -5    1    3    3    0  502  0.13663675954E+04  0.10428946499E+03  0.16166149783E+04  0.21192693968E+04  0.46999998093E+01 0. -1.
</event>
<event>
 5   0  0.2073287E-06  0.3593267E+04  0.7818609E-02  0.8092036E-01
        2   -1    0    0  501    0  0.00000000000E+00  0.00000000000E+00  0.28400947177E+04  0.28400947177E+04  0.25500000920E-02 0. -1.
       -2   -1    0    0    0  501  0.00000000000E+00  0.00000000000E+00 -0.11365437575E+04  0.11365437575E+04  0.25500000920E-02 0.  1.
    10030    2    1    2    0    0  0.00000000000E+00  0.00000000000E+00  0.17035509602E+04  0.39766384752E+04  0.35932669937E+04 0.  0.
        1    1    3    3  502    0  0.10343973644E+04  0.49316589610E+03 -0.67958399806E+03  0.13323006114E+04  0.50400001928E-02 0.  1.
       -1    1    3    3    0  502 -0.10343973644E+04 -0.49316589610E+03  0.23831349583E+04  0.26443378638E+04  0.50400001928E-02 0. -1.
</event>
<event>
 5   0  0.6630125E-07  0.2436117E+04  0.7818609E-02  0.8426104E-01
        1   -1    0    0  501    0  0.00000000000E+00  0.00000000000E+00  0.13554986434E+04  0.13554986434E+04  0.50400001928E-02 0.  1.
       -1   -1    0    0    0  501  0.00000000000E+00  0.00000000000E+00 -0.10945540271E+04  0.10945540271E+04  0.50400001928E-02 0. -1.
    10030    2    1    2    0    0  0.00000000000E+00  0.00000000000E+00  0.26094461629E+03  0.24500526705E+04  0.24361169914E+04 0.  0.
        1    1    3    3  502    0 -0.49125961242E+03  0.39237057972E+03  0.11796926992E+04  0.13367743053E+04  0.50400001928E-02 0.  1.
       -1    1    3    3    0  502  0.49125961242E+03 -0.39237057972E+03 -0.91874808294E+03  0.11132783653E+04  0.50400001928E-02 0. -1.
</event>
<event>
 5   0  0.7378896E-07  0.3647983E+04  0.7818609E-02  0.8079588E-01
        1   -1    0    0  501    0  0.00000000000E+00  0.00000000000E+00  0.14533068619E+04  0.14533068619E+04  0.50400001928E-02 0.  1.
       -1   -1    0    0    0  501  0.00000000000E+00  0.00000000000E+00 -0.22892246231E+04  0.22892246231E+04  0.50400001928E-02 0. -1.
    10030    2    1    2    0    0  0.00000000000E+00  0.00000000000E+00 -0.83591776120E+03  0.37425314850E+04  0.36479834721E+04 0.  0.
        2    1    3    3  502    0  0.18081323492E+03  0.13340669538E+04 -0.16805123806E+04  0.21532649453E+04  0.25500000920E-02 0. -1.
       -2    1    3    3    0  502 -0.18081323492E+03 -0.13340669538E+04  0.84459461943E+03  0.15892665397E+04  0.25500000920E-02 0.  1.
</event>
<event>
 5   0  0.1999883E-06  0.3289778E+04  0.7818609E-02  0.8165501E-01
        2   -1    0    0  501    0  0.00000000000E+00  0.00000000000E+00  0.13225095947E+04  0.13225095947E+04  0.25500000920E-02 0. -1.
       -2   -1    0    0    0  501  0.00000000000E+00  0.00000000000E+00 -0.20458531763E+04  0.20458531763E+04  0.25500000920E-02 0.  1.
    10030    2    1    2    0    0  0.00000000000E+00  0.00000000000E+00 -0.72334358163E+03  0.33683627710E+04  0.32897783847E+04 0.  0.
        4    1    3    3  502    0  0.16151674360E+04 -0.30372347562E+03 -0.43145440543E+03  0.16991669467E+04  0.12699999809E+01 0. -1.
       -4    1    3    3    0  502 -0.16151674360E+04  0.30372347562E+03 -0.29188917620E+03  0.16691958243E+04  0.12699999809E+01 0.  1.
</event>
<event>
 5   0  0.2001768E-06  0.3505940E+04  0.7818609E-02  0.8112384E-01
       -2   -1    0    0    0  501  0.00000000000E+00  0.00000000000E+00  0.12677853217E+04  0.12677853217E+04  0.25500000920E-02 0. -1.
        2   -1    0    0  501    0  0.00000000000E+00  0.00000000000E+00 -0.24238360891E+04  0.24238360891E+04  0.25500000920E-02 0.  1.
    10030    2    1    2    0    0  0.00000000000E+00  0.00000000000E+00 -0.11560507673E+04  0.36916214108E+04  0.35059399972E+04 0.  0.
        2    1    3    3  502    0 -0.86762772711E+03  0.11145623734E+04 -0.16712193119E+04  0.21881501652E+04  0.25500000920E-02 0.  1.
       -2    1    3    3    0  502  0.86762772711E+03 -0.11145623734E+04  0.51516854454E+03  0.15034712456E+04  0.25500000920E-02 0. -1.
</event>
<event>
 5   0  0.1999883E-06  0.3443451E+04  0.7818609E-02  0.8127324E-01
       -2   -1    0    0    0  501  0.00000000000E+00  0.00000000000E+00  0.17758831398E+04  0.17758831398E+04  0.25500000920E-02 0. -1.
        2   -1    0    0  501    0  0.00000000000E+00  0.00000000000E+00 -0.16692192627E+04  0.16692192627E+04  0.25500000920E-02 0.  1.
    10030    2    1    2    0    0  0.00000000000E+00  0.00000000000E+00  0.10666387715E+03  0.34451024025E+04  0.34434507955E+04 0.  0.
        4    1    3    3  502    0 -0.22993349042E+03  0.38362173251E+03 -0.16100844399E+04  0.16710501370E+04  0.12699999809E+01 0.  1.
       -4    1    3    3    0  502  0.22993349042E+03 -0.38362173251E+03  0.17167483171E+04  0.17740522655E+04  0.12699999809E+01 0. -1.
</event>
<event>
 5   0  0.7378896E-07  0.3513906E+04  0.7818609E-02  0.8110502E-01
        1   -1    0    0  501    0  0.00000000000E+00  0.00000000000E+00  0.12613109754E+04  0.12613109754E+04  0.50400001928E-02 0. -1.
       -1   -1    0    0    0  501  0.00000000000E+00  0.00000000000E+00 -0.24473610377E+04  0.24473610377E+04  0.50400001928E-02 0.  1.
    10030    2    1    2    0    0  0.00000000000E+00  0.00000000000E+00 -0.11860500623E+04  0.37086720131E+04  0.35139057117E+04 0.  0.
        2    1    3    3  502    0 -0.76938147243E+03 -0.89053582801E+03 -0.19698951420E+04  0.22946652875E+04  0.25500000920E-02 0.  1.
       -2    1    3    3    0  502  0.76938147243E+03  0.89053582801E+03  0.78384507976E+03  0.14140067256E+04  0.25500000920E-02 0. -1.
</event>
<event>
 5   0  0.2073287E-06  0.3533104E+04  0.7818609E-02  0.8105989E-01
       -2   -1    0    0    0  501  0.00000000000E+00  0.00000000000E+00  0.14530067194E+04  0.14530067194E+04  0.25500000920E-02 0.  1.
        2   -1    0    0  501    0  0.00000000000E+00  0.00000000000E+00 -0.21477568954E+04  0.21477568954E+04  0.25500000920E-02 0. -1.
    10030    2    1    2    0    0  0.00000000000E+00  0.00000000000E+00 -0.69475017609E+03  0.36007636148E+04  0.35331035652E+04 0.  0.
        1    1    3    3  502    0  0.34936733678E+03 -0.31335941548E+02  0.14171581541E+04  0.14599235292E+04  0.50400001928E-02 0.  1.
       -1    1    3    3    0  502 -0.34936733678E+03  0.31335941548E+02 -0.21119083302E+04  0.21408400857E+04  0.50400001928E-02 0. -1.
</event>
<event>
 5   0  0.6630125E-07  0.3573972E+04  0.7818609E-02  0.8096480E-01
        1   -1    0    0  501    0  0.00000000000E+00  0.00000000000E+00  0.21080568323E+04  0.21080568323E+04  0.50400001928E-02 0. -1.
       -1   -1    0    0    0  501  0.00000000000E+00  0.00000000000E+00 -0.15148162160E+04  0.15148162160E+04  0.50400001928E-02 0.  1.
    10030    2    1    2    0    0  0.00000000000E+00  0.00000000000E+00  0.59324061637E+03  0.36228730483E+04  0.35739718375E+04 0.  0.
        4    1    3    3  502    0  0.11099194845E+04 -0.39097199268E+03 -0.10665987623E+04  0.15882112246E+04  0.12699999809E+01 0.  1.
       -4    1    3    3    0  502 -0.11099194845E+04  0.39097199268E+03  0.16598393786E+04  0.20346618237E+04  0.12699999809E+01 0. -1.
</event>
<event>
 5   0  0.7378896E-07  0.3487129E+04  0.7818609E-02  0.8116847E-01
       -1   -1    0    0    0  501  0.00000000000E+00  0.00000000000E+00  0.14667893786E+04  0.14667893786E+04  0.50400001928E-02 0.  1.
        1   -1    0    0  501    0  0.00000000000E+00  0.00000000000E+00 -0.20725657113E+04  0.20725657113E+04  0.50400001928E-02 0. -1.
    10030    2    1    2    0    0  0.00000000000E+00  0.00000000000E+00 -0.60577633265E+03  0.35393550899E+04  0.34871291182E+04 0.  0.
        2    1    3    3  502    0  0.65235810764E+03  0.15767630215E+04  0.60616164841E+02  0.17074621653E+04  0.25500000920E-02 0. -1.
       -2    1    3    3    0  502 -0.65235810764E+03 -0.15767630215E+04 -0.66639249749E+03  0.18318929246E+04  0.25500000920E-02 0.  1.
</event>
<event>
 5   0  0.6630125E-07  0.3474399E+04  0.7818609E-02  0.8119884E-01
        1   -1    0    0  501    0  0.00000000000E+00  0.00000000000E+00  0.88518101438E+03  0.88518101439E+03  0.50400001928E-02 0.  1.
       -1   -1    0    0    0  501  0.00000000000E+00  0.00000000000E+00 -0.34093171994E+04  0.34093171994E+04  0.50400001928E-02 0. -1.
    10030    2    1    2    0    0  0.00000000000E+00  0.00000000000E+00 -0.25241361850E+04  0.42944982138E+04  0.34743994341E+04 0.  0.
        1    1    3    3  502    0  0.16042207863E+04 -0.57340633361E+03 -0.84191668725E+03  0.19003007296E+04  0.50400001928E-02 0.  1.
       -1    1    3    3    0  502 -0.16042207863E+04  0.57340633361E+03 -0.16822194977E+04  0.23941974842E+04  0.50400001928E-02 0. -1.
</event>
<event>
 5   0  0.1999883E-06  0.3448037E+04  0.7818609E-02  0.8126216E-01
        2   -1    0    0  501    0  0.00000000000E+00  0.00000000000E+00  0.22350681122E+04  0.22350681122E+04  0.25500000920E-02 0.  1.
       -2   -1    0    0    0  501  0.00000000000E+00  0.00000000000E+00 -0.13298204203E+04  0.13298204203E+04  0.25500000920E-02 0. -1.
    10030    2    1    2    0    0  0.00000000000E+00  0.00000000000E+00  0.90524769188E+03  0.35648885325E+04  0.34480366682E+04 0.  0.
        4    1    3    3  502    0 -0.33117851654E+03  0.10713980673E+03  0.21983605355E+04  0.22257467972E+04  0.12699999809E+01 0.  1.
       -4    1    3    3    0  502  0.33117851654E+03 -0.10713980673E+03 -0.12931128437E+04  0.13391417353E+04  0.12699999809E+01 0. -1.
</event>
<event>
 5   0  0.6890600E-07  0.3615720E+04  0.7818609E-02  0.8086900E-01
       -1   -1    0    0    0  501  0.00000000000E+00  0.00000000000E+00  0.19424437144E+04  0.19424437144E+04  0.50400001928E-02 0.  1.
        1   -1    0    0  501    0  0.00000000000E+00  0.00000000000E+00 -0.16826005962E+04  0.16826005963E+04  0.50400001928E-02 0. -1.
    10030    2    1    2    0    0  0.00000000000E+00  0.00000000000E+00  0.25984311812E+03  0.36250443106E+04  0.36157195422E+04 0.  0.
        3    1    3    3  502    0 -0.87800066442E+03  0.14534698205E+04  0.75192242674E+03  0.18571071675E+04  0.10100000352E+00 0.  1.
       -3    1    3    3    0  502  0.87800066442E+03 -0.14534698205E+04 -0.49207930862E+03  0.17679371431E+04  0.10100000352E+00 0. -1.
</event>
<event>
 5   0  0.6630125E-07  0.3494927E+04  0.7818609E-02  0.8114993E-01
        1   -1    0    0  501    0  0.00000000000E+00  0.00000000000E+00  0.21020752488E+04  0.21020752488E+04  0.50400001928E-02 0. -1.
       -1   -1    0    0    0  501  0.00000000000E+00  0.00000000000E+00 -0.14526736061E+04  0.14526736061E+04  0.50400001928E-02 0.  1.
    10030    2    1    2    0    0  0.00000000000E+00  0.00000000000E+00  0.64940164268E+03  0.35547488549E+04  0.34949273137E+04 0.  0.
        5    1    3    3  502    0 -0.47477454940E+03 -0.31171614934E+03 -0.13561685199E+04  0.14703037016E+04  0.46999998093E+01 0.  1.
       -5    1    3    3    0  502  0.47477454940E+03  0.31171614934E+03  0.20055701625E+04  0.20844451534E+04  0.46999998093E+01 0. -1.
</event>
<event>
 5   0  0.6890600E-07  0.2233531E+04  0.7818609E-02  0.8504600E-01
       -1   -1    0    0    0  501  0.00000000000E+00  0.00000000000E+00  0.55859849650E+03  0.55859849652E+03  0.50400001928E-02 0.  1.
        1   -1    0    0  501    0  0.00000000000E+00  0.00000000000E+00 -0.22326677938E+04  0.22326677938E+04  0.50400001928E-02 0. -1.
    10030    2    1    2    0    0  0.00000000000E+00  0.00000000000E+00 -0.16740692973E+04  0.27912662903E+04  0.22335307231E+04 0.  0.
        3    1    3    3  502    0  0.12765327117E+03 -0.43273852254E+03  0.43963286069E+03  0.62994844942E+03  0.10100000352E+00 0.  1.
       -3    1    3    3    0  502 -0.12765327117E+03  0.43273852254E+03 -0.21137021580E+04  0.21613178409E+04  0.10100000352E+00 0. -1.
</event>
<event>
 5   0  0.2001768E-06  0.3491902E+04  0.7818609E-02  0.8115712E-01
       -2   -1    0    0    0  501  0.00000000000E+00  0.00000000000E+00  0.12671343304E+04  0.12671343304E+04  0.25500000920E-02 0. -1.
        2   -1    0    0  501    0  0.00000000000E+00  0.00000000000E+00 -0.24057001408E+04  0.24057001408E+04  0.25500000920E-02 0.  1.
    10030    2    1    2    0    0  0.00000000000E+00  0.00000000000E+00 -0.11385658104E+04  0.36728344712E+04  0.34919021962E+04 0.  0.
        2    1    3    3  502    0 -0.12640072979E+04 -0.10154266984E+04 -0.12505629450E+04  0.20476116596E+04  0.25500000920E-02 0.  1.
       -2    1    3    3    0  502  0.12640072979E+04  0.10154266984E+04  0.11199713467E+03  0.16252228116E+04  0.25500000920E-02 0. -1.
</event>
<event>
 5   0  0.2001768E-06  0.2955839E+04  0.7818609E-02  0.8256455E-01
        2   -1    0    0  501    0  0.00000000000E+00  0.00000000000E+00  0.90752570023E+03  0.90752570023E+03  0.25500000920E-02 0. -1.
       -2   -1    0    0    0  501  0.00000000000E+00  0.00000000000E+00 -0.24068141821E+04  0.24068141821E+04  0.25500000920E-02 0.  1.
    10030    2    1    2    0    0  0.00000000000E+00  0.00000000000E+00 -0.14992884819E+04  0.33143398823E+04  0.29558387818E+04 0.  0.
        2    1    3    3  502    0  0.59328655558E+03  0.37544598816E+03 -0.22078749903E+04  0.23168212274E+04  0.25500000920E-02 0.  1.
       -2    1    3    3    0  502 -0.59328655558E+03 -0.37544598816E+03  0.70858650840E+03  0.99751865494E+03  0.25500000920E-02 0. -1.
</event>
<event>
 5   0  0.1999883E-06  0.3223627E+04  0.7818609E-02  0.8182605E-01
        2   -1    0    0  501    0  0.00000000000E+00  0.00000000000E+00  0.15440398142E+04  0.15440398142E+04  0.25500000920E-02 0.  1.
       -2   -1    0    0    0  501  0.00000000000E+00  0.00000000000E+00 -0.16825623261E+04  0.16825623261E+04  0.25500000920E-02 0. -1.
    10030    2    1    2    0    0  0.00000000000E+00  0.00000000000E+00 -0.13852251189E+03  0.32266021402E+04  0.32236272869E+04 0.  0.
        4    1    3    3  502    0  0.11410141767E+04 -0.60387031290E+03  0.89670389960E+03  0.15718308442E+04  0.12699999809E+01 0.  1.
       -4    1    3    3    0  502 -0.11410141767E+04  0.60387031290E+03 -0.10352264115E+04  0.16547712961E+04  0.12699999809E+01 0. -1.
</event>
<event>
 5   0  0.6630125E-07  0.2161837E+04  0.7818609E-02  0.8534483E-01
        3   -1    0    0  501    0  0.00000000000E+00  0.00000000000E+00  0.21065831867E+04  0.21065831892E+04  0.10100000352E+00 0.  1.
       -3   -1    0    0    0  501  0.00000000000E+00  0.00000000000E+00 -0.55463484506E+03  0.55463485426E+03  0.10100000352E+00 0. -1.
    10030    2    1    2    0    0  0.00000000000E+00  0.00000000000E+00  0.15519483417E+04  0.26612180434E+04  0.21618366773E+04 0.  0.
        2    1    3    3  502    0 -0.72162310586E+03  0.76898596711E+03  0.48387416706E+03  0.11602644242E+04  0.25500000920E-02 0. -1.
       -2    1    3    3    0  502  0.72162310586E+03 -0.76898596711E+03  0.10680741746E+04  0.15009536192E+04  0.25500000920E-02 0.  1.
</event>
<event>
 5   0  0.6890600E-07  0.2277704E+04  0.7818609E-02  0.8486764E-01
        1   -1    0    0  501    0  0.00000000000E+00  0.00000000000E+00  0.55336550199E+03  0.55336550202E+03  0.50400001928E-02 0. -1.
       -1   -1    0    0    0  501  0.00000000000E+00  0.00000000000E+00 -0.23438101965E+04  0.23438101965E+04  0.50400001928E-02 0.  1.
    10030    2    1    2    0    0  0.00000000000E+00  0.00000000000E+00 -0.17904446946E+04  0.28971756986E+04  0.22777038491E+04 0.  0.
        3    1    3    3  502    0 -0.64589540894E+03  0.24362769228E+03  0.25691221419E+03  0.73657262218E+03  0.10100000352E+00 0. -1.
       -3    1    3    3    0  502  0.64589540894E+03 -0.24362769228E+03 -0.20473569087E+04  0.21606030764E+04  0.10100000352E+00 0.  1.
</event>
<event>
 5   0  0.6630125E-07  0.3551411E+04  0.7818609E-02  0.8101713E-01
        1   -1    0    0  501    0  0.00000000000E+00  0.00000000000E+00  0.15774956019E+04  0.15774956019E+04  0.50400001928E-02 0. -1.
       -1   -1    0    0    0  501  0.00000000000E+00  0.00000000000E+00 -0.19988204141E+04  0.19988204141E+04  0.50400001928E-02 0.  1.
    10030    2    1    2    0    0  0.00000000000E+00  0.00000000000E+00 -0.42132481220E+03  0.35763160161E+04  0.35514112194E+04 0.  0.
        4    1    3    3  502    0 -0.77242246478E+03  0.10980375245E+04 -0.13810545677E+04  0.19260415887E+04  0.12699999809E+01 0.  1.
       -4    1    3    3    0  502  0.77242246478E+03 -0.10980375245E+04  0.95972975550E+03  0.16502744274E+04  0.12699999809E+01 0. -1.
</event>
<event>
 5   0  0.2023479E-06  0.3511256E+04  0.7818609E-02  0.8111128E-01
        2   -1    0    0  501    0  0.00000000000E+00  0.00000000000E+00  0.14903040608E+04  0.14903040608E+04  0.25500000920E-02 0. -1.
       -2   -1    0    0    0  501  0.00000000000E+00  0.00000000000E+00 -0.20681882736E+04  0.20681882736E+04  0.25500000920E-02 0.  1.
    10030    2    1    2    0    0  0.00000000000E+00  0.00000000000E+00 -0.57788421287E+03  0.35584923344E+04  0.35112558338E+04 0.  0.
        5    1    3    3  502    0 -0.33719961569E+03  0.21105914299E+03 -0.20219043762E+04  0.20606719630E+04  0.46999998093E+01 0.  1.
       -5    1    3    3    0  502  0.33719961569E+03 -0.21105914299E+03  0.14440201634E+04  0.14978203714E+04  0.46999998093E+01 0. -1.
</event>
<event>
 5   0  0.6890600E-07  0.3497825E+04  0.7818609E-02  0.8114306E-01
        1   -1    0    0  501    0  0.00000000000E+00  0.00000000000E+00  0.21464335409E+04  0.21464335409E+04  0.50400001928E-02 0.  1.
       -1   -1    0    0    0  501  0.00000000000E+00  0.00000000000E+00 -0.14250126340E+04  0.14250126340E+04  0.50400001928E-02 0. -1.
    10030    2    1    2    0    0  0.00000000000E+00  0.00000000000E+00  0.72142090696E+03  0.35714461749E+04  0.34978249892E+04 0.  0.
        3    1    3    3  502    0 -0.10236909231E+04 -0.43404852163E+03  0.17390695192E+04  0.20641472883E+04  0.10100000352E+00 0.  1.
       -3    1    3    3    0  502  0.10236909231E+04  0.43404852163E+03 -0.10176486122E+04  0.15072988865E+04  0.10100000352E+00 0. -1.
</event>
<event>
 5   0  0.7378896E-07  0.3570169E+04  0.7818609E-02  0.8097359E-01
        1   -1    0    0  501    0  0.00000000000E+00  0.00000000000E+00  0.14407879799E+04  0.14407879800E+04  0.50400001928E-02 0.  1.
       -1   -1    0    0    0  501  0.00000000000E+00  0.00000000000E+00 -0.22116554569E+04  0.22116554569E+04  0.50400001928E-02 0. -1.
    10030    2    1    2    0    0  0.00000000000E+00  0.00000000000E+00 -0.77086747699E+03  0.36524434369E+04  0.35701689586E+04 0.  0.
        2    1    3    3  502    0  0.21255359436E+03 -0.68594449975E+03  0.12864946278E+04  0.14733524068E+04  0.25500000920E-02 0.  1.
       -2    1    3    3    0  502 -0.21255359436E+03  0.68594449975E+03 -0.20573621048E+04  0.21790910301E+04  0.25500000920E-02 0. -1.
</event>
<event>
 5   0  0.2020725E-06  0.2945403E+04  0.7818609E-02  0.8259495E-01
        2   -1    0    0  501    0  0.00000000000E+00  0.00000000000E+00  0.91488202762E+03  0.91488202762E+03  0.25500000920E-02 0.  1.
       -2   -1    0    0    0  501  0.00000000000E+00  0.00000000000E+00 -0.23706338000E+04  0.23706338000E+04  0.25500000920E-02 0. -1.
    10030    2    1    2    0    0  0.00000000000E+00  0.00000000000E+00 -0.14557517724E+04  0.32855158277E+04  0.29454033732E+04 0.  0.
        3    1    3    3  502    0 -0.44726389046E+03  0.13304230612E+04 -0.23054567650E+03  0.14224000242E+04  0.10100000352E+00 0.  1.
       -3    1    3    3    0  502  0.44726389046E+03 -0.13304230612E+04 -0.12252060959E+04  0.18631158035E+04  0.10100000352E+00 0. -1.
</event>
<event>
 5   0  0.6890600E-07  0.3407160E+04  0.7818609E-02  0.8136151E-01
       -1   -1    0    0    0  501  0.00000000000E+00  0.00000000000E+00  0.18991508928E+04  0.18991508929E+04  0.50400001928E-02 0. -1.
        1   -1    0    0  501    0  0.00000000000E+00  0.00000000000E+00 -0.15281482866E+04  0.15281482866E+04  0.50400001928E-02 0.  1.
    10030    2    1    2    0    0  0.00000000000E+00  0.00000000000E+00  0.37100260627E+03  0.34272991794E+04  0.34071596281E+04 0.  0.
        3    1    3    3  502    0 -0.77555621907E+03  0.10378455601E+04  0.12981921992E+04  0.18340975579E+04  0.10100000352E+00 0. -1.
       -3    1    3    3    0  502  0.77555621907E+03 -0.10378455601E+04 -0.92718959291E+03  0.15932016216E+04  0.10100000352E+00 0.  1.
</event>
<event>
 5   0  0.6890600E-07  0.2658671E+04  0.7818609E-02  0.8348541E-01
        1   -1    0    0  501    0  0.00000000000E+00  0.00000000000E+00  0.12926910758E+04  0.12926910758E+04  0.50400001928E-02 0.  1.
       -1   -1    0    0    0  501  0.00000000000E+00  0.00000000000E+00 -0.13670183482E+04  0.13670183482E+04  0.50400001928E-02 0. -1.
    10030    2    1    2    0    0  0.00000000000E+00  0.00000000000E+00 -0.74327272372E+02  0.26597094240E+04  0.26586706597E+04 0.  0.
        3    1    3    3  502    0  0.95407300148E+03  0.54297374953E+01  0.88885867472E+03  0.13039764292E+04  0.10100000352E+00 0.  1.
       -3    1    3    3    0  502 -0.95407300148E+03 -0.54297374953E+01 -0.96318594710E+03  0.13557329948E+04  0.10100000352E+00 0. -1.
</event>
<event>
 5   0  0.6890600E-07  0.2260972E+04  0.7818609E-02  0.8493470E-01
       -1   -1    0    0    0  501  0.00000000000E+00  0.00000000000E+00  0.73377337260E+03  0.73377337261E+03  0.50400001928E-02 0. -1.
        1   -1    0    0  501    0  0.00000000000E+00  0.00000000000E+00 -0.17416798267E+04  0.17416798267E+04  0.50400001928E-02 0.  1.
    10030    2    1    2    0    0  0.00000000000E+00  0.00000000000E+00 -0.10079064541E+04  0.24754531993E+04  0.22609717207E+04 0.  0.
        3    1    3    3  502    0  0.42038145410E+03  0.11059302682E+03 -0.16465233890E+04  0.17029358958E+04  0.10100000352E+00 0.  1.
       -3    1    3    3    0  502 -0.42038145410E+03 -0.11059302682E+03  0.63861693488E+03  0.77251730352E+03  0.10100000352E+00 0. -1.
</event>
<event>
 5   0  0.2023479E-06  0.3578497E+04  0.7818609E-02  0.8095435E-01
        2   -1    0    0  501    0  0.00000000000E+00  0.00000000000E+00  0.18778420670E+04  0.18778420670E+04  0.25500000920E-02 0. -1.
       -2   -1    0    0    0  501  0.00000000000E+00  0.00000000000E+00 -0.17048349994E+04  0.17048349994E+04  0.25500000920E-02 0.  1.
    10030    2    1    2    0    0  0.00000000000E+00  0.00000000000E+00  0.17300706755E+03  0.35826770664E+04  0.35784973826E+04 0.  0.
        5    1    3    3  502    0 -0.13673514452E+04 -0.95308280491E+03  0.73793392584E+03  0.18227960327E+04  0.46999998093E+01 0. -1.
       -5    1    3    3    0  502  0.13673514452E+04  0.95308280491E+03 -0.56492685829E+03  0.17598810338E+04  0.46999998093E+01 0.  1.
</event>
<event>
 5   0  0.6630125E-07  0.3489317E+04  0.7818609E-02  0.8116326E-01
       -1   -1    0    0    0  501  0.00000000000E+00  0.00000000000E+00  0.15749735032E+04  0.15749735032E+04  0.50400001928E-02 0.  1.
        1   -1    0    0  501    0  0.00000000000E+00  0.00000000000E+00 -0.19326252150E+04  0.19326252150E+04  0.50400001928E-02 0. -1.
    10030    2    1    2    0    0  0.00000000000E+00  0.00000000000E+00 -0.35765171183E+03  0.35075987183E+04  0.34893171282E+04 0.  0.
        4    1    3    3  502    0 -0.15357338243E+04 -0.78832271144E+03 -0.43293638600E+03  0.17797096965E+04  0.12699999809E+01 0.  1.
       -4    1    3    3    0  502  0.15357338243E+04  0.78832271144E+03  0.75284674172E+02  0.17278890218E+04  0.12699999809E+01 0. -1.
</event>
<event>
 5   0  0.6630125E-07  0.3548565E+04  0.7818609E-02  0.8102376E-01
       -1   -1    0    0    0  501  0.00000000000E+00  0.00000000000E+00  0.21872324863E+04  0.21872324864E+04  0.50400001928E-02 0. -1.
        1   -1    0    0  501    0  0.00000000000E+00  0.00000000000E+00 -0.14392974711E+04  0.14392974711E+04  0.50400001928E-02 0.  1.
    10030    2    1    2    0    0  0.00000000000E+00  0.00000000000E+00  0.74793501525E+03  0.36265299575E+04  0.35485648853E+04 0.  0.
        4    1    3    3  502    0 -0.16211230823E+04 -0.50134791258E+03 -0.15577116737E+03  0.17040117508E+04  0.12699999809E+01 0.  1.
       -4    1    3    3    0  502  0.16211230823E+04  0.50134791258E+03  0.90370618262E+03  0.19225182066E+04  0.12699999809E+01 0. -1.
</event>
<event>
 5   0  0.2020725E-06  0.3622245E+04  0.7818609E-02  0.8085415E-01
        2   -1    0    0  501    0  0.00000000000E+00  0.00000000000E+00  0.19558803962E+04  0.19558803962E+04  0.25500000920E-02 0.  1.
       -2   -1    0    0    0  501  0.00000000000E+00  0.00000000000E+00 -0.16770783231E+04  0.16770783231E+04  0.25500000920E-02 0. -1.
    10030    2    1    2    0    0  0.00000000000E+00  0.00000000000E+00  0.27880207309E+03  0.36329587194E+04  0.36222449477E+04 0.  0.
        3    1    3    3  502    0  0.55018525349E+03  0.88883593771E+03 -0.13439702749E+04  0.17026418436E+04  0.10100000352E+00 0. -1.
       -3    1    3    3    0  502 -0.55018525349E+03 -0.88883593771E+03  0.16227723480E+04  0.19303168758E+04  0.10100000352E+00 0.  1.
</event>
<event>
 5   0  0.1999883E-06  0.3699091E+04  0.7818609E-02  0.8068163E-01
       -2   -1    0    0    0  501  0.00000000000E+00  0.00000000000E+00  0.13863491466E+04  0.13863491466E+04  0.25500000920E-02 0. -1.
        2   -1    0    0  501    0  0.00000000000E+00  0.00000000000E+00 -0.24675008335E+04  0.24675008335E+04  0.25500000920E-02 0.  1.
    10030    2    1    2    0    0  0.00000000000E+00  0.00000000000E+00 -0.10811516869E+04  0.38538499800E+04  0.36990905232E+04 0.  0.
        4    1    3    3  502    0 -0.32245105784E+03 -0.57672985906E+03 -0.23403398335E+04  0.24318273302E+04  0.12699999809E+01 0.  1.
       -4    1    3    3    0  502  0.32245105784E+03  0.57672985906E+03  0.12591881466E+04  0.14220226498E+04  0.12699999809E+01 0. -1.
</event>
<event>
 5   0  0.1999883E-06  0.3431684E+04  0.7818609E-02  0.8130174E-01
       -2   -1    0    0    0  501  0.00000000000E+00  0.00000000000E+00  0.11272234481E+04  0.11272234481E+04  0.25500000920E-02 0.  1.
        2   -1    0    0  501    0  0.00000000000E+00  0.00000000000E+00 -0.26118276467E+04  0.26118276467E+04  0.25500000920E-02 0. -1.
    10030    2    1    2    0    0  0.00000000000E+00  0.00000000000E+00 -0.14846041987E+04  0.37390510948E+04  0.34316837650E+04 0.  0.
        4    1    3    3  502    0  0.66275868149E+03  0.12905793157E+04  0.25586763572E+03  0.14731985270E+04  0.12699999809E+01 0.  1.
       -4    1    3    3    0  502 -0.66275868149E+03 -0.12905793157E+04 -0.17404718344E+04  0.22658525678E+04  0.12699999809E+01 0. -1.
</event>
<event>
 5   0  0.6630125E-07  0.3306093E+04  0.7818609E-02  0.8161347E-01
       -1   -1    0    0    0  501  0.00000000000E+00  0.00000000000E+00  0.15051453209E+04  0.15051453209E+04  0.50400001928E-02 0. -1.
        1   -1    0    0  501    0  0.00000000000E+00  0.00000000000E+00 -0.18154809842E+04  0.18154809842E+04  0.50400001928E-02 0.  1.
    10030    2    1    2    0    0  0.00000000000E+00  0.00000000000E+00 -0.31033566333E+03  0.33206263051E+04  0.33060929864E+04 0.  0.
        5    1    3    3  502    0  0.24715527620E+03  0.14215675382E+04  0.65497608814E+03  0.15845995589E+04  0.46999998093E+01 0. -1.
       -5    1    3    3    0  502 -0.24715527620E+03 -0.14215675382E+04 -0.96531175147E+03  0.17360267462E+04  0.46999998093E+01 0.  1.
</event>
<event>
 5   0  0.6890600E-07  0.3529756E+04  0.7818609E-02  0.8106774E-01
       -1   -1    0    0    0  501  0.00000000000E+00  0.00000000000E+00  0.18463875932E+04  0.18463875932E+04  0.50400001928E-02 0.  1.
        1   -1    0    0  501    0  0.00000000000E+00  0.00000000000E+00 -0.16869669506E+04  0.16869669506E+04  0.50400001928E-02 0. -1.
    10030    2    1    2    0    0  0.00000000000E+00  0.00000000000E+00  0.15942064260E+03  0.35333545438E+04  0.35297562793E+04 0.  0.
        3    1    3    3  502    0  0.10201022509E+04  0.50294444412E+03  0.14306167489E+04  0.18276285204E+04  0.10100000352E+00 0.  1.
       -3    1    3    3    0  502 -0.10201022509E+04 -0.50294444412E+03 -0.12711961063E+04  0.17057260234E+04  0.10100000352E+00 0. -1.
</event>
<event>
 5   0  0.1999883E-06  0.3374927E+04  0.7818609E-02  0.8144088E-01
        2   -1    0    0  501    0  0.00000000000E+00  0.00000000000E+00  0.13449839187E+04  0.13449839187E+04  0.25500000920E-02 0. -1.
       -2   -1    0    0    0  501  0.00000000000E+00  0.00000000000E+00 -0.21171497223E+04  0.21171497223E+04  0.25500000920E-02 0.  1.
    10030    2    1    2    0    0  0.00000000000E+00  0.00000000000E+00 -0.77216580357E+03  0.34621336410E+04  0.33749265651E+04 0.  0.
        4    1    3    3  502    0 -0.67573313369E+03  0.12091326680E+03  0.11952733395E+04  0.13783741346E+04  0.12699999809E+01 0. -1.
       -4    1    3    3    0  502  0.67573313369E+03 -0.12091326680E+03 -0.19674391430E+04  0.20837595064E+04  0.12699999809E+01 0.  1.
</event>
<event>
 5   0  0.2023479E-06  0.3524695E+04  0.7818609E-02  0.8107962E-01
       -2   -1    0    0    0  501  0.00000000000E+00  0.00000000000E+00  0.19085020743E+04  0.19085020743E+04  0.25500000920E-02 0. -1.
        2   -1    0    0  501    0  0.00000000000E+00  0.00000000000E+00 -0.16273860098E+04  0.16273860098E+04  0.25500000920E-02 0.  1.
    10030    2    1    2    0    0  0.00000000000E+00  0.00000000000E+00  0.28111606447E+03  0.35358880841E+04  0.35246954906E+04 0.  0.
        5    1    3    3  502    0 -0.15624299399E+04  0.79814620059E+03  0.30728691535E+03  0.17811995994E+04  0.46999998093E+01 0. -1.
       -5    1    3    3    0  502  0.15624299399E+04 -0.79814620059E+03 -0.26170850875E+02  0.17546884846E+04  0.46999998093E+01 0.  1.
</event>
<event>
 5   0  0.6630125E-07  0.3520457E+04  0.7818609E-02  0.8108959E-01
       -1   -1    0    0    0  501  0.00000000000E+00  0.00000000000E+00  0.13866339012E+04  0.13866339012E+04  0.50400001928E-02 0.  1.
        1   -1    0    0  501    0  0.00000000000E+00  0.00000000000E+00 -0.22344796003E+04  0.22344796004E+04  0.50400001928E-02 0. -1.
    10030    2    1    2    0    0  0.00000000000E+00  0.00000000000E+00 -0.84784569918E+03  0.36211135015E+04  0.35204574506E+04 0.  0.
        5    1    3    3  502    0 -0.12958684918E+04  0.11793579226E+04 -0.25112305426E+03  0.17700974933E+04  0.46999998093E+01 0. -1.
       -5    1    3    3    0  502  0.12958684918E+04 -0.11793579226E+04 -0.59672264492E+03  0.18510160082E+04  0.46999998093E+01 0.  1.
</event>
<event>
 5   0  0.6890600E-07  0.3486772E+04  0.7818609E-02  0.8116932E-01
        1   -1    0    0  501    0  0.00000000000E+00  0.00000000000E+00  0.27720628120E+04  0.27720628120E+04  0.50400001928E-02 0.  1.
       -1   -1    0    0    0  501  0.00000000000E+00  0.00000000000E+00 -0.10964379037E+04  0.10964379038E+04  0.50400001928E-02 0. -1.
    10030    2    1    2    0    0  0.00000000000E+00  0.00000000000E+00  0.16756249082E+04  0.38685007157E+04  0.34867719963E+04 0.  0.
        3    1    3    3  502    0  0.52350423970E+03  0.67439455244E+03 -0.84864325779E+03  0.12037691185E+04  0.10100000352E+00 0. -1.
       -3    1    3    3    0  502 -0.52350423970E+03 -0.67439455244E+03  0.25242681660E+04  0.26647315973E+04  0.10100000352E+00 0.  1.
</event>
<event>
 5   0  0.2001768E-06  0.3496247E+04  0.7818609E-02  0.8114680E-01
        2   -1    0    0  501    0  0.00000000000E+00  0.00000000000E+00  0.22882000441E+04  0.22882000441E+04  0.25500000920E-02 0.  1.
       -2   -1    0    0    0  501  0.00000000000E+00  0.00000000000E+00 -0.13355197662E+04  0.13355197662E+04  0.25500000920E-02 0. -1.
    10030    2    1    2    0    0  0.00000000000E+00  0.00000000000E+00  0.95268027792E+03  0.36237198103E+04  0.34962473528E+04 0.  0.
        2    1    3    3  502    0 -0.12763520043E+04  0.57069049868E+03 -0.61128814732E+03  0.15259211262E+04  0.25500000920E-02 0. -1.
       -2    1    3    3    0  502  0.12763520043E+04 -0.57069049868E+03  0.15639684252E+04  0.20977986842E+04  0.25500000920E-02 0.  1.
</event>
<event>
 5   0  0.2023479E-06  0.3550722E+04  0.7818609E-02  0.8101873E-01
        2   -1    0    0  501    0  0.00000000000E+00  0.00000000000E+00  0.16270005174E+04  0.16270005174E+04  0.25500000920E-02 0.  1.
       -2   -1    0    0    0  501  0.00000000000E+00  0.00000000000E+00 -0.19372503954E+04  0.19372503954E+04  0.25500000920E-02 0. -1.
    10030    2    1    2    0    0  0.00000000000E+00  0.00000000000E+00 -0.31024987800E+03  0.35642509129E+04  0.35507224030E+04 0.  0.
        5    1    3    3  502    0  0.10609146671E+04 -0.81827098475E+03  0.10141211905E+04  0.16803485395E+04  0.46999998093E+01 0.  1.
       -5    1    3    3    0  502 -0.10609146671E+04  0.81827098475E+03 -0.13243710685E+04  0.18839023734E+04  0.46999998093E+01 0. -1.
</event>
<event>
 5   0  0.2073287E-06  0.2373533E+04  0.7818609E-02  0.8449479E-01
        2   -1    0    0  501    0  0.00000000000E+00  0.00000000000E+00  0.18434633373E+04  0.18434633373E+04  0.25500000920E-02 0.  1.
       -2   -1    0    0    0  501  0.00000000000E+00  0.00000000000E+00 -0.76400506062E+03  0.76400506062E+03  0.25500000920E-02 0. -1.
    10030    2    1    2    0    0  0.00000000000E+00  0.00000000000E+00  0.10794582767E+04  0.26074683980E+04  0.23735334999E+04 0.  0.
        1    1    3    3  502    0  0.56580309395E+03 -0.95083972239E+03  0.68261382801E+02  0.11085526308E+04  0.50400001928E-02 0. -1.
       -1    1    3    3    0  502 -0.56580309395E+03  0.95083972239E+03  0.10111968939E+04  0.14989157672E+04  0.50400001928E-02 0.  1.
</event>
<event>
 5   0  0.1999883E-06  0.3545253E+04  0.7818609E-02  0.8103149E-01
       -2   -1    0    0    0  501  0.00000000000E+00  0.00000000000E+00  0.13301567054E+04  0.13301567054E+04  0.25500000920E-02 0.  1.
        2   -1    0    0  501    0  0.00000000000E+00  0.00000000000E+00 -0.23622814691E+04  0.23622814691E+04  0.25500000920E-02 0. -1.
    10030    2    1    2    0    0  0.00000000000E+00  0.00000000000E+00 -0.10321247636E+04  0.36924381745E+04  0.35452529028E+04 0.  0.
        4    1    3    3  502    0 -0.12690488408E+04 -0.26423134733E+03 -0.17753496373E+04  0.21982199873E+04  0.12699999809E+01 0. -1.
       -4    1    3    3    0  502  0.12690488408E+04  0.26423134733E+03  0.74322487367E+03  0.14942181872E+04  0.12699999809E+01 0.  1.
</event>
<event>
 5   0  0.2023479E-06  0.3585453E+04  0.7818609E-02  0.8093832E-01
        2   -1    0    0  501    0  0.00000000000E+00  0.00000000000E+00  0.14185439820E+04  0.14185439820E+04  0.25500000920E-02 0.  1.
       -2   -1    0    0    0  501  0.00000000000E+00  0.00000000000E+00 -0.22656108838E+04  0.22656108838E+04  0.25500000920E-02 0. -1.
    10030    2    1    2    0    0  0.00000000000E+00  0.00000000000E+00 -0.84706690179E+03  0.36841548658E+04  0.35854532126E+04 0.  0.
        5    1    3    3  502    0  0.56411628345E+03 -0.24304671663E+03  0.13070353274E+04  0.14441822340E+04  0.46999998093E+01 0.  1.
       -5    1    3    3    0  502 -0.56411628345E+03  0.24304671663E+03 -0.21541022292E+04  0.22399726319E+04  0.46999998093E+01 0. -1.
</event>
<event>
 5   0  0.2020725E-06  0.3216296E+04  0.7818609E-02  0.8184527E-01
       -2   -1    0    0    0  501  0.00000000000E+00  0.00000000000E+00  0.10530188856E+04  0.10530188856E+04  0.25500000920E-02 0.  1.
        2   -1    0    0  501    0  0.00000000000E+00  0.00000000000E+00 -0.24559291524E+04  0.24559291524E+04  0.25500000920E-02 0. -1.
    10030    2    1    2    0    0  0.00000000000E+00  0.00000000000E+00 -0.14029102668E+04  0.35089480381E+04  0.32162958690E+04 0.  0.
        3    1    3    3  502    0 -0.14896916316E+03  0.13362965141E+04 -0.16639162274E+04  0.21392749724E+04  0.10100000352E+00 0. -1.
       -3    1    3    3    0  502  0.14896916316E+03 -0.13362965141E+04  0.26100596061E+03  0.13696730657E+04  0.10100000352E+00 0.  1.
</event>
<event>
 5   0  0.6630125E-07  0.2766009E+04  0.7818609E-02  0.8313900E-01
        1   -1    0    0  501    0  0.00000000000E+00  0.00000000000E+00  0.94012051916E+03  0.94012051917E+03  0.50400001928E-02 0.  1.
       -1   -1    0    0    0  501  0.00000000000E+00  0.00000000000E+00 -0.20345278601E+04  0.20345278601E+04  0.50400001928E-02 0. -1.
    10030    2    1    2    0    0  0.00000000000E+00  0.00000000000E+00 -0.10944073409E+04  0.29746483793E+04  0.27660089574E+04 0.  0.
        4    1    3    3  502    0  0.54636701461E+03 -0.12561746768E+04 -0.75184086558E+03  0.15626125666E+04  0.12699999809E+01 0. -1.
       -4    1    3    3    0  502 -0.54636701461E+03  0.12561746768E+04 -0.34256647537E+03  0.14120358127E+04  0.12699999809E+01 0.  1.
</event>
<event>
 5   0  0.2023479E-06  0.3391264E+04  0.7818609E-02  0.8140054E-01
        2   -1    0    0  501    0  0.00000000000E+00  0.00000000000E+00  0.24755168854E+04  0.24755168854E+04  0.25500000920E-02 0.  1.
       -2   -1    0    0    0  501  0.00000000000E+00  0.00000000000E+00 -0.11614413394E+04  0.11614413394E+04  0.25500000920E-02 0. -1.
    10030    2    1    2    0    0  0.00000000000E+00  0.00000000000E+00  0.13140755459E+04  0.36369582248E+04  0.33912638630E+04 0.  0.
        5    1    3    3  502    0  0.10196000628E+04 -0.61981207589E+03  0.19490583521E+04  0.22853012596E+04  0.46999998093E+01 0.  1.
       -5    1    3    3    0  502 -0.10196000628E+04  0.61981207589E+03 -0.63498280616E+03  0.13516569652E+04  0.46999998093E+01 0. -1.
</event>
<event>
 5   0  0.6630125E-07  0.2611408E+04  0.7818609E-02  0.8364336E-01
        1   -1    0    0  501    0  0.00000000000E+00  0.00000000000E+00  0.12211195897E+04  0.12211195897E+04  0.50400001928E-02 0.  1.
       -1   -1    0    0    0  501  0.00000000000E+00  0.00000000000E+00 -0.13961477504E+04  0.13961477504E+04  0.50400001928E-02 0. -1.
    10030    2    1    2    0    0  0.00000000000E+00  0.00000000000E+00 -0.17502816070E+03  0.26172673401E+04  0.26114083312E+04 0.  0.
        5    1    3    3  502    0  0.45561705989E+02 -0.91411592727E+03  0.84578811615E+03  0.12462196536E+04  0.46999998093E+01 0.  1.
       -5    1    3    3    0  502 -0.45561705989E+02  0.91411592727E+03 -0.10208162769E+04  0.13710476865E+04  0.46999998093E+01 0. -1.
</event>
<event>
 5   0  0.6630125E-07  0.2462659E+04  0.7818609E-02  0.8416410E-01
       -1   -1    0    0    0  501  0.00000000000E+00  0.00000000000E+00  0.95912264468E+03  0.95912264470E+03  0.50400001928E-02 0. -1.
        1   -1    0    0  501    0  0.00000000000E+00  0.00000000000E+00 -0.15807910961E+04  0.15807910961E+04  0.50400001928E-02 0.  1.
    10030    2    1    2    0    0  0.00000000000E+00  0.00000000000E+00 -0.62166845139E+03  0.25399137408E+04  0.24626591618E+04 0.  0.
        5    1    3    3  502    0 -0.21513490136E+03  0.56703702391E+03  0.79438703641E+03  0.99944327797E+03  0.46999998093E+01 0. -1.
       -5    1    3    3    0  502  0.21513490136E+03 -0.56703702391E+03 -0.14160554878E+04  0.15404704628E+04  0.46999998093E+01 0.  1.
</event>
<event>
 5   0  0.6630125E-07  0.3458420E+04  0.7818609E-02  0.8123715E-01
       -1   -1    0    0    0  501  0.00000000000E+00  0.00000000000E+00  0.93313449846E+03  0.93313449847E+03  0.50400001928E-02 0.  1.
        1   -1    0    0  501    0  0.00000000000E+00  0.00000000000E+00 -0.32044331864E+04  0.32044331864E+04  0.50400001928E-02 0. -1.
    10030    2    1    2    0    0  0.00000000000E+00  0.00000000000E+00 -0.22712986879E+04  0.41375676848E+04  0.34584199596E+04 0.  0.
        5    1    3    3  502    0  0.10678149665E+04 -0.10958225372E+04 -0.17177685804E+03  0.15396704890E+04  0.46999998093E+01 0.  1.
       -5    1    3    3    0  502 -0.10678149665E+04  0.10958225372E+04 -0.20995218299E+04  0.25978971958E+04  0.46999998093E+01 0. -1.
</event>
<event>
 5   0  0.6630125E-07  0.3380091E+04  0.7818609E-02  0.8142810E-01
        1   -1    0    0  501    0  0.00000000000E+00  0.00000000000E+00  0.20269961513E+04  0.20269961513E+04  0.50400001928E-02 0. -1.
       -1   -1    0    0    0  501  0.00000000000E+00  0.00000000000E+00 -0.14091065389E+04  0.14091065389E+04  0.50400001928E-02 0.  1.
    10030    2    1    2    0    0  0.00000000000E+00  0.00000000000E+00  0.61788961241E+03  0.34361026901E+04  0.33800908455E+04 0.  0.
        1    1    3    3  502    0 -0.27655111258E+03  0.16600428092E+04  0.46653262433E+03  0.17463892280E+04  0.50400001928E-02 0.  1.
       -1    1    3    3    0  502  0.27655111258E+03 -0.16600428092E+04  0.15135698808E+03  0.16897134621E+04  0.50400001928E-02 0. -1.
</event>
<event>
 5   0  0.2020725E-06  0.3473017E+04  0.7818609E-02  0.8120214E-01
       -2   -1    0    0    0  501  0.00000000000E+00  0.00000000000E+00  0.21183034696E+04  0.21183034696E+04  0.25500000920E-02 0.  1.
        2   -1    0    0  501    0  0.00000000000E+00  0.00000000000E+00 -0.14235271691E+04  0.14235271691E+04  0.25500000920E-02 0. -1.
    10030    2    1    2    0    0  0.00000000000E+00  0.00000000000E+00  0.69477630053E+03  0.35418306387E+04  0.34730174439E+04 0.  0.
        3    1    3    3  502    0 -0.50450485549E+02 -0.40662803552E+03  0.20682979214E+04  0.21084942288E+04  0.10100000352E+00 0.  1.
       -3    1    3    3    0  502  0.50450485549E+02  0.40662803552E+03 -0.13735216209E+04  0.14333364099E+04  0.10100000352E+00 0. -1.
</event>
<event>
 5   0  0.2023479E-06  0.3570521E+04  0.7818609E-02  0.8097278E-01
        2   -1    0    0  501    0  0.00000000000E+00  0.00000000000E+00  0.21981314380E+04  0.21981314380E+04  0.25500000920E-02 0. -1.
       -2   -1    0    0    0  501  0.00000000000E+00  0.00000000000E+00 -0.14499382819E+04  0.14499382819E+04  0.25500000920E-02 0.  1.
    10030    2    1    2    0    0  0.00000000000E+00  0.00000000000E+00  0.74819315610E+03  0.36480697199E+04  0.35705209259E+04 0.  0.
        5    1    3    3  502    0  0.28753869714E+03  0.14590253372E+04  0.13833252136E+04  0.20310204759E+04  0.46999998093E+01 0. -1.
       -5    1    3    3    0  502 -0.28753869714E+03 -0.14590253372E+04 -0.63513205747E+03  0.16170492440E+04  0.46999998093E+01 0.  1.
</event>
<event>
 5   0  0.6630125E-07  0.3528955E+04  0.7818609E-02  0.8106962E-01
        1   -1    0    0  501    0  0.00000000000E+00  0.00000000000E+00  0.19753147570E+04  0.19753147570E+04  0.50400001928E-02 0.  1.
       -1   -1    0    0    0  501  0.00000000000E+00  0.00000000000E+00 -0.15761438822E+04  0.15761438822E+04  0.50400001928E-02 0. -1.
    10030    2    1    2    0    0  0.00000000000E+00  0.00000000000E+00  0.39917087479E+03  0.35514586392E+04  0.35289546722E+04 0.  0.
        4    1    3    3  502    0 -0.81929778103E+03  0.97942711897E+03  0.14250750424E+04  0.19134698390E+04  0.12699999809E+01 0.  1.
       -4    1    3    3    0  502  0.81929778103E+03 -0.97942711897E+03 -0.10259041677E+04  0.16379888002E+04  0.12699999809E+01 0. -1.
</event>
<event>
 5   0  0.2001768E-06  0.3441727E+04  0.7818609E-02  0.8127741E-01
       -2   -1    0    0    0  501  0.00000000000E+00  0.00000000000E+00  0.11896850812E+04  0.11896850812E+04  0.25500000920E-02 0. -1.
        2   -1    0    0  501    0  0.00000000000E+00  0.00000000000E+00 -0.24892054701E+04  0.24892054701E+04  0.25500000920E-02 0.  1.
    10030    2    1    2    0    0  0.00000000000E+00  0.00000000000E+00 -0.12995203889E+04  0.36788905513E+04  0.34417266666E+04 0.  0.
        2    1    3    3  502    0  0.91521670514E+02  0.12374034328E+04  0.62481038850E+03  0.13892197426E+04  0.25500000920E-02 0. -1.
       -2    1    3    3    0  502 -0.91521670514E+02 -0.12374034328E+04 -0.19243307774E+04  0.22896708088E+04  0.25500000920E-02 0.  1.
</event>
<event>
 5   0  0.2001768E-06  0.3546756E+04  0.7818609E-02  0.8102798E-01
       -2   -1    0    0    0  501  0.00000000000E+00  0.00000000000E+00  0.15694300196E+04  0.15694300196E+04  0.25500000920E-02 0.  1.
        2   -1    0    0  501    0  0.00000000000E+00  0.00000000000E+00 -0.20038288075E+04  0.20038288075E+04  0.25500000920E-02 0. -1.
    10030    2    1    2    0    0  0.00000000000E+00  0.00000000000E+00 -0.43439878783E+03  0.35732588271E+04  0.35467557484E+04 0.  0.
        2    1    3    3  502    0  0.50096271327E+03 -0.87256456972E+03 -0.16884323077E+04  0.19654862569E+04  0.25500000920E-02 0. -1.
       -2    1    3    3    0  502 -0.50096271327E+03  0.87256456972E+03  0.12540335199E+04  0.16077725702E+04  0.25500000920E-02 0.  1.
</event>
<event>
 5   0  0.6630125E-07  0.3481852E+04  0.7818609E-02  0.8118104E-01
        1   -1    0    0  501    0  0.00000000000E+00  0.00000000000E+00  0.13667080497E+04  0.13667080497E+04  0.50400001928E-02 0.  1.
       -1   -1    0    0    0  501  0.00000000000E+00  0.00000000000E+00 -0.22176085245E+04  0.22176085245E+04  0.50400001928E-02 0. -1.
    10030    2    1    2    0    0  0.00000000000E+00  0.00000000000E+00 -0.85090047482E+03  0.35843165742E+04  0.34818520483E+04 0.  0.
        1    1    3    3  502    0  0.13676795274E+03  0.83539058982E+03 -0.19914810157E+04  0.21639268810E+04  0.50400001928E-02 0. -1.
       -1    1    3    3    0  502 -0.13676795274E+03 -0.83539058982E+03  0.11405805408E+04  0.14203896932E+04  0.50400001928E-02 0.  1.
</event>
<event>
 5   0  0.2023479E-06  0.3467213E+04  0.7818609E-02  0.8121604E-01
        2   -1    0    0  501    0  0.00000000000E+00  0.00000000000E+00  0.17939391654E+04  0.17939391654E+04  0.25500000920E-02 0. -1.
       -2   -1    0    0    0  501  0.00000000000E+00  0.00000000000E+00 -0.16753025067E+04  0.16753025067E+04  0.25500000920E-02 0.  1.
    10030    2    1    2    0    0  0.00000000000E+00  0.00000000000E+00  0.11863665875E+03  0.34692416721E+04  0.34672125869E+04 0.  0.
        5    1    3    3  502    0 -0.55890666018E+03 -0.61433980810E+03  0.15819114067E+04  0.17866885132E+04  0.46999998093E+01 0. -1.
       -5    1    3    3    0  502  0.55890666018E+03  0.61433980810E+03 -0.14632747479E+04  0.16825531589E+04  0.46999998093E+01 0.  1.
</event>
<event>
 5   0  0.6890600E-07  0.3493518E+04  0.7818609E-02  0.8115328E-01
       -1   -1    0    0    0  501  0.00000000000E+00  0.00000000000E+00  0.17157812796E+04  0.17157812796E+04  0.50400001928E-02 0. -1.
        1   -1    0    0  501    0  0.00000000000E+00  0.00000000000E+00 -0.17782961571E+04  0.17782961571E+04  0.50400001928E-02 0.  1.
    10030    2    1    2    0    0  0.00000000000E+00  0.00000000000E+00 -0.62514877424E+02  0.34940774367E+04  0.34935181442E+04 0.  0.
        3    1    3    3  502    0 -0.46962660850E+03 -0.15781789917E+04 -0.61441953239E+03  0.17574724616E+04  0.10100000352E+00 0. -1.
       -3    1    3    3    0  502  0.46962660850E+03  0.15781789917E+04  0.55190465497E+03  0.17366049751E+04  0.10100000352E+00 0.  1.
</event>
<event>
 5   0  0.1999883E-06  0.3676518E+04  0.7818609E-02  0.8073186E-01
       -2   -1    0    0    0  501  0.00000000000E+00  0.00000000000E+00  0.25670779291E+04  0.25670779291E+04  0.25500000920E-02 0.  1.
        2   -1    0    0  501    0  0.00000000000E+00  0.00000000000E+00 -0.13163591333E+04  0.13163591333E+04  0.25500000920E-02 0. -1.
    10030    2    1    2    0    0  0.00000000000E+00  0.00000000000E+00  0.12507187958E+04  0.38834370624E+04  0.36765181778E+04 0.  0.
        4    1    3    3  502    0 -0.44343866302E+03 -0.34252114815E+03  0.24746771224E+04  0.25373188719E+04  0.12699999809E+01 0.  1.
       -4    1    3    3    0  502  0.44343866302E+03  0.34252114815E+03 -0.12239583266E+04  0.13461181905E+04  0.12699999809E+01 0. -1.
</event>
<event>
 5   0  0.6630125E-07  0.3495776E+04  0.7818609E-02  0.8114792E-01
        3   -1    0    0  501    0  0.00000000000E+00  0.00000000000E+00  0.16710468227E+04  0.16710468258E+04  0.10100000352E+00 0.  1.
       -3   -1    0    0    0  501  0.00000000000E+00  0.00000000000E+00 -0.18282623470E+04  0.18282623498E+04  0.10100000352E+00 0. -1.
    10030    2    1    2    0    0  0.00000000000E+00  0.00000000000E+00 -0.15721552427E+03  0.34993091755E+04  0.34957757344E+04 0.  0.
        5    1    3    3  502    0  0.82159258765E+03  0.18248523208E+03 -0.16120748091E+04  0.18185495649E+04  0.46999998093E+01 0. -1.
       -5    1    3    3    0  502 -0.82159258765E+03 -0.18248523208E+03  0.14548592848E+04  0.16807596106E+04  0.46999998093E+01 0.  1.
</event>
<event>
 5   0  0.2023479E-06  0.3080084E+04  0.7818609E-02  0.8221225E-01
       -2   -1    0    0    0  501  0.00000000000E+00  0.00000000000E+00  0.14383461179E+04  0.14383461179E+04  0.25500000920E-02 0. -1.
        2   -1    0    0  501    0  0.00000000000E+00  0.00000000000E+00 -0.16489279515E+04  0.16489279515E+04  0.25500000920E-02 0.  1.
    10030    2    1    2    0    0  0.00000000000E+00  0.00000000000E+00 -0.21058183364E+03  0.30872740694E+04  0.30800838416E+04 0.  0.
        5    1    3    3  502    0  0.60714937656E+03 -0.88348609541E+03  0.10029705373E+04  0.14680429268E+04  0.46999998093E+01 0. -1.
       -5    1    3    3    0  502 -0.60714937656E+03  0.88348609541E+03 -0.12135523709E+04  0.16192311426E+04  0.46999998093E+01 0.  1.
</event>
<event>
 5   0  0.6630125E-07  0.3325988E+04  0.7818609E-02  0.8156314E-01
        1   -1    0    0  501    0  0.00000000000E+00  0.00000000000E+00  0.21876728757E+04  0.21876728757E+04  0.50400001928E-02 0.  1.
       -1   -1    0    0    0  501  0.00000000000E+00  0.00000000000E+00 -0.12641510493E+04  0.12641510494E+04  0.50400001928E-02 0. -1.
    10030    2    1    2    0    0  0.00000000000E+00  0.00000000000E+00  0.92352182635E+03  0.34518239251E+04  0.33259879504E+04 0.  0.
        1    1    3    3  502    0 -0.56355135234E+03 -0.12507343958E+04  0.14373373413E+04  0.19869235738E+04  0.50400001928E-02 0.  1.
       -1    1    3    3    0  502  0.56355135234E+03  0.12507343958E+04 -0.51381551494E+03  0.14649003512E+04  0.50400001928E-02 0. -1.
</event>
<event>
 5   0  0.6630125E-07  0.3515249E+04  0.7818609E-02  0.8110186E-01
       -1   -1    0    0    0  501  0.00000000000E+00  0.00000000000E+00  0.13192896973E+04  0.13192896973E+04  0.50400001928E-02 0. -1.
        1   -1    0    0  501    0  0.00000000000E+00  0.00000000000E+00 -0.23415958182E+04  0.23415958183E+04  0.50400001928E-02 0.  1.
    10030    2    1    2    0    0  0.00000000000E+00  0.00000000000E+00 -0.10223061210E+04  0.36608855155E+04  0.35152486331E+04 0.  0.
        1    1    3    3  502    0 -0.13365215747E+04  0.54387547391E+02 -0.16985638556E+04  0.21620284681E+04  0.50400001928E-02 0.  1.
       -1    1    3    3    0  502  0.13365215747E+04 -0.54387547391E+02  0.67625773465E+03  0.14988570475E+04  0.50400001928E-02 0. -1.
</event>
<event>
 5   0  0.6890600E-07  0.2159911E+04  0.7818609E-02  0.8535302E-01
       -1   -1    0    0    0  501  0.00000000000E+00  0.00000000000E+00  0.13019868485E+04  0.13019868485E+04  0.50400001928E-02 0. -1.
        1   -1    0    0  501    0  0.00000000000E+00  0.00000000000E+00 -0.89578766213E+03  0.89578766215E+03  0.50400001928E-02 0.  1.
    10030    2    1    2    0    0  0.00000000000E+00  0.00000000000E+00  0.40619918640E+03  0.21977745107E+04  0.21599108826E+04 0.  0.
        3    1    3    3  502    0 -0.93030792347E+03  0.26285861544E+03  0.69292837157E+03  0.11894188591E+04  0.10100000352E+00 0. -1.
       -3    1    3    3    0  502  0.93030792347E+03 -0.26285861544E+03 -0.28672918517E+03  0.10083556515E+04  0.10100000352E+00 0.  1.
</event>
<event>
 5   0  0.1999883E-06  0.3463704E+04  0.7818609E-02  0.8122446E-01
       -2   -1    0    0    0  501  0.00000000000E+00  0.00000000000E+00  0.10362126890E+04  0.10362126890E+04  0.25500000920E-02 0.  1.
        2   -1    0    0  501    0  0.00000000000E+00  0.00000000000E+00 -0.28944946458E+04  0.28944946458E+04  0.25500000920E-02 0. -1.
    10030    2    1    2    0    0  0.00000000000E+00  0.00000000000E+00 -0.18582819568E+04  0.39307073348E+04  0.34637044218E+04 0.  0.
        4    1    3    3  502    0 -0.34871759265E+03  0.14253027637E+04 -0.19730704371E+04  0.24588819594E+04  0.12699999809E+01 0. -1.
       -4    1    3    3    0  502  0.34871759265E+03 -0.14253027637E+04  0.11478848032E+03  0.14718253754E+04  0.12699999809E+01 0.  1.
</event>
<event>
 5   0  0.2073287E-06  0.2413030E+04  0.7818609E-02  0.8434641E-01
       -2   -1    0    0    0  501  0.00000000000E+00  0.00000000000E+00  0.12547151894E+04  0.12547151894E+04  0.25500000920E-02 0.  1.
        2   -1    0    0  501    0  0.00000000000E+00  0.00000000000E+00 -0.11601666507E+04  0.11601666507E+04  0.25500000920E-02 0. -1.
    10030    2    1    2    0    0  0.00000000000E+00  0.00000000000E+00  0.94548538753E+02  0.24148818401E+04  0.24130302268E+04 0.  0.
        1    1    3    3  502    0 -0.38975396756E+03  0.73822976855E+03  0.91902670794E+03  0.12415721632E+04  0.50400001928E-02 0.  1.
       -1    1    3    3    0  502  0.38975396756E+03 -0.73822976855E+03 -0.82447816919E+03  0.11733096769E+04  0.50400001928E-02 0. -1.
</event>
<event>
 5   0  0.2023479E-06  0.3653705E+04  0.7818609E-02  0.8078300E-01
        2   -1    0    0  501    0  0.00000000000E+00  0.00000000000E+00  0.24222226387E+04  0.24222226387E+04  0.25500000920E-02 0.  1.
       -2   -1    0    0    0  501  0.00000000000E+00  0.00000000000E+00 -0.13778212575E+04  0.13778212575E+04  0.25500000920E-02 0. -1.
    10030    2    1    2    0    0  0.00000000000E+00  0.00000000000E+00  0.10444013812E+04  0.38000438962E+04  0.36537048824E+04 0.  0.
        5    1    3    3  502    0 -0.89323183487E+02  0.68516123886E+03 -0.12366697555E+04  0.14166152366E+04  0.46999998093E+01 0. -1.
       -5    1    3    3    0  502  0.89323183487E+02 -0.68516123886E+03  0.22810711368E+04  0.23834286596E+04  0.46999998093E+01 0.  1.
</event>
<event>
 5   0  0.7378896E-07  0.3504174E+04  0.7818609E-02  0.8112802E-01
        1   -1    0    0  501    0  0.00000000000E+00  0.00000000000E+00  0.12404782913E+04  0.12404782913E+04  0.50400001928E-02 0.  1.
       -1   -1    0    0    0  501  0.00000000000E+00  0.00000000000E+00 -0.24746973894E+04  0.24746973894E+04  0.50400001928E-02 0. -1.
    10030    2    1    2    0    0  0.00000000000E+00  0.00000000000E+00 -0.12342190981E+04  0.37151756807E+04  0.35041737338E+04 0.  0.
        2    1    3    3  502    0 -0.11583171395E+04 -0.15527861760E+03  0.76686565597E+03  0.13978172195E+04  0.25500000920E-02 0.  1.
       -2    1    3    3    0  502  0.11583171395E+04  0.15527861760E+03 -0.20010847541E+04  0.23173584612E+04  0.25500000920E-02 0. -1.
</event>
<event>
 5   0  0.6630125E-07  0.3510303E+04  0.7818609E-02  0.8111353E-01
        1   -1    0    0  501    0  0.00000000000E+00  0.00000000000E+00  0.22639227873E+04  0.22639227873E+04  0.50400001928E-02 0.  1.
       -1   -1    0    0    0  501  0.00000000000E+00  0.00000000000E+00 -0.13607162030E+04  0.13607162030E+04  0.50400001928E-02 0. -1.
    10030    2    1    2    0    0  0.00000000000E+00  0.00000000000E+00  0.90320658428E+03  0.36246389903E+04  0.35103027899E+04 0.  0.
        5    1    3    3  502    0  0.27038508133E+03 -0.16079614827E+04  0.11222870524E+04  0.19794439977E+04  0.46999998093E+01 0.  1.
       -5    1    3    3    0  502 -0.27038508133E+03  0.16079614827E+04 -0.21908046814E+03  0.16451949926E+04  0.46999998093E+01 0. -1.
</event>
<event>
 5   0  0.1999883E-06  0.3464957E+04  0.7818609E-02  0.8122145E-01
        2   -1    0    0  501    0  0.00000000000E+00  0.00000000000E+00  0.13148686289E+04  0.13148686289E+04  0.25500000920E-02 0.  1.
       -2   -1    0    0    0  501  0.00000000000E+00  0.00000000000E+00 -0.22827235922E+04  0.22827235922E+04  0.25500000920E-02 0. -1.
    10030    2    1    2    0    0  0.00000000000E+00  0.00000000000E+00 -0.96785496324E+03  0.35975922211E+04  0.34649569347E+04 0.  0.
        4    1    3    3  502    0  0.71690843424E+03 -0.14034086461E+04 -0.12311757696E+04  0.19998272224E+04  0.12699999809E+01 0. -1.
       -4    1    3    3    0  502 -0.71690843424E+03  0.14034086461E+04  0.26332080635E+03  0.15977649987E+04  0.12699999809E+01 0.  1.
</event>
<event>
 5   0  0.6890600E-07  0.3452901E+04  0.7818609E-02  0.8125043E-01
       -1   -1    0    0    0  501  0.00000000000E+00  0.00000000000E+00  0.21408059118E+04  0.21408059118E+04  0.50400001928E-02 0. -1.
        1   -1    0    0  501    0  0.00000000000E+00  0.00000000000E+00 -0.13922941460E+04  0.13922941460E+04  0.50400001928E-02 0.  1.
    10030    2    1    2    0    0  0.00000000000E+00  0.00000000000E+00  0.74851176583E+03  0.35331000579E+04  0.34529011216E+04 0.  0.
        3    1    3    3  502    0  0.97838625511E+03  0.11990952972E+04 -0.40873798537E+03  0.16006673442E+04  0.10100000352E+00 0.  1.
       -3    1    3    3    0  502 -0.97838625511E+03 -0.11990952972E+04  0.11572497512E+04  0.19324327137E+04  0.10100000352E+00 0. -1.
</event>
<event>
 5   0  0.1999883E-06  0.3556138E+04  0.7818609E-02  0.8100613E-01
       -2   -1    0    0    0  501  0.00000000000E+00  0.00000000000E+00  0.11784910677E+04  0.11784910677E+04  0.25500000920E-02 0. -1.
        2   -1    0    0  501    0  0.00000000000E+00  0.00000000000E+00 -0.26826925087E+04  0.26826925087E+04  0.25500000920E-02 0.  1.
    10030    2    1    2    0    0  0.00000000000E+00  0.00000000000E+00 -0.15042014410E+04  0.38611835763E+04  0.35561378819E+04 0.  0.
        4    1    3    3  502    0 -0.16692666994E+04 -0.40267282558E+03 -0.12531277199E+04  0.21257768965E+04  0.12699999809E+01 0.  1.
       -4    1    3    3    0  502  0.16692666994E+04  0.40267282558E+03 -0.25107372110E+03  0.17354066799E+04  0.12699999809E+01 0. -1.
</event>
<event>
 5   0  0.6890600E-07  0.3621644E+04  0.7818609E-02  0.8085552E-01
        1   -1    0    0  501    0  0.00000000000E+00  0.00000000000E+00  0.21708746670E+04  0.21708746670E+04  0.50400001928E-02 0.  1.
       -1   -1    0    0    0  501  0.00000000000E+00  0.00000000000E+00 -0.15104860664E+04  0.15104860664E+04  0.50400001928E-02 0. -1.
    10030    2    1    2    0    0  0.00000000000E+00  0.00000000000E+00  0.66038860066E+03  0.36813607334E+04  0.36216437906E+04 0.  0.
        3    1    3    3  502    0 -0.85231632287E+03  0.17504367252E+03  0.19444582217E+04  0.21302584791E+04  0.10100000352E+00 0.  1.
       -3    1    3    3    0  502  0.85231632287E+03 -0.17504367252E+03 -0.12840696210E+04  0.15511022543E+04  0.10100000352E+00 0. -1.
</event>
<event>
 5   0  0.6630125E-07  0.2410461E+04  0.7818609E-02  0.8435597E-01
       -1   -1    0    0    0  501  0.00000000000E+00  0.00000000000E+00  0.55609067219E+03  0.55609067221E+03  0.50400001928E-02 0. -1.
        1   -1    0    0  501    0  0.00000000000E+00  0.00000000000E+00 -0.26121290892E+04  0.26121290892E+04  0.50400001928E-02 0.  1.
    10030    2    1    2    0    0  0.00000000000E+00  0.00000000000E+00 -0.20560384170E+04  0.31682197614E+04  0.24104610522E+04 0.  0.
        1    1    3    3  502    0 -0.10544100487E+04  0.43565146197E+03 -0.51726144539E+03  0.12526500509E+04  0.50400001928E-02 0.  1.
       -1    1    3    3    0  502  0.10544100487E+04 -0.43565146197E+03 -0.15387769716E+04  0.19155697104E+04  0.50400001928E-02 0. -1.
</event>
<event>
 5   0  0.1999883E-06  0.3339686E+04  0.7818609E-02  0.8152870E-01
       -2   -1    0    0    0  501  0.00000000000E+00  0.00000000000E+00  0.11658018361E+04  0.11658018361E+04  0.25500000920E-02 0.  1.
        2   -1    0    0  501    0  0.00000000000E+00  0.00000000000E+00 -0.23918095409E+04  0.23918095409E+04  0.25500000920E-02 0. -1.
    10030    2    1    2    0    0  0.00000000000E+00  0.00000000000E+00 -0.12260077047E+04  0.35576113770E+04  0.33396861855E+04 0.  0.
        4    1    3    3  502    0 -0.33970885604E+03  0.16334430575E+04 -0.68708309767E+03  0.18043345380E+04  0.12699999809E+01 0.  1.
       -4    1    3    3    0  502  0.33970885604E+03 -0.16334430575E+04 -0.53892460704E+03  0.17532768390E+04  0.12699999809E+01 0. -1.
</event>
<event>
 5   0  0.2073287E-06  0.3468044E+04  0.7818609E-02  0.8121405E-01
       -2   -1    0    0    0  501  0.00000000000E+00  0.00000000000E+00  0.18604964082E+04  0.18604964082E+04  0.25500000920E-02 0. -1.
        2   -1    0    0  501    0  0.00000000000E+00  0.00000000000E+00 -0.16161449063E+04  0.16161449063E+04  0.25500000920E-02 0.  1.
    10030    2    1    2    0    0  0.00000000000E+00  0.00000000000E+00  0.24435150196E+03  0.34766413145E+04  0.34680437098E+04 0.  0.
        1    1    3    3  502    0  0.81969494093E+03 -0.73435390807E+03 -0.12211673067E+04  0.16439054260E+04  0.50400001928E-02 0.  1.
       -1    1    3    3    0  502 -0.81969494093E+03  0.73435390807E+03  0.14655188087E+04  0.18327358885E+04  0.50400001928E-02 0. -1.
</event>
<event>
 5   0  0.2001768E-06  0.3501299E+04  0.7818609E-02  0.8113482E-01
       -2   -1    0    0    0  501  0.00000000000E+00  0.00000000000E+00  0.15341698130E+04  0.15341698130E+04  0.25500000920E-02 0. -1.
        2   -1    0    0  501    0  0.00000000000E+00  0.00000000000E+00 -0.19976759824E+04  0.19976759824E+04  0.25500000920E-02 0.  1.
    10030    2    1    2    0    0  0.00000000000E+00  0.00000000000E+00 -0.46350616939E+03  0.35318457953E+04  0.35012992949E+04 0.  0.
        2    1    3    3  502    0  0.10381517499E+04 -0.11861080034E+04 -0.10000825480E+04  0.18667555690E+04  0.25500000920E-02 0.  1.
       -2    1    3    3    0  502 -0.10381517499E+04  0.11861080034E+04  0.53657637858E+03  0.16650902263E+04  0.25500000920E-02 0. -1.
</event>
<event>
 5   0  0.1999883E-06  0.3071271E+04  0.7818609E-02  0.8223667E-01
       -2   -1    0    0    0  501  0.00000000000E+00  0.00000000000E+00  0.15069715070E+04  0.15069715071E+04  0.25500000920E-02 0. -1.
        2   -1    0    0  501    0  0.00000000000E+00  0.00000000000E+00 -0.15648449738E+04  0.15648449738E+04  0.25500000920E-02 0.  1.
    10030    2    1    2    0    0  0.00000000000E+00  0.00000000000E+00 -0.57873466748E+02  0.30718164808E+04  0.30712712602E+04 0.  0.
        4    1    3    3  502    0 -0.67104331128E+03 -0.88724582753E+03 -0.10877421055E+04  0.15558562868E+04  0.12699999809E+01 0.  1.
       -4    1    3    3    0  502  0.67104331128E+03  0.88724582753E+03  0.10298686387E+04  0.15159601941E+04  0.12699999809E+01 0. -1.
</event>
<event>
 5   0  0.6630125E-07  0.2433856E+04  0.7818609E-02  0.8426936E-01
       -1   -1    0    0    0  501  0.00000000000E+00  0.00000000000E+00  0.13036067308E+04  0.13036067308E+04  0.50400001928E-02 0. -1.
        1   -1    0    0  501    0  0.00000000000E+00  0.00000000000E+00 -0.11360130666E+04  0.11360130666E+04  0.50400001928E-02 0.  1.
    10030    2    1    2    0    0  0.00000000000E+00  0.00000000000E+00  0.16759366414E+03  0.24396197974E+04  0.24338564295E+04 0.  0.
        1    1    3    3  502    0  0.53897128162E+03  0.36384365225E+03  0.11148442852E+04  0.12906393865E+04  0.50400001928E-02 0. -1.
       -1    1    3    3    0  502 -0.53897128162E+03 -0.36384365225E+03 -0.94725062102E+03  0.11489804109E+04  0.50400001928E-02 0.  1.
</event>
<event>
 5   0  0.6890600E-07  0.3385240E+04  0.7818609E-02  0.8141539E-01
        1   -1    0    0  501    0  0.00000000000E+00  0.00000000000E+00  0.19948485876E+04  0.19948485876E+04  0.50400001928E-02 0. -1.
       -1   -1    0    0    0  501  0.00000000000E+00  0.00000000000E+00 -0.14361800138E+04  0.14361800138E+04  0.50400001928E-02 0.  1.
    10030    2    1    2    0    0  0.00000000000E+00  0.00000000000E+00  0.55866857377E+03  0.34310286015E+04  0.33852395320E+04 0.  0.
        3    1    3    3  502    0 -0.13035645932E+04  0.85604715880E+03 -0.38748907508E+03  0.16069365825E+04  0.10100000352E+00 0.  1.
       -3    1    3    3    0  502  0.13035645932E+04 -0.85604715880E+03  0.94615764886E+03  0.18240920189E+04  0.10100000352E+00 0. -1.
</event>
<event>
 5   0  0.2001768E-06  0.3549510E+04  0.7818609E-02  0.8102156E-01
        2   -1    0    0  501    0  0.00000000000E+00  0.00000000000E+00  0.16362064375E+04  0.16362064375E+04  0.25500000920E-02 0.  1.
       -2   -1    0    0    0  501  0.00000000000E+00  0.00000000000E+00 -0.19250356997E+04  0.19250356997E+04  0.25500000920E-02 0. -1.
    10030    2    1    2    0    0  0.00000000000E+00  0.00000000000E+00 -0.28882926219E+03  0.35612421371E+04  0.35495102784E+04 0.  0.
        2    1    3    3  502    0  0.52039220090E+03  0.23519523295E+03  0.15415056422E+04  0.16438870050E+04  0.25500000920E-02 0.  1.
       -2    1    3    3    0  502 -0.52039220090E+03 -0.23519523295E+03 -0.18303349044E+04  0.19173551321E+04  0.25500000920E-02 0. -1.
</event>
<event>
 5   0  0.7378896E-07  0.2224806E+04  0.7818609E-02  0.8508174E-01
       -1   -1    0    0    0  501  0.00000000000E+00  0.00000000000E+00  0.12983360506E+04  0.12983360506E+04  0.50400001928E-02 0.  1.
        1   -1    0    0  501    0  0.00000000000E+00  0.00000000000E+00 -0.95309715852E+03  0.95309715854E+03  0.50400001928E-02 0. -1.
    10030    2    1    2    0    0  0.00000000000E+00  0.00000000000E+00  0.34523889206E+03  0.22514332091E+04  0.22248059696E+04 0.  0.
        2    1    3    3  502    0 -0.41737765866E+03 -0.95279938632E+03 -0.22631898563E+03  0.10645426548E+04  0.25500000920E-02 0. -1.
       -2    1    3    3    0  502  0.41737765866E+03  0.95279938632E+03  0.57155787769E+03  0.11868905544E+04  0.25500000920E-02 0.  1.
</event>
<event>
 5   0  0.6630125E-07  0.2741310E+04  0.7818609E-02  0.8321724E-01
       -1   -1    0    0    0  501  0.00000000000E+00  0.00000000000E+00  0.13047933711E+04  0.13047933711E+04  0.50400001928E-02 0.  1.
        1   -1    0    0  501    0  0.00000000000E+00  0.00000000000E+00 -0.14398414039E+04  0.14398414039E+04  0.50400001928E-02 0. -1.
    10030    2    1    2    0    0  0.00000000000E+00  0.00000000000E+00 -0.13504803280E+03  0.27446347751E+04  0.27413102848E+04 0.  0.
        4    1    3    3  502    0  0.22892537400E+02  0.13412365676E+04 -0.34938684445E+03  0.13861862712E+04  0.12699999809E+01 0. -1.
       -4    1    3    3    0  502 -0.22892537400E+02 -0.13412365676E+04  0.21433881165E+03  0.13584485039E+04  0.12699999809E+01 0.  1.
</event>
<event>
 5   0  0.6630125E-07  0.3450133E+04  0.7818609E-02  0.8125710E-01
        1   -1    0    0  501    0  0.00000000000E+00  0.00000000000E+00  0.12000120841E+04  0.12000120841E+04  0.50400001928E-02 0. -1.
       -1   -1    0    0    0  501  0.00000000000E+00  0.00000000000E+00 -0.24798541337E+04  0.24798541337E+04  0.50400001928E-02 0.  1.
    10030    2    1    2    0    0  0.00000000000E+00  0.00000000000E+00 -0.12798420496E+04  0.36798662179E+04  0.34501332887E+04 0.  0.
        4    1    3    3  502    0  0.14944345066E+04 -0.85972137355E+03 -0.57774734873E+03  0.18183093649E+04  0.12699999809E+01 0. -1.
       -4    1    3    3    0  502 -0.14944345066E+04  0.85972137355E+03 -0.70209470089E+03  0.18615568529E+04  0.12699999809E+01 0.  1.
</event>
<event>
 5   0  0.2001768E-06  0.3458598E+04  0.7818609E-02  0.8123672E-01
       -2   -1    0    0    0  501  0.00000000000E+00  0.00000000000E+00  0.17926725909E+04  0.17926725909E+04  0.25500000920E-02 0. -1.
        2   -1    0    0  501    0  0.00000000000E+00  0.00000000000E+00 -0.16681657322E+04  0.16681657322E+04  0.25500000920E-02 0.  1.
    10030    2    1    2    0    0  0.00000000000E+00  0.00000000000E+00  0.12450685871E+03  0.34608383231E+04  0.34585979733E+04 0.  0.
        2    1    3    3  502    0  0.28540614058E+03  0.18984849887E+03  0.17583368839E+04  0.17914373321E+04  0.25500000920E-02 0. -1.
       -2    1    3    3    0  502 -0.28540614058E+03 -0.18984849887E+03 -0.16338300252E+04  0.16694009910E+04  0.25500000920E-02 0.  1.
</event>
<event>
 5   0  0.6630125E-07  0.3491910E+04  0.7818609E-02  0.8115710E-01
       -1   -1    0    0    0  501  0.00000000000E+00  0.00000000000E+00  0.12023485525E+04  0.12023485525E+04  0.50400001928E-02 0.  1.
        1   -1    0    0  501    0  0.00000000000E+00  0.00000000000E+00 -0.25353374513E+04  0.25353374513E+04  0.50400001928E-02 0. -1.
    10030    2    1    2    0    0  0.00000000000E+00  0.00000000000E+00 -0.13329888988E+04  0.37376860038E+04  0.34919102593E+04 0.  0.
        1    1    3    3  502    0 -0.14048221589E+04  0.85062408109E+03 -0.13008926363E+04  0.20950914721E+04  0.50400001928E-02 0. -1.
       -1    1    3    3    0  502  0.14048221589E+04 -0.85062408109E+03 -0.32096262495E+02  0.16425945317E+04  0.50400001928E-02 0.  1.
</event>
<event>
 5   0  0.2001768E-06  0.3472027E+04  0.7818609E-02  0.8120451E-01
        2   -1    0    0  501    0  0.00000000000E+00  0.00000000000E+00  0.17666339039E+04  0.17666339039E+04  0.25500000920E-02 0. -1.
       -2   -1    0    0    0  501  0.00000000000E+00  0.00000000000E+00 -0.17059238307E+04  0.17059238308E+04  0.25500000920E-02 0.  1.
    10030    2    1    2    0    0  0.00000000000E+00  0.00000000000E+00  0.60710073105E+02  0.34725577346E+04  0.34720270027E+04 0.  0.
        2    1    3    3  502    0  0.14554948874E+03  0.17273514216E+04  0.12425916088E+03  0.17379205754E+04  0.25500000920E-02 0. -1.
       -2    1    3    3    0  502 -0.14554948874E+03 -0.17273514216E+04 -0.63549087770E+02  0.17346371592E+04  0.25500000920E-02 0.  1.
</event>
<event>
 5   0  0.2001768E-06  0.2618977E+04  0.7818609E-02  0.8361784E-01
        2   -1    0    0  501    0  0.00000000000E+00  0.00000000000E+00  0.30464522401E+04  0.30464522401E+04  0.25500000920E-02 0.  1.
       -2   -1    0    0    0  501  0.00000000000E+00  0.00000000000E+00 -0.56287097680E+03  0.56287097681E+03  0.25500000920E-02 0. -1.
    10030    2    1    2    0    0  0.00000000000E+00  0.00000000000E+00  0.24835812633E+04  0.36093232169E+04  0.26189765545E+04 0.  0.
        2    1    3    3  502    0  0.11413529861E+04  0.64173545084E+03  0.12200648559E+04  0.17897120663E+04  0.25500000920E-02 0. -1.
       -2    1    3    3    0  502 -0.11413529861E+04 -0.64173545084E+03  0.12635164074E+04  0.18196111506E+04  0.25500000920E-02 0.  1.
</event>
<event>
 5   0  0.2001768E-06  0.3223434E+04  0.7818609E-02  0.8182656E-01
       -2   -1    0    0    0  501  0.00000000000E+00  0.00000000000E+00  0.10876763080E+04  0.10876763080E+04  0.25500000920E-02 0. -1.
        2   -1    0    0  501    0  0.00000000000E+00  0.00000000000E+00 -0.23882390682E+04  0.23882390682E+04  0.25500000920E-02 0.  1.
    10030    2    1    2    0    0  0.00000000000E+00  0.00000000000E+00 -0.13005627602E+04  0.34759153761E+04  0.32234336055E+04 0.  0.
        2    1    3    3  502    0  0.58544317234E+03  0.35362234493E+03  0.92342537974E+03  0.11491331093E+04  0.25500000920E-02 0. -1.
       -2    1    3    3    0  502 -0.58544317234E+03 -0.35362234493E+03 -0.22239881399E+04  0.23267822669E+04  0.25500000920E-02 0.  1.
</event>
<event>
 5   0  0.2073287E-06  0.3346835E+04  0.7818609E-02  0.8151079E-01
       -2   -1    0    0    0  501  0.00000000000E+00  0.00000000000E+00  0.98916784807E+03  0.98916784807E+03  0.25500000920E-02 0. -1.
        2   -1    0    0  501    0  0.00000000000E+00  0.00000000000E+00 -0.28309923944E+04  0.28309923944E+04  0.25500000920E-02 0.  1.
    10030    2    1    2    0    0  0.00000000000E+00  0.00000000000E+00 -0.18418245463E+04  0.38201602425E+04  0.33468353139E+04 0.  0.
        1    1    3    3  502    0 -0.88113602418E+03 -0.24392950157E+03  0.67888478245E+03  0.11387654907E+04  0.50400001928E-02 0. -1.
       -1    1    3    3    0  502  0.88113602418E+03  0.24392950157E+03 -0.25207093288E+04  0.26813947518E+04  0.50400001928E-02 0.  1.
</event>
<event>
 5   0  0.7378896E-07  0.2220104E+04  0.7818609E-02  0.8510107E-01
       -1   -1    0    0    0  501  0.00000000000E+00  0.00000000000E+00  0.13945961806E+04  0.13945961806E+04  0.50400001928E-02 0.  1.
        1   -1    0    0  501    0  0.00000000000E+00  0.00000000000E+00 -0.88356450803E+03  0.88356450805E+03  0.50400001928E-02 0. -1.
    10030    2    1    2    0    0  0.00000000000E+00  0.00000000000E+00  0.51103167257E+03  0.22781606887E+04  0.22201042212E+04 0.  0.
        2    1    3    3  502    0 -0.22732200712E+03 -0.31876432689E+03  0.13213939986E+04  0.13781756385E+04  0.25500000920E-02 0.  1.
       -2    1    3    3    0  502  0.22732200712E+03  0.31876432689E+03 -0.81036232604E+03  0.89998505015E+03  0.25500000920E-02 0. -1.
</event>
<event>
 5   0  0.1999883E-06  0.3494516E+04  0.7818609E-02  0.8115091E-01
        2   -1    0    0  501    0  0.00000000000E+00  0.00000000000E+00  0.18644887111E+04  0.18644887111E+04  0.25500000920E-02 0. -1.
       -2   -1    0    0    0  501  0.00000000000E+00  0.00000000000E+00 -0.16373983994E+04  0.16373983994E+04  0.25500000920E-02 0.  1.
    10030    2    1    2    0    0  0.00000000000E+00  0.00000000000E+00  0.22709031177E+03  0.35018871105E+04  0.34945161789E+04 0.  0.
        4    1    3    3  502    0  0.16423224167E+04 -0.58837098448E+03  0.15841388397E+02  0.17446076631E+04  0.12699999809E+01 0.  1.
       -4    1    3    3    0  502 -0.16423224167E+04  0.58837098448E+03  0.21124892337E+03  0.17572794474E+04  0.12699999809E+01 0. -1.
</event>
<event>
 5   0  0.2023479E-06  0.2385988E+04  0.7818609E-02  0.8444768E-01
       -2   -1    0    0    0  501  0.00000000000E+00  0.00000000000E+00  0.14131487276E+04  0.14131487276E+04  0.25500000920E-02 0. -1.
        2   -1    0    0  501    0  0.00000000000E+00  0.00000000000E+00 -0.10071376292E+04  0.10071376292E+04  0.25500000920E-02 0.  1.
    10030    2    1    2    0    0  0.00000000000E+00  0.00000000000E+00  0.40601109839E+03  0.24202863569E+04  0.23859884822E+04 0.  0.
        5    1    3    3  502    0  0.47169744927E+03 -0.52419334514E+03 -0.77308228518E+03  0.10464011928E+04  0.46999998093E+01 0.  1.
       -5    1    3    3    0  502 -0.47169744927E+03  0.52419334514E+03  0.11790933836E+04  0.13738851640E+04  0.46999998093E+01 0. -1.
</event>
<event>
 5   0  0.6890600E-07  0.3417749E+04  0.7818609E-02  0.8133564E-01
       -1   -1    0    0    0  501  0.00000000000E+00  0.00000000000E+00  0.18127369106E+04  0.18127369106E+04  0.50400001928E-02 0.  1.
        1   -1    0    0  501    0  0.00000000000E+00  0.00000000000E+00 -0.16109630420E+04  0.16109630420E+04  0.50400001928E-02 0. -1.
    10030    2    1    2    0    0  0.00000000000E+00  0.00000000000E+00  0.20177386864E+03  0.34236999526E+04  0.34177490650E+04 0.  0.
        3    1    3    3  502    0  0.14189266538E+04 -0.81204658878E+03  0.59922638249E+03  0.17412193368E+04  0.10100000352E+00 0.  1.
       -3    1    3    3    0  502 -0.14189266538E+04  0.81204658878E+03 -0.39745251385E+03  0.16824806157E+04  0.10100000352E+00 0. -1.
</event>
<event>
 5   0  0.2023479E-06  0.3482667E+04  0.7818609E-02  0.8117910E-01
        2   -1    0    0  501    0  0.00000000000E+00  0.00000000000E+00  0.11063870192E+04  0.11063870192E+04  0.25500000920E-02 0. -1.
       -2   -1    0    0    0  501  0.00000000000E+00  0.00000000000E+00 -0.27406702087E+04  0.27406702087E+04  0.25500000920E-02 0.  1.
    10030    2    1    2    0    0  0.00000000000E+00  0.00000000000E+00 -0.16342831895E+04  0.38470572279E+04  0.34826667615E+04 0.  0.
        5    1    3    3  502    0  0.10731522924E+04  0.90474027203E+03  0.32122157081E+03  0.14399361757E+04  0.46999998093E+01 0. -1.
       -5    1    3    3    0  502 -0.10731522924E+04 -0.90474027203E+03 -0.19555047603E+04  0.24071210522E+04  0.46999998093E+01 0.  1.
</event>
<event>
 5   0  0.6630125E-07  0.3551280E+04  0.7818609E-02  0.8101744E-01
        1   -1    0    0  501    0  0.00000000000E+00  0.00000000000E+00  0.21100469070E+04  0.21100469070E+04  0.50400001928E-02 0. -1.
       -1   -1    0    0    0  501  0.00000000000E+00  0.00000000000E+00 -0.14942308602E+04  0.14942308603E+04  0.50400001928E-02 0.  1.
    10030    2    1    2    0    0  0.00000000000E+00  0.00000000000E+00  0.61581604679E+03  0.36042777673E+04  0.35512798848E+04 0.  0.
        5    1    3    3  502    0  0.30175505160E+03 -0.30755110370E+03  0.20561802322E+04  0.21008434092E+04  0.46999998093E+01 0. -1.
       -5    1    3    3    0  502 -0.30175505160E+03  0.30755110370E+03 -0.14403641854E+04  0.15034343581E+04  0.46999998093E+01 0.  1.
</event>
<event>
 5   0  0.2020725E-06  0.3474906E+04  0.7818609E-02  0.8119763E-01
       -2   -1    0    0    0  501  0.00000000000E+00  0.00000000000E+00  0.21368822775E+04  0.21368822775E+04  0.25500000920E-02 0. -1.
        2   -1    0    0  501    0  0.00000000000E+00  0.00000000000E+00 -0.14126854770E+04  0.14126854770E+04  0.25500000920E-02 0.  1.
    10030    2    1    2    0    0  0.00000000000E+00  0.00000000000E+00  0.72419680056E+03  0.35495677545E+04  0.34749057883E+04 0.  0.
        3    1    3    3  502    0 -0.30398705245E+03  0.58210017653E+03  0.20052290448E+04  0.21100218662E+04  0.10100000352E+00 0. -1.
       -3    1    3    3    0  502  0.30398705245E+03 -0.58210017653E+03 -0.12810322442E+04  0.14395458883E+04  0.10100000352E+00 0.  1.
</event>
<event>
 5   0  0.2001768E-06  0.3458396E+04  0.7818609E-02  0.8123721E-01
       -2   -1    0    0    0  501  0.00000000000E+00  0.00000000000E+00  0.13115942628E+04  0.13115942628E+04  0.25500000920E-02 0.  1.
        2   -1    0    0  501    0  0.00000000000E+00  0.00000000000E+00 -0.22797643459E+04  0.22797643459E+04  0.25500000920E-02 0. -1.
    10030    2    1    2    0    0  0.00000000000E+00  0.00000000000E+00 -0.96817008309E+03  0.35913586087E+04  0.34583960656E+04 0.  0.
        2    1    3    3  502    0  0.93623384159E+03  0.11319914347E+04  0.46323040398E+03  0.15402989390E+04  0.25500000920E-02 0.  1.
       -2    1    3    3    0  502 -0.93623384159E+03 -0.11319914347E+04 -0.14314004871E+04  0.20510596697E+04  0.25500000920E-02 0. -1.
</event>
<event>
 5   0  0.6630125E-07  0.3423073E+04  0.7818609E-02  0.8132267E-01
       -1   -1    0    0    0  501  0.00000000000E+00  0.00000000000E+00  0.14852134667E+04  0.14852134667E+04  0.50400001928E-02 0. -1.
        1   -1    0    0  501    0  0.00000000000E+00  0.00000000000E+00 -0.19723475121E+04  0.19723475121E+04  0.50400001928E-02 0.  1.
    10030    2    1    2    0    0  0.00000000000E+00  0.00000000000E+00 -0.48713404540E+03  0.34575609788E+04  0.34230729387E+04 0.  0.
        1    1    3    3  502    0 -0.15335048262E+04 -0.10702191402E+03 -0.10036553621E+04  0.18358689572E+04  0.50400001928E-02 0. -1.
       -1    1    3    3    0  502  0.15335048262E+04  0.10702191402E+03  0.51652131673E+03  0.16216920216E+04  0.50400001928E-02 0.  1.
</event>
<event>
 5   0  0.6890600E-07  0.2220383E+04  0.7818609E-02  0.8509992E-01
       -1   -1    0    0    0  501  0.00000000000E+00  0.00000000000E+00  0.97862427849E+03  0.97862427850E+03  0.50400001928E-02 0.  1.
        1   -1    0    0  501    0  0.00000000000E+00  0.00000000000E+00 -0.12594464369E+04  0.12594464369E+04  0.50400001928E-02 0. -1.
    10030    2    1    2    0    0  0.00000000000E+00  0.00000000000E+00 -0.28082215844E+03  0.22380707154E+04  0.22203827244E+04 0.  0.
        3    1    3    3  502    0  0.20327026222E+03  0.32765386868E+02 -0.12400335825E+04  0.12570106070E+04  0.10100000352E+00 0. -1.
       -3    1    3    3    0  502 -0.20327026222E+03 -0.32765386868E+02  0.95921142409E+03  0.98106010845E+03  0.10100000352E+00 0.  1.
</event>
<event>
 5   0  0.1999883E-06  0.3553971E+04  0.7818609E-02  0.8101117E-01
       -2   -1    0    0    0  501  0.00000000000E+00  0.00000000000E+00  0.22471143412E+04  0.22471143412E+04  0.25500000920E-02 0.  1.
        2   -1    0    0  501    0  0.00000000000E+00  0.00000000000E+00 -0.14052143804E+04  0.14052143804E+04  0.25500000920E-02 0. -1.
    10030    2    1    2    0    0  0.00000000000E+00  0.00000000000E+00  0.84189996080E+03  0.36523287216E+04  0.35539709547E+04 0.  0.
        4    1    3    3  502    0  0.39763974277E+02 -0.14632205580E+04  0.14563452165E+04  0.20648337893E+04  0.12699999809E+01 0.  1.
       -4    1    3    3    0  502 -0.39763974277E+02  0.14632205580E+04 -0.61444525569E+03  0.15874949323E+04  0.12699999809E+01 0. -1.
</event>
<event>
 5   0  0.1999883E-06  0.3529195E+04  0.7818609E-02  0.8106906E-01
        2   -1    0    0  501    0  0.00000000000E+00  0.00000000000E+00  0.25270202460E+04  0.25270202460E+04  0.25500000920E-02 0.  1.
       -2   -1    0    0    0  501  0.00000000000E+00  0.00000000000E+00 -0.12322037418E+04  0.12322037418E+04  0.25500000920E-02 0. -1.
    10030    2    1    2    0    0  0.00000000000E+00  0.00000000000E+00  0.12948165041E+04  0.37592239878E+04  0.35291946972E+04 0.  0.
        4    1    3    3  502    0 -0.62967574346E+03 -0.15523300653E+04  0.56659170712E+02  0.16761360470E+04  0.12699999809E+01 0.  1.
       -4    1    3    3    0  502  0.62967574346E+03  0.15523300653E+04  0.12381573334E+04  0.20830879407E+04  0.12699999809E+01 0. -1.
</event>
<event>
 5   0  0.2073287E-06  0.3500725E+04  0.7818609E-02  0.8113618E-01
        2   -1    0    0  501    0  0.00000000000E+00  0.00000000000E+00  0.14469739100E+04  0.14469739100E+04  0.25500000920E-02 0.  1.
       -2   -1    0    0    0  501  0.00000000000E+00  0.00000000000E+00 -0.21173633663E+04  0.21173633663E+04  0.25500000920E-02 0. -1.
    10030    2    1    2    0    0  0.00000000000E+00  0.00000000000E+00 -0.67038945631E+03  0.35643372764E+04  0.35007253815E+04 0.  0.
        1    1    3    3  502    0  0.60806762777E+03 -0.84198508065E+03 -0.17697267300E+04  0.20519789996E+04  0.50400001928E-02 0. -1.
       -1    1    3    3    0  502 -0.60806762777E+03  0.84198508065E+03  0.10993372737E+04  0.15123582768E+04  0.50400001928E-02 0.  1.
</event>
<event>
 5   0  0.2023479E-06  0.3384291E+04  0.7818609E-02  0.8141773E-01
        2   -1    0    0  501    0  0.00000000000E+00  0.00000000000E+00  0.19983928087E+04  0.19983928087E+04  0.25500000920E-02 0.  1.
       -2   -1    0    0    0  501  0.00000000000E+00  0.00000000000E+00 -0.14328299056E+04  0.14328299056E+04  0.25500000920E-02 0. -1.
    10030    2    1    2    0    0  0.00000000000E+00  0.00000000000E+00  0.56556290307E+03  0.34312227143E+04  0.33842913465E+04 0.  0.
        5    1    3    3  502    0 -0.33352375771E+03 -0.92210405666E+03 -0.11154078437E+04  0.14851500719E+04  0.46999998093E+01 0. -1.
       -5    1    3    3    0  502  0.33352375771E+03  0.92210405666E+03  0.16809707467E+04  0.19460726424E+04  0.46999998093E+01 0.  1.
</event>
<event>
 5   0  0.6890600E-07  0.2572867E+04  0.7818609E-02  0.8377476E-01
        1   -1    0    0  501    0  0.00000000000E+00  0.00000000000E+00  0.12425414406E+04  0.12425414406E+04  0.50400001928E-02 0.  1.
       -1   -1    0    0    0  501  0.00000000000E+00  0.00000000000E+00 -0.13318764551E+04  0.13318764551E+04  0.50400001928E-02 0. -1.
    10030    2    1    2    0    0  0.00000000000E+00  0.00000000000E+00 -0.89335014439E+02  0.25744178957E+04  0.25728674192E+04 0.  0.
        3    1    3    3  502    0  0.11197622626E+04  0.39721992879E+03 -0.53817916962E+03  0.13043343227E+04  0.10100000352E+00 0. -1.
       -3    1    3    3    0  502 -0.11197622626E+04 -0.39721992879E+03  0.44884415518E+03  0.12700835730E+04  0.10100000352E+00 0.  1.
</event>
<event>
 5   0  0.6630125E-07  0.3525118E+04  0.7818609E-02  0.8107863E-01
       -1   -1    0    0    0  501  0.00000000000E+00  0.00000000000E+00  0.17047129713E+04  0.17047129713E+04  0.50400001928E-02 0. -1.
        1   -1    0    0  501    0  0.00000000000E+00  0.00000000000E+00 -0.18223678071E+04  0.18223678071E+04  0.50400001928E-02 0.  1.
    10030    2    1    2    0    0  0.00000000000E+00  0.00000000000E+00 -0.11765483575E+03  0.35270807784E+04  0.35251178926E+04 0.  0.
        1    1    3    3  502    0 -0.97999518067E+02  0.15043338192E+04  0.85491156634E+03  0.17330602792E+04  0.50400001928E-02 0. -1.
       -1    1    3    3    0  502  0.97999518067E+02 -0.15043338192E+04 -0.97256640209E+03  0.17940204992E+04  0.50400001928E-02 0.  1.
</event>
<event>
 5   0  0.2001768E-06  0.3477361E+04  0.7818609E-02  0.8119176E-01
       -2   -1    0    0    0  501  0.00000000000E+00  0.00000000000E+00  0.17046600567E+04  0.17046600567E+04  0.25500000920E-02 0.  1.
        2   -1    0    0  501    0  0.00000000000E+00  0.00000000000E+00 -0.17733800633E+04  0.17733800633E+04  0.25500000920E-02 0. -1.
    10030    2    1    2    0    0  0.00000000000E+00  0.00000000000E+00 -0.68720006656E+02  0.34780401200E+04  0.34773611600E+04 0.  0.
        2    1    3    3  502    0  0.67735920997E+03 -0.14688425770E+04 -0.67221184783E+03  0.17516228999E+04  0.25500000920E-02 0.  1.
       -2    1    3    3    0  502 -0.67735920997E+03  0.14688425770E+04  0.60349184117E+03  0.17264172200E+04  0.25500000920E-02 0. -1.
</event>
<event>
 5   0  0.6630125E-07  0.3231972E+04  0.7818609E-02  0.8180424E-01
        1   -1    0    0  501    0  0.00000000000E+00  0.00000000000E+00  0.16428837222E+04  0.16428837222E+04  0.50400001928E-02 0. -1.
       -1   -1    0    0    0  501  0.00000000000E+00  0.00000000000E+00 -0.15895281762E+04  0.15895281762E+04  0.50400001928E-02 0.  1.
    10030    2    1    2    0    0  0.00000000000E+00  0.00000000000E+00  0.53355545983E+02  0.32324118985E+04  0.32319715140E+04 0.  0.
        5    1    3    3  502    0  0.36938303183E+02  0.70980866775E+03 -0.14247935867E+04  0.15922473544E+04  0.46999998093E+01 0.  1.
       -5    1    3    3    0  502 -0.36938303183E+02 -0.70980866775E+03  0.14781491327E+04  0.16401645440E+04  0.46999998093E+01 0. -1.
</event>
<event>
 5   0  0.6890600E-07  0.3400538E+04  0.7818609E-02  0.8137774E-01
       -1   -1    0    0    0  501  0.00000000000E+00  0.00000000000E+00  0.14120360105E+04  0.14120360105E+04  0.50400001928E-02 0. -1.
        1   -1    0    0  501    0  0.00000000000E+00  0.00000000000E+00 -0.20473382121E+04  0.20473382121E+04  0.50400001928E-02 0.  1.
    10030    2    1    2    0    0  0.00000000000E+00  0.00000000000E+00 -0.63530220161E+03  0.34593742226E+04  0.34005383581E+04 0.  0.
        3    1    3    3  502    0 -0.27683715147E+03 -0.16562031405E+04 -0.46072219851E+02  0.16798125820E+04  0.10100000352E+00 0. -1.
       -3    1    3    3    0  502  0.27683715147E+03  0.16562031405E+04 -0.58922998176E+03  0.17795616406E+04  0.10100000352E+00 0.  1.
</event>
<event>
 5   0  0.7378896E-07  0.2169685E+04  0.7818609E-02  0.8531153E-01
        1   -1    0    0  501    0  0.00000000000E+00  0.00000000000E+00  0.11003846817E+04  0.11003846817E+04  0.50400001928E-02 0. -1.
       -1   -1    0    0    0  501  0.00000000000E+00  0.00000000000E+00 -0.10695198320E+04  0.10695198320E+04  0.50400001928E-02 0.  1.
    10030    2    1    2    0    0  0.00000000000E+00  0.00000000000E+00  0.30864849666E+02  0.21699045137E+04  0.21696849909E+04 0.  0.
        2    1    3    3  502    0  0.33019872901E+03  0.98704667460E+03  0.32138967832E+03  0.10893042109E+04  0.25500000920E-02 0. -1.
       -2    1    3    3    0  502 -0.33019872901E+03 -0.98704667460E+03 -0.29052482865E+03  0.10806003029E+04  0.25500000920E-02 0.  1.
</event>
<event>
 5   0  0.2001768E-06  0.3688505E+04  0.7818609E-02  0.8070514E-01
       -2   -1    0    0    0  501  0.00000000000E+00  0.00000000000E+00  0.18837499404E+04  0.18837499404E+04  0.25500000920E-02 0. -1.
        2   -1    0    0  501    0  0.00000000000E+00  0.00000000000E+00 -0.18055835779E+04  0.18055835779E+04  0.25500000920E-02 0.  1.
    10030    2    1    2    0    0  0.00000000000E+00  0.00000000000E+00  0.78166362443E+02  0.36893335183E+04  0.36885053652E+04 0.  0.
        2    1    3    3  502    0 -0.16740150774E+04 -0.41004767403E+03  0.69558592633E+03  0.18585761634E+04  0.25500000920E-02 0. -1.
       -2    1    3    3    0  502  0.16740150774E+04  0.41004767403E+03 -0.61741956389E+03  0.18307573548E+04  0.25500000920E-02 0.  1.
</event>
<event>
 5   0  0.2020725E-06  0.3092051E+04  0.7818609E-02  0.8217923E-01
       -2   -1    0    0    0  501  0.00000000000E+00  0.00000000000E+00  0.11889668319E+04  0.11889668319E+04  0.25500000920E-02 0. -1.
        2   -1    0    0  501    0  0.00000000000E+00  0.00000000000E+00 -0.20103125773E+04  0.20103125773E+04  0.25500000920E-02 0.  1.
    10030    2    1    2    0    0  0.00000000000E+00  0.00000000000E+00 -0.82134574538E+03  0.31992794092E+04  0.30920510838E+04 0.  0.
        3    1    3    3  502    0 -0.66778671742E+03 -0.10317794860E+04  0.55976913417E+03  0.13504997229E+04  0.10100000352E+00 0. -1.
       -3    1    3    3    0  502  0.66778671742E+03  0.10317794860E+04 -0.13811148795E+04  0.18487796863E+04  0.10100000352E+00 0.  1.
</event>
<event>
 5   0  0.6630125E-07  0.3423498E+04  0.7818609E-02  0.8132163E-01
        1   -1    0    0  501    0  0.00000000000E+00  0.00000000000E+00  0.27749486420E+04  0.27749486420E+04  0.50400001928E-02 0. -1.
       -1   -1    0    0    0  501  0.00000000000E+00  0.00000000000E+00 -0.10559061754E+04  0.10559061755E+04  0.50400001928E-02 0.  1.
    10030    2    1    2    0    0  0.00000000000E+00  0.00000000000E+00  0.17190424666E+04  0.38308548175E+04  0.34234984491E+04 0.  0.
        5    1    3    3  502    0  0.10931313926E+04 -0.13102152441E+04  0.10115681987E+04  0.19836563558E+04  0.46999998093E+01 0. -1.
       -5    1    3    3    0  502 -0.10931313926E+04  0.13102152441E+04  0.70747426783E+03  0.18471984617E+04  0.46999998093E+01 0.  1.
</event>
<event>
 5   0  0.6630125E-07  0.3503567E+04  0.7818609E-02  0.8112945E-01
        1   -1    0    0  501    0  0.00000000000E+00  0.00000000000E+00  0.10512690220E+04  0.10512690220E+04  0.50400001928E-02 0.  1.
       -1   -1    0    0    0  501  0.00000000000E+00  0.00000000000E+00 -0.29190872286E+04  0.29190872286E+04  0.50400001928E-02 0. -1.
    10030    2    1    2    0    0  0.00000000000E+00  0.00000000000E+00 -0.18678182066E+04  0.39703562506E+04  0.35035673112E+04 0.  0.
        1    1    3    3  502    0 -0.10780925293E+04  0.10906712591E+04 -0.18934155590E+04  0.24365692636E+04  0.50400001928E-02 0.  1.
       -1    1    3    3    0  502  0.10780925293E+04 -0.10906712591E+04  0.25597352395E+02  0.15337869870E+04  0.50400001928E-02 0. -1.
</event>
<event>
 5   0  0.6890600E-07  0.3576323E+04  0.7818609E-02  0.8095937E-01
        1   -1    0    0  501    0  0.00000000000E+00  0.00000000000E+00  0.23742828608E+04  0.23742828608E+04  0.50400001928E-02 0.  1.
       -1   -1    0    0    0  501  0.00000000000E+00  0.00000000000E+00 -0.13467315534E+04  0.13467315534E+04  0.50400001928E-02 0. -1.
    10030    2    1    2    0    0  0.00000000000E+00  0.00000000000E+00  0.10275513075E+04  0.37210144142E+04  0.35763230533E+04 0.  0.
        3    1    3    3  502    0  0.11438686592E+04 -0.12742035237E+04 -0.22329429909E+02  0.17124627713E+04  0.10100000352E+00 0. -1.
       -3    1    3    3    0  502 -0.11438686592E+04  0.12742035237E+04  0.10498807374E+04  0.20085516429E+04  0.10100000352E+00 0.  1.
</event>
<event>
 5   0  0.2023479E-06  0.3494073E+04  0.7818609E-02  0.8115196E-01
       -2   -1    0    0    0  501  0.00000000000E+00  0.00000000000E+00  0.14038656555E+04  0.14038656555E+04  0.25500000920E-02 0.  1.
        2   -1    0    0  501    0  0.00000000000E+00  0.00000000000E+00 -0.21740939781E+04  0.21740939781E+04  0.25500000920E-02 0. -1.
    10030    2    1    2    0    0  0.00000000000E+00  0.00000000000E+00 -0.77022832257E+03  0.35779596336E+04  0.34940726195E+04 0.  0.
        5    1    3    3  502    0 -0.16146140257E+04  0.61920383006E+03 -0.13071053203E+03  0.17342142798E+04  0.46999998093E+01 0. -1.
       -5    1    3    3    0  502  0.16146140257E+04 -0.61920383006E+03 -0.63951779053E+03  0.18437453538E+04  0.46999998093E+01 0.  1.
</event>
<event>
 5   0  0.6630125E-07  0.2143130E+04  0.7818609E-02  0.8542479E-01
       -3   -1    0    0    0  501  0.00000000000E+00  0.00000000000E+00  0.65291025496E+03  0.65291026277E+03  0.10100000352E+00 0.  1.
        3   -1    0    0  501    0  0.00000000000E+00  0.00000000000E+00 -0.17586662029E+04  0.17586662058E+04  0.10100000352E+00 0. -1.
    10030    2    1    2    0    0  0.00000000000E+00  0.00000000000E+00 -0.11057559480E+04  0.24115764686E+04  0.21431296852E+04 0.  0.
        4    1    3    3  502    0  0.41460048648E+03 -0.35872945249E+03  0.48313642455E+03  0.73075495284E+03  0.12699999809E+01 0.  1.
       -4    1    3    3    0  502 -0.41460048648E+03  0.35872945249E+03 -0.15888923725E+04  0.16808215157E+04  0.12699999809E+01 0. -1.
</event>
<event>
 5   0  0.2001768E-06  0.3517858E+04  0.7818609E-02  0.8109571E-01
        2   -1    0    0  501    0  0.00000000000E+00  0.00000000000E+00  0.11484410376E+04  0.11484410376E+04  0.25500000920E-02 0.  1.
       -2   -1    0    0    0  501  0.00000000000E+00  0.00000000000E+00 -0.26939406319E+04  0.26939406319E+04  0.25500000920E-02 0. -1.
    10030    2    1    2    0    0  0.00000000000E+00  0.00000000000E+00 -0.15454995943E+04  0.38423816695E+04  0.35178584250E+04 0.  0.
        2    1    3    3  502    0 -0.19458685950E+03 -0.10059096207E+04  0.78886773302E+03  0.12930701880E+04  0.25500000920E-02 0.  1.
       -2    1    3    3    0  502  0.19458685950E+03  0.10059096207E+04 -0.23343673273E+04  0.25493114815E+04  0.25500000920E-02 0. -1.
</event>
<event>
 5   0  0.2001768E-06  0.3472698E+04  0.7818609E-02  0.8120291E-01
       -2   -1    0    0    0  501  0.00000000000E+00  0.00000000000E+00  0.25419043014E+04  0.25419043014E+04  0.25500000920E-02 0.  1.
        2   -1    0    0  501    0  0.00000000000E+00  0.00000000000E+00 -0.11860822730E+04  0.11860822730E+04  0.25500000920E-02 0. -1.
    10030    2    1    2    0    0  0.00000000000E+00  0.00000000000E+00  0.13558220284E+04  0.37279865744E+04  0.34726978744E+04 0.  0.
        2    1    3    3  502    0 -0.54509937504E+03  0.34420425882E+03  0.24086650473E+04  0.24934468533E+04  0.25500000920E-02 0.  1.
       -2    1    3    3    0  502  0.54509937504E+03 -0.34420425882E+03 -0.10528430189E+04  0.12345397211E+04  0.25500000920E-02 0. -1.
</event>
<event>
 5   0  0.2023479E-06  0.3576877E+04  0.7818609E-02  0.8095809E-01
        2   -1    0    0  501    0  0.00000000000E+00  0.00000000000E+00  0.10700435016E+04  0.10700435016E+04  0.25500000920E-02 0.  1.
       -2   -1    0    0    0  501  0.00000000000E+00  0.00000000000E+00 -0.29891427441E+04  0.29891427441E+04  0.25500000920E-02 0. -1.
    10030    2    1    2    0    0  0.00000000000E+00  0.00000000000E+00 -0.19190992426E+04  0.40591862457E+04  0.35768772798E+04 0.  0.
        5    1    3    3  502    0  0.60377455980E+03 -0.82541800364E+02  0.94858108546E+03  0.11274684180E+04  0.46999998093E+01 0.  1.
       -5    1    3    3    0  502 -0.60377455980E+03  0.82541800364E+02 -0.28676803280E+04  0.29317178277E+04  0.46999998093E+01 0. -1.
</event>
<event>
 5   0  0.2073287E-06  0.3601995E+04  0.7818609E-02  0.8090035E-01
       -2   -1    0    0    0  501  0.00000000000E+00  0.00000000000E+00  0.20562450509E+04  0.20562450509E+04  0.25500000920E-02 0. -1.
        2   -1    0    0  501    0  0.00000000000E+00  0.00000000000E+00 -0.15774348295E+04  0.15774348295E+04  0.25500000920E-02 0.  1.
    10030    2    1    2    0    0  0.00000000000E+00  0.00000000000E+00  0.47881022148E+03  0.36336798804E+04  0.36019953144E+04 0.  0.
        1    1    3    3  502    0 -0.49439153413E+03  0.67980781832E+03 -0.13674118204E+04  0.16051095743E+04  0.50400001928E-02 0.  1.
       -1    1    3    3    0  502  0.49439153413E+03 -0.67980781832E+03  0.18462220419E+04  0.20285703061E+04  0.50400001928E-02 0. -1.
</event>
<event>
 5   0  0.2001768E-06  0.2897279E+04  0.7818609E-02  0.8273687E-01
        2   -1    0    0  501    0  0.00000000000E+00  0.00000000000E+00  0.14961244234E+04  0.14961244234E+04  0.25500000920E-02 0. -1.
       -2   -1    0    0    0  501  0.00000000000E+00  0.00000000000E+00 -0.14026621180E+04  0.14026621180E+04  0.25500000920E-02 0.  1.
    10030    2    1    2    0    0  0.00000000000E+00  0.00000000000E+00  0.93462305405E+02  0.28987865414E+04  0.28972794498E+04 0.  0.
        2    1    3    3  502    0  0.11340737125E+04 -0.86168124956E+03  0.31132909564E+03  0.14579244038E+04  0.25500000920E-02 0.  1.
       -2    1    3    3    0  502 -0.11340737125E+04  0.86168124956E+03 -0.21786679024E+03  0.14408621376E+04  0.25500000920E-02 0. -1.
</event>
<event>
 5   0  0.2073287E-06  0.3514953E+04  0.7818609E-02  0.8110256E-01
       -2   -1    0    0    0  501  0.00000000000E+00  0.00000000000E+00  0.12546187557E+04  0.12546187557E+04  0.25500000920E-02 0.  1.
        2   -1    0    0  501    0  0.00000000000E+00  0.00000000000E+00 -0.24618816104E+04  0.24618816104E+04  0.25500000920E-02 0. -1.
    10030    2    1    2    0    0  0.00000000000E+00  0.00000000000E+00 -0.12072628547E+04  0.37165003661E+04  0.35149525418E+04 0.  0.
        1    1    3    3  502    0  0.12672199419E+04 -0.94331434999E+03 -0.14178756644E+04  0.21227481583E+04  0.50400001928E-02 0. -1.
       -1    1    3    3    0  502 -0.12672199419E+04  0.94331434999E+03  0.21061280968E+03  0.15937522078E+04  0.50400001928E-02 0.  1.
</event>
<event>
 5   0  0.6630125E-07  0.3529178E+04  0.7818609E-02  0.8106910E-01
        1   -1    0    0  501    0  0.00000000000E+00  0.00000000000E+00  0.14035475449E+04  0.14035475449E+04  0.50400001928E-02 0.  1.
       -1   -1    0    0    0  501  0.00000000000E+00  0.00000000000E+00 -0.22185030432E+04  0.22185030432E+04  0.50400001928E-02 0. -1.
    10030    2    1    2    0    0  0.00000000000E+00  0.00000000000E+00 -0.81495549834E+03  0.36220505881E+04  0.35291780911E+04 0.  0.
        4    1    3    3  502    0 -0.87164525908E+03  0.92935439986E+03  0.84542951893E+03  0.15291231941E+04  0.12699999809E+01 0.  1.
       -4    1    3    3    0  502  0.87164525908E+03 -0.92935439986E+03 -0.16603850173E+04  0.20929273940E+04  0.12699999809E+01 0. -1.
</event>
<event>
 5   0  0.6630125E-07  0.3450703E+04  0.7818609E-02  0.8125573E-01
       -1   -1    0    0    0  501  0.00000000000E+00  0.00000000000E+00  0.18326075572E+04  0.18326075572E+04  0.50400001928E-02 0. -1.
        1   -1    0    0  501    0  0.00000000000E+00  0.00000000000E+00 -0.16243730284E+04  0.16243730284E+04  0.50400001928E-02 0.  1.
    10030    2    1    2    0    0  0.00000000000E+00  0.00000000000E+00  0.20823452880E+03  0.34569805856E+04  0.34507032834E+04 0.  0.
        4    1    3    3  502    0  0.12554439496E+04 -0.70609296978E+03 -0.84741574256E+03  0.16711737929E+04  0.12699999809E+01 0.  1.
       -4    1    3    3    0  502 -0.12554439496E+04  0.70609296978E+03  0.10556502714E+04  0.17858067927E+04  0.12699999809E+01 0. -1.
</event>
<event>
 5   0  0.6630125E-07  0.3444092E+04  0.7818609E-02  0.8127169E-01
        1   -1    0    0  501    0  0.00000000000E+00  0.00000000000E+00  0.31280349616E+04  0.31280349616E+04  0.50400001928E-02 0.  1.
       -1   -1    0    0    0  501  0.00000000000E+00  0.00000000000E+00 -0.94802083740E+03  0.94802083741E+03  0.50400001928E-02 0. -1.
    10030    2    1    2    0    0  0.00000000000E+00  0.00000000000E+00  0.21800141242E+04  0.40760557990E+04  0.34440919405E+04 0.  0.
        4    1    3    3  502    0  0.77645185999E+03  0.10121690674E+04  0.24590149071E+04  0.27702201426E+04  0.12699999809E+01 0.  1.
       -4    1    3    3    0  502 -0.77645185999E+03 -0.10121690674E+04 -0.27900078296E+03  0.13058356564E+04  0.12699999809E+01 0. -1.
</event>
<event>
 5   0  0.1999883E-06  0.3399345E+04  0.7818609E-02  0.8138067E-01
        2   -1    0    0  501    0  0.00000000000E+00  0.00000000000E+00  0.15160056738E+04  0.15160056738E+04  0.25500000920E-02 0. -1.
       -2   -1    0    0    0  501  0.00000000000E+00  0.00000000000E+00 -0.19055907017E+04  0.19055907017E+04  0.25500000920E-02 0.  1.
    10030    2    1    2    0    0  0.00000000000E+00  0.00000000000E+00 -0.38958502789E+03  0.34215963755E+04  0.33993448285E+04 0.  0.
        4    1    3    3  502    0 -0.11078099086E+04  0.12852320142E+04 -0.95044995236E+02  0.16994408751E+04  0.12699999809E+01 0. -1.
       -4    1    3    3    0  502  0.11078099086E+04 -0.12852320142E+04 -0.29454003266E+03  0.17221555004E+04  0.12699999809E+01 0.  1.
</event>
<event>
 5   0  0.6630125E-07  0.3442654E+04  0.7818609E-02  0.8127516E-01
        1   -1    0    0  501    0  0.00000000000E+00  0.00000000000E+00  0.16757172915E+04  0.16757172915E+04  0.50400001928E-02 0.  1.
       -1   -1    0    0    0  501  0.00000000000E+00  0.00000000000E+00 -0.17681777401E+04  0.17681777401E+04  0.50400001928E-02 0. -1.
    10030    2    1    2    0    0  0.00000000000E+00  0.00000000000E+00 -0.92460448605E+02  0.34438950317E+04  0.34426536356E+04 0.  0.
        5    1    3    3  502    0 -0.64793757228E+03 -0.19503220640E+03  0.15370859855E+04  0.16794392147E+04  0.46999998093E+01 0.  1.
       -5    1    3    3    0  502  0.64793757228E+03  0.19503220640E+03 -0.16295464341E+04  0.17644558169E+04  0.46999998093E+01 0. -1.
</event>
<event>
 5   0  0.7378896E-07  0.2288818E+04  0.7818609E-02  0.8482343E-01
        1   -1    0    0  501    0  0.00000000000E+00  0.00000000000E+00  0.14013176469E+04  0.14013176469E+04  0.50400001928E-02 0. -1.
       -1   -1    0    0    0  501  0.00000000000E+00  0.00000000000E+00 -0.93460025036E+03  0.93460025037E+03  0.50400001928E-02 0.  1.
    10030    2    1    2    0    0  0.00000000000E+00  0.00000000000E+00  0.46671739650E+03  0.23359178972E+04  0.22888178814E+04 0.  0.
        2    1    3    3  502    0  0.40699981709E+03 -0.96814816167E+03  0.69737078776E+03  0.12606687629E+04  0.25500000920E-02 0. -1.
       -2    1    3    3    0  502 -0.40699981709E+03  0.96814816167E+03 -0.23065339125E+03  0.10752491344E+04  0.25500000920E-02 0.  1.
</event>
<event>
 5   0  0.6630125E-07  0.3344013E+04  0.7818609E-02  0.8151786E-01
        1   -1    0    0  501    0  0.00000000000E+00  0.00000000000E+00  0.14852608826E+04  0.14852608826E+04  0.50400001928E-02 0.  1.
       -1   -1    0    0    0  501  0.00000000000E+00  0.00000000000E+00 -0.18822319769E+04  0.18822319769E+04  0.50400001928E-02 0. -1.
    10030    2    1    2    0    0  0.00000000000E+00  0.00000000000E+00 -0.39697109433E+03  0.33674928595E+04  0.33440128751E+04 0.  0.
        4    1    3    3  502    0 -0.38614096861E+03  0.51574336273E+03  0.13552372987E+04  0.15005884887E+04  0.12699999809E+01 0.  1.
       -4    1    3    3    0  502  0.38614096861E+03 -0.51574336273E+03 -0.17522083930E+04  0.18669043707E+04  0.12699999809E+01 0. -1.
</event>
<event>
 5   0  0.6630125E-07  0.2292127E+04  0.7818609E-02  0.8481032E-01
       -1   -1    0    0    0  501  0.00000000000E+00  0.00000000000E+00  0.11013497294E+04  0.11013497294E+04  0.50400001928E-02 0.  1.
        1   -1    0    0  501    0  0.00000000000E+00  0.00000000000E+00 -0.11925930329E+04  0.11925930329E+04  0.50400001928E-02 0. -1.
    10030    2    1    2    0    0  0.00000000000E+00  0.00000000000E+00 -0.91243303502E+02  0.22939427624E+04  0.22921274085E+04 0.  0.
        4    1    3    3  502    0  0.45444612822E+02  0.10709430314E+04  0.36025621647E+03  0.11308272829E+04  0.12699999809E+01 0.  1.
       -4    1    3    3    0  502 -0.45444612822E+02 -0.10709430314E+04 -0.45149951997E+03  0.11631154795E+04  0.12699999809E+01 0. -1.
</event>
<event>
 5   0  0.2020725E-06  0.2302315E+04  0.7818609E-02  0.8477009E-01
       -2   -1    0    0    0  501  0.00000000000E+00  0.00000000000E+00  0.88933222770E+03  0.88933222770E+03  0.25500000920E-02 0. -1.
        2   -1    0    0  501    0  0.00000000000E+00  0.00000000000E+00 -0.14900657801E+04  0.14900657801E+04  0.25500000920E-02 0.  1.
    10030    2    1    2    0    0  0.00000000000E+00  0.00000000000E+00 -0.60073355243E+03  0.23793980078E+04  0.23023149391E+04 0.  0.
        3    1    3    3  502    0  0.10184167695E+03 -0.53434163325E+03 -0.13488637673E+04  0.14544160963E+04  0.10100000352E+00 0.  1.
       -3    1    3    3    0  502 -0.10184167695E+03  0.53434163325E+03  0.74813021484E+03  0.92498191158E+03  0.10100000352E+00 0. -1.
</event>
<event>
 5   0  0.7378896E-07  0.2653797E+04  0.7818609E-02  0.8350154E-01
        1   -1    0    0  501    0  0.00000000000E+00  0.00000000000E+00  0.96931804966E+03  0.96931804968E+03  0.50400001928E-02 0. -1.
       -1   -1    0    0    0  501  0.00000000000E+00  0.00000000000E+00 -0.18163902504E+04  0.18163902504E+04  0.50400001928E-02 0.  1.
    10030    2    1    2    0    0  0.00000000000E+00  0.00000000000E+00 -0.84707220073E+03  0.27857083001E+04  0.26537971701E+04 0.  0.
        2    1    3    3  502    0 -0.10029722464E+04  0.84184244556E+03 -0.19837997733E+03  0.13243891594E+04  0.25500000920E-02 0. -1.
       -2    1    3    3    0  502  0.10029722464E+04 -0.84184244556E+03 -0.64869222340E+03  0.14613191407E+04  0.25500000920E-02 0.  1.
</event>
<event>
 5   0  0.2020725E-06  0.3432795E+04  0.7818609E-02  0.8129904E-01
        2   -1    0    0  501    0  0.00000000000E+00  0.00000000000E+00  0.10069363724E+04  0.10069363724E+04  0.25500000920E-02 0. -1.
       -2   -1    0    0    0  501  0.00000000000E+00  0.00000000000E+00 -0.29257265092E+04  0.29257265092E+04  0.25500000920E-02 0.  1.
    10030    2    1    2    0    0  0.00000000000E+00  0.00000000000E+00 -0.19187901368E+04  0.39326628815E+04  0.34327950348E+04 0.  0.
        3    1    3    3  502    0  0.49733469859E+03 -0.11293859889E+04  0.40728421845E+03  0.12995133547E+04  0.10100000352E+00 0. -1.
       -3    1    3    3    0  502 -0.49733469859E+03  0.11293859889E+04 -0.23260743552E+04  0.26331495268E+04  0.10100000352E+00 0.  1.
</event>
<event>
 5   0  0.6630125E-07  0.3636430E+04  0.7818609E-02  0.8082198E-01
       -1   -1    0    0    0  501  0.00000000000E+00  0.00000000000E+00  0.34070376968E+04  0.34070376968E+04  0.50400001928E-02 0. -1.
        1   -1    0    0  501    0  0.00000000000E+00  0.00000000000E+00 -0.97031671659E+03  0.97031671660E+03  0.50400001928E-02 0.  1.
    10030    2    1    2    0    0  0.00000000000E+00  0.00000000000E+00  0.24367209802E+04  0.43773544134E+04  0.36364299148E+04 0.  0.
        5    1    3    3  502    0  0.49490595046E+03 -0.53568936601E+03  0.32232425081E+04  0.33047253067E+04  0.46999998093E+01 0. -1.
       -5    1    3    3    0  502 -0.49490595046E+03  0.53568936601E+03 -0.78652152791E+03  0.10726291067E+04  0.46999998093E+01 0.  1.
</event>
<event>
 5   0  0.2020725E-06  0.2471886E+04  0.7818609E-02  0.8413070E-01
        2   -1    0    0  501    0  0.00000000000E+00  0.00000000000E+00  0.14789083272E+04  0.14789083272E+04  0.25500000920E-02 0. -1.
       -2   -1    0    0    0  501  0.00000000000E+00  0.00000000000E+00 -0.10328937038E+04  0.10328937038E+04  0.25500000920E-02 0.  1.
    10030    2    1    2    0    0  0.00000000000E+00  0.00000000000E+00  0.44601462339E+03  0.25118020310E+04  0.24718860003E+04 0.  0.
        3    1    3    3  502    0 -0.83976993202E+03 -0.49840225043E+02 -0.69707388875E+03  0.10925244177E+04  0.10100000352E+00 0.  1.
       -3    1    3    3    0  502  0.83976993202E+03  0.49840225043E+02  0.11430885121E+04  0.14192776133E+04  0.10100000352E+00 0. -1.
</event>
<event>
 5   0  0.6890600E-07  0.3520341E+04  0.7818609E-02  0.8108986E-01
        1   -1    0    0  501    0  0.00000000000E+00  0.00000000000E+00  0.21068953332E+04  0.21068953332E+04  0.50400001928E-02 0.  1.
       -1   -1    0    0    0  501  0.00000000000E+00  0.00000000000E+00 -0.14705050230E+04  0.14705050230E+04  0.50400001928E-02 0. -1.
    10030    2    1    2    0    0  0.00000000000E+00  0.00000000000E+00  0.63639031016E+03  0.35774003562E+04  0.35203409894E+04 0.  0.
        3    1    3    3  502    0 -0.14729388854E+04 -0.87108150455E+03 -0.10063589608E+03  0.17141935543E+04  0.10100000352E+00 0. -1.
       -3    1    3    3    0  502  0.14729388854E+04  0.87108150455E+03  0.73702620624E+03  0.18632068019E+04  0.10100000352E+00 0.  1.
</event>
<event>
 5   0  0.6630125E-07  0.3477849E+04  0.7818609E-02  0.8119060E-01
       -1   -1    0    0    0  501  0.00000000000E+00  0.00000000000E+00  0.96328371812E+03  0.96328371814E+03  0.50400001928E-02 0.  1.
        1   -1    0    0  501    0  0.00000000000E+00  0.00000000000E+00 -0.31391147365E+04  0.31391147365E+04  0.50400001928E-02 0. -1.
    10030    2    1    2    0    0  0.00000000000E+00  0.00000000000E+00 -0.21758310184E+04  0.41023984547E+04  0.34778488265E+04 0.  0.
        5    1    3    3  502    0 -0.24440306731E+03  0.16627688924E+04 -0.56131192136E+03  0.17718990975E+04  0.46999998093E+01 0.  1.
       -5    1    3    3    0  502  0.24440306731E+03 -0.16627688924E+04 -0.16145190971E+04  0.23304993571E+04  0.46999998093E+01 0. -1.
</event>
<event>
 5   0  0.2020725E-06  0.3778173E+04  0.7818609E-02  0.8050855E-01
       -2   -1    0    0    0  501  0.00000000000E+00  0.00000000000E+00  0.25341782983E+04  0.25341782983E+04  0.25500000920E-02 0. -1.
        2   -1    0    0  501    0  0.00000000000E+00  0.00000000000E+00 -0.14082074370E+04  0.14082074370E+04  0.25500000920E-02 0.  1.
    10030    2    1    2    0    0  0.00000000000E+00  0.00000000000E+00  0.11259708613E+04  0.39423857353E+04  0.37781734880E+04 0.  0.
        3    1    3    3  502    0 -0.63832328038E+02  0.41585466980E+03 -0.13586988233E+04  0.14223474172E+04  0.10100000352E+00 0.  1.
       -3    1    3    3    0  502  0.63832328038E+02 -0.41585466980E+03  0.24846696846E+04  0.25200383180E+04  0.10100000352E+00 0. -1.
</event>
<event>
 5   0  0.6890600E-07  0.3525465E+04  0.7818609E-02  0.8107781E-01
       -1   -1    0    0    0  501  0.00000000000E+00  0.00000000000E+00  0.10806945273E+04  0.10806945273E+04  0.50400001928E-02 0.  1.
        1   -1    0    0  501    0  0.00000000000E+00  0.00000000000E+00 -0.28752117789E+04  0.28752117789E+04  0.50400001928E-02 0. -1.
    10030    2    1    2    0    0  0.00000000000E+00  0.00000000000E+00 -0.17945172516E+04  0.39559063062E+04  0.35254648682E+04 0.  0.
        3    1    3    3  502    0  0.78731826074E+03  0.13510130601E+04  0.15798030172E+02  0.15637633837E+04  0.10100000352E+00 0.  1.
       -3    1    3    3    0  502 -0.78731826074E+03 -0.13510130601E+04 -0.18103152818E+04  0.23921429225E+04  0.10100000352E+00 0. -1.
</event>
<event>
 5   0  0.7378896E-07  0.2961482E+04  0.7818609E-02  0.8254816E-01
       -1   -1    0    0    0  501  0.00000000000E+00  0.00000000000E+00  0.96308134759E+03  0.96308134760E+03  0.50400001928E-02 0. -1.
        1   -1    0    0  501    0  0.00000000000E+00  0.00000000000E+00 -0.22766444698E+04  0.22766444698E+04  0.50400001928E-02 0.  1.
    10030    2    1    2    0    0  0.00000000000E+00  0.00000000000E+00 -0.13135631222E+04  0.32397258174E+04  0.29614819425E+04 0.  0.
        2    1    3    3  502    0 -0.82461621933E+03 -0.40628272071E+03  0.61311807545E+03  0.11049757159E+04  0.25500000920E-02 0. -1.
       -2    1    3    3    0  502  0.82461621933E+03  0.40628272071E+03 -0.19266811976E+04  0.21347501015E+04  0.25500000920E-02 0.  1.
</event>
<event>
 5   0  0.2001768E-06  0.3287901E+04  0.7818609E-02  0.8165981E-01
        2   -1    0    0  501    0  0.00000000000E+00  0.00000000000E+00  0.16217866129E+04  0.16217866129E+04  0.25500000920E-02 0. -1.
       -2   -1    0    0    0  501  0.00000000000E+00  0.00000000000E+00 -0.16664176541E+04  0.16664176541E+04  0.25500000920E-02 0.  1.
    10030    2    1    2    0    0  0.00000000000E+00  0.00000000000E+00 -0.44631041192E+02  0.32882042671E+04  0.32879013629E+04 0.  0.
        2    1    3    3  502    0  0.99557363026E+01 -0.70114699569E+03  0.14647201200E+04  0.16239184881E+04  0.25500000920E-02 0. -1.
       -2    1    3    3    0  502 -0.99557363026E+01  0.70114699569E+03 -0.15093511612E+04  0.16642857789E+04  0.25500000920E-02 0.  1.
</event>
<event>
 5   0  0.2001768E-06  0.3415298E+04  0.7818609E-02  0.8134162E-01
       -2   -1    0    0    0  501  0.00000000000E+00  0.00000000000E+00  0.15020001491E+04  0.15020001491E+04  0.25500000920E-02 0.  1.
        2   -1    0    0  501    0  0.00000000000E+00  0.00000000000E+00 -0.19414549926E+04  0.19414549926E+04  0.25500000920E-02 0. -1.
    10030    2    1    2    0    0  0.00000000000E+00  0.00000000000E+00 -0.43945484341E+03  0.34434551417E+04  0.34152983403E+04 0.  0.
        2    1    3    3  502    0  0.99297715182E+03  0.62182071127E+03 -0.14723065789E+04  0.18815821224E+04  0.25500000920E-02 0. -1.
       -2    1    3    3    0  502 -0.99297715182E+03 -0.62182071127E+03  0.10328517355E+04  0.15618730193E+04  0.25500000920E-02 0.  1.
</event>
<event>
 5   0  0.1999883E-06  0.3677019E+04  0.7818609E-02  0.8073074E-01
        2   -1    0    0  501    0  0.00000000000E+00  0.00000000000E+00  0.21591202715E+04  0.21591202715E+04  0.25500000920E-02 0.  1.
       -2   -1    0    0    0  501  0.00000000000E+00  0.00000000000E+00 -0.15655062790E+04  0.15655062790E+04  0.25500000920E-02 0. -1.
    10030    2    1    2    0    0  0.00000000000E+00  0.00000000000E+00  0.59361399247E+03  0.37246265505E+04  0.36770185435E+04 0.  0.
        4    1    3    3  502    0 -0.65406442347E+03 -0.16884499106E+04  0.61944524273E+03  0.19137338875E+04  0.12699999809E+01 0.  1.
       -4    1    3    3    0  502  0.65406442347E+03  0.16884499106E+04 -0.25831250256E+02  0.18108926630E+04  0.12699999809E+01 0. -1.
</event>
<event>
 5   0  0.2073287E-06  0.3588552E+04  0.7818609E-02  0.8093119E-01
        2   -1    0    0  501    0  0.00000000000E+00  0.00000000000E+00  0.14859156043E+04  0.14859156043E+04  0.25500000920E-02 0.  1.
       -2   -1    0    0    0  501  0.00000000000E+00  0.00000000000E+00 -0.21666278597E+04  0.21666278597E+04  0.25500000920E-02 0. -1.
    10030    2    1    2    0    0  0.00000000000E+00  0.00000000000E+00 -0.68071225536E+03  0.36525434640E+04  0.35885518781E+04 0.  0.
        1    1    3    3  502    0  0.11633921094E+04  0.85963021276E+03 -0.14208801594E+04  0.20276453660E+04  0.50400001928E-02 0. -1.
       -1    1    3    3    0  502 -0.11633921094E+04 -0.85963021276E+03  0.74016790400E+03  0.16248980980E+04  0.50400001928E-02 0.  1.
</event>
<event>
 5   0  0.2023479E-06  0.2161338E+04  0.7818609E-02  0.8534695E-01
        2   -1    0    0  501    0  0.00000000000E+00  0.00000000000E+00  0.11173978150E+04  0.11173978150E+04  0.25500000920E-02 0. -1.
       -2   -1    0    0    0  501  0.00000000000E+00  0.00000000000E+00 -0.10451469900E+04  0.10451469900E+04  0.25500000920E-02 0.  1.
    10030    2    1    2    0    0  0.00000000000E+00  0.00000000000E+00  0.72250825003E+02  0.21625448050E+04  0.21613375145E+04 0.  0.
        5    1    3    3  502    0  0.80345795698E+03  0.10692780362E+03 -0.67900778394E+03  0.10573797352E+04  0.46999998093E+01 0.  1.
       -5    1    3    3    0  502 -0.80345795698E+03 -0.10692780362E+03  0.75125860894E+03  0.11051650697E+04  0.46999998093E+01 0. -1.
</event>
<event>
 5   0  0.2001768E-06  0.3450321E+04  0.7818609E-02  0.8125665E-01
        2   -1    0    0  501    0  0.00000000000E+00  0.00000000000E+00  0.18664036538E+04  0.18664036538E+04  0.25500000920E-02 0. -1.
       -2   -1    0    0    0  501  0.00000000000E+00  0.00000000000E+00 -0.15946060866E+04  0.15946060866E+04  0.25500000920E-02 0.  1.
    10030    2    1    2    0    0  0.00000000000E+00  0.00000000000E+00  0.27179756718E+03  0.34610097405E+04  0.34503209280E+04 0.  0.
        2    1    3    3  502    0 -0.68189716214E+03  0.12338570100E+04  0.11333593830E+04  0.18088367400E+04  0.25500000920E-02 0. -1.
       -2    1    3    3    0  502  0.68189716214E+03 -0.12338570100E+04 -0.86156181582E+03  0.16521730005E+04  0.25500000920E-02 0.  1.
</event>
<event>
 5   0  0.2073287E-06  0.3519831E+04  0.7818609E-02  0.8109106E-01
       -2   -1    0    0    0  501  0.00000000000E+00  0.00000000000E+00  0.36480171152E+04  0.36480171152E+04  0.25500000920E-02 0. -1.
        2   -1    0    0  501    0  0.00000000000E+00  0.00000000000E+00 -0.84903741395E+03  0.84903741396E+03  0.25500000920E-02 0.  1.
    10030    2    1    2    0    0  0.00000000000E+00  0.00000000000E+00  0.27989797013E+04  0.44970545292E+04  0.35198312559E+04 0.  0.
        1    1    3    3  502    0 -0.13345483360E+04  0.10477449282E+04  0.80225345827E+03  0.18768056125E+04  0.50400001928E-02 0.  1.
       -1    1    3    3    0  502  0.13345483360E+04 -0.10477449282E+04  0.19967262430E+04  0.26202489167E+04  0.50400001928E-02 0. -1.
</event>
<event>
 5   0  0.6630125E-07  0.2909364E+04  0.7818609E-02  0.8270097E-01
        3   -1    0    0  501    0  0.00000000000E+00  0.00000000000E+00  0.13556030483E+04  0.13556030520E+04  0.10100000352E+00 0.  1.
       -3   -1    0    0    0  501  0.00000000000E+00  0.00000000000E+00 -0.15610026843E+04  0.15610026875E+04  0.10100000352E+00 0. -1.
    10030    2    1    2    0    0  0.00000000000E+00  0.00000000000E+00 -0.20539963598E+03  0.29166057396E+04  0.29093641968E+04 0.  0.
        3    1    3    3  502    0  0.33423449341E+03  0.56717282628E+03  0.11977190988E+04  0.13667219034E+04  0.10100000352E+00 0.  1.
       -3    1    3    3    0  502 -0.33423449341E+03 -0.56717282628E+03 -0.14031187348E+04  0.15498838361E+04  0.10100000352E+00 0. -1.
</event>
<event>
 5   0  0.6630125E-07  0.3384995E+04  0.7818609E-02  0.8141599E-01
       -3   -1    0    0    0  501  0.00000000000E+00  0.00000000000E+00  0.25936190972E+04  0.25936190992E+04  0.10100000352E+00 0. -1.
        3   -1    0    0  501    0  0.00000000000E+00  0.00000000000E+00 -0.11044597897E+04  0.11044597943E+04  0.10100000352E+00 0.  1.
    10030    2    1    2    0    0  0.00000000000E+00  0.00000000000E+00  0.14891593075E+04  0.36980788934E+04  0.33849951343E+04 0.  0.
        1    1    3    3  502    0  0.39788834231E+03  0.13015799117E+03 -0.10470039755E+04  0.11275963641E+04  0.50400001928E-02 0.  1.
       -1    1    3    3    0  502 -0.39788834231E+03 -0.13015799117E+03  0.25361632830E+04  0.25704825294E+04  0.50400001928E-02 0. -1.
</event>
<event>
 5   0  0.6890600E-07  0.3028500E+04  0.7818609E-02  0.8235639E-01
       -1   -1    0    0    0  501  0.00000000000E+00  0.00000000000E+00  0.14221710916E+04  0.14221710916E+04  0.50400001928E-02 0.  1.
        1   -1    0    0  501    0  0.00000000000E+00  0.00000000000E+00 -0.16122911131E+04  0.16122911131E+04  0.50400001928E-02 0. -1.
    10030    2    1    2    0    0  0.00000000000E+00  0.00000000000E+00 -0.19012002155E+03  0.30344622048E+04  0.30285004952E+04 0.  0.
        3    1    3    3  502    0  0.13904142188E+04  0.59733307584E+03 -0.14897391413E+03  0.15206090032E+04  0.10100000352E+00 0. -1.
       -3    1    3    3    0  502 -0.13904142188E+04 -0.59733307584E+03 -0.41146107419E+02  0.15138532015E+04  0.10100000352E+00 0.  1.
</event>
<event>
 5   0  0.2023479E-06  0.3407360E+04  0.7818609E-02  0.8136102E-01
       -2   -1    0    0    0  501  0.00000000000E+00  0.00000000000E+00  0.13018490051E+04  0.13018490051E+04  0.25500000920E-02 0. -1.
        2   -1    0    0  501    0  0.00000000000E+00  0.00000000000E+00 -0.22295410015E+04  0.22295410015E+04  0.25500000920E-02 0.  1.
    10030    2    1    2    0    0  0.00000000000E+00  0.00000000000E+00 -0.92769199633E+03  0.35313900066E+04  0.34073601129E+04 0.  0.
        5    1    3    3  502    0 -0.17747286575E+02  0.40746464552E+03 -0.21781920510E+04  0.22160516926E+04  0.46999998093E+01 0.  1.
       -5    1    3    3    0  502  0.17747286575E+02 -0.40746464552E+03  0.12505000546E+04  0.13153383140E+04  0.46999998093E+01 0. -1.
</event>
<event>
 5   0  0.6630125E-07  0.3440646E+04  0.7818609E-02  0.8128002E-01
       -1   -1    0    0    0  501  0.00000000000E+00  0.00000000000E+00  0.21211137804E+04  0.21211137804E+04  0.50400001928E-02 0. -1.
        1   -1    0    0  501    0  0.00000000000E+00  0.00000000000E+00 -0.13952624519E+04  0.13952624519E+04  0.50400001928E-02 0.  1.
    10030    2    1    2    0    0  0.00000000000E+00  0.00000000000E+00  0.72585132847E+03  0.35163762323E+04  0.34406455289E+04 0.  0.
        4    1    3    3  502    0 -0.17088729356E+04  0.32674403545E+02  0.16318997505E+03  0.17169586214E+04  0.12699999809E+01 0.  1.
       -4    1    3    3    0  502  0.17088729356E+04 -0.32674403545E+02  0.56266135342E+03  0.17994176109E+04  0.12699999809E+01 0. -1.
</event>
<event>
 5   0  0.2073287E-06  0.3459750E+04  0.7818609E-02  0.8123395E-01
        2   -1    0    0  501    0  0.00000000000E+00  0.00000000000E+00  0.11885519710E+04  0.11885519710E+04  0.25500000920E-02 0.  1.
       -2   -1    0    0    0  501  0.00000000000E+00  0.00000000000E+00 -0.25177428448E+04  0.25177428448E+04  0.25500000920E-02 0. -1.
    10030    2    1    2    0    0  0.00000000000E+00  0.00000000000E+00 -0.13291908738E+04  0.37062948157E+04  0.34597504075E+04 0.  0.
        1    1    3    3  502    0 -0.11513771646E+04  0.80737358734E+03 -0.17438324183E+04  0.22401948549E+04  0.50400001928E-02 0. -1.
       -1    1    3    3    0  502  0.11513771646E+04 -0.80737358734E+03  0.41464154452E+03  0.14660999608E+04  0.50400001928E-02 0.  1.
</event>
<event>
 5   0  0.2001768E-06  0.3438714E+04  0.7818609E-02  0.8128470E-01
       -2   -1    0    0    0  501  0.00000000000E+00  0.00000000000E+00  0.12394831340E+04  0.12394831340E+04  0.25500000920E-02 0.  1.
        2   -1    0    0  501    0  0.00000000000E+00  0.00000000000E+00 -0.23850168572E+04  0.23850168572E+04  0.25500000920E-02 0. -1.
    10030    2    1    2    0    0  0.00000000000E+00  0.00000000000E+00 -0.11455337232E+04  0.36244999912E+04  0.34387138112E+04 0.  0.
        2    1    3    3  502    0 -0.56068918442E+03  0.52186062838E+03  0.10497093783E+04  0.12994616793E+04  0.25500000920E-02 0.  1.
       -2    1    3    3    0  502  0.56068918442E+03 -0.52186062838E+03 -0.21952431016E+04  0.23250383119E+04  0.25500000920E-02 0. -1.
</event>
<event>
 5   0  0.6630125E-07  0.2292937E+04  0.7818609E-02  0.8480711E-01
        1   -1    0    0  501    0  0.00000000000E+00  0.00000000000E+00  0.51437762147E+03  0.51437762150E+03  0.50400001928E-02 0. -1.
       -1   -1    0    0    0  501  0.00000000000E+00  0.00000000000E+00 -0.25553021623E+04  0.25553021623E+04  0.50400001928E-02 0.  1.
    10030    2    1    2    0    0  0.00000000000E+00  0.00000000000E+00 -0.20409245408E+04  0.30696797838E+04  0.22929371979E+04 0.  0.
        5    1    3    3  502    0  0.59810049194E+03 -0.46710883264E+03 -0.21708981860E+04  0.22997251757E+04  0.46999998093E+01 0.  1.
       -5    1    3    3    0  502 -0.59810049194E+03  0.46710883264E+03  0.12997364519E+03  0.76995460803E+03  0.46999998093E+01 0. -1.
</event>
<event>
 5   0  0.1999883E-06  0.3793847E+04  0.7818609E-02  0.8047477E-01
       -2   -1    0    0    0  501  0.00000000000E+00  0.00000000000E+00  0.16630187179E+04  0.16630187179E+04  0.25500000920E-02 0.  1.
        2   -1    0    0  501    0  0.00000000000E+00  0.00000000000E+00 -0.21637269686E+04  0.21637269686E+04  0.25500000920E-02 0. -1.
    10030    2    1    2    0    0  0.00000000000E+00  0.00000000000E+00 -0.50070825068E+03  0.38267456865E+04  0.37938468336E+04 0.  0.
        4    1    3    3  502    0  0.11922371239E+04 -0.17240652980E+03  0.12276728566E+04  0.17199812868E+04  0.12699999809E+01 0.  1.
       -4    1    3    3    0  502 -0.11922371239E+04  0.17240652980E+03 -0.17283811073E+04  0.21067643997E+04  0.12699999809E+01 0. -1.
</event>
<event>
 5   0  0.2023479E-06  0.3056310E+04  0.7818609E-02  0.8227832E-01
       -2   -1    0    0    0  501  0.00000000000E+00  0.00000000000E+00  0.10495802363E+04  0.10495802363E+04  0.25500000920E-02 0.  1.
        2   -1    0    0  501    0  0.00000000000E+00  0.00000000000E+00 -0.22249441664E+04  0.22249441664E+04  0.25500000920E-02 0. -1.
    10030    2    1    2    0    0  0.00000000000E+00  0.00000000000E+00 -0.11753639301E+04  0.32745244027E+04  0.30563098168E+04 0.  0.
        5    1    3    3  502    0 -0.11432860611E+04  0.97195383909E+03 -0.89716220920E+03  0.17483476206E+04  0.46999998093E+01 0. -1.
       -5    1    3    3    0  502  0.11432860611E+04 -0.97195383909E+03 -0.27820172088E+03  0.15261767821E+04  0.46999998093E+01 0.  1.
</event>
<event>
 5   0  0.6630125E-07  0.3491782E+04  0.7818609E-02  0.8115740E-01
        1   -1    0    0  501    0  0.00000000000E+00  0.00000000000E+00  0.20440649954E+04  0.20440649954E+04  0.50400001928E-02 0. -1.
       -1   -1    0    0    0  501  0.00000000000E+00  0.00000000000E+00 -0.14912129571E+04  0.14912129571E+04  0.50400001928E-02 0.  1.
    10030    2    1    2    0    0  0.00000000000E+00  0.00000000000E+00  0.55285203832E+03  0.35352779524E+04  0.34917824710E+04 0.  0.
        4    1    3    3  502    0 -0.17149447343E+04 -0.29778504970E+03  0.41384891792E+03  0.17891293741E+04  0.12699999809E+01 0.  1.
       -4    1    3    3    0  502  0.17149447343E+04  0.29778504970E+03  0.13900312040E+03  0.17461485784E+04  0.12699999809E+01 0. -1.
</event>
<event>
 5   0  0.2073287E-06  0.3157549E+04  0.7818609E-02  0.8200119E-01
       -2   -1    0    0    0  501  0.00000000000E+00  0.00000000000E+00  0.12999108295E+04  0.12999108295E+04  0.25500000920E-02 0. -1.
        2   -1    0    0  501    0  0.00000000000E+00  0.00000000000E+00 -0.19174618698E+04  0.19174618698E+04  0.25500000920E-02 0.  1.
    10030    2    1    2    0    0  0.00000000000E+00  0.00000000000E+00 -0.61755104030E+03  0.32173726992E+04  0.31575493343E+04 0.  0.
        1    1    3    3  502    0 -0.55646002793E+02 -0.77183164980E+03  0.10934176098E+04  0.13395456852E+04  0.50400001928E-02 0. -1.
       -1    1    3    3    0  502  0.55646002793E+02  0.77183164980E+03 -0.17109686501E+04  0.18778270141E+04  0.50400001928E-02 0.  1.
</event>
<event>
 5   0  0.6630125E-07  0.3480521E+04  0.7818609E-02  0.8118422E-01
       -1   -1    0    0    0  501  0.00000000000E+00  0.00000000000E+00  0.14514772295E+04  0.14514772295E+04  0.50400001928E-02 0.  1.
        1   -1    0    0  501    0  0.00000000000E+00  0.00000000000E+00 -0.20864990426E+04  0.20864990426E+04  0.50400001928E-02 0. -1.
    10030    2    1    2    0    0  0.00000000000E+00  0.00000000000E+00 -0.63502181315E+03  0.35379762721E+04  0.34805205643E+04 0.  0.
        5    1    3    3  502    0 -0.34680481768E+03  0.14161258603E+04 -0.12833525800E+04  0.19423444515E+04  0.46999998093E+01 0. -1.
       -5    1    3    3    0  502  0.34680481768E+03 -0.14161258603E+04  0.64833076680E+03  0.15956318206E+04  0.46999998093E+01 0.  1.
</event>
<event>
 5   0  0.6890600E-07  0.3564834E+04  0.7818609E-02  0.8098595E-01
        1   -1    0    0  501    0  0.00000000000E+00  0.00000000000E+00  0.26039088812E+04  0.26039088812E+04  0.50400001928E-02 0. -1.
       -1   -1    0    0    0  501  0.00000000000E+00  0.00000000000E+00 -0.12200926947E+04  0.12200926947E+04  0.50400001928E-02 0.  1.
    10030    2    1    2    0    0  0.00000000000E+00  0.00000000000E+00  0.13838161865E+04  0.38240015760E+04  0.35648339112E+04 0.  0.
        3    1    3    3  502    0 -0.62005991785E+03 -0.10042718699E+04  0.21246666492E+04  0.24304823947E+04  0.10100000352E+00 0. -1.
       -3    1    3    3    0  502  0.62005991785E+03  0.10042718699E+04 -0.74085046267E+03  0.13935191813E+04  0.10100000352E+00 0.  1.
</event>
<event>
 5   0  0.6890600E-07  0.3500945E+04  0.7818609E-02  0.8113566E-01
        1   -1    0    0  501    0  0.00000000000E+00  0.00000000000E+00  0.24533680039E+04  0.24533680039E+04  0.50400001928E-02 0.  1.
       -1   -1    0    0    0  501  0.00000000000E+00  0.00000000000E+00 -0.12489578202E+04  0.12489578202E+04  0.50400001928E-02 0. -1.
    10030    2    1    2    0    0  0.00000000000E+00  0.00000000000E+00  0.12044101836E+04  0.37023258241E+04  0.35009445322E+04 0.  0.
        3    1    3    3  502    0  0.26947941908E+03  0.49084465856E+03 -0.11516897888E+04  0.12806002561E+04  0.10100000352E+00 0. -1.
       -3    1    3    3    0  502 -0.26947941908E+03 -0.49084465856E+03  0.23560999724E+04  0.24217255680E+04  0.10100000352E+00 0.  1.
</event>
<event>
 5   0  0.6630125E-07  0.3490655E+04  0.7818609E-02  0.8116008E-01
       -1   -1    0    0    0  501  0.00000000000E+00  0.00000000000E+00  0.29767741808E+04  0.29767741808E+04  0.50400001928E-02 0.  1.
        1   -1    0    0  501    0  0.00000000000E+00  0.00000000000E+00 -0.10233115086E+04  0.10233115086E+04  0.50400001928E-02 0. -1.
    10030    2    1    2    0    0  0.00000000000E+00  0.00000000000E+00  0.19534626722E+04  0.40000856894E+04  0.34906545390E+04 0.  0.
        1    1    3    3  502    0  0.70112347173E+03  0.85677131414E+03 -0.56945584692E+03  0.12449542839E+04  0.50400001928E-02 0. -1.
       -1    1    3    3    0  502 -0.70112347173E+03 -0.85677131414E+03  0.25229185191E+04  0.27551314055E+04  0.50400001928E-02 0.  1.
</event>
<event>
 5   0  0.2020725E-06  0.3470147E+04  0.7818609E-02  0.8120901E-01
        2   -1    0    0  501    0  0.00000000000E+00  0.00000000000E+00  0.30396596458E+04  0.30396596458E+04  0.25500000920E-02 0.  1.
       -2   -1    0    0    0  501  0.00000000000E+00  0.00000000000E+00 -0.99040028174E+03  0.99040028174E+03  0.25500000920E-02 0. -1.
    10030    2    1    2    0    0  0.00000000000E+00  0.00000000000E+00  0.20492593641E+04  0.40300599275E+04  0.34701468382E+04 0.  0.
        3    1    3    3  502    0  0.13606588076E+04 -0.10726990461E+04  0.91816393405E+03  0.19608928207E+04  0.10100000352E+00 0.  1.
       -3    1    3    3    0  502 -0.13606588076E+04  0.10726990461E+04  0.11310954300E+04  0.20691671069E+04  0.10100000352E+00 0. -1.
</event>
<event>
 5   0  0.6630125E-07  0.3450866E+04  0.7818609E-02  0.8125534E-01
        3   -1    0    0  501    0  0.00000000000E+00  0.00000000000E+00  0.32284279812E+04  0.32284279828E+04  0.10100000352E+00 0.  1.
       -3   -1    0    0    0  501  0.00000000000E+00  0.00000000000E+00 -0.92215774315E+03  0.92215774868E+03  0.10100000352E+00 0. -1.
    10030    2    1    2    0    0  0.00000000000E+00  0.00000000000E+00  0.23062702381E+04  0.41505857315E+04  0.34508664859E+04 0.  0.
        2    1    3    3  502    0  0.34500958013E+03 -0.43670889639E+03 -0.81123426467E+03  0.98379230671E+03  0.25500000920E-02 0. -1.
       -2    1    3    3    0  502 -0.34500958013E+03  0.43670889639E+03  0.31175045027E+04  0.31667934248E+04  0.25500000920E-02 0.  1.
</event>
<event>
 5   0  0.2020725E-06  0.3071985E+04  0.7818609E-02  0.8223469E-01
       -2   -1    0    0    0  501  0.00000000000E+00  0.00000000000E+00  0.11320688223E+04  0.11320688223E+04  0.25500000920E-02 0.  1.
        2   -1    0    0  501    0  0.00000000000E+00  0.00000000000E+00 -0.20840369097E+04  0.20840369097E+04  0.25500000920E-02 0. -1.
    10030    2    1    2    0    0  0.00000000000E+00  0.00000000000E+00 -0.95196808745E+03  0.32161057320E+04  0.30719851627E+04 0.  0.
        3    1    3    3  502    0  0.10558735417E+04  0.23123454746E+03  0.66651331814E+03  0.12698733659E+04  0.10100000352E+00 0.  1.
       -3    1    3    3    0  502 -0.10558735417E+04 -0.23123454746E+03 -0.16184814056E+04  0.19462323660E+04  0.10100000352E+00 0. -1.
</event>
<event>
 5   0  0.2023479E-06  0.4327059E+04  0.7818609E-02  0.7941634E-01
        2   -1    0    0  501    0  0.00000000000E+00  0.00000000000E+00  0.14235553946E+04  0.14235553946E+04  0.25500000920E-02 0. -1.
       -2   -1    0    0    0  501  0.00000000000E+00  0.00000000000E+00 -0.32881469910E+04  0.32881469910E+04  0.25500000920E-02 0.  1.
    10030    2    1    2    0    0  0.00000000000E+00  0.00000000000E+00 -0.18645915964E+04  0.47117023857E+04  0.43270587643E+04 0.  0.
        5    1    3    3  502    0 -0.11039805473E+04 -0.11531436560E+04 -0.25223489807E+04  0.29850929316E+04  0.46999998093E+01 0.  1.
       -5    1    3    3    0  502  0.11039805473E+04  0.11531436560E+04  0.65775738424E+03  0.17266094540E+04  0.46999998093E+01 0. -1.
</event>
<event>
 5   0  0.7378896E-07  0.3470295E+04  0.7818609E-02  0.8120866E-01
        1   -1    0    0  501    0  0.00000000000E+00  0.00000000000E+00  0.19258223796E+04  0.19258223797E+04  0.50400001928E-02 0. -1.
       -1   -1    0    0    0  501  0.00000000000E+00  0.00000000000E+00 -0.15633513386E+04  0.15633513386E+04  0.50400001928E-02 0.  1.
    10030    2    1    2    0    0  0.00000000000E+00  0.00000000000E+00  0.36247104109E+03  0.34891737182E+04  0.34702950855E+04 0.  0.
        2    1    3    3  502    0 -0.16658518557E+04  0.44983325370E+03  0.36477896600E+03  0.17636541768E+04  0.25500000920E-02 0. -1.
       -2    1    3    3    0  502  0.16658518557E+04 -0.44983325370E+03 -0.23079249103E+01  0.17255195414E+04  0.25500000920E-02 0.  1.
</event>
<event>
 5   0  0.6630125E-07  0.3483994E+04  0.7818609E-02  0.8117594E-01
        1   -1    0    0  501    0  0.00000000000E+00  0.00000000000E+00  0.24310087267E+04  0.24310087267E+04  0.50400001928E-02 0.  1.
       -1   -1    0    0    0  501  0.00000000000E+00  0.00000000000E+00 -0.12482689765E+04  0.12482689765E+04  0.50400001928E-02 0. -1.
    10030    2    1    2    0    0  0.00000000000E+00  0.00000000000E+00  0.11827397501E+04  0.36792777032E+04  0.34839935564E+04 0.  0.
        4    1    3    3  502    0 -0.14151820246E+04 -0.30123568401E+03  0.16158316130E+04  0.21689620823E+04  0.12699999809E+01 0. -1.
       -4    1    3    3    0  502  0.14151820246E+04  0.30123568401E+03 -0.43309186286E+03  0.15103156209E+04  0.12699999809E+01 0.  1.
</event>
<event>
 5   0  0.2001768E-06  0.3511051E+04  0.7818609E-02  0.8111176E-01
        2   -1    0    0  501    0  0.00000000000E+00  0.00000000000E+00  0.11723871741E+04  0.11723871741E+04  0.25500000920E-02 0. -1.
       -2   -1    0    0    0  501  0.00000000000E+00  0.00000000000E+00 -0.26287127288E+04  0.26287127288E+04  0.25500000920E-02 0.  1.
    10030    2    1    2    0    0  0.00000000000E+00  0.00000000000E+00 -0.14563255547E+04  0.38010999029E+04  0.35110506050E+04 0.  0.
        2    1    3    3  502    0 -0.11557143299E+03 -0.17481032042E+04 -0.60641112414E+03  0.18539029155E+04  0.25500000920E-02 0.  1.
       -2    1    3    3    0  502  0.11557143299E+03  0.17481032042E+04 -0.84991443055E+03  0.19471969874E+04  0.25500000920E-02 0. -1.
</event>
<event>
 5   0  0.2020725E-06  0.3533287E+04  0.7818609E-02  0.8105946E-01
       -2   -1    0    0    0  501  0.00000000000E+00  0.00000000000E+00  0.24419989775E+04  0.24419989775E+04  0.25500000920E-02 0.  1.
        2   -1    0    0  501    0  0.00000000000E+00  0.00000000000E+00 -0.12780633897E+04  0.12780633897E+04  0.25500000920E-02 0. -1.
    10030    2    1    2    0    0  0.00000000000E+00  0.00000000000E+00  0.11639355878E+04  0.37200623672E+04  0.35332871329E+04 0.  0.
        3    1    3    3  502    0 -0.71978410198E+03 -0.85852588120E+02  0.22782090955E+04  0.23907522903E+04  0.10100000352E+00 0.  1.
       -3    1    3    3    0  502  0.71978410198E+03  0.85852588120E+02 -0.11142735078E+04  0.13293100769E+04  0.10100000352E+00 0. -1.
</event>
<event>
 5   0  0.6630125E-07  0.3497539E+04  0.7818609E-02  0.8114373E-01
        1   -1    0    0  501    0  0.00000000000E+00  0.00000000000E+00  0.11114779022E+04  0.11114779022E+04  0.50400001928E-02 0.  1.
       -1   -1    0    0    0  501  0.00000000000E+00  0.00000000000E+00 -0.27514665991E+04  0.27514665991E+04  0.50400001928E-02 0. -1.
    10030    2    1    2    0    0  0.00000000000E+00  0.00000000000E+00 -0.16399886969E+04  0.38629445014E+04  0.34975387481E+04 0.  0.
        1    1    3    3  502    0 -0.14345882646E+04 -0.98086255254E+03 -0.60452405524E+03  0.18399956982E+04  0.50400001928E-02 0.  1.
       -1    1    3    3    0  502  0.14345882646E+04  0.98086255254E+03 -0.10354646417E+04  0.20229488032E+04  0.50400001928E-02 0. -1.
</event>
<event>
 5   0  0.2023479E-06  0.3123688E+04  0.7818609E-02  0.8209267E-01
       -2   -1    0    0    0  501  0.00000000000E+00  0.00000000000E+00  0.95138463932E+03  0.95138463933E+03  0.25500000920E-02 0. -1.
        2   -1    0    0  501    0  0.00000000000E+00  0.00000000000E+00 -0.25640075606E+04  0.25640075606E+04  0.25500000920E-02 0.  1.
    10030    2    1    2    0    0  0.00000000000E+00  0.00000000000E+00 -0.16126229213E+04  0.35153922000E+04  0.31236884661E+04 0.  0.
        5    1    3    3  502    0 -0.96479986269E+03  0.26096204219E+03 -0.21569742243E+04  0.23772883411E+04  0.46999998093E+01 0.  1.
       -5    1    3    3    0  502  0.96479986269E+03 -0.26096204219E+03  0.54435130297E+03  0.11381038589E+04  0.46999998093E+01 0. -1.
</event>
<event>
 5   0  0.6630125E-07  0.3415213E+04  0.7818609E-02  0.8134183E-01
       -1   -1    0    0    0  501  0.00000000000E+00  0.00000000000E+00  0.15478205067E+04  0.15478205067E+04  0.50400001928E-02 0.  1.
        1   -1    0    0  501    0  0.00000000000E+00  0.00000000000E+00 -0.18838873057E+04  0.18838873057E+04  0.50400001928E-02 0. -1.
    10030    2    1    2    0    0  0.00000000000E+00  0.00000000000E+00 -0.33606679903E+03  0.34317078124E+04  0.34152126751E+04 0.  0.
        4    1    3    3  502    0 -0.10487259707E+04 -0.71470650622E+03 -0.13160427611E+04  0.18282783469E+04  0.12699999809E+01 0. -1.
       -4    1    3    3    0  502  0.10487259707E+04  0.71470650622E+03  0.97997596207E+03  0.16034294655E+04  0.12699999809E+01 0.  1.
</event>
<event>
 5   0  0.6630125E-07  0.3472055E+04  0.7818609E-02  0.8120445E-01
       -1   -1    0    0    0  501  0.00000000000E+00  0.00000000000E+00  0.17048606555E+04  0.17048606555E+04  0.50400001928E-02 0. -1.
        1   -1    0    0  501    0  0.00000000000E+00  0.00000000000E+00 -0.17677640850E+04  0.17677640850E+04  0.50400001928E-02 0.  1.
    10030    2    1    2    0    0  0.00000000000E+00  0.00000000000E+00 -0.62903429522E+02  0.34726247405E+04  0.34720549747E+04 0.  0.
        5    1    3    3  502    0 -0.15568963087E+04 -0.57425700046E+02 -0.79743999160E+03  0.17501875492E+04  0.46999998093E+01 0.  1.
       -5    1    3    3    0  502  0.15568963087E+04  0.57425700046E+02  0.73453656208E+03  0.17224371913E+04  0.46999998093E+01 0. -1.
</event>
<event>
 5   0  0.2001768E-06  0.2561243E+04  0.7818609E-02  0.8381486E-01
        2   -1    0    0  501    0  0.00000000000E+00  0.00000000000E+00  0.71415549969E+03  0.71415549969E+03  0.25500000920E-02 0. -1.
       -2   -1    0    0    0  501  0.00000000000E+00  0.00000000000E+00 -0.22964066898E+04  0.22964066898E+04  0.25500000920E-02 0.  1.
    10030    2    1    2    0    0  0.00000000000E+00  0.00000000000E+00 -0.15822511901E+04  0.30105621895E+04  0.25612430319E+04 0.  0.
        2    1    3    3  502    0 -0.76169386786E+03  0.98877069001E+03 -0.11280179766E+04  0.16823405070E+04  0.25500000920E-02 0.  1.
       -2    1    3    3    0  502  0.76169386786E+03 -0.98877069001E+03 -0.45423321350E+03  0.13282216826E+04  0.25500000920E-02 0. -1.
</event>
<event>
 5   0  0.6630125E-07  0.3496321E+04  0.7818609E-02  0.8114662E-01
        1   -1    0    0  501    0  0.00000000000E+00  0.00000000000E+00  0.18429051775E+04  0.18429051775E+04  0.50400001928E-02 0. -1.
       -1   -1    0    0    0  501  0.00000000000E+00  0.00000000000E+00 -0.16582868798E+04  0.16582868798E+04  0.50400001928E-02 0.  1.
    10030    2    1    2    0    0  0.00000000000E+00  0.00000000000E+00  0.18461829765E+03  0.35011920573E+04  0.34963211961E+04 0.  0.
        1    1    3    3  502    0 -0.10066132746E+04 -0.14286132384E+04  0.49128231656E+02  0.17483190934E+04  0.50400001928E-02 0.  1.
       -1    1    3    3    0  502  0.10066132746E+04  0.14286132384E+04  0.13549006600E+03  0.17528729638E+04  0.50400001928E-02 0. -1.
</event>
<event>
 5   0  0.7378896E-07  0.3464694E+04  0.7818609E-02  0.8122208E-01
        1   -1    0    0  501    0  0.00000000000E+00  0.00000000000E+00  0.13702541391E+04  0.13702541391E+04  0.50400001928E-02 0.  1.
       -1   -1    0    0    0  501  0.00000000000E+00  0.00000000000E+00 -0.21901235699E+04  0.21901235699E+04  0.50400001928E-02 0. -1.
    10030    2    1    2    0    0  0.00000000000E+00  0.00000000000E+00 -0.81986943085E+03  0.35603777090E+04  0.34646938606E+04 0.  0.
        2    1    3    3  502    0 -0.87567751936E+03  0.14324794805E+04  0.28723248632E+02  0.16791764663E+04  0.25500000920E-02 0.  1.
       -2    1    3    3    0  502  0.87567751936E+03 -0.14324794805E+04 -0.84859267948E+03  0.18812012427E+04  0.25500000920E-02 0. -1.
</event>
<event>
 5   0  0.2023479E-06  0.3420232E+04  0.7818609E-02  0.8132959E-01
       -2   -1    0    0    0  501  0.00000000000E+00  0.00000000000E+00  0.12023994387E+04  0.12023994387E+04  0.25500000920E-02 0. -1.
        2   -1    0    0  501    0  0.00000000000E+00  0.00000000000E+00 -0.24322167876E+04  0.24322167876E+04  0.25500000920E-02 0.  1.
    10030    2    1    2    0    0  0.00000000000E+00  0.00000000000E+00 -0.12298173489E+04  0.36346162264E+04  0.34202316298E+04 0.  0.
        5    1    3    3  502    0 -0.43424506080E+03 -0.14448003791E+03 -0.23659259022E+04  0.24097864468E+04  0.46999998093E+01 0.  1.
       -5    1    3    3    0  502  0.43424506080E+03  0.14448003791E+03  0.11361085533E+04  0.12248297796E+04  0.46999998093E+01 0. -1.
</event>
<event>
 5   0  0.1999883E-06  0.3604278E+04  0.7818609E-02  0.8089512E-01
       -2   -1    0    0    0  501  0.00000000000E+00  0.00000000000E+00  0.15037653876E+04  0.15037653876E+04  0.25500000920E-02 0. -1.
        2   -1    0    0  501    0  0.00000000000E+00  0.00000000000E+00 -0.21597151850E+04  0.21597151850E+04  0.25500000920E-02 0.  1.
    10030    2    1    2    0    0  0.00000000000E+00  0.00000000000E+00 -0.65594979735E+03  0.36634805726E+04  0.36042779817E+04 0.  0.
        4    1    3    3  502    0  0.62345009537E+03  0.87250851506E+03 -0.18001235704E+04  0.20953299529E+04  0.12699999809E+01 0.  1.
       -4    1    3    3    0  502 -0.62345009537E+03 -0.87250851506E+03  0.11441737730E+04  0.15681506197E+04  0.12699999809E+01 0. -1.
</event>
<event>
 5   0  0.7378896E-07  0.3497532E+04  0.7818609E-02  0.8114375E-01
       -1   -1    0    0    0  501  0.00000000000E+00  0.00000000000E+00  0.15524122505E+04  0.15524122505E+04  0.50400001928E-02 0.  1.
        1   -1    0    0  501    0  0.00000000000E+00  0.00000000000E+00 -0.19699551877E+04  0.19699551877E+04  0.50400001928E-02 0. -1.
    10030    2    1    2    0    0  0.00000000000E+00  0.00000000000E+00 -0.41754293717E+03  0.35223674382E+04  0.34975320249E+04 0.  0.
        2    1    3    3  502    0  0.11115416777E+04 -0.12274348134E+04 -0.77495693586E+03  0.18282995857E+04  0.25500000920E-02 0. -1.
       -2    1    3    3    0  502 -0.11115416777E+04  0.12274348134E+04  0.35741399869E+03  0.16940678525E+04  0.25500000920E-02 0.  1.
</event>
<event>
 5   0  0.6890600E-07  0.3363386E+04  0.7818609E-02  0.8146952E-01
        1   -1    0    0  501    0  0.00000000000E+00  0.00000000000E+00  0.24233127069E+04  0.24233127069E+04  0.50400001928E-02 0. -1.
       -1   -1    0    0    0  501  0.00000000000E+00  0.00000000000E+00 -0.11670350278E+04  0.11670350279E+04  0.50400001928E-02 0.  1.
    10030    2    1    2    0    0  0.00000000000E+00  0.00000000000E+00  0.12562776790E+04  0.35903477347E+04  0.33633856825E+04 0.  0.
        3    1    3    3  502    0 -0.13603922435E+03 -0.11583283535E+04  0.19214472281E+04  0.22477078782E+04  0.10100000352E+00 0. -1.
       -3    1    3    3    0  502  0.13603922435E+03  0.11583283535E+04 -0.66516954907E+03  0.13426398565E+04  0.10100000352E+00 0.  1.
</event>
<event>
 5   0  0.7378896E-07  0.2670648E+04  0.7818609E-02  0.8344592E-01
        1   -1    0    0  501    0  0.00000000000E+00  0.00000000000E+00  0.13267033442E+04  0.13267033442E+04  0.50400001928E-02 0.  1.
       -1   -1    0    0    0  501  0.00000000000E+00  0.00000000000E+00 -0.13440009145E+04  0.13440009145E+04  0.50400001928E-02 0. -1.
    10030    2    1    2    0    0  0.00000000000E+00  0.00000000000E+00 -0.17297570282E+02  0.26707042587E+04  0.26706482418E+04 0.  0.
        2    1    3    3  502    0  0.51709897546E+03  0.10358191811E+04 -0.67407823758E+03  0.13396619711E+04  0.25500000920E-02 0. -1.
       -2    1    3    3    0  502 -0.51709897546E+03 -0.10358191811E+04  0.65678066730E+03  0.13310422876E+04  0.25500000920E-02 0.  1.
</event>
<event>
 5   0  0.2020725E-06  0.3298344E+04  0.7818609E-02  0.8163317E-01
        2   -1    0    0  501    0  0.00000000000E+00  0.00000000000E+00  0.17925807785E+04  0.17925807785E+04  0.25500000920E-02 0. -1.
       -2   -1    0    0    0  501  0.00000000000E+00  0.00000000000E+00 -0.15172363755E+04  0.15172363755E+04  0.25500000920E-02 0.  1.
    10030    2    1    2    0    0  0.00000000000E+00  0.00000000000E+00  0.27534440306E+03  0.33098171540E+04  0.32983442896E+04 0.  0.
        3    1    3    3  502    0 -0.12983079076E+04 -0.84525051198E+03  0.70507413852E+03  0.17021108665E+04  0.10100000352E+00 0. -1.
       -3    1    3    3    0  502  0.12983079076E+04  0.84525051198E+03 -0.42972973546E+03  0.16077062874E+04  0.10100000352E+00 0.  1.
</event>
<event>
 5   0  0.6630125E-07  0.3428452E+04  0.7818609E-02  0.8130958E-01
        1   -1    0    0  501    0  0.00000000000E+00  0.00000000000E+00  0.14685642141E+04  0.14685642141E+04  0.50400001928E-02 0. -1.
       -1   -1    0    0    0  501  0.00000000000E+00  0.00000000000E+00 -0.20009817170E+04  0.20009817170E+04  0.50400001928E-02 0.  1.
    10030    2    1    2    0    0  0.00000000000E+00  0.00000000000E+00 -0.53241750292E+03  0.34695459310E+04  0.34284516287E+04 0.  0.
        5    1    3    3  502    0  0.71543689091E+02 -0.16906033161E+04  0.11470357956E+02  0.16921618513E+04  0.46999998093E+01 0. -1.
       -5    1    3    3    0  502 -0.71543689091E+02  0.16906033161E+04 -0.54388786087E+03  0.17773840798E+04  0.46999998093E+01 0.  1.
</event>
<event>
 5   0  0.6630125E-07  0.3616838E+04  0.7818609E-02  0.8086646E-01
        1   -1    0    0  501    0  0.00000000000E+00  0.00000000000E+00  0.10349887187E+04  0.10349887187E+04  0.50400001928E-02 0. -1.
       -1   -1    0    0    0  501  0.00000000000E+00  0.00000000000E+00 -0.31598218849E+04  0.31598218849E+04  0.50400001928E-02 0.  1.
    10030    2    1    2    0    0  0.00000000000E+00  0.00000000000E+00 -0.21248331662E+04  0.41948106036E+04  0.36168384005E+04 0.  0.
        4    1    3    3  502    0 -0.62371963058E+03 -0.16772566181E+04 -0.13652165680E+04  0.22507851588E+04  0.12699999809E+01 0. -1.
       -4    1    3    3    0  502  0.62371963058E+03  0.16772566181E+04 -0.75961659822E+03  0.19440254448E+04  0.12699999809E+01 0.  1.
</event>
<event>
 5   0  0.6890600E-07  0.3496979E+04  0.7818609E-02  0.8114506E-01
        1   -1    0    0  501    0  0.00000000000E+00  0.00000000000E+00  0.14375870683E+04  0.14375870683E+04  0.50400001928E-02 0.  1.
       -1   -1    0    0    0  501  0.00000000000E+00  0.00000000000E+00 -0.21266302519E+04  0.21266302519E+04  0.50400001928E-02 0. -1.
    10030    2    1    2    0    0  0.00000000000E+00  0.00000000000E+00 -0.68904318358E+03  0.35642173203E+04  0.34969793533E+04 0.  0.
        3    1    3    3  502    0 -0.56901310714E+03 -0.12204661035E+04  0.79222671420E+03  0.15623497057E+04  0.10100000352E+00 0.  1.
       -3    1    3    3    0  502  0.56901310714E+03  0.12204661035E+04 -0.14812698978E+04  0.20018676146E+04  0.10100000352E+00 0. -1.
</event>
<event>
 5   0  0.2073287E-06  0.3436205E+04  0.7818609E-02  0.8129077E-01
       -2   -1    0    0    0  501  0.00000000000E+00  0.00000000000E+00  0.12524391913E+04  0.12524391913E+04  0.25500000920E-02 0. -1.
        2   -1    0    0  501    0  0.00000000000E+00  0.00000000000E+00 -0.23569012296E+04  0.23569012296E+04  0.25500000920E-02 0.  1.
    10030    2    1    2    0    0  0.00000000000E+00  0.00000000000E+00 -0.11044620383E+04  0.36093404209E+04  0.34362045748E+04 0.  0.
        1    1    3    3  502    0 -0.10145848450E+04 -0.69214692850E+03 -0.18141923546E+04  0.21908317320E+04  0.50400001928E-02 0.  1.
       -1    1    3    3    0  502  0.10145848450E+04  0.69214692850E+03  0.70973031633E+03  0.14185086889E+04  0.50400001928E-02 0. -1.
</event>
<event>
 5   0  0.6630125E-07  0.3694032E+04  0.7818609E-02  0.8069286E-01
        1   -1    0    0  501    0  0.00000000000E+00  0.00000000000E+00  0.18011335688E+04  0.18011335688E+04  0.50400001928E-02 0.  1.
       -1   -1    0    0    0  501  0.00000000000E+00  0.00000000000E+00 -0.18940669099E+04  0.18940669099E+04  0.50400001928E-02 0. -1.
    10030    2    1    2    0    0  0.00000000000E+00  0.00000000000E+00 -0.92933341089E+02  0.36952004787E+04  0.36940316690E+04 0.  0.
        1    1    3    3  502    0 -0.12258458539E+04  0.13722869082E+04  0.11357794267E+03  0.18435751585E+04  0.50400001928E-02 0.  1.
       -1    1    3    3    0  502  0.12258458539E+04 -0.13722869082E+04 -0.20651128376E+03  0.18516253202E+04  0.50400001928E-02 0. -1.
</event>
<event>
 5   0  0.2020725E-06  0.3394272E+04  0.7818609E-02  0.8139313E-01
        2   -1    0    0  501    0  0.00000000000E+00  0.00000000000E+00  0.16627167799E+04  0.16627167799E+04  0.25500000920E-02 0.  1.
       -2   -1    0    0    0  501  0.00000000000E+00  0.00000000000E+00 -0.17322681890E+04  0.17322681890E+04  0.25500000920E-02 0. -1.
    10030    2    1    2    0    0  0.00000000000E+00  0.00000000000E+00 -0.69551409099E+02  0.33949849689E+04  0.33942724611E+04 0.  0.
        3    1    3    3  502    0 -0.68446334485E+03 -0.65663320405E+03  0.13728626536E+04  0.16686548807E+04  0.10100000352E+00 0.  1.
       -3    1    3    3    0  502  0.68446334485E+03  0.65663320405E+03 -0.14424140627E+04  0.17263300882E+04  0.10100000352E+00 0. -1.
</event>
<event>
 5   0  0.2020725E-06  0.4056469E+04  0.7818609E-02  0.7993251E-01
       -2   -1    0    0    0  501  0.00000000000E+00  0.00000000000E+00  0.30992110948E+04  0.30992110948E+04  0.25500000920E-02 0. -1.
        2   -1    0    0  501    0  0.00000000000E+00  0.00000000000E+00 -0.13273490751E+04  0.13273490751E+04  0.25500000920E-02 0.  1.
    10030    2    1    2    0    0  0.00000000000E+00  0.00000000000E+00  0.17718620197E+04  0.44265601699E+04  0.40564688980E+04 0.  0.
        3    1    3    3  502    0  0.18246796052E+04 -0.88345665956E+03  0.95305427474E+03  0.22401481629E+04  0.10100000352E+00 0.  1.
       -3    1    3    3    0  502 -0.18246796052E+04  0.88345665956E+03  0.81880774491E+03  0.21864120070E+04  0.10100000352E+00 0. -1.
</event>
<event>
 5   0  0.1999883E-06  0.3034308E+04  0.7818609E-02  0.8234001E-01
       -2   -1    0    0    0  501  0.00000000000E+00  0.00000000000E+00  0.15257835673E+04  0.15257835673E+04  0.25500000920E-02 0. -1.
        2   -1    0    0  501    0  0.00000000000E+00  0.00000000000E+00 -0.15085730791E+04  0.15085730791E+04  0.25500000920E-02 0.  1.
    10030    2    1    2    0    0  0.00000000000E+00  0.00000000000E+00  0.17210488224E+02  0.30343566464E+04  0.30343078382E+04 0.  0.
        4    1    3    3  502    0 -0.19776001650E+03  0.58050442677E+03 -0.13790985926E+04  0.15093074420E+04  0.12699999809E+01 0.  1.
       -4    1    3    3    0  502  0.19776001650E+03 -0.58050442677E+03  0.13963090808E+04  0.15250492044E+04  0.12699999809E+01 0. -1.
</event>
<event>
 5   0  0.6890600E-07  0.3479026E+04  0.7818609E-02  0.8118779E-01
       -1   -1    0    0    0  501  0.00000000000E+00  0.00000000000E+00  0.21239465580E+04  0.21239465580E+04  0.50400001928E-02 0.  1.
        1   -1    0    0  501    0  0.00000000000E+00  0.00000000000E+00 -0.14246617080E+04  0.14246617080E+04  0.50400001928E-02 0. -1.
    10030    2    1    2    0    0  0.00000000000E+00  0.00000000000E+00  0.69928484998E+03  0.35486082661E+04  0.34790259160E+04 0.  0.
        3    1    3    3  502    0 -0.86338744691E+03  0.41124007587E+03  0.18317523421E+04  0.20663670865E+04  0.10100000352E+00 0.  1.
       -3    1    3    3    0  502  0.86338744691E+03 -0.41124007587E+03 -0.11324674921E+04  0.14822411795E+04  0.10100000352E+00 0. -1.
</event>
<event>
 5   0  0.1999883E-06  0.3399984E+04  0.7818609E-02  0.8137910E-01
        2   -1    0    0  501    0  0.00000000000E+00  0.00000000000E+00  0.13801538928E+04  0.13801538928E+04  0.25500000920E-02 0. -1.
       -2   -1    0    0    0  501  0.00000000000E+00  0.00000000000E+00 -0.20939492256E+04  0.20939492256E+04  0.25500000920E-02 0.  1.
    10030    2    1    2    0    0  0.00000000000E+00  0.00000000000E+00 -0.71379533281E+03  0.34741031185E+04  0.33999836324E+04 0.  0.
        4    1    3    3  502    0 -0.16052657621E+04 -0.36036352543E+03 -0.79428357949E+03  0.18269176377E+04  0.12699999809E+01 0.  1.
       -4    1    3    3    0  502  0.16052657621E+04  0.36036352543E+03  0.80488246679E+02  0.16471854808E+04  0.12699999809E+01 0. -1.
</event>
<event>
 5   0  0.6630125E-07  0.2601474E+04  0.7818609E-02  0.8367701E-01
       -1   -1    0    0    0  501  0.00000000000E+00  0.00000000000E+00  0.70615976533E+03  0.70615976535E+03  0.50400001928E-02 0. -1.
        1   -1    0    0  501    0  0.00000000000E+00  0.00000000000E+00 -0.23959395328E+04  0.23959395328E+04  0.50400001928E-02 0.  1.
    10030    2    1    2    0    0  0.00000000000E+00  0.00000000000E+00 -0.16897797675E+04  0.31020992981E+04  0.26014735042E+04 0.  0.
        5    1    3    3  502    0  0.62434731445E+02  0.97425607404E+03 -0.18698475034E+04  0.21093659638E+04  0.46999998093E+01 0.  1.
       -5    1    3    3    0  502 -0.62434731445E+02 -0.97425607404E+03  0.18006773594E+03  0.99273333429E+03  0.46999998093E+01 0. -1.
</event>
<event>
 5   0  0.2073287E-06  0.3355178E+04  0.7818609E-02  0.8148996E-01
        2   -1    0    0  501    0  0.00000000000E+00  0.00000000000E+00  0.19228431723E+04  0.19228431723E+04  0.25500000920E-02 0.  1.
       -2   -1    0    0    0  501  0.00000000000E+00  0.00000000000E+00 -0.14636164501E+04  0.14636164502E+04  0.25500000920E-02 0. -1.
    10030    2    1    2    0    0  0.00000000000E+00  0.00000000000E+00  0.45922672214E+03  0.33864596224E+04  0.33551780269E+04 0.  0.
        1    1    3    3  502    0 -0.36416770176E+03  0.75221407560E+02 -0.14214954762E+04  0.14693283378E+04  0.50400001928E-02 0. -1.
       -1    1    3    3    0  502  0.36416770176E+03 -0.75221407560E+02  0.18807221984E+04  0.19171312847E+04  0.50400001928E-02 0.  1.
</event>
<event>
 5   0  0.7378896E-07  0.2280240E+04  0.7818609E-02  0.8485753E-01
       -1   -1    0    0    0  501  0.00000000000E+00  0.00000000000E+00  0.10438162230E+04  0.10438162230E+04  0.50400001928E-02 0.  1.
        1   -1    0    0  501    0  0.00000000000E+00  0.00000000000E+00 -0.12453090090E+04  0.12453090090E+04  0.50400001928E-02 0. -1.
    10030    2    1    2    0    0  0.00000000000E+00  0.00000000000E+00 -0.20149278602E+03  0.22891252320E+04  0.22802401157E+04 0.  0.
        2    1    3    3  502    0 -0.55985263351E+03  0.76228869666E+03 -0.73990197583E+03  0.12008222026E+04  0.25500000920E-02 0. -1.
       -2    1    3    3    0  502  0.55985263351E+03 -0.76228869666E+03  0.53840918981E+03  0.10883030295E+04  0.25500000920E-02 0.  1.
</event>
<event>
 5   0  0.2023479E-06  0.3635601E+04  0.7818609E-02  0.8082385E-01
       -2   -1    0    0    0  501  0.00000000000E+00  0.00000000000E+00  0.19874452041E+04  0.19874452041E+04  0.25500000920E-02 0.  1.
        2   -1    0    0  501    0  0.00000000000E+00  0.00000000000E+00 -0.16626367511E+04  0.16626367511E+04  0.25500000920E-02 0. -1.
    10030    2    1    2    0    0  0.00000000000E+00  0.00000000000E+00  0.32480845299E+03  0.36500819552E+04  0.36356014287E+04 0.  0.
        5    1    3    3  502    0  0.11913844319E+04  0.22198614290E+03 -0.11978732780E+04  0.17039944813E+04  0.46999998093E+01 0. -1.
       -5    1    3    3    0  502 -0.11913844319E+04 -0.22198614290E+03  0.15226817310E+04  0.19460874739E+04  0.46999998093E+01 0.  1.
</event>
<event>
 5   0  0.6890600E-07  0.3456609E+04  0.7818609E-02  0.8124151E-01
        1   -1    0    0  501    0  0.00000000000E+00  0.00000000000E+00  0.18534283277E+04  0.18534283277E+04  0.50400001928E-02 0.  1.
       -1   -1    0    0    0  501  0.00000000000E+00  0.00000000000E+00 -0.16116272951E+04  0.16116272951E+04  0.50400001928E-02 0. -1.
    10030    2    1    2    0    0  0.00000000000E+00  0.00000000000E+00  0.24180103259E+03  0.34650556228E+04  0.34566085589E+04 0.  0.
        3    1    3    3  502    0  0.19839929402E+03  0.99977466477E+03 -0.12782624749E+04  0.16348904015E+04  0.10100000352E+00 0. -1.
       -3    1    3    3    0  502 -0.19839929402E+03 -0.99977466477E+03  0.15200635075E+04  0.18301652212E+04  0.10100000352E+00 0.  1.
</event>
<event>
 5   0  0.6890600E-07  0.3519659E+04  0.7818609E-02  0.8109147E-01
        1   -1    0    0  501    0  0.00000000000E+00  0.00000000000E+00  0.13242672745E+04  0.13242672745E+04  0.50400001928E-02 0.  1.
       -1   -1    0    0    0  501  0.00000000000E+00  0.00000000000E+00 -0.23386520564E+04  0.23386520564E+04  0.50400001928E-02 0. -1.
    10030    2    1    2    0    0  0.00000000000E+00  0.00000000000E+00 -0.10143847819E+04  0.36629193309E+04  0.35196592930E+04 0.  0.
        3    1    3    3  502    0  0.10507544475E+04  0.11892628108E+04 -0.12987899955E+04  0.20506794983E+04  0.10100000352E+00 0. -1.
       -3    1    3    3    0  502 -0.10507544475E+04 -0.11892628108E+04  0.28440521367E+03  0.16122398326E+04  0.10100000352E+00 0.  1.
</event>
<event>
 5   0  0.6630125E-07  0.3501548E+04  0.7818609E-02  0.8113423E-01
       -3   -1    0    0    0  501  0.00000000000E+00  0.00000000000E+00  0.16362883808E+04  0.16362883839E+04  0.10100000352E+00 0. -1.
        3   -1    0    0  501    0  0.00000000000E+00  0.00000000000E+00 -0.18732703010E+04  0.18732703037E+04  0.10100000352E+00 0.  1.
    10030    2    1    2    0    0  0.00000000000E+00  0.00000000000E+00 -0.23698192021E+03  0.35095586876E+04  0.35015484791E+04 0.  0.
        4    1    3    3  502    0 -0.15723625652E+04  0.22321464553E+03 -0.85710282110E+03  0.18046538929E+04  0.12699999809E+01 0.  1.
       -4    1    3    3    0  502  0.15723625652E+04 -0.22321464553E+03  0.62012090088E+03  0.17049047947E+04  0.12699999809E+01 0. -1.
</event>
<event>
 5   0  0.6630125E-07  0.3481597E+04  0.7818609E-02  0.8118165E-01
        1   -1    0    0  501    0  0.00000000000E+00  0.00000000000E+00  0.10488097901E+04  0.10488097901E+04  0.50400001928E-02 0. -1.
       -1   -1    0    0    0  501  0.00000000000E+00  0.00000000000E+00 -0.28893513193E+04  0.28893513193E+04  0.50400001928E-02 0.  1.
    10030    2    1    2    0    0  0.00000000000E+00  0.00000000000E+00 -0.18405415291E+04  0.39381611094E+04  0.34815973063E+04 0.  0.
        1    1    3    3  502    0  0.18918061424E+03  0.71818649574E+02  0.10354611992E+04  0.10550483962E+04  0.50400001928E-02 0. -1.
       -1    1    3    3    0  502 -0.18918061424E+03 -0.71818649574E+02 -0.28760027284E+04  0.28831127132E+04  0.50400001928E-02 0.  1.
</event>
<event>
 5   0  0.7378896E-07  0.2435479E+04  0.7818609E-02  0.8426339E-01
        1   -1    0    0  501    0  0.00000000000E+00  0.00000000000E+00  0.14013075614E+04  0.14013075614E+04  0.50400001928E-02 0. -1.
       -1   -1    0    0    0  501  0.00000000000E+00  0.00000000000E+00 -0.10582186279E+04  0.10582186279E+04  0.50400001928E-02 0.  1.
    10030    2    1    2    0    0  0.00000000000E+00  0.00000000000E+00  0.34308893347E+03  0.24595261893E+04  0.24354792258E+04 0.  0.
        2    1    3    3  502    0  0.37312927604E+03  0.44873230786E+03 -0.90779435774E+03  0.10792018980E+04  0.25500000920E-02 0.  1.
       -2    1    3    3    0  502 -0.37312927604E+03 -0.44873230786E+03  0.12508832912E+04  0.13803242912E+04  0.25500000920E-02 0. -1.
</event>
<event>
 5   0  0.6630125E-07  0.3364240E+04  0.7818609E-02  0.8146739E-01
       -1   -1    0    0    0  501  0.00000000000E+00  0.00000000000E+00  0.93044872787E+03  0.93044872789E+03  0.50400001928E-02 0.  1.
        1   -1    0    0  501    0  0.00000000000E+00  0.00000000000E+00 -0.30410360633E+04  0.30410360633E+04  0.50400001928E-02 0. -1.
    10030    2    1    2    0    0  0.00000000000E+00  0.00000000000E+00 -0.21105873354E+04  0.39714847912E+04  0.33642402628E+04 0.  0.
        5    1    3    3  502    0 -0.58549124844E+03  0.86584604113E+03  0.50055693982E+03  0.11589084127E+04  0.46999998093E+01 0.  1.
       -5    1    3    3    0  502  0.58549124844E+03 -0.86584604113E+03 -0.26111442752E+04  0.28125763785E+04  0.46999998093E+01 0. -1.
</event>
<event>
 5   0  0.2023479E-06  0.3542186E+04  0.7818609E-02  0.8103864E-01
       -2   -1    0    0    0  501  0.00000000000E+00  0.00000000000E+00  0.15443579448E+04  0.15443579449E+04  0.25500000920E-02 0.  1.
        2   -1    0    0  501    0  0.00000000000E+00  0.00000000000E+00 -0.20311166971E+04  0.20311166972E+04  0.25500000920E-02 0. -1.
    10030    2    1    2    0    0  0.00000000000E+00  0.00000000000E+00 -0.48675875230E+03  0.35754746420E+04  0.35421864480E+04 0.  0.
        5    1    3    3  502    0  0.12414483622E+03 -0.12081180839E+04 -0.15445974226E+04  0.19648828293E+04  0.46999998093E+01 0. -1.
       -5    1    3    3    0  502 -0.12414483622E+03  0.12081180839E+04  0.10578386703E+04  0.16105918127E+04  0.46999998093E+01 0.  1.
</event>
<event>
 5   0  0.6630125E-07  0.2566212E+04  0.7818609E-02  0.8379769E-01
        1   -1    0    0  501    0  0.00000000000E+00  0.00000000000E+00  0.15558002082E+04  0.15558002082E+04  0.50400001928E-02 0. -1.
       -1   -1    0    0    0  501  0.00000000000E+00  0.00000000000E+00 -0.10582088260E+04  0.10582088260E+04  0.50400001928E-02 0.  1.
    10030    2    1    2    0    0  0.00000000000E+00  0.00000000000E+00  0.49759138223E+03  0.26140090342E+04  0.25662123933E+04 0.  0.
        5    1    3    3  502    0 -0.53933725888E+03  0.30427966051E+03 -0.89590929384E+03  0.10891034585E+04  0.46999998093E+01 0.  1.
       -5    1    3    3    0  502  0.53933725888E+03 -0.30427966051E+03  0.13935006761E+04  0.15249055757E+04  0.46999998093E+01 0. -1.
</event>
<event>
 5   0  0.2073287E-06  0.3463468E+04  0.7818609E-02  0.8122503E-01
        2   -1    0    0  501    0  0.00000000000E+00  0.00000000000E+00  0.21286278101E+04  0.21286278101E+04  0.25500000920E-02 0.  1.
       -2   -1    0    0    0  501  0.00000000000E+00  0.00000000000E+00 -0.14088431874E+04  0.14088431874E+04  0.25500000920E-02 0. -1.
    10030    2    1    2    0    0  0.00000000000E+00  0.00000000000E+00  0.71978462272E+03  0.35374709974E+04  0.34634680819E+04 0.  0.
        1    1    3    3  502    0  0.60266330628E+03 -0.71272454448E+03  0.18497311386E+04  0.20718794903E+04  0.50400001928E-02 0.  1.
       -1    1    3    3    0  502 -0.60266330628E+03  0.71272454448E+03 -0.11299465159E+04  0.14655915072E+04  0.50400001928E-02 0. -1.
</event>
<event>
 5   0  0.6630125E-07  0.3487495E+04  0.7818609E-02  0.8116760E-01
        1   -1    0    0  501    0  0.00000000000E+00  0.00000000000E+00  0.19003589188E+04  0.19003589188E+04  0.50400001928E-02 0.  1.
       -1   -1    0    0    0  501  0.00000000000E+00  0.00000000000E+00 -0.16000428163E+04  0.16000428163E+04  0.50400001928E-02 0. -1.
    10030    2    1    2    0    0  0.00000000000E+00  0.00000000000E+00  0.30031610247E+03  0.35004017351E+04  0.34874951678E+04 0.  0.
        1    1    3    3  502    0 -0.15400123531E+04  0.42737474091E+03 -0.54982408989E+03  0.16901460726E+04  0.50400001928E-02 0. -1.
       -1    1    3    3    0  502  0.15400123531E+04 -0.42737474091E+03  0.85014019235E+03  0.18102556625E+04  0.50400001928E-02 0.  1.
</event>
<event>
 5   0  0.1999883E-06  0.3509810E+04  0.7818609E-02  0.8111469E-01
        2   -1    0    0  501    0  0.00000000000E+00  0.00000000000E+00  0.29377777582E+04  0.29377777582E+04  0.25500000920E-02 0. -1.
       -2   -1    0    0    0  501  0.00000000000E+00  0.00000000000E+00 -0.10483067387E+04  0.10483067387E+04  0.25500000920E-02 0.  1.
    10030    2    1    2    0    0  0.00000000000E+00  0.00000000000E+00  0.18894710195E+04  0.39860844969E+04  0.35098103771E+04 0.  0.
        4    1    3    3  502    0  0.15462728819E+04 -0.40956911787E+03  0.12499762532E+03  0.16044727193E+04  0.12699999809E+01 0.  1.
       -4    1    3    3    0  502 -0.15462728819E+04  0.40956911787E+03  0.17644733941E+04  0.23816117776E+04  0.12699999809E+01 0. -1.
</event>
<event>
 5   0  0.2020725E-06  0.3482611E+04  0.7818609E-02  0.8117923E-01
       -2   -1    0    0    0  501  0.00000000000E+00  0.00000000000E+00  0.18774431889E+04  0.18774431889E+04  0.25500000920E-02 0.  1.
        2   -1    0    0  501    0  0.00000000000E+00  0.00000000000E+00 -0.16150392508E+04  0.16150392508E+04  0.25500000920E-02 0. -1.
    10030    2    1    2    0    0  0.00000000000E+00  0.00000000000E+00  0.26240393816E+03  0.34924824397E+04  0.34826107685E+04 0.  0.
        3    1    3    3  502    0 -0.11265386612E+04 -0.31571319159E+03  0.14245787609E+04  0.18434177038E+04  0.10100000352E+00 0.  1.
       -3    1    3    3    0  502  0.11265386612E+04  0.31571319159E+03 -0.11621748227E+04  0.16490647359E+04  0.10100000352E+00 0. -1.
</event>
<event>
 5   0  0.6890600E-07  0.3394505E+04  0.7818609E-02  0.8139256E-01
       -1   -1    0    0    0  501  0.00000000000E+00  0.00000000000E+00  0.15097853908E+04  0.15097853908E+04  0.50400001928E-02 0. -1.
        1   -1    0    0  501    0  0.00000000000E+00  0.00000000000E+00 -0.19079972555E+04  0.19079972555E+04  0.50400001928E-02 0.  1.
    10030    2    1    2    0    0  0.00000000000E+00  0.00000000000E+00 -0.39821186477E+03  0.34177826463E+04  0.33945051964E+04 0.  0.
        3    1    3    3  502    0  0.84106677160E+03 -0.79919767255E+03 -0.14463727049E+04  0.18542125676E+04  0.10100000352E+00 0.  1.
       -3    1    3    3    0  502 -0.84106677160E+03  0.79919767255E+03  0.10481608401E+04  0.15635700787E+04  0.10100000352E+00 0. -1.
</event>
<event>
 5   0  0.6630125E-07  0.3379148E+04  0.7818609E-02  0.8143043E-01
       -1   -1    0    0    0  501  0.00000000000E+00  0.00000000000E+00  0.11719277346E+04  0.11719277346E+04  0.50400001928E-02 0.  1.
        1   -1    0    0  501    0  0.00000000000E+00  0.00000000000E+00 -0.24358671463E+04  0.24358671463E+04  0.50400001928E-02 0. -1.
    10030    2    1    2    0    0  0.00000000000E+00  0.00000000000E+00 -0.12639394117E+04  0.36077948809E+04  0.33791479793E+04 0.  0.
        5    1    3    3  502    0  0.15565140636E+04 -0.65711788759E+03 -0.64255133117E+03  0.18076045617E+04  0.46999998093E+01 0.  1.
       -5    1    3    3    0  502 -0.15565140636E+04  0.65711788759E+03 -0.62138808056E+03  0.18001903191E+04  0.46999998093E+01 0. -1.
</event>
<event>
 5   0  0.6630125E-07  0.3557574E+04  0.7818609E-02  0.8100279E-01
        3   -1    0    0  501    0  0.00000000000E+00  0.00000000000E+00  0.16958670708E+04  0.16958670738E+04  0.10100000352E+00 0.  1.
       -3   -1    0    0    0  501  0.00000000000E+00  0.00000000000E+00 -0.18657617219E+04  0.18657617246E+04  0.10100000352E+00 0. -1.
    10030    2    1    2    0    0  0.00000000000E+00  0.00000000000E+00 -0.16989465108E+03  0.35616287984E+04  0.35575743851E+04 0.  0.
        5    1    3    3  502    0 -0.11114946637E+03  0.13735855403E+03  0.16870529576E+04  0.16962875193E+04  0.46999998093E+01 0.  1.
       -5    1    3    3    0  502  0.11114946637E+03 -0.13735855403E+03 -0.18569476087E+04  0.18653412791E+04  0.46999998093E+01 0. -1.
</event>
<event>
 5   0  0.6630125E-07  0.3486342E+04  0.7818609E-02  0.8117034E-01
       -1   -1    0    0    0  501  0.00000000000E+00  0.00000000000E+00  0.15606451124E+04  0.15606451124E+04  0.50400001928E-02 0. -1.
        1   -1    0    0  501    0  0.00000000000E+00  0.00000000000E+00 -0.19470440766E+04  0.19470440766E+04  0.50400001928E-02 0.  1.
    10030    2    1    2    0    0  0.00000000000E+00  0.00000000000E+00 -0.38639896419E+03  0.35076891891E+04  0.34863418202E+04 0.  0.
        4    1    3    3  502    0  0.73795072954E+03 -0.59274057556E+03 -0.16659694462E+04  0.19160815425E+04  0.12699999809E+01 0.  1.
       -4    1    3    3    0  502 -0.73795072954E+03  0.59274057556E+03  0.12795704820E+04  0.15916076465E+04  0.12699999809E+01 0. -1.
</event>
<event>
 5   0  0.2020725E-06  0.3642536E+04  0.7818609E-02  0.8080817E-01
       -2   -1    0    0    0  501  0.00000000000E+00  0.00000000000E+00  0.15582792103E+04  0.15582792103E+04  0.25500000920E-02 0. -1.
        2   -1    0    0  501    0  0.00000000000E+00  0.00000000000E+00 -0.21286410789E+04  0.21286410789E+04  0.25500000920E-02 0.  1.
    10030    2    1    2    0    0  0.00000000000E+00  0.00000000000E+00 -0.57036186856E+03  0.36869202892E+04  0.36425360064E+04 0.  0.
        3    1    3    3  502    0  0.82004967227E+03  0.13530956329E+04  0.62784576791E+03  0.17022160777E+04  0.10100000352E+00 0. -1.
       -3    1    3    3    0  502 -0.82004967227E+03 -0.13530956329E+04 -0.11982076365E+04  0.19847042115E+04  0.10100000352E+00 0.  1.
</event>
<event>
 5   0  0.2001768E-06  0.3532526E+04  0.7818609E-02  0.8106125E-01
        2   -1    0    0  501    0  0.00000000000E+00  0.00000000000E+00  0.28662186447E+04  0.28662186448E+04  0.25500000920E-02 0. -1.
       -2   -1    0    0    0  501  0.00000000000E+00  0.00000000000E+00 -0.10884325098E+04  0.10884325098E+04  0.25500000920E-02 0.  1.
    10030    2    1    2    0    0  0.00000000000E+00  0.00000000000E+00  0.17777861350E+04  0.39546511545E+04  0.35325263215E+04 0.  0.
        2    1    3    3  502    0 -0.54929168128E+03  0.86994740904E+02 -0.98785743839E+03  0.11336453390E+04  0.25500000920E-02 0.  1.
       -2    1    3    3    0  502  0.54929168128E+03 -0.86994740904E+02  0.27656435734E+04  0.28210058155E+04  0.25500000920E-02 0. -1.
</event>
<event>
 5   0  0.2020725E-06  0.2214241E+04  0.7818609E-02  0.8512524E-01
       -2   -1    0    0    0  501  0.00000000000E+00  0.00000000000E+00  0.12070505106E+04  0.12070505106E+04  0.25500000920E-02 0. -1.
        2   -1    0    0  501    0  0.00000000000E+00  0.00000000000E+00 -0.10154637393E+04  0.10154637393E+04  0.25500000920E-02 0.  1.
    10030    2    1    2    0    0  0.00000000000E+00  0.00000000000E+00  0.19158677132E+03  0.22225142500E+04  0.22142412019E+04 0.  0.
        3    1    3    3  502    0  0.33659898575E+03 -0.12609420138E+03  0.11468530947E+04  0.12018613297E+04  0.10100000352E+00 0. -1.
       -3    1    3    3    0  502 -0.33659898575E+03  0.12609420138E+03 -0.95526632339E+03  0.10206529203E+04  0.10100000352E+00 0.  1.
</event>
<event>
 5   0  0.2001768E-06  0.3587582E+04  0.7818609E-02  0.8093342E-01
       -2   -1    0    0    0  501  0.00000000000E+00  0.00000000000E+00  0.12752478289E+04  0.12752478289E+04  0.25500000920E-02 0.  1.
        2   -1    0    0  501    0  0.00000000000E+00  0.00000000000E+00 -0.25231850545E+04  0.25231850545E+04  0.25500000920E-02 0. -1.
    10030    2    1    2    0    0  0.00000000000E+00  0.00000000000E+00 -0.12479372256E+04  0.37984328834E+04  0.35875820618E+04 0.  0.
        2    1    3    3  502    0  0.37475686020E+03 -0.74666475126E+03 -0.23046294256E+04  0.24513807832E+04  0.25500000920E-02 0. -1.
       -2    1    3    3    0  502 -0.37475686020E+03  0.74666475126E+03  0.10566922000E+04  0.13470521002E+04  0.25500000920E-02 0.  1.
</event>
<event>
 5   0  0.2020725E-06  0.3513632E+04  0.7818609E-02  0.8110567E-01
        2   -1    0    0  501    0  0.00000000000E+00  0.00000000000E+00  0.30444426041E+04  0.30444426041E+04  0.25500000920E-02 0.  1.
       -2   -1    0    0    0  501  0.00000000000E+00  0.00000000000E+00 -0.10137823617E+04  0.10137823617E+04  0.25500000920E-02 0. -1.
    10030    2    1    2    0    0  0.00000000000E+00  0.00000000000E+00  0.20306602425E+04  0.40582249658E+04  0.35136318607E+04 0.  0.
        3    1    3    3  502    0  0.15749834976E+04 -0.77645154567E+03  0.95257466881E+03  0.19977108225E+04  0.10100000352E+00 0. -1.
       -3    1    3    3    0  502 -0.15749834976E+04  0.77645154567E+03  0.10780855737E+04  0.20605141433E+04  0.10100000352E+00 0.  1.
</event>
<event>
 5   0  0.2023479E-06  0.3485580E+04  0.7818609E-02  0.8117216E-01
       -2   -1    0    0    0  501  0.00000000000E+00  0.00000000000E+00  0.15563695799E+04  0.15563695799E+04  0.25500000920E-02 0.  1.
        2   -1    0    0  501    0  0.00000000000E+00  0.00000000000E+00 -0.19515400436E+04  0.19515400436E+04  0.25500000920E-02 0. -1.
    10030    2    1    2    0    0  0.00000000000E+00  0.00000000000E+00 -0.39517046372E+03  0.35079096235E+04  0.34855803292E+04 0.  0.
        5    1    3    3  502    0  0.16687170377E+04 -0.66664150533E+02  0.30383821565E+03  0.16974688251E+04  0.46999998093E+01 0.  1.
       -5    1    3    3    0  502 -0.16687170377E+04  0.66664150533E+02 -0.69900867938E+03  0.18104407984E+04  0.46999998093E+01 0. -1.
</event>
<event>
 5   0  0.1999883E-06  0.3510690E+04  0.7818609E-02  0.8111261E-01
        2   -1    0    0  501    0  0.00000000000E+00  0.00000000000E+00  0.19624667121E+04  0.19624667121E+04  0.25500000920E-02 0.  1.
       -2   -1    0    0    0  501  0.00000000000E+00  0.00000000000E+00 -0.15700832289E+04  0.15700832289E+04  0.25500000920E-02 0. -1.
    10030    2    1    2    0    0  0.00000000000E+00  0.00000000000E+00  0.39238348322E+03  0.35325499410E+04  0.35106900016E+04 0.  0.
        4    1    3    3  502    0  0.47710001825E+03 -0.16307259947E+04  0.63977997022E+03  0.18155472234E+04  0.12699999809E+01 0. -1.
       -4    1    3    3    0  502 -0.47710001825E+03  0.16307259947E+04 -0.24739648700E+03  0.17170027175E+04  0.12699999809E+01 0.  1.
</event>
<event>
 5   0  0.1999883E-06  0.3625654E+04  0.7818609E-02  0.8084640E-01
        2   -1    0    0  501    0  0.00000000000E+00  0.00000000000E+00  0.17952725072E+04  0.17952725072E+04  0.25500000920E-02 0. -1.
       -2   -1    0    0    0  501  0.00000000000E+00  0.00000000000E+00 -0.18305534609E+04  0.18305534609E+04  0.25500000920E-02 0.  1.
    10030    2    1    2    0    0  0.00000000000E+00  0.00000000000E+00 -0.35280953657E+02  0.36258259681E+04  0.36256543141E+04 0.  0.
        4    1    3    3  502    0  0.21468806088E+03  0.11022127619E+04 -0.14408651734E+04  0.18267616147E+04  0.12699999809E+01 0.  1.
       -4    1    3    3    0  502 -0.21468806088E+03 -0.11022127619E+04  0.14055842198E+04  0.17990643534E+04  0.12699999809E+01 0. -1.
</event>
<event>
 5   0  0.6630125E-07  0.3504831E+04  0.7818609E-02  0.8112646E-01
        1   -1    0    0  501    0  0.00000000000E+00  0.00000000000E+00  0.10590355699E+04  0.10590355699E+04  0.50400001928E-02 0. -1.
       -1   -1    0    0    0  501  0.00000000000E+00  0.00000000000E+00 -0.28997711747E+04  0.28997711747E+04  0.50400001928E-02 0.  1.
    10030    2    1    2    0    0  0.00000000000E+00  0.00000000000E+00 -0.18407356048E+04  0.39588067446E+04  0.35048314188E+04 0.  0.
        1    1    3    3  502    0  0.34627363258E+03  0.16848894684E+04 -0.12987225165E+04  0.21553278461E+04  0.50400001928E-02 0.  1.
       -1    1    3    3    0  502 -0.34627363258E+03 -0.16848894684E+04 -0.54201308832E+03  0.18034788985E+04  0.50400001928E-02 0. -1.
</event>
<event>
 5   0  0.2001768E-06  0.3373107E+04  0.7818609E-02  0.8144539E-01
        2   -1    0    0  501    0  0.00000000000E+00  0.00000000000E+00  0.23872958448E+04  0.23872958448E+04  0.25500000920E-02 0.  1.
       -2   -1    0    0    0  501  0.00000000000E+00  0.00000000000E+00 -0.11914996036E+04  0.11914996036E+04  0.25500000920E-02 0. -1.
    10030    2    1    2    0    0  0.00000000000E+00  0.00000000000E+00  0.11957962412E+04  0.35787954484E+04  0.33731066113E+04 0.  0.
        2    1    3    3  502    0  0.19413760253E+03  0.86757923229E+03  0.21184994691E+04  0.22974819115E+04  0.25500000920E-02 0.  1.
       -2    1    3    3    0  502 -0.19413760253E+03 -0.86757923229E+03 -0.92270322794E+03  0.12813135369E+04  0.25500000920E-02 0. -1.
</event>
<event>
 5   0  0.6630125E-07  0.3546049E+04  0.7818609E-02  0.8102963E-01
        1   -1    0    0  501    0  0.00000000000E+00  0.00000000000E+00  0.16377538841E+04  0.16377538841E+04  0.50400001928E-02 0. -1.
       -1   -1    0    0    0  501  0.00000000000E+00  0.00000000000E+00 -0.19194679490E+04  0.19194679490E+04  0.50400001928E-02 0.  1.
    10030    2    1    2    0    0  0.00000000000E+00  0.00000000000E+00 -0.28171406487E+03  0.35572218332E+04  0.35460491192E+04 0.  0.
        5    1    3    3  502    0 -0.12193955594E+04 -0.82352031715E+03  0.85144250828E+03  0.17000257874E+04  0.46999998093E+01 0. -1.
       -5    1    3    3    0  502  0.12193955594E+04  0.82352031715E+03 -0.11331565731E+04  0.18571960457E+04  0.46999998093E+01 0.  1.
</event>
<event>
 5   0  0.6630125E-07  0.3530130E+04  0.7818609E-02  0.8106686E-01
        1   -1    0    0  501    0  0.00000000000E+00  0.00000000000E+00  0.19933765430E+04  0.19933765430E+04  0.50400001928E-02 0.  1.
       -1   -1    0    0    0  501  0.00000000000E+00  0.00000000000E+00 -0.15629033111E+04  0.15629033111E+04  0.50400001928E-02 0. -1.
    10030    2    1    2    0    0  0.00000000000E+00  0.00000000000E+00  0.43047323186E+03  0.35562798541E+04  0.35301301955E+04 0.  0.
        4    1    3    3  502    0  0.78220708808E+03 -0.67378393750E+03 -0.12270179773E+04  0.16035608665E+04  0.12699999809E+01 0. -1.
       -4    1    3    3    0  502 -0.78220708808E+03  0.67378393750E+03  0.16574912092E+04  0.19527189876E+04  0.12699999809E+01 0.  1.
</event>
<event>
 5   0  0.6630125E-07  0.3351004E+04  0.7818609E-02  0.8150037E-01
       -1   -1    0    0    0  501  0.00000000000E+00  0.00000000000E+00  0.15879613183E+04  0.15879613183E+04  0.50400001928E-02 0.  1.
        1   -1    0    0  501    0  0.00000000000E+00  0.00000000000E+00 -0.17678682268E+04  0.17678682268E+04  0.50400001928E-02 0. -1.
    10030    2    1    2    0    0  0.00000000000E+00  0.00000000000E+00 -0.17990690845E+03  0.33558295451E+04  0.33510036467E+04 0.  0.
        5    1    3    3  502    0 -0.14005583128E+04 -0.54935121787E+03 -0.82853434135E+03  0.17175102890E+04  0.46999998093E+01 0. -1.
       -5    1    3    3    0  502  0.14005583128E+04  0.54935121787E+03  0.64862743290E+03  0.16383192561E+04  0.46999998093E+01 0.  1.
</event>
<event>
 5   0  0.2073287E-06  0.2678330E+04  0.7818609E-02  0.8342071E-01
       -2   -1    0    0    0  501  0.00000000000E+00  0.00000000000E+00  0.11780247464E+04  0.11780247464E+04  0.25500000920E-02 0. -1.
        2   -1    0    0  501    0  0.00000000000E+00  0.00000000000E+00 -0.15223473819E+04  0.15223473819E+04  0.25500000920E-02 0.  1.
    10030    2    1    2    0    0  0.00000000000E+00  0.00000000000E+00 -0.34432263554E+03  0.27003721283E+04  0.26783299935E+04 0.  0.
        1    1    3    3  502    0 -0.58774448800E+02 -0.22475423970E+03 -0.15018761523E+04  0.15197371092E+04  0.50400001928E-02 0.  1.
       -1    1    3    3    0  502  0.58774448800E+02  0.22475423970E+03  0.11575535168E+04  0.11806350191E+04  0.50400001928E-02 0. -1.
</event>
<event>
 5   0  0.2020725E-06  0.3463407E+04  0.7818609E-02  0.8122517E-01
       -2   -1    0    0    0  501  0.00000000000E+00  0.00000000000E+00  0.11354697765E+04  0.11354697765E+04  0.25500000920E-02 0. -1.
        2   -1    0    0  501    0  0.00000000000E+00  0.00000000000E+00 -0.26410191663E+04  0.26410191664E+04  0.25500000920E-02 0.  1.
    10030    2    1    2    0    0  0.00000000000E+00  0.00000000000E+00 -0.15055493899E+04  0.37764889428E+04  0.34634072486E+04 0.  0.
        3    1    3    3  502    0  0.12415567188E+04  0.11590796739E+04 -0.11207229544E+04  0.20349321186E+04  0.10100000352E+00 0.  1.
       -3    1    3    3    0  502 -0.12415567188E+04 -0.11590796739E+04 -0.38482643549E+03  0.17415568243E+04  0.10100000352E+00 0. -1.
</event>
<event>
 5   0  0.2023479E-06  0.3438379E+04  0.7818609E-02  0.8128551E-01
        2   -1    0    0  501    0  0.00000000000E+00  0.00000000000E+00  0.21324672960E+04  0.21324672960E+04  0.25500000920E-02 0. -1.
       -2   -1    0    0    0  501  0.00000000000E+00  0.00000000000E+00 -0.13860061048E+04  0.13860061048E+04  0.25500000920E-02 0.  1.
    10030    2    1    2    0    0  0.00000000000E+00  0.00000000000E+00  0.74646119122E+03  0.35184734007E+04  0.34383790893E+04 0.  0.
        5    1    3    3  502    0 -0.12719291964E+04  0.10770460283E+04  0.80466601099E+03  0.18507678155E+04  0.46999998093E+01 0. -1.
       -5    1    3    3    0  502  0.12719291964E+04 -0.10770460283E+04 -0.58204819771E+02  0.16677055852E+04  0.46999998093E+01 0.  1.
</event>
<event>
 5   0  0.6630125E-07  0.3467819E+04  0.7818609E-02  0.8121459E-01
       -1   -1    0    0    0  501  0.00000000000E+00  0.00000000000E+00  0.13788856905E+04  0.13788856906E+04  0.50400001928E-02 0. -1.
        1   -1    0    0  501    0  0.00000000000E+00  0.00000000000E+00 -0.21803414148E+04  0.21803414149E+04  0.50400001928E-02 0.  1.
    10030    2    1    2    0    0  0.00000000000E+00  0.00000000000E+00 -0.80145572430E+03  0.35592271054E+04  0.34678186674E+04 0.  0.
        5    1    3    3  502    0 -0.69336703229E+03 -0.90979137356E+03 -0.17381258221E+04  0.20807646788E+04  0.46999998093E+01 0.  1.
       -5    1    3    3    0  502  0.69336703229E+03  0.90979137356E+03  0.93667009782E+03  0.14784624267E+04  0.46999998093E+01 0. -1.
</event>
<event>
 5   0  0.2020725E-06  0.3394575E+04  0.7818609E-02  0.8139239E-01
       -2   -1    0    0    0  501  0.00000000000E+00  0.00000000000E+00  0.11832448642E+04  0.11832448642E+04  0.25500000920E-02 0. -1.
        2   -1    0    0  501    0  0.00000000000E+00  0.00000000000E+00 -0.24346478747E+04  0.24346478748E+04  0.25500000920E-02 0.  1.
    10030    2    1    2    0    0  0.00000000000E+00  0.00000000000E+00 -0.12514030105E+04  0.36178927390E+04  0.33945748447E+04 0.  0.
        3    1    3    3  502    0 -0.10795033079E+04 -0.48158784746E+03  0.67242947415E+03  0.13599322243E+04  0.10100000352E+00 0. -1.
       -3    1    3    3    0  502  0.10795033079E+04  0.48158784746E+03 -0.19238324847E+04  0.22579605147E+04  0.10100000352E+00 0.  1.
</event>
<event>
 5   0  0.1999883E-06  0.3479771E+04  0.7818609E-02  0.8118601E-01
        2   -1    0    0  501    0  0.00000000000E+00  0.00000000000E+00  0.23339752488E+04  0.23339752488E+04  0.25500000920E-02 0.  1.
       -2   -1    0    0    0  501  0.00000000000E+00  0.00000000000E+00 -0.12970151751E+04  0.12970151751E+04  0.25500000920E-02 0. -1.
    10030    2    1    2    0    0  0.00000000000E+00  0.00000000000E+00  0.10369600737E+04  0.36309904239E+04  0.34797708637E+04 0.  0.
        4    1    3    3  502    0  0.73960158116E+03  0.12894826590E+04  0.14618847952E+04  0.20849184143E+04  0.12699999809E+01 0.  1.
       -4    1    3    3    0  502 -0.73960158116E+03 -0.12894826590E+04 -0.42492472159E+03  0.15460720096E+04  0.12699999809E+01 0. -1.
</event>
<event>
 5   0  0.2023479E-06  0.3491883E+04  0.7818609E-02  0.8115716E-01
       -2   -1    0    0    0  501  0.00000000000E+00  0.00000000000E+00  0.15288096193E+04  0.15288096193E+04  0.25500000920E-02 0.  1.
        2   -1    0    0  501    0  0.00000000000E+00  0.00000000000E+00 -0.19939117376E+04  0.19939117376E+04  0.25500000920E-02 0. -1.
    10030    2    1    2    0    0  0.00000000000E+00  0.00000000000E+00 -0.46510211824E+03  0.35227213569E+04  0.34918828414E+04 0.  0.
        5    1    3    3  502    0 -0.10482045470E+04  0.89527071830E+03  0.84838112495E+03  0.16186460560E+04  0.46999998093E+01 0.  1.
       -5    1    3    3    0  502  0.10482045470E+04 -0.89527071830E+03 -0.13134832432E+04  0.19040753009E+04  0.46999998093E+01 0. -1.
</event>
<event>
 5   0  0.6630125E-07  0.2193507E+04  0.7818609E-02  0.8521135E-01
       -1   -1    0    0    0  501  0.00000000000E+00  0.00000000000E+00  0.18129775917E+04  0.18129775917E+04  0.50400001928E-02 0. -1.
        1   -1    0    0  501    0  0.00000000000E+00  0.00000000000E+00 -0.66347669035E+03  0.66347669037E+03  0.50400001928E-02 0.  1.
    10030    2    1    2    0    0  0.00000000000E+00  0.00000000000E+00  0.11495009013E+04  0.24764542821E+04  0.21935071208E+04 0.  0.
        5    1    3    3  502    0 -0.74004188699E+03 -0.33868919704E+03  0.14047514890E+04  0.16234904381E+04  0.46999998093E+01 0. -1.
       -5    1    3    3    0  502  0.74004188699E+03  0.33868919704E+03 -0.25525058765E+03  0.85296384401E+03  0.46999998093E+01 0.  1.
</event>
<event>
 5   0  0.2020725E-06  0.3529255E+04  0.7818609E-02  0.8106892E-01
       -2   -1    0    0    0  501  0.00000000000E+00  0.00000000000E+00  0.16710968445E+04  0.16710968445E+04  0.25500000920E-02 0. -1.
        2   -1    0    0  501    0  0.00000000000E+00  0.00000000000E+00 -0.18633931014E+04  0.18633931014E+04  0.25500000920E-02 0.  1.
    10030    2    1    2    0    0  0.00000000000E+00  0.00000000000E+00 -0.19229625694E+03  0.35344899459E+04  0.35292550669E+04 0.  0.
        3    1    3    3  502    0  0.12392103136E+04 -0.12531922615E+04 -0.78284531642E+01  0.17624398828E+04  0.10100000352E+00 0.  1.
       -3    1    3    3    0  502 -0.12392103136E+04  0.12531922615E+04 -0.18446780378E+03  0.17720500631E+04  0.10100000352E+00 0. -1.
</event>
<event>
 5   0  0.2073287E-06  0.3525586E+04  0.7818609E-02  0.8107753E-01
       -2   -1    0    0    0  501  0.00000000000E+00  0.00000000000E+00  0.24444591189E+04  0.24444591189E+04  0.25500000920E-02 0.  1.
        2   -1    0    0  501    0  0.00000000000E+00  0.00000000000E+00 -0.12712177693E+04  0.12712177693E+04  0.25500000920E-02 0. -1.
    10030    2    1    2    0    0  0.00000000000E+00  0.00000000000E+00  0.11732413496E+04  0.37156768882E+04  0.35255864013E+04 0.  0.
        1    1    3    3  502    0 -0.30098222879E+03 -0.33585482072E+02 -0.12435947059E+04  0.12799398733E+04  0.50400001928E-02 0. -1.
       -1    1    3    3    0  502  0.30098222879E+03  0.33585482072E+02  0.24168360555E+04  0.24357370149E+04  0.50400001928E-02 0.  1.
</event>
<event>
 5   0  0.1999883E-06  0.3502727E+04  0.7818609E-02  0.8113144E-01
       -2   -1    0    0    0  501  0.00000000000E+00  0.00000000000E+00  0.18012851035E+04  0.18012851035E+04  0.25500000920E-02 0. -1.
        2   -1    0    0  501    0  0.00000000000E+00  0.00000000000E+00 -0.17028258850E+04  0.17028258850E+04  0.25500000920E-02 0.  1.
    10030    2    1    2    0    0  0.00000000000E+00  0.00000000000E+00  0.98459218408E+02  0.35041109885E+04  0.35027274519E+04 0.  0.
        4    1    3    3  502    0  0.12885218425E+04 -0.10499446448E+04  0.60135429364E+03  0.17675692052E+04  0.12699999809E+01 0. -1.
       -4    1    3    3    0  502 -0.12885218425E+04  0.10499446448E+04 -0.50289507523E+03  0.17365417833E+04  0.12699999809E+01 0.  1.
</event>
<event>
 5   0  0.2073287E-06  0.3447011E+04  0.7818609E-02  0.8126464E-01
        2   -1    0    0  501    0  0.00000000000E+00  0.00000000000E+00  0.17638592041E+04  0.17638592041E+04  0.25500000920E-02 0. -1.
       -2   -1    0    0    0  501  0.00000000000E+00  0.00000000000E+00 -0.16840747468E+04  0.16840747468E+04  0.25500000920E-02 0.  1.
    10030    2    1    2    0    0  0.00000000000E+00  0.00000000000E+00  0.79784457322E+02  0.34479339510E+04  0.34470107297E+04 0.  0.
        1    1    3    3  502    0 -0.57152798092E+03 -0.93021535816E+03 -0.12940788049E+04  0.16930991699E+04  0.50400001928E-02 0.  1.
       -1    1    3    3    0  502  0.57152798092E+03  0.93021535816E+03  0.13738632623E+04  0.17548347811E+04  0.50400001928E-02 0. -1.
</event>
<event>
 5   0  0.2020725E-06  0.3277668E+04  0.7818609E-02  0.8168601E-01
        2   -1    0    0  501    0  0.00000000000E+00  0.00000000000E+00  0.13330929637E+04  0.13330929637E+04  0.25500000920E-02 0. -1.
       -2   -1    0    0    0  501  0.00000000000E+00  0.00000000000E+00 -0.20146960508E+04  0.20146960508E+04  0.25500000920E-02 0.  1.
    10030    2    1    2    0    0  0.00000000000E+00  0.00000000000E+00 -0.68160308708E+03  0.33477890146E+04  0.32776681525E+04 0.  0.
        3    1    3    3  502    0 -0.87778643960E+03 -0.13653068172E+04 -0.10967442906E+03  0.16268374932E+04  0.10100000352E+00 0. -1.
       -3    1    3    3    0  502  0.87778643960E+03  0.13653068172E+04 -0.57192865802E+03  0.17209515213E+04  0.10100000352E+00 0.  1.
</event>
<event>
 5   0  0.2001768E-06  0.3590896E+04  0.7818609E-02  0.8092580E-01
        2   -1    0    0  501    0  0.00000000000E+00  0.00000000000E+00  0.21502845580E+04  0.21502845580E+04  0.25500000920E-02 0. -1.
       -2   -1    0    0    0  501  0.00000000000E+00  0.00000000000E+00 -0.14991658963E+04  0.14991658963E+04  0.25500000920E-02 0.  1.
    10030    2    1    2    0    0  0.00000000000E+00  0.00000000000E+00  0.65111866163E+03  0.36494504543E+04  0.35908958641E+04 0.  0.
        2    1    3    3  502    0 -0.13438491701E+04 -0.11383144277E+04 -0.29338223603E+02  0.17614059895E+04  0.25500000920E-02 0.  1.
       -2    1    3    3    0  502  0.13438491701E+04  0.11383144277E+04  0.68045688524E+03  0.18880444648E+04  0.25500000920E-02 0. -1.
</event>
<event>
 5   0  0.2073287E-06  0.3567129E+04  0.7818609E-02  0.8098063E-01
        2   -1    0    0  501    0  0.00000000000E+00  0.00000000000E+00  0.30949695238E+04  0.30949695238E+04  0.25500000920E-02 0.  1.
       -2   -1    0    0    0  501  0.00000000000E+00  0.00000000000E+00 -0.10278300274E+04  0.10278300274E+04  0.25500000920E-02 0. -1.
    10030    2    1    2    0    0  0.00000000000E+00  0.00000000000E+00  0.20671394965E+04  0.41227995512E+04  0.35671291597E+04 0.  0.
        1    1    3    3  502    0  0.17086732625E+04  0.40297640700E+03  0.66964127212E+03  0.18789288799E+04  0.50400001928E-02 0. -1.
       -1    1    3    3    0  502 -0.17086732625E+04 -0.40297640700E+03  0.13974982243E+04  0.22438706713E+04  0.50400001928E-02 0.  1.
</event>
<event>
 5   0  0.2001768E-06  0.2723896E+04  0.7818609E-02  0.8327293E-01
       -2   -1    0    0    0  501  0.00000000000E+00  0.00000000000E+00  0.14460195561E+04  0.14460195561E+04  0.25500000920E-02 0.  1.
        2   -1    0    0  501    0  0.00000000000E+00  0.00000000000E+00 -0.12827646010E+04  0.12827646010E+04  0.25500000920E-02 0. -1.
    10030    2    1    2    0    0  0.00000000000E+00  0.00000000000E+00  0.16325495508E+03  0.27287841572E+04  0.27238962528E+04 0.  0.
        2    1    3    3  502    0  0.17253502335E+03  0.29811348603E+03  0.14016652003E+04  0.14433659683E+04  0.25500000920E-02 0.  1.
       -2    1    3    3    0  502 -0.17253502335E+03 -0.29811348603E+03 -0.12384102452E+04  0.12854181889E+04  0.25500000920E-02 0. -1.
</event>
<event>
 5   0  0.6630125E-07  0.3122287E+04  0.7818609E-02  0.8209648E-01
        1   -1    0    0  501    0  0.00000000000E+00  0.00000000000E+00  0.25010680448E+04  0.25010680448E+04  0.50400001928E-02 0. -1.
       -1   -1    0    0    0  501  0.00000000000E+00  0.00000000000E+00 -0.97445112642E+03  0.97445112643E+03  0.50400001928E-02 0.  1.
    10030    2    1    2    0    0  0.00000000000E+00  0.00000000000E+00  0.15266169184E+04  0.34755191713E+04  0.31222867092E+04 0.  0.
        1    1    3    3  502    0 -0.15513808262E+04 -0.58745631709E+01  0.95723518684E+03  0.18229416286E+04  0.50400001928E-02 0. -1.
       -1    1    3    3    0  502  0.15513808262E+04  0.58745631709E+01  0.56938173157E+03  0.16525775427E+04  0.50400001928E-02 0.  1.
</event>
<event>
 5   0  0.7378896E-07  0.3419197E+04  0.7818609E-02  0.8133211E-01
       -1   -1    0    0    0  501  0.00000000000E+00  0.00000000000E+00  0.98717839566E+03  0.98717839567E+03  0.50400001928E-02 0.  1.
        1   -1    0    0  501    0  0.00000000000E+00  0.00000000000E+00 -0.29606886199E+04  0.29606886199E+04  0.50400001928E-02 0. -1.
    10030    2    1    2    0    0  0.00000000000E+00  0.00000000000E+00 -0.19735102243E+04  0.39478670156E+04  0.34191974742E+04 0.  0.
        2    1    3    3  502    0  0.34575866831E+03 -0.18655804303E+02 -0.29197769813E+04  0.29402371871E+04  0.25500000920E-02 0. -1.
       -2    1    3    3    0  502 -0.34575866831E+03  0.18655804303E+02  0.94626675706E+03  0.10076298285E+04  0.25500000920E-02 0.  1.
</event>
<event>
 5   0  0.6630125E-07  0.3568456E+04  0.7818609E-02  0.8097756E-01
        1   -1    0    0  501    0  0.00000000000E+00  0.00000000000E+00  0.14697754370E+04  0.14697754370E+04  0.50400001928E-02 0. -1.
       -1   -1    0    0    0  501  0.00000000000E+00  0.00000000000E+00 -0.21659565272E+04  0.21659565272E+04  0.50400001928E-02 0.  1.
    10030    2    1    2    0    0  0.00000000000E+00  0.00000000000E+00 -0.69618109011E+03  0.36357319642E+04  0.35684560815E+04 0.  0.
        4    1    3    3  502    0 -0.26411663269E+03  0.65074217624E+03 -0.20192097408E+04  0.21378570031E+04  0.12699999809E+01 0.  1.
       -4    1    3    3    0  502  0.26411663269E+03 -0.65074217624E+03  0.13230286507E+04  0.14978749611E+04  0.12699999809E+01 0. -1.
</event>
<event>
 5   0  0.6630125E-07  0.3500190E+04  0.7818609E-02  0.8113745E-01
       -1   -1    0    0    0  501  0.00000000000E+00  0.00000000000E+00  0.13665685543E+04  0.13665685543E+04  0.50400001928E-02 0. -1.
        1   -1    0    0  501    0  0.00000000000E+00  0.00000000000E+00 -0.22412575287E+04  0.22412575287E+04  0.50400001928E-02 0.  1.
    10030    2    1    2    0    0  0.00000000000E+00  0.00000000000E+00 -0.87468897446E+03  0.36078260830E+04  0.35001897439E+04 0.  0.
        5    1    3    3  502    0 -0.22429352755E+03  0.16021779004E+04  0.25066065319E+03  0.16371116224E+04  0.46999998093E+01 0. -1.
       -5    1    3    3    0  502  0.22429352755E+03 -0.16021779004E+04 -0.11253496277E+04  0.19707144607E+04  0.46999998093E+01 0.  1.
</event>
<event>
 5   0  0.2020725E-06  0.3516859E+04  0.7818609E-02  0.8109806E-01
       -2   -1    0    0    0  501  0.00000000000E+00  0.00000000000E+00  0.12879003199E+04  0.12879003199E+04  0.25500000920E-02 0.  1.
        2   -1    0    0  501    0  0.00000000000E+00  0.00000000000E+00 -0.24008644790E+04  0.24008644790E+04  0.25500000920E-02 0. -1.
    10030    2    1    2    0    0  0.00000000000E+00  0.00000000000E+00 -0.11129641591E+04  0.36887647989E+04  0.35168589000E+04 0.  0.
        3    1    3    3  502    0  0.52375043701E+03 -0.88972633037E+03  0.93652359794E+03  0.13939167561E+04  0.10100000352E+00 0.  1.
       -3    1    3    3    0  502 -0.52375043701E+03  0.88972633037E+03 -0.20494877570E+04  0.22948480428E+04  0.10100000352E+00 0. -1.
</event>
<event>
 5   0  0.2020725E-06  0.2800615E+04  0.7818609E-02  0.8303078E-01
        2   -1    0    0  501    0  0.00000000000E+00  0.00000000000E+00  0.20493040281E+04  0.20493040281E+04  0.25500000920E-02 0.  1.
       -2   -1    0    0    0  501  0.00000000000E+00  0.00000000000E+00 -0.95684226877E+03  0.95684226877E+03  0.25500000920E-02 0. -1.
    10030    2    1    2    0    0  0.00000000000E+00  0.00000000000E+00  0.10924617594E+04  0.30061462969E+04  0.28006147294E+04 0.  0.
        3    1    3    3  502    0 -0.86471133729E+03 -0.79285171746E+03  0.13668787812E+04  0.18013042928E+04  0.10100000352E+00 0.  1.
       -3    1    3    3    0  502  0.86471133729E+03  0.79285171746E+03 -0.27441702182E+03  0.12048420041E+04  0.10100000352E+00 0. -1.
</event>
<event>
 5   0  0.6890600E-07  0.3460411E+04  0.7818609E-02  0.8123237E-01
       -1   -1    0    0    0  501  0.00000000000E+00  0.00000000000E+00  0.19076390197E+04  0.19076390197E+04  0.50400001928E-02 0. -1.
        1   -1    0    0  501    0  0.00000000000E+00  0.00000000000E+00 -0.15692752057E+04  0.15692752057E+04  0.50400001928E-02 0.  1.
    10030    2    1    2    0    0  0.00000000000E+00  0.00000000000E+00  0.33836381396E+03  0.34769142254E+04  0.34604107358E+04 0.  0.
        3    1    3    3  502    0  0.79906306173E+03  0.17586315345E+03  0.17009791993E+04  0.18875274493E+04  0.10100000352E+00 0. -1.
       -3    1    3    3    0  502 -0.79906306173E+03 -0.17586315345E+03 -0.13626153853E+04  0.15893867761E+04  0.10100000352E+00 0.  1.
</event>
<event>
 5   0  0.6630125E-07  0.3501886E+04  0.7818609E-02  0.8113343E-01
       -1   -1    0    0    0  501  0.00000000000E+00  0.00000000000E+00  0.13769036438E+04  0.13769036438E+04  0.50400001928E-02 0. -1.
        1   -1    0    0  501    0  0.00000000000E+00  0.00000000000E+00 -0.22265908702E+04  0.22265908702E+04  0.50400001928E-02 0.  1.
    10030    2    1    2    0    0  0.00000000000E+00  0.00000000000E+00 -0.84968722643E+03  0.36034945140E+04  0.35018858248E+04 0.  0.
        4    1    3    3  502    0  0.83125923144E+03  0.82757306227E+03  0.91284888160E+03  0.14863255958E+04  0.12699999809E+01 0. -1.
       -4    1    3    3    0  502 -0.83125923144E+03 -0.82757306227E+03 -0.17625361080E+04  0.21171689182E+04  0.12699999809E+01 0.  1.
</event>
<event>
 5   0  0.6630125E-07  0.3513766E+04  0.7818609E-02  0.8110535E-01
        1   -1    0    0  501    0  0.00000000000E+00  0.00000000000E+00  0.21970135482E+04  0.21970135482E+04  0.50400001928E-02 0.  1.
       -1   -1    0    0    0  501  0.00000000000E+00  0.00000000000E+00 -0.14049245623E+04  0.14049245623E+04  0.50400001928E-02 0. -1.
    10030    2    1    2    0    0  0.00000000000E+00  0.00000000000E+00  0.79208898586E+03  0.36019381105E+04  0.35137662401E+04 0.  0.
        5    1    3    3  502    0 -0.50435579145E+03  0.94052630101E+03  0.18266471585E+04  0.21155676352E+04  0.46999998093E+01 0.  1.
       -5    1    3    3    0  502  0.50435579145E+03 -0.94052630101E+03 -0.10345581726E+04  0.14863704753E+04  0.46999998093E+01 0. -1.
</event>
<event>
 5   0  0.1999883E-06  0.3442230E+04  0.7818609E-02  0.8127619E-01
       -2   -1    0    0    0  501  0.00000000000E+00  0.00000000000E+00  0.16556679255E+04  0.16556679255E+04  0.25500000920E-02 0.  1.
        2   -1    0    0  501    0  0.00000000000E+00  0.00000000000E+00 -0.17891491173E+04  0.17891491173E+04  0.25500000920E-02 0. -1.
    10030    2    1    2    0    0  0.00000000000E+00  0.00000000000E+00 -0.13348119175E+03  0.34448170428E+04  0.34422299792E+04 0.  0.
        4    1    3    3  502    0 -0.59671038761E+03 -0.13778162081E+04  0.77519687992E+03  0.16897847808E+04  0.12699999809E+01 0.  1.
       -4    1    3    3    0  502  0.59671038761E+03  0.13778162081E+04 -0.90867807167E+03  0.17550322620E+04  0.12699999809E+01 0. -1.
</event>
<event>
 5   0  0.1999883E-06  0.2685382E+04  0.7818609E-02  0.8339764E-01
       -2   -1    0    0    0  501  0.00000000000E+00  0.00000000000E+00  0.10200054144E+04  0.10200054144E+04  0.25500000920E-02 0.  1.
        2   -1    0    0  501    0  0.00000000000E+00  0.00000000000E+00 -0.17674606623E+04  0.17674606623E+04  0.25500000920E-02 0. -1.
    10030    2    1    2    0    0  0.00000000000E+00  0.00000000000E+00 -0.74745524791E+03  0.27874660767E+04  0.26853822412E+04 0.  0.
        4    1    3    3  502    0  0.97730738134E+03  0.84547690147E+03  0.46239757353E+01  0.12922785700E+04  0.12699999809E+01 0. -1.
       -4    1    3    3    0  502 -0.97730738134E+03 -0.84547690147E+03 -0.75207922364E+03  0.14951875067E+04  0.12699999809E+01 0.  1.
</event>
<event>
 5   0  0.2020725E-06  0.3435995E+04  0.7818609E-02  0.8129128E-01
       -2   -1    0    0    0  501  0.00000000000E+00  0.00000000000E+00  0.15676746747E+04  0.15676746747E+04  0.25500000920E-02 0.  1.
        2   -1    0    0  501    0  0.00000000000E+00  0.00000000000E+00 -0.18827344710E+04  0.18827344710E+04  0.25500000920E-02 0. -1.
    10030    2    1    2    0    0  0.00000000000E+00  0.00000000000E+00 -0.31505979631E+03  0.34504091457E+04  0.34359948483E+04 0.  0.
        3    1    3    3  502    0  0.84945890311E+03  0.13672525821E+04 -0.76051128521E+03  0.17802633166E+04  0.10100000352E+00 0. -1.
       -3    1    3    3    0  502 -0.84945890311E+03 -0.13672525821E+04  0.44545148890E+03  0.16701458291E+04  0.10100000352E+00 0.  1.
</event>
<event>
 5   0  0.6630125E-07  0.3422472E+04  0.7818609E-02  0.8132413E-01
       -1   -1    0    0    0  501  0.00000000000E+00  0.00000000000E+00  0.15305990691E+04  0.15305990691E+04  0.50400001928E-02 0.  1.
        1   -1    0    0  501    0  0.00000000000E+00  0.00000000000E+00 -0.19131909992E+04  0.19131909992E+04  0.50400001928E-02 0. -1.
    10030    2    1    2    0    0  0.00000000000E+00  0.00000000000E+00 -0.38259193009E+03  0.34437900684E+04  0.34224718334E+04 0.  0.
        1    1    3    3  502    0  0.25832962138E+03  0.14798564846E+03 -0.18869318164E+04  0.19102737043E+04  0.50400001928E-02 0. -1.
       -1    1    3    3    0  502 -0.25832962138E+03 -0.14798564846E+03  0.15043398863E+04  0.15335163641E+04  0.50400001928E-02 0.  1.
</event>
<event>
 5   0  0.1999883E-06  0.3303020E+04  0.7818609E-02  0.8162127E-01
        2   -1    0    0  501    0  0.00000000000E+00  0.00000000000E+00  0.92449323818E+03  0.92449323818E+03  0.25500000920E-02 0.  1.
       -2   -1    0    0    0  501  0.00000000000E+00  0.00000000000E+00 -0.29502481838E+04  0.29502481838E+04  0.25500000920E-02 0. -1.
    10030    2    1    2    0    0  0.00000000000E+00  0.00000000000E+00 -0.20257549457E+04  0.38747414220E+04  0.33030195258E+04 0.  0.
        4    1    3    3  502    0 -0.16349361044E+04 -0.17348011439E+03 -0.11960129283E+04  0.20331158239E+04  0.12699999809E+01 0. -1.
       -4    1    3    3    0  502  0.16349361044E+04  0.17348011439E+03 -0.82974201731E+03  0.18416255982E+04  0.12699999809E+01 0.  1.
</event>
<event>
 5   0  0.6630125E-07  0.3518966E+04  0.7818609E-02  0.8109310E-01
        1   -1    0    0  501    0  0.00000000000E+00  0.00000000000E+00  0.18322035997E+04  0.18322035997E+04  0.50400001928E-02 0. -1.
       -1   -1    0    0    0  501  0.00000000000E+00  0.00000000000E+00 -0.16896485739E+04  0.16896485739E+04  0.50400001928E-02 0.  1.
    10030    2    1    2    0    0  0.00000000000E+00  0.00000000000E+00  0.14255502576E+03  0.35218521736E+04  0.35189658705E+04 0.  0.
        4    1    3    3  502    0  0.74681953362E+02 -0.84274305601E+03 -0.14727079556E+04  0.16984297419E+04  0.12699999809E+01 0.  1.
       -4    1    3    3    0  502 -0.74681953362E+02  0.84274305601E+03  0.16152629814E+04  0.18234224317E+04  0.12699999809E+01 0. -1.
</event>
<event>
 5   0  0.2073287E-06  0.3423374E+04  0.7818609E-02  0.8132193E-01
       -2   -1    0    0    0  501  0.00000000000E+00  0.00000000000E+00  0.10367092234E+04  0.10367092234E+04  0.25500000920E-02 0.  1.
        2   -1    0    0  501    0  0.00000000000E+00  0.00000000000E+00 -0.28261281077E+04  0.28261281077E+04  0.25500000920E-02 0. -1.
    10030    2    1    2    0    0  0.00000000000E+00  0.00000000000E+00 -0.17894188843E+04  0.38628373311E+04  0.34233744030E+04 0.  0.
        1    1    3    3  502    0  0.15326633912E+04 -0.14099270150E+03 -0.17398113633E+04  0.23229032680E+04  0.50400001928E-02 0.  1.
       -1    1    3    3    0  502 -0.15326633912E+04  0.14099270150E+03 -0.49607520991E+02  0.15399340631E+04  0.50400001928E-02 0. -1.
</event>
<event>
 5   0  0.2023479E-06  0.3181611E+04  0.7818609E-02  0.8193691E-01
        2   -1    0    0  501    0  0.00000000000E+00  0.00000000000E+00  0.13245390337E+04  0.13245390337E+04  0.25500000920E-02 0. -1.
       -2   -1    0    0    0  501  0.00000000000E+00  0.00000000000E+00 -0.19105982992E+04  0.19105982992E+04  0.25500000920E-02 0.  1.
    10030    2    1    2    0    0  0.00000000000E+00  0.00000000000E+00 -0.58605926544E+03  0.32351373329E+04  0.31816109284E+04 0.  0.
        5    1    3    3  502    0  0.80076840231E+03  0.40921436750E+03 -0.16273384677E+04  0.18592845428E+04  0.46999998093E+01 0.  1.
       -5    1    3    3    0  502 -0.80076840231E+03 -0.40921436750E+03  0.10412792023E+04  0.13758527900E+04  0.46999998093E+01 0. -1.
</event>
<event>
 5   0  0.6630125E-07  0.3459259E+04  0.7818609E-02  0.8123513E-01
       -1   -1    0    0    0  501  0.00000000000E+00  0.00000000000E+00  0.22503228377E+04  0.22503228377E+04  0.50400001928E-02 0.  1.
        1   -1    0    0  501    0  0.00000000000E+00  0.00000000000E+00 -0.13294174540E+04  0.13294174540E+04  0.50400001928E-02 0. -1.
    10030    2    1    2    0    0  0.00000000000E+00  0.00000000000E+00  0.92090538373E+03  0.35797402918E+04  0.34592591448E+04 0.  0.
        1    1    3    3  502    0  0.41645076697E+03  0.15517466400E+04  0.11232841035E+04  0.19603867101E+04  0.50400001928E-02 0.  1.
       -1    1    3    3    0  502 -0.41645076697E+03 -0.15517466400E+04 -0.20237871979E+03  0.16193535816E+04  0.50400001928E-02 0. -1.
</event>
<event>
 5   0  0.6630125E-07  0.3580951E+04  0.7818609E-02  0.8094869E-01
       -1   -1    0    0    0  501  0.00000000000E+00  0.00000000000E+00  0.19295204442E+04  0.19295204442E+04  0.50400001928E-02 0. -1.
        1   -1    0    0  501    0  0.00000000000E+00  0.00000000000E+00 -0.16614503986E+04  0.16614503986E+04  0.50400001928E-02 0.  1.
    10030    2    1    2    0    0  0.00000000000E+00  0.00000000000E+00  0.26807004561E+03  0.35909708428E+04  0.35809509972E+04 0.  0.
        1    1    3    3  502    0 -0.44777450317E+03  0.63299142781E+03 -0.14843650261E+04  0.16746700224E+04  0.50400001928E-02 0.  1.
       -1    1    3    3    0  502  0.44777450317E+03 -0.63299142781E+03  0.17524350717E+04  0.19163008203E+04  0.50400001928E-02 0. -1.
</event>
<event>
 5   0  0.6630125E-07  0.3457769E+04  0.7818609E-02  0.8123872E-01
       -1   -1    0    0    0  501  0.00000000000E+00  0.00000000000E+00  0.16530968227E+04  0.16530968227E+04  0.50400001928E-02 0.  1.
        1   -1    0    0  501    0  0.00000000000E+00  0.00000000000E+00 -0.18081467254E+04  0.18081467254E+04  0.50400001928E-02 0. -1.
    10030    2    1    2    0    0  0.00000000000E+00  0.00000000000E+00 -0.15504990271E+03  0.34612435482E+04  0.34577689957E+04 0.  0.
        4    1    3    3  502    0  0.82904643394E+03  0.49097769590E+03 -0.15144683453E+04  0.17949911056E+04  0.12699999809E+01 0. -1.
       -4    1    3    3    0  502 -0.82904643394E+03 -0.49097769590E+03  0.13594184425E+04  0.16662524426E+04  0.12699999809E+01 0.  1.
</event>
<event>
 5   0  0.1999883E-06  0.3432359E+04  0.7818609E-02  0.8130010E-01
       -2   -1    0    0    0  501  0.00000000000E+00  0.00000000000E+00  0.21581413679E+04  0.21581413679E+04  0.25500000920E-02 0. -1.
        2   -1    0    0  501    0  0.00000000000E+00  0.00000000000E+00 -0.13647259366E+04  0.13647259366E+04  0.25500000920E-02 0.  1.
    10030    2    1    2    0    0  0.00000000000E+00  0.00000000000E+00  0.79341543124E+03  0.35228673045E+04  0.34323586640E+04 0.  0.
        4    1    3    3  502    0  0.15988739063E+04  0.48892164473E+03  0.79399049606E+03  0.18509091452E+04  0.12699999809E+01 0. -1.
       -4    1    3    3    0  502 -0.15988739063E+04 -0.48892164473E+03 -0.57506481922E+00  0.16719581593E+04  0.12699999809E+01 0.  1.
</event>
<event>
 5   0  0.6630125E-07  0.3602245E+04  0.7818609E-02  0.8089978E-01
        1   -1    0    0  501    0  0.00000000000E+00  0.00000000000E+00  0.21281140870E+04  0.21281140870E+04  0.50400001928E-02 0.  1.
       -1   -1    0    0    0  501  0.00000000000E+00  0.00000000000E+00 -0.15243744019E+04  0.15243744019E+04  0.50400001928E-02 0. -1.
    10030    2    1    2    0    0  0.00000000000E+00  0.00000000000E+00  0.60373968507E+03  0.36524884889E+04  0.36022452102E+04 0.  0.
        1    1    3    3  502    0 -0.67147389460E+03 -0.14675633001E+04  0.11126625775E+04  0.19602645848E+04  0.50400001928E-02 0.  1.
       -1    1    3    3    0  502  0.67147389460E+03  0.14675633001E+04 -0.50892289246E+03  0.16922239041E+04  0.50400001928E-02 0. -1.
</event>
<event>
 5   0  0.2073287E-06  0.3450531E+04  0.7818609E-02  0.8125614E-01
       -2   -1    0    0    0  501  0.00000000000E+00  0.00000000000E+00  0.15274597686E+04  0.15274597686E+04  0.25500000920E-02 0.  1.
        2   -1    0    0  501    0  0.00000000000E+00  0.00000000000E+00 -0.19486873328E+04  0.19486873328E+04  0.25500000920E-02 0. -1.
    10030    2    1    2    0    0  0.00000000000E+00  0.00000000000E+00 -0.42122756414E+03  0.34761471014E+04  0.34505312649E+04 0.  0.
        1    1    3    3  502    0  0.12863463896E+03 -0.16727267890E+03  0.15144105889E+04  0.15290410234E+04  0.50400001928E-02 0.  1.
       -1    1    3    3    0  502 -0.12863463896E+03  0.16727267890E+03 -0.19356381530E+04  0.19471060780E+04  0.50400001928E-02 0. -1.
</event>
<event>
 5   0  0.6630125E-07  0.3462867E+04  0.7818609E-02  0.8122647E-01
       -3   -1    0    0    0  501  0.00000000000E+00  0.00000000000E+00  0.14312968335E+04  0.14312968371E+04  0.10100000352E+00 0.  1.
        3   -1    0    0  501    0  0.00000000000E+00  0.00000000000E+00 -0.20945075864E+04  0.20945075888E+04  0.10100000352E+00 0. -1.
    10030    2    1    2    0    0  0.00000000000E+00  0.00000000000E+00 -0.66321075289E+03  0.35258044259E+04  0.34628670704E+04 0.  0.
        1    1    3    3  502    0  0.82121169901E+03  0.81892626578E+03 -0.16405971355E+04  0.20091261395E+04  0.50400001928E-02 0. -1.
       -1    1    3    3    0  502 -0.82121169901E+03 -0.81892626578E+03  0.97738638265E+03  0.15166782864E+04  0.50400001928E-02 0.  1.
</event>
<event>
 5   0  0.6630125E-07  0.2952651E+04  0.7818609E-02  0.8257382E-01
       -1   -1    0    0    0  501  0.00000000000E+00  0.00000000000E+00  0.24666190363E+04  0.24666190364E+04  0.50400001928E-02 0. -1.
        1   -1    0    0  501    0  0.00000000000E+00  0.00000000000E+00 -0.88361343467E+03  0.88361343468E+03  0.50400001928E-02 0.  1.
    10030    2    1    2    0    0  0.00000000000E+00  0.00000000000E+00  0.15830056017E+04  0.33502324710E+04  0.29526514991E+04 0.  0.
        5    1    3    3  502    0 -0.99445053920E+03  0.51452894702E+03  0.18832739033E+04  0.21909848464E+04  0.46999998093E+01 0. -1.
       -5    1    3    3    0  502  0.99445053920E+03 -0.51452894702E+03 -0.30026830165E+03  0.11592476246E+04  0.46999998093E+01 0.  1.
</event>
<event>
 5   0  0.2020725E-06  0.3444885E+04  0.7818609E-02  0.8126977E-01
        2   -1    0    0  501    0  0.00000000000E+00  0.00000000000E+00  0.12255021995E+04  0.12255021996E+04  0.25500000920E-02 0.  1.
       -2   -1    0    0    0  501  0.00000000000E+00  0.00000000000E+00 -0.24208922882E+04  0.24208922882E+04  0.25500000920E-02 0. -1.
    10030    2    1    2    0    0  0.00000000000E+00  0.00000000000E+00 -0.11953900886E+04  0.36463944877E+04  0.34448853821E+04 0.  0.
        3    1    3    3  502    0 -0.14674266705E+04 -0.82663548471E+03 -0.21584145956E+03  0.16980149598E+04  0.10100000352E+00 0.  1.
       -3    1    3    3    0  502  0.14674266705E+04  0.82663548471E+03 -0.97954862906E+03  0.19483795279E+04  0.10100000352E+00 0. -1.
</event>
<event>
 5   0  0.6630125E-07  0.3510867E+04  0.7818609E-02  0.8111220E-01
       -1   -1    0    0    0  501  0.00000000000E+00  0.00000000000E+00  0.20820459713E+04  0.20820459713E+04  0.50400001928E-02 0. -1.
        1   -1    0    0  501    0  0.00000000000E+00  0.00000000000E+00 -0.14800566369E+04  0.14800566369E+04  0.50400001928E-02 0.  1.
    10030    2    1    2    0    0  0.00000000000E+00  0.00000000000E+00  0.60198933446E+03  0.35621026082E+04  0.35108665359E+04 0.  0.
        1    1    3    3  502    0  0.12646942169E+04 -0.12101886831E+04  0.43535783861E+03  0.18037584535E+04  0.50400001928E-02 0.  1.
       -1    1    3    3    0  502 -0.12646942169E+04  0.12101886831E+04  0.16663149585E+03  0.17583441547E+04  0.50400001928E-02 0. -1.
</event>
<event>
 5   0  0.6630125E-07  0.2551024E+04  0.7818609E-02  0.8385030E-01
        1   -1    0    0  501    0  0.00000000000E+00  0.00000000000E+00  0.15987453906E+04  0.15987453906E+04  0.50400001928E-02 0.  1.
       -1   -1    0    0    0  501  0.00000000000E+00  0.00000000000E+00 -0.10176298658E+04  0.10176298658E+04  0.50400001928E-02 0. -1.
    10030    2    1    2    0    0  0.00000000000E+00  0.00000000000E+00  0.58111552476E+03  0.26163752565E+04  0.25510241531E+04 0.  0.
        5    1    3    3  502    0  0.12103083444E+04 -0.32765226765E+03  0.53044414990E+03  0.13614680985E+04  0.46999998093E+01 0.  1.
       -5    1    3    3    0  502 -0.12103083444E+04  0.32765226765E+03  0.50671374863E+02  0.12549071580E+04  0.46999998093E+01 0. -1.
</event>
<event>
 5   0  0.2023479E-06  0.3535292E+04  0.7818609E-02  0.8105477E-01
       -2   -1    0    0    0  501  0.00000000000E+00  0.00000000000E+00  0.12620841481E+04  0.12620841482E+04  0.25500000920E-02 0.  1.
        2   -1    0    0  501    0  0.00000000000E+00  0.00000000000E+00 -0.24757240193E+04  0.24757240193E+04  0.25500000920E-02 0. -1.
    10030    2    1    2    0    0  0.00000000000E+00  0.00000000000E+00 -0.12136398711E+04  0.37378081674E+04  0.35352918069E+04 0.  0.
        5    1    3    3  502    0 -0.15065372078E+04  0.63069205982E+01 -0.15843681276E+04  0.21863070666E+04  0.46999998093E+01 0. -1.
       -5    1    3    3    0  502  0.15065372078E+04 -0.63069205982E+01  0.37072825645E+03  0.15515011008E+04  0.46999998093E+01 0.  1.
</event>
<event>
 5   0  0.6630125E-07  0.3396131E+04  0.7818609E-02  0.8138857E-01
        1   -1    0    0  501    0  0.00000000000E+00  0.00000000000E+00  0.18316489526E+04  0.18316489526E+04  0.50400001928E-02 0. -1.
       -1   -1    0    0    0  501  0.00000000000E+00  0.00000000000E+00 -0.15742239793E+04  0.15742239793E+04  0.50400001928E-02 0.  1.
    10030    2    1    2    0    0  0.00000000000E+00  0.00000000000E+00  0.25742497331E+03  0.34058729319E+04  0.33961305645E+04 0.  0.
        1    1    3    3  502    0 -0.11260563251E+04 -0.57413306834E+03  0.12658939525E+04  0.17888876786E+04  0.50400001928E-02 0. -1.
       -1    1    3    3    0  502  0.11260563251E+04  0.57413306834E+03 -0.10084689792E+04  0.16169852533E+04  0.50400001928E-02 0.  1.
</event>
<event>
 5   0  0.6630125E-07  0.3462916E+04  0.7818609E-02  0.8122635E-01
       -1   -1    0    0    0  501  0.00000000000E+00  0.00000000000E+00  0.20044622996E+04  0.20044622996E+04  0.50400001928E-02 0. -1.
        1   -1    0    0  501    0  0.00000000000E+00  0.00000000000E+00 -0.14956362276E+04  0.14956362277E+04  0.50400001928E-02 0.  1.
    10030    2    1    2    0    0  0.00000000000E+00  0.00000000000E+00  0.50882607199E+03  0.35000985273E+04  0.34629157843E+04 0.  0.
        5    1    3    3  502    0  0.10361741341E+04 -0.11436150236E+04  0.10479623985E+04  0.18654113319E+04  0.46999998093E+01 0. -1.
       -5    1    3    3    0  502 -0.10361741341E+04  0.11436150236E+04 -0.53913632653E+03  0.16346871954E+04  0.46999998093E+01 0.  1.
</event>
<event>
 5   0  0.6890600E-07  0.2240270E+04  0.7818609E-02  0.8501852E-01
        1   -1    0    0  501    0  0.00000000000E+00  0.00000000000E+00  0.13789527755E+04  0.13789527755E+04  0.50400001928E-02 0. -1.
       -1   -1    0    0    0  501  0.00000000000E+00  0.00000000000E+00 -0.90989481225E+03  0.90989481227E+03  0.50400001928E-02 0.  1.
    10030    2    1    2    0    0  0.00000000000E+00  0.00000000000E+00  0.46905796321E+03  0.22888475877E+04  0.22402696059E+04 0.  0.
        3    1    3    3  502    0 -0.21765765186E+03 -0.10445088379E+04 -0.11393626106E+03  0.10730121377E+04  0.10100000352E+00 0. -1.
       -3    1    3    3    0  502  0.21765765186E+03  0.10445088379E+04  0.58299422427E+03  0.12158354500E+04  0.10100000352E+00 0.  1.
</event>
<event>
 5   0  0.1999883E-06  0.3467704E+04  0.7818609E-02  0.8121487E-01
        2   -1    0    0  501    0  0.00000000000E+00  0.00000000000E+00  0.20609884132E+04  0.20609884132E+04  0.25500000920E-02 0. -1.
       -2   -1    0    0    0  501  0.00000000000E+00  0.00000000000E+00 -0.14586413857E+04  0.14586413857E+04  0.25500000920E-02 0.  1.
    10030    2    1    2    0    0  0.00000000000E+00  0.00000000000E+00  0.60234702756E+03  0.35196297989E+04  0.34677041367E+04 0.  0.
        4    1    3    3  502    0  0.84668114289E+03 -0.10590858832E+03  0.18331308115E+04  0.20219930197E+04  0.12699999809E+01 0. -1.
       -4    1    3    3    0  502 -0.84668114289E+03  0.10590858832E+03 -0.12307837839E+04  0.14976367792E+04  0.12699999809E+01 0.  1.
</event>
<event>
 5   0  0.7378896E-07  0.3533623E+04  0.7818609E-02  0.8105868E-01
       -1   -1    0    0    0  501  0.00000000000E+00  0.00000000000E+00  0.16291246602E+04  0.16291246602E+04  0.50400001928E-02 0.  1.
        1   -1    0    0  501    0  0.00000000000E+00  0.00000000000E+00 -0.19161346211E+04  0.19161346211E+04  0.50400001928E-02 0. -1.
    10030    2    1    2    0    0  0.00000000000E+00  0.00000000000E+00 -0.28700996094E+03  0.35452592813E+04  0.35336225964E+04 0.  0.
        2    1    3    3  502    0  0.45325751582E+03  0.15726264876E+04 -0.81129866650E+03  0.18266915370E+04  0.25500000920E-02 0. -1.
       -2    1    3    3    0  502 -0.45325751582E+03 -0.15726264876E+04  0.52428870556E+03  0.17185677443E+04  0.25500000920E-02 0.  1.
</event>
<event>
 5   0  0.6630125E-07  0.3577203E+04  0.7818609E-02  0.8095734E-01
        3   -1    0    0  501    0  0.00000000000E+00  0.00000000000E+00  0.12876284137E+04  0.12876284176E+04  0.10100000352E+00 0.  1.
       -3   -1    0    0    0  501  0.00000000000E+00  0.00000000000E+00 -0.24844860327E+04  0.24844860348E+04  0.10100000352E+00 0. -1.
    10030    2    1    2    0    0  0.00000000000E+00  0.00000000000E+00 -0.11968576191E+04  0.37721144524E+04  0.35772027174E+04 0.  0.
        4    1    3    3  502    0 -0.12536994395E+04  0.72009101708E+03  0.51194162320E+03  0.15337467836E+04  0.12699999809E+01 0.  1.
       -4    1    3    3    0  502  0.12536994395E+04 -0.72009101708E+03 -0.17087992423E+04  0.22383676688E+04  0.12699999809E+01 0. -1.
</event>
<event>
 5   0  0.2073287E-06  0.3445839E+04  0.7818609E-02  0.8126747E-01
        2   -1    0    0  501    0  0.00000000000E+00  0.00000000000E+00  0.18571152958E+04  0.18571152958E+04  0.25500000920E-02 0. -1.
       -2   -1    0    0    0  501  0.00000000000E+00  0.00000000000E+00 -0.15984209204E+04  0.15984209204E+04  0.25500000920E-02 0.  1.
    10030    2    1    2    0    0  0.00000000000E+00  0.00000000000E+00  0.25869437535E+03  0.34555362162E+04  0.34458391956E+04 0.  0.
        1    1    3    3  502    0  0.51224891285E+03  0.12581228293E+04  0.11921314411E+04  0.18073321154E+04  0.50400001928E-02 0. -1.
       -1    1    3    3    0  502 -0.51224891285E+03 -0.12581228293E+04 -0.93343706580E+03  0.16482041008E+04  0.50400001928E-02 0.  1.
</event>
<event>
 5   0  0.1999883E-06  0.2812852E+04  0.7818609E-02  0.8299289E-01
        2   -1    0    0  501    0  0.00000000000E+00  0.00000000000E+00  0.19666150546E+04  0.19666150546E+04  0.25500000920E-02 0. -1.
       -2   -1    0    0    0  501  0.00000000000E+00  0.00000000000E+00 -0.10058065914E+04  0.10058065914E+04  0.25500000920E-02 0.  1.
    10030    2    1    2    0    0  0.00000000000E+00  0.00000000000E+00  0.96080846321E+03  0.29724216460E+04  0.28128522071E+04 0.  0.
        4    1    3    3  502    0 -0.31381671659E+03  0.13010312781E+04  0.93721113572E+03  0.16338695309E+04  0.12699999809E+01 0. -1.
       -4    1    3    3    0  502  0.31381671659E+03 -0.13010312781E+04  0.23597327490E+02  0.13385521151E+04  0.12699999809E+01 0.  1.
</event>
<event>
 5   0  0.1999883E-06  0.3452179E+04  0.7818609E-02  0.8125217E-01
        2   -1    0    0  501    0  0.00000000000E+00  0.00000000000E+00  0.19508032839E+04  0.19508032839E+04  0.25500000920E-02 0. -1.
       -2   -1    0    0    0  501  0.00000000000E+00  0.00000000000E+00 -0.15272602946E+04  0.15272602946E+04  0.25500000920E-02 0.  1.
    10030    2    1    2    0    0  0.00000000000E+00  0.00000000000E+00  0.42354298928E+03  0.34780635786E+04  0.34521786734E+04 0.  0.
        4    1    3    3  502    0  0.99437860394E+03  0.14073989544E+04  0.31162142407E+03  0.17511910660E+04  0.12699999809E+01 0. -1.
       -4    1    3    3    0  502 -0.99437860394E+03 -0.14073989544E+04  0.11192156521E+03  0.17268725125E+04  0.12699999809E+01 0.  1.
</event>
<event>
 5   0  0.2001768E-06  0.3383997E+04  0.7818609E-02  0.8141845E-01
        2   -1    0    0  501    0  0.00000000000E+00  0.00000000000E+00  0.32432454547E+04  0.32432454547E+04  0.25500000920E-02 0.  1.
       -2   -1    0    0    0  501  0.00000000000E+00  0.00000000000E+00 -0.88271444692E+03  0.88271444693E+03  0.25500000920E-02 0. -1.
    10030    2    1    2    0    0  0.00000000000E+00  0.00000000000E+00  0.23605310077E+04  0.41259599016E+04  0.33839974100E+04 0.  0.
        2    1    3    3  502    0 -0.71686015842E+02 -0.16561187593E+04  0.15937199240E+04  0.22995241738E+04  0.25500000920E-02 0. -1.
       -2    1    3    3    0  502  0.71686015842E+02  0.16561187593E+04  0.76681108374E+03  0.18264357278E+04  0.25500000920E-02 0.  1.
</event>
<event>
 5   0  0.2020725E-06  0.3534400E+04  0.7818609E-02  0.8105686E-01
       -2   -1    0    0    0  501  0.00000000000E+00  0.00000000000E+00  0.18487695057E+04  0.18487695057E+04  0.25500000920E-02 0.  1.
        2   -1    0    0  501    0  0.00000000000E+00  0.00000000000E+00 -0.16892289807E+04  0.16892289807E+04  0.25500000920E-02 0. -1.
    10030    2    1    2    0    0  0.00000000000E+00  0.00000000000E+00  0.15954052505E+03  0.35379984864E+04  0.35343995403E+04 0.  0.
        3    1    3    3  502    0 -0.16202536172E+04 -0.98234860790E+02 -0.61959925806E+03  0.17374622652E+04  0.10100000352E+00 0.  1.
       -3    1    3    3    0  502  0.16202536172E+04  0.98234860790E+02  0.77913978310E+03  0.18005362212E+04  0.10100000352E+00 0. -1.
</event>
<event>
 5   0  0.6890600E-07  0.3609384E+04  0.7818609E-02  0.8088346E-01
        1   -1    0    0  501    0  0.00000000000E+00  0.00000000000E+00  0.29116156350E+04  0.29116156350E+04  0.50400001928E-02 0.  1.
       -1   -1    0    0    0  501  0.00000000000E+00  0.00000000000E+00 -0.11185931976E+04  0.11185931976E+04  0.50400001928E-02 0. -1.
    10030    2    1    2    0    0  0.00000000000E+00  0.00000000000E+00  0.17930224374E+04  0.40302088327E+04  0.36093841267E+04 0.  0.
        3    1    3    3  502    0 -0.81887992241E+03 -0.72528526942E+03  0.24992427168E+04  0.27281527115E+04  0.10100000352E+00 0.  1.
       -3    1    3    3    0  502  0.81887992241E+03  0.72528526942E+03 -0.70622027944E+03  0.13020561212E+04  0.10100000352E+00 0. -1.
</event>
<event>
 5   0  0.6630125E-07  0.3488307E+04  0.7818609E-02  0.8116567E-01
        1   -1    0    0  501    0  0.00000000000E+00  0.00000000000E+00  0.24687513092E+04  0.24687513092E+04  0.50400001928E-02 0. -1.
       -1   -1    0    0    0  501  0.00000000000E+00  0.00000000000E+00 -0.12322306076E+04  0.12322306077E+04  0.50400001928E-02 0.  1.
    10030    2    1    2    0    0  0.00000000000E+00  0.00000000000E+00  0.12365207015E+04  0.37009819168E+04  0.34883067100E+04 0.  0.
        4    1    3    3  502    0  0.35490151419E+03  0.15721198113E+04 -0.89138467297E+02  0.16141446853E+04  0.12699999809E+01 0.  1.
       -4    1    3    3    0  502 -0.35490151419E+03 -0.15721198113E+04  0.13256591688E+04  0.20868372315E+04  0.12699999809E+01 0. -1.
</event>
<event>
 5   0  0.2020725E-06  0.3487245E+04  0.7818609E-02  0.8116819E-01
        2   -1    0    0  501    0  0.00000000000E+00  0.00000000000E+00  0.20894836885E+04  0.20894836885E+04  0.25500000920E-02 0.  1.
       -2   -1    0    0    0  501  0.00000000000E+00  0.00000000000E+00 -0.14550096718E+04  0.14550096718E+04  0.25500000920E-02 0. -1.
    10030    2    1    2    0    0  0.00000000000E+00  0.00000000000E+00  0.63447401666E+03  0.35444933603E+04  0.34872447438E+04 0.  0.
        3    1    3    3  502    0 -0.13585502261E+04 -0.10358293365E+04 -0.37225553245E+02  0.17087969111E+04  0.10100000352E+00 0.  1.
       -3    1    3    3    0  502  0.13585502261E+04  0.10358293365E+04  0.67169956990E+03  0.18356964492E+04  0.10100000352E+00 0. -1.
</event>
<event>
 5   0  0.2001768E-06  0.3482185E+04  0.7818609E-02  0.8118025E-01
       -2   -1    0    0    0  501  0.00000000000E+00  0.00000000000E+00  0.13438437264E+04  0.13438437264E+04  0.25500000920E-02 0.  1.
        2   -1    0    0  501    0  0.00000000000E+00  0.00000000000E+00 -0.22557705138E+04  0.22557705138E+04  0.25500000920E-02 0. -1.
    10030    2    1    2    0    0  0.00000000000E+00  0.00000000000E+00 -0.91192678741E+03  0.35996142402E+04  0.34821849768E+04 0.  0.
        2    1    3    3  502    0  0.31454231174E+03 -0.17022833163E+04 -0.26340854540E+03  0.17510252473E+04  0.25500000920E-02 0.  1.
       -2    1    3    3    0  502 -0.31454231174E+03  0.17022833163E+04 -0.64851824201E+03  0.18485889930E+04  0.25500000920E-02 0. -1.
</event>
<event>
 5   0  0.6630125E-07  0.3514538E+04  0.7818609E-02  0.8110353E-01
       -1   -1    0    0    0  501  0.00000000000E+00  0.00000000000E+00  0.15001088136E+04  0.15001088136E+04  0.50400001928E-02 0. -1.
        1   -1    0    0  501    0  0.00000000000E+00  0.00000000000E+00 -0.20585132374E+04  0.20585132374E+04  0.50400001928E-02 0.  1.
    10030    2    1    2    0    0  0.00000000000E+00  0.00000000000E+00 -0.55840442383E+03  0.35586220510E+04  0.35145377223E+04 0.  0.
        1    1    3    3  502    0 -0.84689540685E+03  0.14659620436E+04  0.19757276509E+03  0.17044974453E+04  0.50400001928E-02 0. -1.
       -1    1    3    3    0  502  0.84689540685E+03 -0.14659620436E+04 -0.75597718892E+03  0.18541246057E+04  0.50400001928E-02 0.  1.
</event>
<event>
 5   0  0.2073287E-06  0.3537148E+04  0.7818609E-02  0.8105042E-01
       -2   -1    0    0    0  501  0.00000000000E+00  0.00000000000E+00  0.26590905009E+04  0.26590905009E+04  0.25500000920E-02 0. -1.
        2   -1    0    0  501    0  0.00000000000E+00  0.00000000000E+00 -0.11762874830E+04  0.11762874830E+04  0.25500000920E-02 0.  1.
    10030    2    1    2    0    0  0.00000000000E+00  0.00000000000E+00  0.14828030179E+04  0.38353779839E+04  0.35371484970E+04 0.  0.
        1    1    3    3  502    0 -0.12301505526E+04 -0.11747990138E+04  0.21639690840E+03  0.17147159318E+04  0.50400001928E-02 0.  1.
       -1    1    3    3    0  502  0.12301505526E+04  0.11747990138E+04  0.12664061095E+04  0.21206620521E+04  0.50400001928E-02 0. -1.
</event>
<event>
 5   0  0.7378896E-07  0.3012812E+04  0.7818609E-02  0.8240082E-01
        1   -1    0    0  501    0  0.00000000000E+00  0.00000000000E+00  0.11589786376E+04  0.11589786376E+04  0.50400001928E-02 0. -1.
       -1   -1    0    0    0  501  0.00000000000E+00  0.00000000000E+00 -0.19579817740E+04  0.19579817740E+04  0.50400001928E-02 0.  1.
    10030    2    1    2    0    0  0.00000000000E+00  0.00000000000E+00 -0.79900313637E+03  0.31169604116E+04  0.30128120080E+04 0.  0.
        2    1    3    3  502    0  0.43938065930E+03  0.10496500574E+04 -0.14207618858E+04  0.18202705686E+04  0.25500000920E-02 0.  1.
       -2    1    3    3    0  502 -0.43938065930E+03 -0.10496500574E+04  0.62175874941E+03  0.12966898431E+04  0.25500000920E-02 0. -1.
</event>
<event>
 5   0  0.2023479E-06  0.3344416E+04  0.7818609E-02  0.8151685E-01
        2   -1    0    0  501    0  0.00000000000E+00  0.00000000000E+00  0.22332887241E+04  0.22332887241E+04  0.25500000920E-02 0.  1.
       -2   -1    0    0    0  501  0.00000000000E+00  0.00000000000E+00 -0.12520904473E+04  0.12520904473E+04  0.25500000920E-02 0. -1.
    10030    2    1    2    0    0  0.00000000000E+00  0.00000000000E+00  0.98119827679E+03  0.34853791713E+04  0.33444159295E+04 0.  0.
        5    1    3    3  502    0 -0.35096641507E+03 -0.14698457168E+04  0.12367613540E+04  0.19527479593E+04  0.46999998093E+01 0.  1.
       -5    1    3    3    0  502  0.35096641507E+03  0.14698457168E+04 -0.25556307724E+03  0.15326312120E+04  0.46999998093E+01 0. -1.
</event>
<event>
 5   0  0.7378896E-07  0.3463383E+04  0.7818609E-02  0.8122523E-01
       -1   -1    0    0    0  501  0.00000000000E+00  0.00000000000E+00  0.15071563384E+04  0.15071563384E+04  0.50400001928E-02 0. -1.
        1   -1    0    0  501    0  0.00000000000E+00  0.00000000000E+00 -0.19896775998E+04  0.19896775998E+04  0.50400001928E-02 0.  1.
    10030    2    1    2    0    0  0.00000000000E+00  0.00000000000E+00 -0.48252126141E+03  0.34968339382E+04  0.34633828584E+04 0.  0.
        2    1    3    3  502    0 -0.11494822123E+03 -0.46727818474E+03 -0.19208156962E+04  0.19801754807E+04  0.25500000920E-02 0.  1.
       -2    1    3    3    0  502  0.11494822123E+03  0.46727818474E+03  0.14382944348E+04  0.15166584575E+04  0.25500000920E-02 0. -1.
</event>
<event>
 5   0  0.6890600E-07  0.3354996E+04  0.7818609E-02  0.8149041E-01
       -1   -1    0    0    0  501  0.00000000000E+00  0.00000000000E+00  0.11100134474E+04  0.11100134474E+04  0.50400001928E-02 0. -1.
        1   -1    0    0  501    0  0.00000000000E+00  0.00000000000E+00 -0.25351033498E+04  0.25351033498E+04  0.50400001928E-02 0.  1.
    10030    2    1    2    0    0  0.00000000000E+00  0.00000000000E+00 -0.14250899024E+04  0.36451167972E+04  0.33549955641E+04 0.  0.
        3    1    3    3  502    0  0.25790877668E+03 -0.12204295382E+04  0.50606752244E+03  0.13461313243E+04  0.10100000352E+00 0. -1.
       -3    1    3    3    0  502 -0.25790877668E+03  0.12204295382E+04 -0.19311574248E+04  0.22989854729E+04  0.10100000352E+00 0.  1.
</event>
<event>
 5   0  0.6630125E-07  0.3282132E+04  0.7818609E-02  0.8167457E-01
        1   -1    0    0  501    0  0.00000000000E+00  0.00000000000E+00  0.26366133780E+04  0.26366133780E+04  0.50400001928E-02 0.  1.
       -1   -1    0    0    0  501  0.00000000000E+00  0.00000000000E+00 -0.10214229591E+04  0.10214229591E+04  0.50400001928E-02 0. -1.
    10030    2    1    2    0    0  0.00000000000E+00  0.00000000000E+00  0.16151904188E+04  0.36580363371E+04  0.32821318917E+04 0.  0.
        5    1    3    3  502    0  0.10121929293E+04 -0.83144261512E+03 -0.29418125901E+03  0.13425334452E+04  0.46999998093E+01 0. -1.
       -5    1    3    3    0  502 -0.10121929293E+04  0.83144261512E+03  0.19093716778E+04  0.23155028919E+04  0.46999998093E+01 0.  1.
</event>
<event>
 5   0  0.2073287E-06  0.2559884E+04  0.7818609E-02  0.8381957E-01
       -2   -1    0    0    0  501  0.00000000000E+00  0.00000000000E+00  0.13768535353E+04  0.13768535353E+04  0.25500000920E-02 0. -1.
        2   -1    0    0  501    0  0.00000000000E+00  0.00000000000E+00 -0.11898517010E+04  0.11898517010E+04  0.25500000920E-02 0.  1.
    10030    2    1    2    0    0  0.00000000000E+00  0.00000000000E+00  0.18700183436E+03  0.25667052363E+04  0.25598839981E+04 0.  0.
        1    1    3    3  502    0  0.85871363430E+03  0.10665789003E+03 -0.85213812389E+03  0.12144564189E+04  0.50400001928E-02 0.  1.
       -1    1    3    3    0  502 -0.85871363430E+03 -0.10665789003E+03  0.10391399582E+04  0.13522488174E+04  0.50400001928E-02 0. -1.
</event>
<event>
 5   0  0.6890600E-07  0.3642654E+04  0.7818609E-02  0.8080790E-01
       -1   -1    0    0    0  501  0.00000000000E+00  0.00000000000E+00  0.19460267588E+04  0.19460267588E+04  0.50400001928E-02 0.  1.
        1   -1    0    0  501    0  0.00000000000E+00  0.00000000000E+00 -0.17046182609E+04  0.17046182609E+04  0.50400001928E-02 0. -1.
    10030    2    1    2    0    0  0.00000000000E+00  0.00000000000E+00  0.24140849790E+03  0.36506450197E+04  0.36426543889E+04 0.  0.
        3    1    3    3  502    0 -0.15243344702E+04  0.26789726948E+03 -0.84154162611E+03  0.17616914720E+04  0.10100000352E+00 0. -1.
       -3    1    3    3    0  502  0.15243344702E+04 -0.26789726948E+03  0.10829501240E+04  0.18889535477E+04  0.10100000352E+00 0.  1.
</event>
<event>
 5   0  0.2001768E-06  0.2211204E+04  0.7818609E-02  0.8513779E-01
        2   -1    0    0  501    0  0.00000000000E+00  0.00000000000E+00  0.24599452947E+04  0.24599452947E+04  0.25500000920E-02 0. -1.
       -2   -1    0    0    0  501  0.00000000000E+00  0.00000000000E+00 -0.49690346264E+03  0.49690346265E+03  0.25500000920E-02 0.  1.
    10030    2    1    2    0    0  0.00000000000E+00  0.00000000000E+00  0.19630418320E+04  0.29568487573E+04  0.22112035952E+04 0.  0.
        2    1    3    3  502    0  0.80277016926E+02 -0.80213368876E+02 -0.48909459203E+03  0.50208774528E+03  0.25500000920E-02 0.  1.
       -2    1    3    3    0  502 -0.80277016926E+02  0.80213368876E+02  0.24521364241E+04  0.24547610120E+04  0.25500000920E-02 0. -1.
</event>
<event>
 5   0  0.6630125E-07  0.3472514E+04  0.7818609E-02  0.8120335E-01
       -1   -1    0    0    0  501  0.00000000000E+00  0.00000000000E+00  0.12347524745E+04  0.12347524745E+04  0.50400001928E-02 0.  1.
        1   -1    0    0  501    0  0.00000000000E+00  0.00000000000E+00 -0.24414509243E+04  0.24414509243E+04  0.50400001928E-02 0. -1.
    10030    2    1    2    0    0  0.00000000000E+00  0.00000000000E+00 -0.12066984498E+04  0.36762033988E+04  0.34725135393E+04 0.  0.
        4    1    3    3  502    0  0.29303320832E+03 -0.67920904355E+03 -0.22662820686E+04  0.23839524772E+04  0.12699999809E+01 0. -1.
       -4    1    3    3    0  502 -0.29303320832E+03  0.67920904355E+03  0.10595836189E+04  0.12922509216E+04  0.12699999809E+01 0.  1.
</event>
<event>
 5   0  0.6630125E-07  0.3453370E+04  0.7818609E-02  0.8124930E-01
        1   -1    0    0  501    0  0.00000000000E+00  0.00000000000E+00  0.26931268354E+04  0.26931268354E+04  0.50400001928E-02 0.  1.
       -1   -1    0    0    0  501  0.00000000000E+00  0.00000000000E+00 -0.11070557811E+04  0.11070557812E+04  0.50400001928E-02 0. -1.
    10030    2    1    2    0    0  0.00000000000E+00  0.00000000000E+00  0.15860710542E+04  0.38001826165E+04  0.34533703146E+04 0.  0.
        5    1    3    3  502    0 -0.17162204525E+04 -0.92746118800E+02  0.61086560157E+03  0.18240595816E+04  0.46999998093E+01 0.  1.
       -5    1    3    3    0  502  0.17162204525E+04  0.92746118800E+02  0.97520545267E+03  0.19761230349E+04  0.46999998093E+01 0. -1.
</event>
<event>
 5   0  0.2023479E-06  0.2182181E+04  0.7818609E-02  0.8525882E-01
       -2   -1    0    0    0  501  0.00000000000E+00  0.00000000000E+00  0.83167049206E+03  0.83167049207E+03  0.25500000920E-02 0. -1.
        2   -1    0    0  501    0  0.00000000000E+00  0.00000000000E+00 -0.14314303080E+04  0.14314303080E+04  0.25500000920E-02 0.  1.
    10030    2    1    2    0    0  0.00000000000E+00  0.00000000000E+00 -0.59975981596E+03  0.22631008001E+04  0.21821808803E+04 0.  0.
        5    1    3    3  502    0  0.40548451540E+03 -0.31162522946E+03  0.69966945065E+03  0.86665299055E+03  0.46999998093E+01 0. -1.
       -5    1    3    3    0  502 -0.40548451540E+03  0.31162522946E+03 -0.12994292666E+04  0.13964478095E+04  0.46999998093E+01 0.  1.
</event>
<event>
 5   0  0.6630125E-07  0.2352350E+04  0.7818609E-02  0.8457562E-01
        1   -1    0    0  501    0  0.00000000000E+00  0.00000000000E+00  0.12724265159E+04  0.12724265159E+04  0.50400001928E-02 0. -1.
       -1   -1    0    0    0  501  0.00000000000E+00  0.00000000000E+00 -0.10872043369E+04  0.10872043369E+04  0.50400001928E-02 0.  1.
    10030    2    1    2    0    0  0.00000000000E+00  0.00000000000E+00  0.18522217896E+03  0.23596308529E+04  0.23523499965E+04 0.  0.
        5    1    3    3  502    0  0.11661601364E+04 -0.11659373784E+03  0.19212486756E+03  0.11876268851E+04  0.46999998093E+01 0. -1.
       -5    1    3    3    0  502 -0.11661601364E+04  0.11659373784E+03 -0.69026885933E+01  0.11720039678E+04  0.46999998093E+01 0.  1.
</event>
<event>
 5   0  0.7378896E-07  0.3554062E+04  0.7818609E-02  0.8101096E-01
       -1   -1    0    0    0  501  0.00000000000E+00  0.00000000000E+00  0.16744816099E+04  0.16744816099E+04  0.50400001928E-02 0.  1.
        1   -1    0    0  501    0  0.00000000000E+00  0.00000000000E+00 -0.18858609836E+04  0.18858609836E+04  0.50400001928E-02 0. -1.
    10030    2    1    2    0    0  0.00000000000E+00  0.00000000000E+00 -0.21137937366E+03  0.35603425935E+04  0.35540622031E+04 0.  0.
        2    1    3    3  502    0 -0.16326698821E+04  0.68779280136E+03  0.33009497299E+02  0.17719366548E+04  0.25500000920E-02 0.  1.
       -2    1    3    3    0  502  0.16326698821E+04 -0.68779280136E+03 -0.24438887096E+03  0.17884059388E+04  0.25500000920E-02 0. -1.
</event>
<event>
 5   0  0.2073287E-06  0.3585427E+04  0.7818609E-02  0.8093838E-01
       -2   -1    0    0    0  501  0.00000000000E+00  0.00000000000E+00  0.24269409854E+04  0.24269409854E+04  0.25500000920E-02 0. -1.
        2   -1    0    0  501    0  0.00000000000E+00  0.00000000000E+00 -0.13242271994E+04  0.13242271994E+04  0.25500000920E-02 0.  1.
    10030    2    1    2    0    0  0.00000000000E+00  0.00000000000E+00  0.11027137860E+04  0.37511681848E+04  0.35854267608E+04 0.  0.
        1    1    3    3  502    0 -0.13188749724E+04  0.11091771027E+04  0.34436097119E+02  0.17236272459E+04  0.50400001928E-02 0.  1.
       -1    1    3    3    0  502  0.13188749724E+04 -0.11091771027E+04  0.10682776889E+04  0.20275409389E+04  0.50400001928E-02 0. -1.
</event>
<event>
 5   0  0.6630125E-07  0.3486132E+04  0.7818609E-02  0.8117084E-01
       -1   -1    0    0    0  501  0.00000000000E+00  0.00000000000E+00  0.12060396026E+04  0.12060396026E+04  0.50400001928E-02 0. -1.
        1   -1    0    0  501    0  0.00000000000E+00  0.00000000000E+00 -0.25192199950E+04  0.25192199950E+04  0.50400001928E-02 0.  1.
    10030    2    1    2    0    0  0.00000000000E+00  0.00000000000E+00 -0.13131803925E+04  0.37252595976E+04  0.34861320008E+04 0.  0.
        4    1    3    3  502    0  0.12661692581E+04 -0.15148400455E+03 -0.19264402281E+04  0.23102609288E+04  0.12699999809E+01 0.  1.
       -4    1    3    3    0  502 -0.12661692581E+04  0.15148400455E+03  0.61325983562E+03  0.14149986688E+04  0.12699999809E+01 0. -1.
</event>
<event>
 5   0  0.2073287E-06  0.3522106E+04  0.7818609E-02  0.8108571E-01
        2   -1    0    0  501    0  0.00000000000E+00  0.00000000000E+00  0.19192524765E+04  0.19192524765E+04  0.25500000920E-02 0.  1.
       -2   -1    0    0    0  501  0.00000000000E+00  0.00000000000E+00 -0.16158931409E+04  0.16158931409E+04  0.25500000920E-02 0. -1.
    10030    2    1    2    0    0  0.00000000000E+00  0.00000000000E+00  0.30335933558E+03  0.35351456173E+04  0.35221055704E+04 0.  0.
        1    1    3    3  502    0  0.33897064126E+03 -0.15709489859E+03 -0.15756588260E+04  0.16193457441E+04  0.50400001928E-02 0. -1.
       -1    1    3    3    0  502 -0.33897064126E+03  0.15709489859E+03  0.18790181616E+04  0.19157998733E+04  0.50400001928E-02 0.  1.
</event>
<event>
 5   0  0.2073287E-06  0.3342254E+04  0.7818609E-02  0.8152226E-01
       -2   -1    0    0    0  501  0.00000000000E+00  0.00000000000E+00  0.14829460047E+04  0.14829460047E+04  0.25500000920E-02 0.  1.
        2   -1    0    0  501    0  0.00000000000E+00  0.00000000000E+00 -0.18831880604E+04  0.18831880604E+04  0.25500000920E-02 0. -1.
    10030    2    1    2    0    0  0.00000000000E+00  0.00000000000E+00 -0.40024205569E+03  0.33661340652E+04  0.33422544549E+04 0.  0.
        1    1    3    3  502    0 -0.46762447053E+03  0.33970433516E+03 -0.17793145489E+04  0.18708372310E+04  0.50400001928E-02 0. -1.
       -1    1    3    3    0  502  0.46762447053E+03 -0.33970433516E+03  0.13790724932E+04  0.14952968342E+04  0.50400001928E-02 0.  1.
</event>
<event>
 5   0  0.6630125E-07  0.3437482E+04  0.7818609E-02  0.8128768E-01
       -1   -1    0    0    0  501  0.00000000000E+00  0.00000000000E+00  0.13813886529E+04  0.13813886529E+04  0.50400001928E-02 0.  1.
        1   -1    0    0  501    0  0.00000000000E+00  0.00000000000E+00 -0.21384784219E+04  0.21384784220E+04  0.50400001928E-02 0. -1.
    10030    2    1    2    0    0  0.00000000000E+00  0.00000000000E+00 -0.75708976901E+03  0.35198670749E+04  0.34374815355E+04 0.  0.
        4    1    3    3  502    0  0.82925216145E+03 -0.18586963432E+03 -0.19082915447E+04  0.20889674245E+04  0.12699999809E+01 0. -1.
       -4    1    3    3    0  502 -0.82925216145E+03  0.18586963432E+03  0.11512017757E+04  0.14308996504E+04  0.12699999809E+01 0.  1.
</event>
<event>
 5   0  0.6890600E-07  0.3403821E+04  0.7818609E-02  0.8136969E-01
        1   -1    0    0  501    0  0.00000000000E+00  0.00000000000E+00  0.11085487069E+04  0.11085487069E+04  0.50400001928E-02 0.  1.
       -1   -1    0    0    0  501  0.00000000000E+00  0.00000000000E+00 -0.26128755643E+04  0.26128755643E+04  0.50400001928E-02 0. -1.
    10030    2    1    2    0    0  0.00000000000E+00  0.00000000000E+00 -0.15043268573E+04  0.37214242712E+04  0.34038212809E+04 0.  0.
        3    1    3    3  502    0  0.13887470897E+04  0.26948660928E+03 -0.17866303693E+04  0.22788790224E+04  0.10100000352E+00 0. -1.
       -3    1    3    3    0  502 -0.13887470897E+04 -0.26948660928E+03  0.28230351199E+03  0.14425452488E+04  0.10100000352E+00 0.  1.
</event>
<event>
 5   0  0.1999883E-06  0.2491560E+04  0.7818609E-02  0.8405999E-01
       -2   -1    0    0    0  501  0.00000000000E+00  0.00000000000E+00  0.62863916924E+03  0.62863916924E+03  0.25500000920E-02 0.  1.
        2   -1    0    0  501    0  0.00000000000E+00  0.00000000000E+00 -0.24687728418E+04  0.24687728418E+04  0.25500000920E-02 0. -1.
    10030    2    1    2    0    0  0.00000000000E+00  0.00000000000E+00 -0.18401336725E+04  0.30974120110E+04  0.24915595986E+04 0.  0.
        4    1    3    3  502    0  0.10762579205E+04 -0.20086466510E+03 -0.16589778209E+04  0.19876837647E+04  0.12699999809E+01 0. -1.
       -4    1    3    3    0  502 -0.10762579205E+04  0.20086466510E+03 -0.18115585163E+03  0.11097282463E+04  0.12699999809E+01 0.  1.
</event>
<event>
 5   0  0.6630125E-07  0.3504297E+04  0.7818609E-02  0.8112772E-01
       -1   -1    0    0    0  501  0.00000000000E+00  0.00000000000E+00  0.23769141203E+04  0.23769141203E+04  0.50400001928E-02 0. -1.
        1   -1    0    0  501    0  0.00000000000E+00  0.00000000000E+00 -0.12916010787E+04  0.12916010787E+04  0.50400001928E-02 0.  1.
    10030    2    1    2    0    0  0.00000000000E+00  0.00000000000E+00  0.10853130416E+04  0.36685151990E+04  0.35042972715E+04 0.  0.
        4    1    3    3  502    0  0.89632407581E+02 -0.79135838132E+03 -0.10911662737E+04  0.13508987771E+04  0.12699999809E+01 0.  1.
       -4    1    3    3    0  502 -0.89632407581E+02  0.79135838132E+03  0.21764793153E+04  0.23176164219E+04  0.12699999809E+01 0. -1.
</event>
<event>
 5   0  0.6630125E-07  0.3534141E+04  0.7818609E-02  0.8105746E-01
        1   -1    0    0  501    0  0.00000000000E+00  0.00000000000E+00  0.19674493457E+04  0.19674493457E+04  0.50400001928E-02 0.  1.
       -1   -1    0    0    0  501  0.00000000000E+00  0.00000000000E+00 -0.15871000770E+04  0.15871000770E+04  0.50400001928E-02 0. -1.
    10030    2    1    2    0    0  0.00000000000E+00  0.00000000000E+00  0.38034926870E+03  0.35545494227E+04  0.35341414845E+04 0.  0.
        1    1    3    3  502    0 -0.87960483801E+03 -0.11272678097E+04 -0.85413786221E+03  0.16655296075E+04  0.50400001928E-02 0. -1.
       -1    1    3    3    0  502  0.87960483801E+03  0.11272678097E+04  0.12344871309E+04  0.18890198152E+04  0.50400001928E-02 0.  1.
</event>
<event>
 5   0  0.6630125E-07  0.3425041E+04  0.7818609E-02  0.8131788E-01
        1   -1    0    0  501    0  0.00000000000E+00  0.00000000000E+00  0.27662836283E+04  0.27662836283E+04  0.50400001928E-02 0.  1.
       -1   -1    0    0    0  501  0.00000000000E+00  0.00000000000E+00 -0.10601683918E+04  0.10601683918E+04  0.50400001928E-02 0. -1.
    10030    2    1    2    0    0  0.00000000000E+00  0.00000000000E+00  0.17061152366E+04  0.38264520201E+04  0.34250410015E+04 0.  0.
        5    1    3    3  502    0  0.14362848608E+03 -0.12964933164E+04  0.20926854793E+04  0.24659437680E+04  0.46999998093E+01 0.  1.
       -5    1    3    3    0  502 -0.14362848608E+03  0.12964933164E+04 -0.38657024278E+03  0.13605082521E+04  0.46999998093E+01 0. -1.
</event>
<event>
 5   0  0.1999883E-06  0.3500838E+04  0.7818609E-02  0.8113591E-01
       -2   -1    0    0    0  501  0.00000000000E+00  0.00000000000E+00  0.12520056889E+04  0.12520056889E+04  0.25500000920E-02 0. -1.
        2   -1    0    0  501    0  0.00000000000E+00  0.00000000000E+00 -0.24472461223E+04  0.24472461223E+04  0.25500000920E-02 0.  1.
    10030    2    1    2    0    0  0.00000000000E+00  0.00000000000E+00 -0.11952404334E+04  0.36992518112E+04  0.35008376525E+04 0.  0.
        4    1    3    3  502    0  0.17293407830E+04  0.20649622359E+02 -0.88295899554E+03  0.19418198040E+04  0.12699999809E+01 0. -1.
       -4    1    3    3    0  502 -0.17293407830E+04 -0.20649622359E+02 -0.31228143785E+03  0.17574320072E+04  0.12699999809E+01 0.  1.
</event>
<event>
 5   0  0.2001768E-06  0.3461945E+04  0.7818609E-02  0.8122868E-01
        2   -1    0    0  501    0  0.00000000000E+00  0.00000000000E+00  0.23980088529E+04  0.23980088529E+04  0.25500000920E-02 0.  1.
       -2   -1    0    0    0  501  0.00000000000E+00  0.00000000000E+00 -0.12494808714E+04  0.12494808714E+04  0.25500000920E-02 0. -1.
    10030    2    1    2    0    0  0.00000000000E+00  0.00000000000E+00  0.11485279815E+04  0.36474897244E+04  0.34619452285E+04 0.  0.
        2    1    3    3  502    0 -0.54247991301E+03  0.12083123190E+03 -0.11529197856E+04  0.12798861960E+04  0.25500000920E-02 0. -1.
       -2    1    3    3    0  502  0.54247991301E+03 -0.12083123190E+03  0.23014477672E+04  0.23676035284E+04  0.25500000920E-02 0.  1.
</event>
<event>
 5   0  0.6630125E-07  0.2756985E+04  0.7818609E-02  0.8316748E-01
        1   -1    0    0  501    0  0.00000000000E+00  0.00000000000E+00  0.11640494890E+04  0.11640494890E+04  0.50400001928E-02 0.  1.
       -1   -1    0    0    0  501  0.00000000000E+00  0.00000000000E+00 -0.16324409120E+04  0.16324409120E+04  0.50400001928E-02 0. -1.
    10030    2    1    2    0    0  0.00000000000E+00  0.00000000000E+00 -0.46839142293E+03  0.27964904010E+04  0.27569853170E+04 0.  0.
        5    1    3    3  502    0  0.71838574081E+02  0.52546060588E+03  0.10564161042E+04  0.11820772836E+04  0.46999998093E+01 0.  1.
       -5    1    3    3    0  502 -0.71838574081E+02 -0.52546060588E+03 -0.15248075271E+04  0.16144131175E+04  0.46999998093E+01 0. -1.
</event>
<event>
 5   0  0.6630125E-07  0.3530511E+04  0.7818609E-02  0.8106597E-01
       -1   -1    0    0    0  501  0.00000000000E+00  0.00000000000E+00  0.11416464278E+04  0.11416464278E+04  0.50400001928E-02 0. -1.
        1   -1    0    0  501    0  0.00000000000E+00  0.00000000000E+00 -0.27295034406E+04  0.27295034406E+04  0.50400001928E-02 0.  1.
    10030    2    1    2    0    0  0.00000000000E+00  0.00000000000E+00 -0.15878570128E+04  0.38711498685E+04  0.35305114942E+04 0.  0.
        1    1    3    3  502    0  0.14797261611E+04 -0.10176465642E+03  0.25559773763E+03  0.15050833068E+04  0.50400001928E-02 0. -1.
       -1    1    3    3    0  502 -0.14797261611E+04  0.10176465642E+03 -0.18434547504E+04  0.23660665616E+04  0.50400001928E-02 0.  1.
</event>
<event>
 5   0  0.2020725E-06  0.3372793E+04  0.7818609E-02  0.8144616E-01
       -2   -1    0    0    0  501  0.00000000000E+00  0.00000000000E+00  0.16765407537E+04  0.16765407537E+04  0.25500000920E-02 0. -1.
        2   -1    0    0  501    0  0.00000000000E+00  0.00000000000E+00 -0.16963105666E+04  0.16963105666E+04  0.25500000920E-02 0.  1.
    10030    2    1    2    0    0  0.00000000000E+00  0.00000000000E+00 -0.19769812859E+02  0.33728513203E+04  0.33727933799E+04 0.  0.
        3    1    3    3  502    0  0.25146455894E+03  0.12790267274E+03  0.16527741820E+04  0.16766800604E+04  0.10100000352E+00 0. -1.
       -3    1    3    3    0  502 -0.25146455894E+03 -0.12790267274E+03 -0.16725439948E+04  0.16961712599E+04  0.10100000352E+00 0.  1.
</event>
<event>
 5   0  0.1999883E-06  0.3499900E+04  0.7818609E-02  0.8113814E-01
       -2   -1    0    0    0  501  0.00000000000E+00  0.00000000000E+00  0.13055669347E+04  0.13055669347E+04  0.25500000920E-02 0. -1.
        2   -1    0    0  501    0  0.00000000000E+00  0.00000000000E+00 -0.23455897622E+04  0.23455897622E+04  0.25500000920E-02 0.  1.
    10030    2    1    2    0    0  0.00000000000E+00  0.00000000000E+00 -0.10400228275E+04  0.36511566970E+04  0.34998996763E+04 0.  0.
        4    1    3    3  502    0  0.54652073901E+03 -0.14367674730E+04  0.35239363650E+03  0.15770759580E+04  0.12699999809E+01 0. -1.
       -4    1    3    3    0  502 -0.54652073901E+03  0.14367674730E+04 -0.13924164640E+04  0.20740807389E+04  0.12699999809E+01 0.  1.
</event>
<event>
 5   0  0.1999883E-06  0.3489583E+04  0.7818609E-02  0.8116263E-01
        2   -1    0    0  501    0  0.00000000000E+00  0.00000000000E+00  0.18058468489E+04  0.18058468489E+04  0.25500000920E-02 0.  1.
       -2   -1    0    0    0  501  0.00000000000E+00  0.00000000000E+00 -0.16857999586E+04  0.16857999586E+04  0.25500000920E-02 0. -1.
    10030    2    1    2    0    0  0.00000000000E+00  0.00000000000E+00  0.12004689032E+03  0.34916468076E+04  0.34895825213E+04 0.  0.
        4    1    3    3  502    0 -0.22403658332E+03  0.11424044734E+04  0.13604131736E+04  0.17905323196E+04  0.12699999809E+01 0.  1.
       -4    1    3    3    0  502  0.22403658332E+03 -0.11424044734E+04 -0.12403662833E+04  0.17011144880E+04  0.12699999809E+01 0. -1.
</event>
<event>
 5   0  0.6890600E-07  0.2708388E+04  0.7818609E-02  0.8332289E-01
        1   -1    0    0  501    0  0.00000000000E+00  0.00000000000E+00  0.10050285032E+04  0.10050285033E+04  0.50400001928E-02 0.  1.
       -1   -1    0    0    0  501  0.00000000000E+00  0.00000000000E+00 -0.18246657030E+04  0.18246657030E+04  0.50400001928E-02 0. -1.
    10030    2    1    2    0    0  0.00000000000E+00  0.00000000000E+00 -0.81963719977E+03  0.28296942063E+04  0.27083877421E+04 0.  0.
        3    1    3    3  502    0 -0.75970664920E+02 -0.12890872622E+04 -0.83591267769E+03  0.15382677031E+04  0.10100000352E+00 0.  1.
       -3    1    3    3    0  502  0.75970664920E+02  0.12890872622E+04  0.16275477917E+02  0.12914265031E+04  0.10100000352E+00 0. -1.
</event>
<event>
 5   0  0.6890600E-07  0.3527674E+04  0.7818609E-02  0.8107263E-01
       -1   -1    0    0    0  501  0.00000000000E+00  0.00000000000E+00  0.19919679616E+04  0.19919679616E+04  0.50400001928E-02 0. -1.
        1   -1    0    0  501    0  0.00000000000E+00  0.00000000000E+00 -0.15618329662E+04  0.15618329662E+04  0.50400001928E-02 0.  1.
    10030    2    1    2    0    0  0.00000000000E+00  0.00000000000E+00  0.43013499540E+03  0.35538009278E+04  0.35276741517E+04 0.  0.
        3    1    3    3  502    0 -0.13403688386E+04 -0.11408472571E+04  0.32993006530E+03  0.17908028774E+04  0.10100000352E+00 0. -1.
       -3    1    3    3    0  502  0.13403688386E+04  0.11408472571E+04  0.10020493010E+03  0.17629980504E+04  0.10100000352E+00 0.  1.
</event>
<event>
 5   0  0.6630125E-07  0.3554522E+04  0.7818609E-02  0.8100989E-01
       -1   -1    0    0    0  501  0.00000000000E+00  0.00000000000E+00  0.10277904900E+04  0.10277904900E+04  0.50400001928E-02 0.  1.
        1   -1    0    0  501    0  0.00000000000E+00  0.00000000000E+00 -0.30732498840E+04  0.30732498840E+04  0.50400001928E-02 0. -1.
    10030    2    1    2    0    0  0.00000000000E+00  0.00000000000E+00 -0.20454593940E+04  0.41010403740E+04  0.35545221925E+04 0.  0.
        1    1    3    3  502    0  0.12032814378E+04  0.74854121072E+03 -0.22602375978E+04  0.26677470197E+04  0.50400001928E-02 0. -1.
       -1    1    3    3    0  502 -0.12032814378E+04 -0.74854121072E+03  0.21477820380E+03  0.14332933543E+04  0.50400001928E-02 0.  1.
</event>
<event>
 5   0  0.7378896E-07  0.3511209E+04  0.7818609E-02  0.8111139E-01
        1   -1    0    0  501    0  0.00000000000E+00  0.00000000000E+00  0.15103955579E+04  0.15103955579E+04  0.50400001928E-02 0. -1.
       -1   -1    0    0    0  501  0.00000000000E+00  0.00000000000E+00 -0.20406228221E+04  0.20406228221E+04  0.50400001928E-02 0.  1.
    10030    2    1    2    0    0  0.00000000000E+00  0.00000000000E+00 -0.53022726425E+03  0.35510183800E+04  0.35112092765E+04 0.  0.
        2    1    3    3  502    0 -0.13534690774E+04  0.70914533027E+03  0.60920054947E+03  0.16449592556E+04  0.25500000920E-02 0. -1.
       -2    1    3    3    0  502  0.13534690774E+04 -0.70914533027E+03 -0.11394278137E+04  0.19060591244E+04  0.25500000920E-02 0.  1.
</event>
<event>
 5   0  0.2020725E-06  0.3476436E+04  0.7818609E-02  0.8119397E-01
        2   -1    0    0  501    0  0.00000000000E+00  0.00000000000E+00  0.24680972841E+04  0.24680972841E+04  0.25500000920E-02 0. -1.
       -2   -1    0    0    0  501  0.00000000000E+00  0.00000000000E+00 -0.12241826716E+04  0.12241826716E+04  0.25500000920E-02 0.  1.
    10030    2    1    2    0    0  0.00000000000E+00  0.00000000000E+00  0.12439146125E+04  0.36922799557E+04  0.34764360641E+04 0.  0.
        3    1    3    3  502    0  0.88494573686E+03  0.47561615755E+03  0.21284987401E+04  0.23536878687E+04  0.10100000352E+00 0. -1.
       -3    1    3    3    0  502 -0.88494573686E+03 -0.47561615755E+03 -0.88458412755E+03  0.13385920870E+04  0.10100000352E+00 0.  1.
</event>
<event>
 5   0  0.2020725E-06  0.3447029E+04  0.7818609E-02  0.8126459E-01
       -2   -1    0    0    0  501  0.00000000000E+00  0.00000000000E+00  0.14745066520E+04  0.14745066520E+04  0.25500000920E-02 0. -1.
        2   -1    0    0  501    0  0.00000000000E+00  0.00000000000E+00 -0.20145739415E+04  0.20145739415E+04  0.25500000920E-02 0.  1.
    10030    2    1    2    0    0  0.00000000000E+00  0.00000000000E+00 -0.54006728953E+03  0.34890805936E+04  0.34470292588E+04 0.  0.
        3    1    3    3  502    0 -0.11378715026E+04 -0.12915763788E+04 -0.35816806969E+03  0.17581824351E+04  0.10100000352E+00 0. -1.
       -3    1    3    3    0  502  0.11378715026E+04  0.12915763788E+04 -0.18189921984E+03  0.17308981585E+04  0.10100000352E+00 0.  1.
</event>
<event>
 5   0  0.6890600E-07  0.3486287E+04  0.7818609E-02  0.8117047E-01
        1   -1    0    0  501    0  0.00000000000E+00  0.00000000000E+00  0.17696695579E+04  0.17696695579E+04  0.50400001928E-02 0.  1.
       -1   -1    0    0    0  501  0.00000000000E+00  0.00000000000E+00 -0.17170154099E+04  0.17170154099E+04  0.50400001928E-02 0. -1.
    10030    2    1    2    0    0  0.00000000000E+00  0.00000000000E+00  0.52654148040E+02  0.34866849678E+04  0.34862873670E+04 0.  0.
        3    1    3    3  502    0  0.64325422940E+03 -0.22868420657E+03  0.16304044479E+04  0.17675664469E+04  0.10100000352E+00 0.  1.
       -3    1    3    3    0  502 -0.64325422940E+03  0.22868420657E+03 -0.15777502999E+04  0.17191185209E+04  0.10100000352E+00 0. -1.
</event>
<event>
 5   0  0.2001768E-06  0.3487438E+04  0.7818609E-02  0.8116773E-01
       -2   -1    0    0    0  501  0.00000000000E+00  0.00000000000E+00  0.14284539451E+04  0.14284539451E+04  0.25500000920E-02 0. -1.
        2   -1    0    0  501    0  0.00000000000E+00  0.00000000000E+00 -0.21285639280E+04  0.21285639280E+04  0.25500000920E-02 0.  1.
    10030    2    1    2    0    0  0.00000000000E+00  0.00000000000E+00 -0.70010998292E+03  0.35570178730E+04  0.34874377645E+04 0.  0.
        2    1    3    3  502    0 -0.11806836445E+04  0.39561733198E+03  0.89496660051E+03  0.15334575827E+04  0.25500000920E-02 0. -1.
       -2    1    3    3    0  502  0.11806836445E+04 -0.39561733198E+03 -0.15950765834E+04  0.20235602904E+04  0.25500000920E-02 0.  1.
</event>
<event>
 5   0  0.2073287E-06  0.3501008E+04  0.7818609E-02  0.8113551E-01
        2   -1    0    0  501    0  0.00000000000E+00  0.00000000000E+00  0.16530814117E+04  0.16530814117E+04  0.25500000920E-02 0. -1.
       -2   -1    0    0    0  501  0.00000000000E+00  0.00000000000E+00 -0.18536678585E+04  0.18536678585E+04  0.25500000920E-02 0.  1.
    10030    2    1    2    0    0  0.00000000000E+00  0.00000000000E+00 -0.20058644672E+03  0.35067492702E+04  0.35010077865E+04 0.  0.
        1    1    3    3  502    0 -0.14938654607E+04 -0.79575621854E+03 -0.54756994045E+03  0.17789589129E+04  0.50400001928E-02 0.  1.
       -1    1    3    3    0  502  0.14938654607E+04  0.79575621854E+03  0.34698349372E+03  0.17277903573E+04  0.50400001928E-02 0. -1.
</event>
<event>
 5   0  0.1999883E-06  0.3146733E+04  0.7818609E-02  0.8203028E-01
        2   -1    0    0  501    0  0.00000000000E+00  0.00000000000E+00  0.14097785290E+04  0.14097785290E+04  0.25500000920E-02 0.  1.
       -2   -1    0    0    0  501  0.00000000000E+00  0.00000000000E+00 -0.17559368048E+04  0.17559368048E+04  0.25500000920E-02 0. -1.
    10030    2    1    2    0    0  0.00000000000E+00  0.00000000000E+00 -0.34615827580E+03  0.31657153338E+04  0.31467329125E+04 0.  0.
        4    1    3    3  502    0 -0.78147353356E+03  0.49000152529E+03 -0.14553968145E+04  0.17230739622E+04  0.12699999809E+01 0. -1.
       -4    1    3    3    0  502  0.78147353356E+03 -0.49000152529E+03  0.11092385387E+04  0.14426413716E+04  0.12699999809E+01 0.  1.
</event>
<event>
 5   0  0.6630125E-07  0.3456905E+04  0.7818609E-02  0.8124080E-01
       -1   -1    0    0    0  501  0.00000000000E+00  0.00000000000E+00  0.14706911281E+04  0.14706911281E+04  0.50400001928E-02 0.  1.
        1   -1    0    0  501    0  0.00000000000E+00  0.00000000000E+00 -0.20313899608E+04  0.20313899608E+04  0.50400001928E-02 0. -1.
    10030    2    1    2    0    0  0.00000000000E+00  0.00000000000E+00 -0.56069883270E+03  0.35020810890E+04  0.34569045073E+04 0.  0.
        5    1    3    3  502    0  0.13739448292E+04  0.32228767062E+03 -0.12913549211E+04  0.19129070438E+04  0.46999998093E+01 0. -1.
       -5    1    3    3    0  502 -0.13739448292E+04 -0.32228767062E+03  0.73065608840E+03  0.15891740451E+04  0.46999998093E+01 0.  1.
</event>
<event>
 5   0  0.2073287E-06  0.3491040E+04  0.7818609E-02  0.8115917E-01
       -2   -1    0    0    0  501  0.00000000000E+00  0.00000000000E+00  0.28052697767E+04  0.28052697767E+04  0.25500000920E-02 0.  1.
        2   -1    0    0  501    0  0.00000000000E+00  0.00000000000E+00 -0.10861131734E+04  0.10861131734E+04  0.25500000920E-02 0. -1.
    10030    2    1    2    0    0  0.00000000000E+00  0.00000000000E+00  0.17191566033E+04  0.38913829502E+04  0.34910402229E+04 0.  0.
        1    1    3    3  502    0  0.88004533526E+03 -0.21602605373E+03 -0.80338164517E+03  0.12110198660E+04  0.50400001928E-02 0. -1.
       -1    1    3    3    0  502 -0.88004533526E+03  0.21602605373E+03  0.25225382485E+04  0.26803630842E+04  0.50400001928E-02 0.  1.
</event>
<event>
 5   0  0.2020725E-06  0.2701602E+04  0.7818609E-02  0.8334485E-01
        2   -1    0    0  501    0  0.00000000000E+00  0.00000000000E+00  0.19237307382E+04  0.19237307382E+04  0.25500000920E-02 0. -1.
       -2   -1    0    0    0  501  0.00000000000E+00  0.00000000000E+00 -0.94850248672E+03  0.94850248673E+03  0.25500000920E-02 0.  1.
    10030    2    1    2    0    0  0.00000000000E+00  0.00000000000E+00  0.97522825151E+03  0.28722332250E+04  0.27016020351E+04 0.  0.
        3    1    3    3  502    0  0.55841625041E+03  0.34831965303E+03 -0.76651194077E+03  0.10102949346E+04  0.10100000352E+00 0.  1.
       -3    1    3    3    0  502 -0.55841625041E+03 -0.34831965303E+03  0.17417401923E+04  0.18619382903E+04  0.10100000352E+00 0. -1.
</event>
<event>
 5   0  0.6630125E-07  0.3510650E+04  0.7818609E-02  0.8111271E-01
       -1   -1    0    0    0  501  0.00000000000E+00  0.00000000000E+00  0.15717314776E+04  0.15717314776E+04  0.50400001928E-02 0. -1.
        1   -1    0    0  501    0  0.00000000000E+00  0.00000000000E+00 -0.19603639567E+04  0.19603639567E+04  0.50400001928E-02 0.  1.
    10030    2    1    2    0    0  0.00000000000E+00  0.00000000000E+00 -0.38863247909E+03  0.35320954342E+04  0.35106499331E+04 0.  0.
        4    1    3    3  502    0 -0.29609072850E+03  0.16673370114E+04  0.27054702310E+03  0.17148993363E+04  0.12699999809E+01 0. -1.
       -4    1    3    3    0  502  0.29609072850E+03 -0.16673370114E+04 -0.65917950219E+03  0.18171960979E+04  0.12699999809E+01 0.  1.
</event>
<event>
 5   0  0.2023479E-06  0.3510078E+04  0.7818609E-02  0.8111406E-01
       -2   -1    0    0    0  501  0.00000000000E+00  0.00000000000E+00  0.11680298852E+04  0.11680298852E+04  0.25500000920E-02 0.  1.
        2   -1    0    0  501    0  0.00000000000E+00  0.00000000000E+00 -0.26370578311E+04  0.26370578311E+04  0.25500000920E-02 0. -1.
    10030    2    1    2    0    0  0.00000000000E+00  0.00000000000E+00 -0.14690279459E+04  0.38050877163E+04  0.35100782645E+04 0.  0.
        5    1    3    3  502    0  0.37930564619E+03  0.15434299873E+04  0.72421048388E+02  0.15910109356E+04  0.46999998093E+01 0.  1.
       -5    1    3    3    0  502 -0.37930564619E+03 -0.15434299873E+04 -0.15414489943E+04  0.22140767807E+04  0.46999998093E+01 0. -1.
</event>
<event>
 5   0  0.2001768E-06  0.3454083E+04  0.7818609E-02  0.8124759E-01
       -2   -1    0    0    0  501  0.00000000000E+00  0.00000000000E+00  0.12487560461E+04  0.12487560461E+04  0.25500000920E-02 0. -1.
        2   -1    0    0  501    0  0.00000000000E+00  0.00000000000E+00 -0.23885145185E+04  0.23885145185E+04  0.25500000920E-02 0.  1.
    10030    2    1    2    0    0  0.00000000000E+00  0.00000000000E+00 -0.11397584724E+04  0.36372705646E+04  0.34540827704E+04 0.  0.
        2    1    3    3  502    0  0.94832047875E+03  0.95525579478E+03 -0.17093229162E+04  0.21756861437E+04  0.25500000920E-02 0.  1.
       -2    1    3    3    0  502 -0.94832047875E+03 -0.95525579478E+03  0.56956444382E+03  0.14615844209E+04  0.25500000920E-02 0. -1.
</event>
<event>
 5   0  0.2001768E-06  0.3630873E+04  0.7818609E-02  0.8083456E-01
       -2   -1    0    0    0  501  0.00000000000E+00  0.00000000000E+00  0.11409763274E+04  0.11409763274E+04  0.25500000920E-02 0. -1.
        2   -1    0    0  501    0  0.00000000000E+00  0.00000000000E+00 -0.28885880480E+04  0.28885880480E+04  0.25500000920E-02 0.  1.
    10030    2    1    2    0    0  0.00000000000E+00  0.00000000000E+00 -0.17476117207E+04  0.40295643754E+04  0.36308734940E+04 0.  0.
        2    1    3    3  502    0 -0.89507064777E+03  0.45999610972E+03 -0.25507009763E+04  0.27420472928E+04  0.25500000920E-02 0.  1.
       -2    1    3    3    0  502  0.89507064777E+03 -0.45999610972E+03  0.80308925565E+03  0.12875170826E+04  0.25500000920E-02 0. -1.
</event>
<event>
 5   0  0.6890600E-07  0.3507500E+04  0.7818609E-02  0.8112015E-01
       -1   -1    0    0    0  501  0.00000000000E+00  0.00000000000E+00  0.30250164264E+04  0.30250164264E+04  0.50400001928E-02 0. -1.
        1   -1    0    0  501    0  0.00000000000E+00  0.00000000000E+00 -0.10167348141E+04  0.10167348141E+04  0.50400001928E-02 0.  1.
    10030    2    1    2    0    0  0.00000000000E+00  0.00000000000E+00  0.20082816124E+04  0.40417512405E+04  0.35075002574E+04 0.  0.
        3    1    3    3  502    0 -0.11523404443E+04  0.46209961712E+03 -0.42315823363E+03  0.13116735328E+04  0.10100000352E+00 0.  1.
       -3    1    3    3    0  502  0.11523404443E+04 -0.46209961712E+03  0.24314398460E+04  0.27300777078E+04  0.10100000352E+00 0. -1.
</event>
<event>
 5   0  0.7378896E-07  0.3541529E+04  0.7818609E-02  0.8104018E-01
       -1   -1    0    0    0  501  0.00000000000E+00  0.00000000000E+00  0.12387451664E+04  0.12387451665E+04  0.50400001928E-02 0.  1.
        1   -1    0    0  501    0  0.00000000000E+00  0.00000000000E+00 -0.25312769047E+04  0.25312769047E+04  0.50400001928E-02 0. -1.
    10030    2    1    2    0    0  0.00000000000E+00  0.00000000000E+00 -0.12925317382E+04  0.37700220711E+04  0.35415290656E+04 0.  0.
        2    1    3    3  502    0  0.29426545583E+03  0.66084365477E+03  0.10742736487E+04  0.12951333394E+04  0.25500000920E-02 0.  1.
       -2    1    3    3    0  502 -0.29426545583E+03 -0.66084365477E+03 -0.23668053870E+04  0.24748887317E+04  0.25500000920E-02 0. -1.
</event>
<event>
 5   0  0.2073287E-06  0.3571900E+04  0.7818609E-02  0.8096959E-01
        2   -1    0    0  501    0  0.00000000000E+00  0.00000000000E+00  0.14669708837E+04  0.14669708837E+04  0.25500000920E-02 0. -1.
       -2   -1    0    0    0  501  0.00000000000E+00  0.00000000000E+00 -0.21742876667E+04  0.21742876667E+04  0.25500000920E-02 0.  1.
    10030    2    1    2    0    0  0.00000000000E+00  0.00000000000E+00 -0.70731678299E+03  0.36412585503E+04  0.35718996065E+04 0.  0.
        1    1    3    3  502    0 -0.90627778903E+03 -0.12656945234E+03  0.12098301373E+04  0.15169206368E+04  0.50400001928E-02 0. -1.
       -1    1    3    3    0  502  0.90627778903E+03  0.12656945234E+03 -0.19171469203E+04  0.21243379136E+04  0.50400001928E-02 0.  1.
</event>
<event>
 5   0  0.6630125E-07  0.2958845E+04  0.7818609E-02  0.8255582E-01
        4   -1    0    0  501    0  0.00000000000E+00  0.00000000000E+00  0.10675913401E+04  0.10675920955E+04  0.12699999809E+01 0. -1.
       -4   -1    0    0    0  501  0.00000000000E+00  0.00000000000E+00 -0.20501185592E+04  0.20501189526E+04  0.12699999809E+01 0.  1.
    10030    2    1    2    0    0  0.00000000000E+00  0.00000000000E+00 -0.98252721912E+03  0.31177110481E+04  0.29588447818E+04 0.  0.
        5    1    3    3  502    0  0.47431836002E+03 -0.58044817014E+03 -0.18351941640E+04  0.19823868680E+04  0.46999998093E+01 0.  1.
       -5    1    3    3    0  502 -0.47431836002E+03  0.58044817014E+03  0.85266694489E+03  0.11353241800E+04  0.46999998093E+01 0. -1.
</event>
<event>
 5   0  0.6630125E-07  0.2866377E+04  0.7818609E-02  0.8282952E-01
        1   -1    0    0  501    0  0.00000000000E+00  0.00000000000E+00  0.13249391212E+04  0.13249391212E+04  0.50400001928E-02 0. -1.
       -1   -1    0    0    0  501  0.00000000000E+00  0.00000000000E+00 -0.15502820732E+04  0.15502820733E+04  0.50400001928E-02 0.  1.
    10030    2    1    2    0    0  0.00000000000E+00  0.00000000000E+00 -0.22534295206E+03  0.28752211945E+04  0.28663770636E+04 0.  0.
        5    1    3    3  502    0 -0.12352705536E+04  0.75832178674E+02  0.61230567382E+03  0.13807911458E+04  0.46999998093E+01 0. -1.
       -5    1    3    3    0  502  0.12352705536E+04 -0.75832178674E+02 -0.83764862589E+03  0.14944300487E+04  0.46999998093E+01 0.  1.
</event>
<event>
 5   0  0.2023479E-06  0.2987004E+04  0.7818609E-02  0.8247452E-01
       -2   -1    0    0    0  501  0.00000000000E+00  0.00000000000E+00  0.10112307628E+04  0.10112307628E+04  0.25500000920E-02 0.  1.
        2   -1    0    0  501    0  0.00000000000E+00  0.00000000000E+00 -0.22057752782E+04  0.22057752782E+04  0.25500000920E-02 0. -1.
    10030    2    1    2    0    0  0.00000000000E+00  0.00000000000E+00 -0.11945445154E+04  0.32170060411E+04  0.29870037277E+04 0.  0.
        5    1    3    3  502    0  0.20905773891E+03 -0.13877181096E+04 -0.46990041051E+02  0.14041712302E+04  0.46999998093E+01 0.  1.
       -5    1    3    3    0  502 -0.20905773891E+03  0.13877181096E+04 -0.11475544743E+04  0.18128348108E+04  0.46999998093E+01 0. -1.
</event>
<event>
 5   0  0.7378896E-07  0.2366945E+04  0.7818609E-02  0.8451984E-01
        1   -1    0    0  501    0  0.00000000000E+00  0.00000000000E+00  0.92613188066E+03  0.92613188068E+03  0.50400001928E-02 0. -1.
       -1   -1    0    0    0  501  0.00000000000E+00  0.00000000000E+00 -0.15123189074E+04  0.15123189075E+04  0.50400001928E-02 0.  1.
    10030    2    1    2    0    0  0.00000000000E+00  0.00000000000E+00 -0.58618702678E+03  0.24384507881E+04  0.23669446584E+04 0.  0.
        2    1    3    3  502    0 -0.99132861844E+03 -0.63387897702E+03 -0.16248914569E+03  0.11878289901E+04  0.25500000920E-02 0. -1.
       -2    1    3    3    0  502  0.99132861844E+03  0.63387897702E+03 -0.42369788109E+03  0.12506217980E+04  0.25500000920E-02 0.  1.
</event>
<event>
 5   0  0.6890600E-07  0.3526022E+04  0.7818609E-02  0.8107651E-01
       -1   -1    0    0    0  501  0.00000000000E+00  0.00000000000E+00  0.19524755919E+04  0.19524755919E+04  0.50400001928E-02 0. -1.
        1   -1    0    0  501    0  0.00000000000E+00  0.00000000000E+00 -0.15919315271E+04  0.15919315271E+04  0.50400001928E-02 0.  1.
    10030    2    1    2    0    0  0.00000000000E+00  0.00000000000E+00  0.36054406484E+03  0.35444071190E+04  0.35260218097E+04 0.  0.
        3    1    3    3  502    0 -0.89657153360E+03 -0.58176286292E+03  0.15896951954E+04  0.19155728563E+04  0.10100000352E+00 0. -1.
       -3    1    3    3    0  502  0.89657153360E+03  0.58176286292E+03 -0.12291511305E+04  0.16288342627E+04  0.10100000352E+00 0.  1.
</event>
<event>
 5   0  0.6630125E-07  0.2757009E+04  0.7818609E-02  0.8316741E-01
       -1   -1    0    0    0  501  0.00000000000E+00  0.00000000000E+00  0.12324640325E+04  0.12324640325E+04  0.50400001928E-02 0. -1.
        1   -1    0    0  501    0  0.00000000000E+00  0.00000000000E+00 -0.15418497973E+04  0.15418497974E+04  0.50400001928E-02 0.  1.
    10030    2    1    2    0    0  0.00000000000E+00  0.00000000000E+00 -0.30938576486E+03  0.27743138299E+04  0.27570088275E+04 0.  0.
        5    1    3    3  502    0  0.92798590353E+03  0.93919905404E+03  0.24402594416E+03  0.13426926125E+04  0.46999998093E+01 0. -1.
       -5    1    3    3    0  502 -0.92798590353E+03 -0.93919905404E+03 -0.55341170902E+03  0.14316212173E+04  0.46999998093E+01 0.  1.
</event>
<event>
 5   0  0.2001768E-06  0.3432547E+04  0.7818609E-02  0.8129964E-01
       -2   -1    0    0    0  501  0.00000000000E+00  0.00000000000E+00  0.15207458272E+04  0.15207458272E+04  0.25500000920E-02 0. -1.
        2   -1    0    0  501    0  0.00000000000E+00  0.00000000000E+00 -0.19369413323E+04  0.19369413323E+04  0.25500000920E-02 0.  1.
    10030    2    1    2    0    0  0.00000000000E+00  0.00000000000E+00 -0.41619550507E+03  0.34576871596E+04  0.34325474206E+04 0.  0.
        2    1    3    3  502    0  0.90392152376E+03  0.10671164157E+04 -0.12102630042E+04  0.18494723856E+04  0.25500000920E-02 0.  1.
       -2    1    3    3    0  502 -0.90392152376E+03 -0.10671164157E+04  0.79406749915E+03  0.16082147739E+04  0.25500000920E-02 0. -1.
</event>
<event>
 5   0  0.2073287E-06  0.3527767E+04  0.7818609E-02  0.8107241E-01
       -2   -1    0    0    0  501  0.00000000000E+00  0.00000000000E+00  0.15963475050E+04  0.15963475050E+04  0.25500000920E-02 0.  1.
        2   -1    0    0  501    0  0.00000000000E+00  0.00000000000E+00 -0.19490026669E+04  0.19490026669E+04  0.25500000920E-02 0. -1.
    10030    2    1    2    0    0  0.00000000000E+00  0.00000000000E+00 -0.35265516190E+03  0.35453501718E+04  0.35277673078E+04 0.  0.
        1    1    3    3  502    0  0.32030791368E+03  0.12947619270E+04  0.98366964145E+03  0.16572904304E+04  0.50400001928E-02 0.  1.
       -1    1    3    3    0  502 -0.32030791368E+03 -0.12947619270E+04 -0.13363248033E+04  0.18880597414E+04  0.50400001928E-02 0. -1.
</event>
<event>
 5   0  0.6890600E-07  0.3564860E+04  0.7818609E-02  0.8098589E-01
       -1   -1    0    0    0  501  0.00000000000E+00  0.00000000000E+00  0.19172213512E+04  0.19172213512E+04  0.50400001928E-02 0. -1.
        1   -1    0    0  501    0  0.00000000000E+00  0.00000000000E+00 -0.16571152471E+04  0.16571152471E+04  0.50400001928E-02 0.  1.
    10030    2    1    2    0    0  0.00000000000E+00  0.00000000000E+00  0.26010610413E+03  0.35743365983E+04  0.35648600159E+04 0.  0.
        3    1    3    3  502    0 -0.15602253630E+04  0.72539120089E+03  0.59665144331E+03  0.18211228769E+04  0.10100000352E+00 0. -1.
       -3    1    3    3    0  502  0.15602253630E+04 -0.72539120089E+03 -0.33654533918E+03  0.17532137215E+04  0.10100000352E+00 0.  1.
</event>
<event>
 5   0  0.2073287E-06  0.3349857E+04  0.7818609E-02  0.8150324E-01
        2   -1    0    0  501    0  0.00000000000E+00  0.00000000000E+00  0.25337044777E+04  0.25337044777E+04  0.25500000920E-02 0. -1.
       -2   -1    0    0    0  501  0.00000000000E+00  0.00000000000E+00 -0.11072270648E+04  0.11072270648E+04  0.25500000920E-02 0.  1.
    10030    2    1    2    0    0  0.00000000000E+00  0.00000000000E+00  0.14264774129E+04  0.36409315425E+04  0.33498574130E+04 0.  0.
        1    1    3    3  502    0  0.84315203668E+03  0.64100829835E+03  0.21235151579E+04  0.23729967597E+04  0.50400001928E-02 0. -1.
       -1    1    3    3    0  502 -0.84315203668E+03 -0.64100829835E+03 -0.69703774499E+03  0.12679347828E+04  0.50400001928E-02 0.  1.
</event>
<event>
 5   0  0.2073287E-06  0.2669375E+04  0.7818609E-02  0.8345011E-01
        2   -1    0    0  501    0  0.00000000000E+00  0.00000000000E+00  0.23371597381E+04  0.23371597381E+04  0.25500000920E-02 0.  1.
       -2   -1    0    0    0  501  0.00000000000E+00  0.00000000000E+00 -0.76220314508E+03  0.76220314509E+03  0.25500000920E-02 0. -1.
    10030    2    1    2    0    0  0.00000000000E+00  0.00000000000E+00  0.15749565930E+04  0.30993628832E+04  0.26693748354E+04 0.  0.
        1    1    3    3  502    0 -0.23710139184E+02 -0.89480038050E+03 -0.36202835544E+03  0.96555394557E+03  0.50400001928E-02 0. -1.
       -1    1    3    3    0  502  0.23710139184E+02  0.89480038050E+03  0.19369849484E+04  0.21338089376E+04  0.50400001928E-02 0.  1.
</event>
<event>
 5   0  0.2023479E-06  0.3325351E+04  0.7818609E-02  0.8156475E-01
       -2   -1    0    0    0  501  0.00000000000E+00  0.00000000000E+00  0.92457420327E+03  0.92457420328E+03  0.25500000920E-02 0. -1.
        2   -1    0    0  501    0  0.00000000000E+00  0.00000000000E+00 -0.29900133790E+04  0.29900133790E+04  0.25500000920E-02 0.  1.
    10030    2    1    2    0    0  0.00000000000E+00  0.00000000000E+00 -0.20654391757E+04  0.39145875823E+04  0.33253506508E+04 0.  0.
        5    1    3    3  502    0 -0.38077243131E+02 -0.22252891074E+03  0.90643901825E+03  0.93414280299E+03  0.46999998093E+01 0. -1.
       -5    1    3    3    0  502  0.38077243131E+02  0.22252891074E+03 -0.29718781940E+04  0.29804447793E+04  0.46999998093E+01 0.  1.
</event>
<event>
 5   0  0.2073287E-06  0.3227346E+04  0.7818609E-02  0.8181632E-01
        2   -1    0    0  501    0  0.00000000000E+00  0.00000000000E+00  0.83551988187E+03  0.83551988187E+03  0.25500000920E-02 0. -1.
       -2   -1    0    0    0  501  0.00000000000E+00  0.00000000000E+00 -0.31165510511E+04  0.31165510511E+04  0.25500000920E-02 0.  1.
    10030    2    1    2    0    0  0.00000000000E+00  0.00000000000E+00 -0.22810311692E+04  0.39520709329E+04  0.32273458854E+04 0.  0.
        1    1    3    3  502    0  0.43433367659E+03  0.76953613104E+03 -0.27939444218E+04  0.29303510083E+04  0.50400001928E-02 0.  1.
       -1    1    3    3    0  502 -0.43433367659E+03 -0.76953613104E+03  0.51291325265E+03  0.10217199246E+04  0.50400001928E-02 0. -1.
</event>
<event>
 5   0  0.6630125E-07  0.3411409E+04  0.7818609E-02  0.8135112E-01
       -1   -1    0    0    0  501  0.00000000000E+00  0.00000000000E+00  0.14349179895E+04  0.14349179895E+04  0.50400001928E-02 0. -1.
        1   -1    0    0  501    0  0.00000000000E+00  0.00000000000E+00 -0.20275921816E+04  0.20275921816E+04  0.50400001928E-02 0.  1.
    10030    2    1    2    0    0  0.00000000000E+00  0.00000000000E+00 -0.59267419206E+03  0.34625101711E+04  0.34114093843E+04 0.  0.
        1    1    3    3  502    0  0.73927601421E+03  0.32813990192E+03  0.12278982526E+04  0.14703533382E+04  0.50400001928E-02 0. -1.
       -1    1    3    3    0  502 -0.73927601421E+03 -0.32813990192E+03 -0.18205724447E+04  0.19921568329E+04  0.50400001928E-02 0.  1.
</event>
<event>
 5   0  0.6630125E-07  0.2730989E+04  0.7818609E-02  0.8325020E-01
        1   -1    0    0  501    0  0.00000000000E+00  0.00000000000E+00  0.17381977159E+04  0.17381977159E+04  0.50400001928E-02 0. -1.
       -1   -1    0    0    0  501  0.00000000000E+00  0.00000000000E+00 -0.10727059238E+04  0.10727059238E+04  0.50400001928E-02 0.  1.
    10030    2    1    2    0    0  0.00000000000E+00  0.00000000000E+00  0.66549179208E+03  0.28109036398E+04  0.27309888221E+04 0.  0.
        1    1    3    3  502    0 -0.12745982409E+04 -0.36613048054E+03  0.66772732053E+03  0.14847599062E+04  0.50400001928E-02 0.  1.
       -1    1    3    3    0  502  0.12745982409E+04  0.36613048054E+03 -0.22355284453E+01  0.13261437336E+04  0.50400001928E-02 0. -1.
</event>
<event>
 5   0  0.6630125E-07  0.3484259E+04  0.7818609E-02  0.8117531E-01
       -1   -1    0    0    0  501  0.00000000000E+00  0.00000000000E+00  0.14257427372E+04  0.14257427372E+04  0.50400001928E-02 0.  1.
        1   -1    0    0  501    0  0.00000000000E+00  0.00000000000E+00 -0.21287253651E+04  0.21287253652E+04  0.50400001928E-02 0. -1.
    10030    2    1    2    0    0  0.00000000000E+00  0.00000000000E+00 -0.70298262798E+03  0.35544681023E+04  0.34842587325E+04 0.  0.
        1    1    3    3  502    0  0.11768320372E+04 -0.71464762447E+03 -0.14404080713E+04  0.19925938579E+04  0.50400001928E-02 0. -1.
       -1    1    3    3    0  502 -0.11768320372E+04  0.71464762447E+03  0.73742544330E+03  0.15618742444E+04  0.50400001928E-02 0.  1.
</event>
<event>
 5   0  0.2023479E-06  0.3485123E+04  0.7818609E-02  0.8117325E-01
       -2   -1    0    0    0  501  0.00000000000E+00  0.00000000000E+00  0.12278562039E+04  0.12278562039E+04  0.25500000920E-02 0.  1.
        2   -1    0    0  501    0  0.00000000000E+00  0.00000000000E+00 -0.24730256538E+04  0.24730256538E+04  0.25500000920E-02 0. -1.
    10030    2    1    2    0    0  0.00000000000E+00  0.00000000000E+00 -0.12451694500E+04  0.37008818577E+04  0.34851226041E+04 0.  0.
        5    1    3    3  502    0 -0.14912848436E+04  0.89849296792E+03 -0.69973005539E+03  0.18763966368E+04  0.46999998093E+01 0.  1.
       -5    1    3    3    0  502  0.14912848436E+04 -0.89849296792E+03 -0.54543939457E+03  0.18244852209E+04  0.46999998093E+01 0. -1.
</event>
<event>
 5   0  0.2073287E-06  0.3478031E+04  0.7818609E-02  0.8119016E-01
       -2   -1    0    0    0  501  0.00000000000E+00  0.00000000000E+00  0.11616554856E+04  0.11616554856E+04  0.25500000920E-02 0.  1.
        2   -1    0    0  501    0  0.00000000000E+00  0.00000000000E+00 -0.26033326806E+04  0.26033326806E+04  0.25500000920E-02 0. -1.
    10030    2    1    2    0    0  0.00000000000E+00  0.00000000000E+00 -0.14416771950E+04  0.37649881662E+04  0.34780314486E+04 0.  0.
        1    1    3    3  502    0  0.11171331786E+04  0.28439054650E+03  0.68862811104E+03  0.13427856110E+04  0.50400001928E-02 0.  1.
       -1    1    3    3    0  502 -0.11171331786E+04 -0.28439054650E+03 -0.21303053060E+04  0.24222025553E+04  0.50400001928E-02 0. -1.
</event>
<event>
 5   0  0.6630125E-07  0.3354599E+04  0.7818609E-02  0.8149140E-01
        1   -1    0    0  501    0  0.00000000000E+00  0.00000000000E+00  0.14438930242E+04  0.14438930242E+04  0.50400001928E-02 0. -1.
       -1   -1    0    0    0  501  0.00000000000E+00  0.00000000000E+00 -0.19484362114E+04  0.19484362114E+04  0.50400001928E-02 0.  1.
    10030    2    1    2    0    0  0.00000000000E+00  0.00000000000E+00 -0.50454318724E+03  0.33923292357E+04  0.33545989053E+04 0.  0.
        5    1    3    3  502    0 -0.47712442517E+03  0.11886665792E+04  0.84283757146E+03  0.15332883667E+04  0.46999998093E+01 0. -1.
       -5    1    3    3    0  502  0.47712442517E+03 -0.11886665792E+04 -0.13473807587E+04  0.18590408690E+04  0.46999998093E+01 0.  1.
</event>
<event>
 5   0  0.6890600E-07  0.3473088E+04  0.7818609E-02  0.8120198E-01
        1   -1    0    0  501    0  0.00000000000E+00  0.00000000000E+00  0.26610745748E+04  0.26610745748E+04  0.50400001928E-02 0. -1.
       -1   -1    0    0    0  501  0.00000000000E+00  0.00000000000E+00 -0.11332207407E+04  0.11332207407E+04  0.50400001928E-02 0.  1.
    10030    2    1    2    0    0  0.00000000000E+00  0.00000000000E+00  0.15278538341E+04  0.37942953156E+04  0.34730879061E+04 0.  0.
        3    1    3    3  502    0  0.12619765684E+04 -0.10703166534E+04  0.13393483474E+04  0.21288533542E+04  0.10100000352E+00 0. -1.
       -3    1    3    3    0  502 -0.12619765684E+04  0.10703166534E+04  0.18850548675E+03  0.16654419614E+04  0.10100000352E+00 0.  1.
</event>
<event>
 5   0  0.2073287E-06  0.3313623E+04  0.7818609E-02  0.8159438E-01
       -2   -1    0    0    0  501  0.00000000000E+00  0.00000000000E+00  0.13268247033E+04  0.13268247033E+04  0.25500000920E-02 0.  1.
        2   -1    0    0  501    0  0.00000000000E+00  0.00000000000E+00 -0.20688669113E+04  0.20688669113E+04  0.25500000920E-02 0. -1.
    10030    2    1    2    0    0  0.00000000000E+00  0.00000000000E+00 -0.74204220797E+03  0.33956916147E+04  0.33136226254E+04 0.  0.
        1    1    3    3  502    0 -0.36598499591E+02 -0.21787533476E+03 -0.20537045586E+04  0.20655535640E+04  0.50400001928E-02 0. -1.
       -1    1    3    3    0  502  0.36598499591E+02  0.21787533476E+03  0.13116623506E+04  0.13301380507E+04  0.50400001928E-02 0.  1.
</event>
<event>
 5   0  0.6630125E-07  0.3398345E+04  0.7818609E-02  0.8138313E-01
       -1   -1    0    0    0  501  0.00000000000E+00  0.00000000000E+00  0.22296471101E+04  0.22296471101E+04  0.50400001928E-02 0. -1.
        1   -1    0    0  501    0  0.00000000000E+00  0.00000000000E+00 -0.12949078045E+04  0.12949078045E+04  0.50400001928E-02 0.  1.
    10030    2    1    2    0    0  0.00000000000E+00  0.00000000000E+00  0.93473930560E+03  0.35245549147E+04  0.33983451527E+04 0.  0.
        1    1    3    3  502    0 -0.12364348807E+04 -0.71465152138E+03 -0.48752438218E+03  0.15090321515E+04  0.50400001928E-02 0.  1.
       -1    1    3    3    0  502  0.12364348807E+04  0.71465152138E+03  0.14222636878E+04  0.20155227631E+04  0.50400001928E-02 0. -1.
</event>
<event>
 5   0  0.7378896E-07  0.3124024E+04  0.7818609E-02  0.8209175E-01
       -1   -1    0    0    0  501  0.00000000000E+00  0.00000000000E+00  0.10904025396E+04  0.10904025397E+04  0.50400001928E-02 0. -1.
        1   -1    0    0  501    0  0.00000000000E+00  0.00000000000E+00 -0.22375976870E+04  0.22375976870E+04  0.50400001928E-02 0.  1.
    10030    2    1    2    0    0  0.00000000000E+00  0.00000000000E+00 -0.11471951473E+04  0.33280002266E+04  0.31240244561E+04 0.  0.
        2    1    3    3  502    0  0.80667930957E+02  0.84095553574E+03  0.82602370786E+03  0.11815365818E+04  0.25500000920E-02 0. -1.
       -2    1    3    3    0  502 -0.80667930957E+02 -0.84095553574E+03 -0.19732188552E+04  0.21464636448E+04  0.25500000920E-02 0.  1.
</event>
<event>
 5   0  0.6630125E-07  0.2321140E+04  0.7818609E-02  0.8469632E-01
        1   -1    0    0  501    0  0.00000000000E+00  0.00000000000E+00  0.14223607617E+04  0.14223607617E+04  0.50400001928E-02 0.  1.
       -1   -1    0    0    0  501  0.00000000000E+00  0.00000000000E+00 -0.94696255297E+03  0.94696255298E+03  0.50400001928E-02 0. -1.
    10030    2    1    2    0    0  0.00000000000E+00  0.00000000000E+00  0.47539820872E+03  0.23693233147E+04  0.23211397012E+04 0.  0.
        4    1    3    3  502    0 -0.62988039403E+03 -0.72489613932E+03  0.90291507303E+03  0.13181354125E+04  0.12699999809E+01 0.  1.
       -4    1    3    3    0  502  0.62988039403E+03  0.72489613932E+03 -0.42751686431E+03  0.10511879022E+04  0.12699999809E+01 0. -1.
</event>
<event>
 5   0  0.6630125E-07  0.3481953E+04  0.7818609E-02  0.8118080E-01
        1   -1    0    0  501    0  0.00000000000E+00  0.00000000000E+00  0.30808702738E+04  0.30808702738E+04  0.50400001928E-02 0. -1.
       -1   -1    0    0    0  501  0.00000000000E+00  0.00000000000E+00 -0.98381250561E+03  0.98381250562E+03  0.50400001928E-02 0.  1.
    10030    2    1    2    0    0  0.00000000000E+00  0.00000000000E+00  0.20970577682E+04  0.40646827794E+04  0.34819527300E+04 0.  0.
        4    1    3    3  502    0  0.10359251911E+04  0.48042186285E+03 -0.48558061175E+03  0.12408611168E+04  0.12699999809E+01 0.  1.
       -4    1    3    3    0  502 -0.10359251911E+04 -0.48042186285E+03  0.25826383799E+04  0.28238216626E+04  0.12699999809E+01 0. -1.
</event>
<event>
 5   0  0.6630125E-07  0.3699376E+04  0.7818609E-02  0.8068100E-01
        1   -1    0    0  501    0  0.00000000000E+00  0.00000000000E+00  0.26915736769E+04  0.26915736769E+04  0.50400001928E-02 0. -1.
       -1   -1    0    0    0  501  0.00000000000E+00  0.00000000000E+00 -0.12711322257E+04  0.12711322257E+04  0.50400001928E-02 0.  1.
    10030    2    1    2    0    0  0.00000000000E+00  0.00000000000E+00  0.14204414512E+04  0.39627059026E+04  0.36993761844E+04 0.  0.
        1    1    3    3  502    0 -0.58119098744E+03  0.63995727282E+03 -0.10414218369E+04  0.13534724664E+04  0.50400001928E-02 0.  1.
       -1    1    3    3    0  502  0.58119098744E+03 -0.63995727282E+03  0.24618632881E+04  0.26092334362E+04  0.50400001928E-02 0. -1.
</event>
<event>
 5   0  0.6890600E-07  0.3519561E+04  0.7818609E-02  0.8109170E-01
       -1   -1    0    0    0  501  0.00000000000E+00  0.00000000000E+00  0.20120913003E+04  0.20120913003E+04  0.50400001928E-02 0. -1.
        1   -1    0    0  501    0  0.00000000000E+00  0.00000000000E+00 -0.15391086898E+04  0.15391086898E+04  0.50400001928E-02 0.  1.
    10030    2    1    2    0    0  0.00000000000E+00  0.00000000000E+00  0.47298261052E+03  0.35511999901E+04  0.35195608845E+04 0.  0.
        3    1    3    3  502    0 -0.34090629854E+03  0.21580325221E+03  0.19647931480E+04  0.20057916823E+04  0.10100000352E+00 0. -1.
       -3    1    3    3    0  502  0.34090629854E+03 -0.21580325221E+03 -0.14918105375E+04  0.15454083078E+04  0.10100000352E+00 0.  1.
</event>
<event>
 5   0  0.6630125E-07  0.3473197E+04  0.7818609E-02  0.8120172E-01
       -1   -1    0    0    0  501  0.00000000000E+00  0.00000000000E+00  0.15928824838E+04  0.15928824838E+04  0.50400001928E-02 0. -1.
        1   -1    0    0  501    0  0.00000000000E+00  0.00000000000E+00 -0.18932807094E+04  0.18932807094E+04  0.50400001928E-02 0.  1.
    10030    2    1    2    0    0  0.00000000000E+00  0.00000000000E+00 -0.30039822556E+03  0.34861631932E+04  0.34731966135E+04 0.  0.
        4    1    3    3  502    0  0.10976236638E+04  0.11383430231E+04  0.57023360004E+03  0.16810028308E+04  0.12699999809E+01 0. -1.
       -4    1    3    3    0  502 -0.10976236638E+04 -0.11383430231E+04 -0.87063182560E+03  0.18051603625E+04  0.12699999809E+01 0.  1.
</event>
<event>
 5   0  0.2020725E-06  0.3508796E+04  0.7818609E-02  0.8111709E-01
        2   -1    0    0  501    0  0.00000000000E+00  0.00000000000E+00  0.19588613308E+04  0.19588613308E+04  0.25500000920E-02 0. -1.
       -2   -1    0    0    0  501  0.00000000000E+00  0.00000000000E+00 -0.15712764852E+04  0.15712764852E+04  0.25500000920E-02 0.  1.
    10030    2    1    2    0    0  0.00000000000E+00  0.00000000000E+00  0.38758484563E+03  0.35301378160E+04  0.35087962305E+04 0.  0.
        3    1    3    3  502    0 -0.15757592395E+04  0.24889699339E+03  0.92826409819E+03  0.18457088449E+04  0.10100000352E+00 0. -1.
       -3    1    3    3    0  502  0.15757592395E+04 -0.24889699339E+03 -0.54067925256E+03  0.16844289710E+04  0.10100000352E+00 0.  1.
</event>
<event>
 5   0  0.7378896E-07  0.3500644E+04  0.7818609E-02  0.8113637E-01
        1   -1    0    0  501    0  0.00000000000E+00  0.00000000000E+00  0.21575561909E+04  0.21575561909E+04  0.50400001928E-02 0. -1.
       -1   -1    0    0    0  501  0.00000000000E+00  0.00000000000E+00 -0.14199526774E+04  0.14199526774E+04  0.50400001928E-02 0.  1.
    10030    2    1    2    0    0  0.00000000000E+00  0.00000000000E+00  0.73760351356E+03  0.35775088683E+04  0.35006443349E+04 0.  0.
        2    1    3    3  502    0 -0.29492502090E+02 -0.12231732700E+04  0.16479252900E+04  0.20524815267E+04  0.25500000920E-02 0. -1.
       -2    1    3    3    0  502  0.29492502090E+02  0.12231732700E+04 -0.91032177643E+03  0.15250273416E+04  0.25500000920E-02 0.  1.
</event>
<event>
 5   0  0.6890600E-07  0.3504545E+04  0.7818609E-02  0.8112714E-01
        1   -1    0    0  501    0  0.00000000000E+00  0.00000000000E+00  0.17680516248E+04  0.17680516248E+04  0.50400001928E-02 0. -1.
       -1   -1    0    0    0  501  0.00000000000E+00  0.00000000000E+00 -0.17366341686E+04  0.17366341686E+04  0.50400001928E-02 0.  1.
    10030    2    1    2    0    0  0.00000000000E+00  0.00000000000E+00  0.31417456199E+02  0.35046857934E+04  0.35045449711E+04 0.  0.
        3    1    3    3  502    0 -0.67774430517E+03  0.12258037701E+04 -0.10371994904E+04  0.17429041910E+04  0.10100000352E+00 0.  1.
       -3    1    3    3    0  502  0.67774430517E+03 -0.12258037701E+04  0.10686169466E+04  0.17617816024E+04  0.10100000352E+00 0. -1.
</event>
<event>
 5   0  0.7378896E-07  0.3491368E+04  0.7818609E-02  0.8115839E-01
        1   -1    0    0  501    0  0.00000000000E+00  0.00000000000E+00  0.22450457547E+04  0.22450457547E+04  0.50400001928E-02 0.  1.
       -1   -1    0    0    0  501  0.00000000000E+00  0.00000000000E+00 -0.13573945474E+04  0.13573945475E+04  0.50400001928E-02 0. -1.
    10030    2    1    2    0    0  0.00000000000E+00  0.00000000000E+00  0.88765120724E+03  0.36024403022E+04  0.34913681365E+04 0.  0.
        2    1    3    3  502    0 -0.11370063132E+04 -0.31840160807E+03 -0.88286729507E+03  0.14743193687E+04  0.25500000920E-02 0. -1.
       -2    1    3    3    0  502  0.11370063132E+04  0.31840160807E+03  0.17705185023E+04  0.21281209334E+04  0.25500000920E-02 0.  1.
</event>
<event>
 5   0  0.2073287E-06  0.2388762E+04  0.7818609E-02  0.8443723E-01
        2   -1    0    0  501    0  0.00000000000E+00  0.00000000000E+00  0.18528438005E+04  0.18528438005E+04  0.25500000920E-02 0. -1.
       -2   -1    0    0    0  501  0.00000000000E+00  0.00000000000E+00 -0.76992210949E+03  0.76992210950E+03  0.25500000920E-02 0.  1.
    10030    2    1    2    0    0  0.00000000000E+00  0.00000000000E+00  0.10829216910E+04  0.26227659100E+04  0.23887615264E+04 0.  0.
        1    1    3    3  502    0 -0.43988512174E+03  0.73979781143E+03  0.14506793719E+04  0.16867929222E+04  0.50400001928E-02 0. -1.
       -1    1    3    3    0  502  0.43988512174E+03 -0.73979781143E+03 -0.36775768090E+03  0.93597298786E+03  0.50400001928E-02 0.  1.
</event>
<event>
 5   0  0.6630125E-07  0.3487340E+04  0.7818609E-02  0.8116797E-01
        1   -1    0    0  501    0  0.00000000000E+00  0.00000000000E+00  0.21255459953E+04  0.21255459954E+04  0.50400001928E-02 0.  1.
       -1   -1    0    0    0  501  0.00000000000E+00  0.00000000000E+00 -0.14304019779E+04  0.14304019779E+04  0.50400001928E-02 0. -1.
    10030    2    1    2    0    0  0.00000000000E+00  0.00000000000E+00  0.69514401745E+03  0.35559479733E+04  0.34873400728E+04 0.  0.
        1    1    3    3  502    0  0.72719936127E+03  0.24692642134E+03  0.19438067098E+04  0.20900182042E+04  0.50400001928E-02 0.  1.
       -1    1    3    3    0  502 -0.72719936127E+03 -0.24692642134E+03 -0.12486626924E+04  0.14659297691E+04  0.50400001928E-02 0. -1.
</event>
<event>
 5   0  0.2001768E-06  0.3282721E+04  0.7818609E-02  0.8167306E-01
       -2   -1    0    0    0  501  0.00000000000E+00  0.00000000000E+00  0.12545753088E+04  0.12545753088E+04  0.25500000920E-02 0. -1.
        2   -1    0    0  501    0  0.00000000000E+00  0.00000000000E+00 -0.21473920246E+04  0.21473920246E+04  0.25500000920E-02 0.  1.
    10030    2    1    2    0    0  0.00000000000E+00  0.00000000000E+00 -0.89281671576E+03  0.34019673334E+04  0.32827214396E+04 0.  0.
        2    1    3    3  502    0  0.79789908344E+03 -0.12130805619E+04 -0.12396256027E+04  0.19091566284E+04  0.25500000920E-02 0.  1.
       -2    1    3    3    0  502 -0.79789908344E+03  0.12130805619E+04  0.34680888692E+03  0.14928107050E+04  0.25500000920E-02 0. -1.
</event>
<event>
 5   0  0.6630125E-07  0.2374529E+04  0.7818609E-02  0.8449102E-01
        1   -1    0    0  501    0  0.00000000000E+00  0.00000000000E+00  0.14137357307E+04  0.14137357307E+04  0.50400001928E-02 0. -1.
       -1   -1    0    0    0  501  0.00000000000E+00  0.00000000000E+00 -0.99707214865E+03  0.99707214866E+03  0.50400001928E-02 0.  1.
    10030    2    1    2    0    0  0.00000000000E+00  0.00000000000E+00  0.41666358201E+03  0.24108078793E+04  0.23745286038E+04 0.  0.
        5    1    3    3  502    0 -0.69841796091E+03 -0.24854378249E+03  0.11498693460E+04  0.13681313032E+04  0.46999998093E+01 0. -1.
       -5    1    3    3    0  502  0.69841796091E+03  0.24854378249E+03 -0.73320576403E+03  0.10426765761E+04  0.46999998093E+01 0.  1.
</event>
<event>
 5   0  0.6630125E-07  0.3550980E+04  0.7818609E-02  0.8101814E-01
       -1   -1    0    0    0  501  0.00000000000E+00  0.00000000000E+00  0.11566514665E+04  0.11566514665E+04  0.50400001928E-02 0. -1.
        1   -1    0    0  501    0  0.00000000000E+00  0.00000000000E+00 -0.27254225105E+04  0.27254225105E+04  0.50400001928E-02 0.  1.
    10030    2    1    2    0    0  0.00000000000E+00  0.00000000000E+00 -0.15687710440E+04  0.38820739770E+04  0.35509795513E+04 0.  0.
        4    1    3    3  502    0 -0.69796682045E+03 -0.15113851898E+04 -0.14591189295E+04  0.22137010949E+04  0.12699999809E+01 0.  1.
       -4    1    3    3    0  502  0.69796682045E+03  0.15113851898E+04 -0.10965211455E+03  0.16683728820E+04  0.12699999809E+01 0. -1.
</event>
<event>
 5   0  0.6890600E-07  0.3461297E+04  0.7818609E-02  0.8123024E-01
        1   -1    0    0  501    0  0.00000000000E+00  0.00000000000E+00  0.17761581264E+04  0.17761581265E+04  0.50400001928E-02 0.  1.
       -1   -1    0    0    0  501  0.00000000000E+00  0.00000000000E+00 -0.16863051475E+04  0.16863051475E+04  0.50400001928E-02 0. -1.
    10030    2    1    2    0    0  0.00000000000E+00  0.00000000000E+00  0.89852978997E+02  0.34624632739E+04  0.34612972085E+04 0.  0.
        3    1    3    3  502    0 -0.76341948874E+03 -0.89877038641E+03  0.13120603978E+04  0.17641145147E+04  0.10100000352E+00 0.  1.
       -3    1    3    3    0  502  0.76341948874E+03  0.89877038641E+03 -0.12222074188E+04  0.16983487592E+04  0.10100000352E+00 0. -1.
</event>
<event>
 5   0  0.2020725E-06  0.3046417E+04  0.7818609E-02  0.8230599E-01
        2   -1    0    0  501    0  0.00000000000E+00  0.00000000000E+00  0.18491350586E+04  0.18491350586E+04  0.25500000920E-02 0.  1.
       -2   -1    0    0    0  501  0.00000000000E+00  0.00000000000E+00 -0.12547292108E+04  0.12547292108E+04  0.25500000920E-02 0. -1.
    10030    2    1    2    0    0  0.00000000000E+00  0.00000000000E+00  0.59440584787E+03  0.31038642694E+04  0.30464167625E+04 0.  0.
        3    1    3    3  502    0 -0.34159477534E+03 -0.16876728882E+03  0.17997997741E+04  0.18396870999E+04  0.10100000352E+00 0.  1.
       -3    1    3    3    0  502  0.34159477534E+03  0.16876728882E+03 -0.12053939263E+04  0.12641771695E+04  0.10100000352E+00 0. -1.
</event>
<event>
 5   0  0.1999883E-06  0.2403601E+04  0.7818609E-02  0.8438157E-01
        2   -1    0    0  501    0  0.00000000000E+00  0.00000000000E+00  0.22410772958E+04  0.22410772958E+04  0.25500000920E-02 0. -1.
       -2   -1    0    0    0  501  0.00000000000E+00  0.00000000000E+00 -0.64447786612E+03  0.64447786613E+03  0.25500000920E-02 0.  1.
    10030    2    1    2    0    0  0.00000000000E+00  0.00000000000E+00  0.15965994297E+04  0.28855551620E+04  0.24036012260E+04 0.  0.
        4    1    3    3  502    0 -0.88378972141E+02  0.35495874127E+03 -0.57602140001E+03  0.68235534503E+03  0.12699999809E+01 0.  1.
       -4    1    3    3    0  502  0.88378972141E+02 -0.35495874127E+03  0.21726208297E+04  0.22031998169E+04  0.12699999809E+01 0. -1.
</event>
<event>
 5   0  0.6630125E-07  0.3486578E+04  0.7818609E-02  0.8116978E-01
        1   -1    0    0  501    0  0.00000000000E+00  0.00000000000E+00  0.22188210595E+04  0.22188210595E+04  0.50400001928E-02 0. -1.
       -1   -1    0    0    0  501  0.00000000000E+00  0.00000000000E+00 -0.13696717840E+04  0.13696717840E+04  0.50400001928E-02 0.  1.
    10030    2    1    2    0    0  0.00000000000E+00  0.00000000000E+00  0.84914927545E+03  0.35884928435E+04  0.34865780352E+04 0.  0.
        1    1    3    3  502    0 -0.11412911777E+03 -0.73365471475E+03  0.20479496123E+04  0.21783875483E+04  0.50400001928E-02 0. -1.
       -1    1    3    3    0  502  0.11412911777E+03  0.73365471475E+03 -0.11988003368E+04  0.14101052952E+04  0.50400001928E-02 0.  1.
</event>
<event>
 5   0  0.6630125E-07  0.3483511E+04  0.7818609E-02  0.8117709E-01
       -1   -1    0    0    0  501  0.00000000000E+00  0.00000000000E+00  0.11176702943E+04  0.11176702943E+04  0.50400001928E-02 0.  1.
        1   -1    0    0  501    0  0.00000000000E+00  0.00000000000E+00 -0.27143172935E+04  0.27143172935E+04  0.50400001928E-02 0. -1.
    10030    2    1    2    0    0  0.00000000000E+00  0.00000000000E+00 -0.15966469992E+04  0.38319875878E+04  0.34835107625E+04 0.  0.
        5    1    3    3  502    0 -0.27379352797E+03  0.72485091835E+03  0.91763337344E+03  0.12010182546E+04  0.46999998093E+01 0.  1.
       -5    1    3    3    0  502  0.27379352797E+03 -0.72485091835E+03 -0.25142803727E+04  0.26309693332E+04  0.46999998093E+01 0. -1.
</event>
<event>
 5   0  0.2020725E-06  0.3193506E+04  0.7818609E-02  0.8190534E-01
       -2   -1    0    0    0  501  0.00000000000E+00  0.00000000000E+00  0.11974529996E+04  0.11974529996E+04  0.25500000920E-02 0. -1.
        2   -1    0    0  501    0  0.00000000000E+00  0.00000000000E+00 -0.21292029239E+04  0.21292029239E+04  0.25500000920E-02 0.  1.
    10030    2    1    2    0    0  0.00000000000E+00  0.00000000000E+00 -0.93174992428E+03  0.33266559235E+04  0.31935061785E+04 0.  0.
        3    1    3    3  502    0 -0.11188041041E+03 -0.15917099742E+04 -0.52805064640E+03  0.16807425037E+04  0.10100000352E+00 0.  1.
       -3    1    3    3    0  502  0.11188041041E+03  0.15917099742E+04 -0.40369927788E+03  0.16459134198E+04  0.10100000352E+00 0. -1.
</event>
<event>
 5   0  0.6630125E-07  0.3537625E+04  0.7818609E-02  0.8104931E-01
       -1   -1    0    0    0  501  0.00000000000E+00  0.00000000000E+00  0.16329811072E+04  0.16329811072E+04  0.50400001928E-02 0. -1.
        1   -1    0    0  501    0  0.00000000000E+00  0.00000000000E+00 -0.19159423753E+04  0.19159423753E+04  0.50400001928E-02 0.  1.
    10030    2    1    2    0    0  0.00000000000E+00  0.00000000000E+00 -0.28296126810E+03  0.35489234825E+04  0.35376250233E+04 0.  0.
        4    1    3    3  502    0 -0.64135265924E+03 -0.16477946049E+04 -0.95118371641E+02  0.17707652049E+04  0.12699999809E+01 0.  1.
       -4    1    3    3    0  502  0.64135265924E+03  0.16477946049E+04 -0.18784289646E+03  0.17781582776E+04  0.12699999809E+01 0. -1.
</event>
<event>
 5   0  0.2020725E-06  0.3458819E+04  0.7818609E-02  0.8123619E-01
        2   -1    0    0  501    0  0.00000000000E+00  0.00000000000E+00  0.20255945089E+04  0.20255945089E+04  0.25500000920E-02 0. -1.
       -2   -1    0    0    0  501  0.00000000000E+00  0.00000000000E+00 -0.14765327395E+04  0.14765327395E+04  0.25500000920E-02 0.  1.
    10030    2    1    2    0    0  0.00000000000E+00  0.00000000000E+00  0.54906176945E+03  0.35021272484E+04  0.34588186477E+04 0.  0.
        3    1    3    3  502    0  0.21189008252E+03  0.67812226842E+03  0.18710136937E+04  0.20013594055E+04  0.10100000352E+00 0. -1.
       -3    1    3    3    0  502 -0.21189008252E+03 -0.67812226842E+03 -0.13219519242E+04  0.15007678429E+04  0.10100000352E+00 0.  1.
</event>
<event>
 5   0  0.6630125E-07  0.3493079E+04  0.7818609E-02  0.8115432E-01
        1   -1    0    0  501    0  0.00000000000E+00  0.00000000000E+00  0.23606301675E+04  0.23606301675E+04  0.50400001928E-02 0.  1.
       -1   -1    0    0    0  501  0.00000000000E+00  0.00000000000E+00 -0.12921970636E+04  0.12921970636E+04  0.50400001928E-02 0. -1.
    10030    2    1    2    0    0  0.00000000000E+00  0.00000000000E+00  0.10684331038E+04  0.36528272311E+04  0.34930785109E+04 0.  0.
        5    1    3    3  502    0  0.75832596840E+03 -0.14564305384E+04  0.11565191131E+04  0.20084339015E+04  0.46999998093E+01 0. -1.
       -5    1    3    3    0  502 -0.75832596840E+03  0.14564305384E+04 -0.88086009245E+02  0.16443933297E+04  0.46999998093E+01 0.  1.
</event>
<event>
 5   0  0.7378896E-07  0.3442311E+04  0.7818609E-02  0.8127599E-01
        1   -1    0    0  501    0  0.00000000000E+00  0.00000000000E+00  0.15642164882E+04  0.15642164882E+04  0.50400001928E-02 0. -1.
       -1   -1    0    0    0  501  0.00000000000E+00  0.00000000000E+00 -0.18938401840E+04  0.18938401840E+04  0.50400001928E-02 0.  1.
    10030    2    1    2    0    0  0.00000000000E+00  0.00000000000E+00 -0.32962369583E+03  0.34580566723E+04  0.34423108761E+04 0.  0.
        2    1    3    3  502    0 -0.45725007782E+03 -0.75548682454E+03 -0.16489110478E+04  0.18704934160E+04  0.25500000920E-02 0.  1.
       -2    1    3    3    0  502  0.45725007782E+03  0.75548682454E+03  0.13192873520E+04  0.15875632563E+04  0.25500000920E-02 0. -1.
</event>
<event>
 5   0  0.2023479E-06  0.3475193E+04  0.7818609E-02  0.8119694E-01
       -2   -1    0    0    0  501  0.00000000000E+00  0.00000000000E+00  0.14471390738E+04  0.14471390738E+04  0.25500000920E-02 0. -1.
        2   -1    0    0  501    0  0.00000000000E+00  0.00000000000E+00 -0.20863518848E+04  0.20863518848E+04  0.25500000920E-02 0.  1.
    10030    2    1    2    0    0  0.00000000000E+00  0.00000000000E+00 -0.63921281099E+03  0.35334909586E+04  0.34751928489E+04 0.  0.
        5    1    3    3  502    0  0.21974227476E+03 -0.15905059137E+04  0.35578324267E+03  0.16445666707E+04  0.46999998093E+01 0. -1.
       -5    1    3    3    0  502 -0.21974227476E+03  0.15905059137E+04 -0.99499605365E+03  0.18889242879E+04  0.46999998093E+01 0.  1.
</event>
<event>
 5   0  0.6630125E-07  0.3577426E+04  0.7818609E-02  0.8095682E-01
        1   -1    0    0  501    0  0.00000000000E+00  0.00000000000E+00  0.18561113507E+04  0.18561113507E+04  0.50400001928E-02 0. -1.
       -1   -1    0    0    0  501  0.00000000000E+00  0.00000000000E+00 -0.17237624365E+04  0.17237624365E+04  0.50400001928E-02 0.  1.
    10030    2    1    2    0    0  0.00000000000E+00  0.00000000000E+00  0.13234891420E+03  0.35798737872E+04  0.35774264628E+04 0.  0.
        1    1    3    3  502    0  0.12279424642E+04 -0.11289040571E+04  0.71254819325E+03  0.18138335076E+04  0.50400001928E-02 0. -1.
       -1    1    3    3    0  502 -0.12279424642E+04  0.11289040571E+04 -0.58019927905E+03  0.17660402796E+04  0.50400001928E-02 0.  1.
</event>
<event>
 5   0  0.6630125E-07  0.2723155E+04  0.7818609E-02  0.8327531E-01
        1   -1    0    0  501    0  0.00000000000E+00  0.00000000000E+00  0.14752850584E+04  0.14752850584E+04  0.50400001928E-02 0.  1.
       -1   -1    0    0    0  501  0.00000000000E+00  0.00000000000E+00 -0.12566339084E+04  0.12566339085E+04  0.50400001928E-02 0. -1.
    10030    2    1    2    0    0  0.00000000000E+00  0.00000000000E+00  0.21865114999E+03  0.27319189669E+04  0.27231549564E+04 0.  0.
        1    1    3    3  502    0 -0.73775421484E+03 -0.21373158782E+03  0.12371905222E+04  0.14562289866E+04  0.50400001928E-02 0.  1.
       -1    1    3    3    0  502  0.73775421484E+03  0.21373158782E+03 -0.10185393722E+04  0.12756899803E+04  0.50400001928E-02 0. -1.
</event>
<event>
 5   0  0.2020725E-06  0.3578755E+04  0.7818609E-02  0.8095375E-01
       -2   -1    0    0    0  501  0.00000000000E+00  0.00000000000E+00  0.17799950986E+04  0.17799950986E+04  0.25500000920E-02 0. -1.
        2   -1    0    0  501    0  0.00000000000E+00  0.00000000000E+00 -0.17988097830E+04  0.17988097830E+04  0.25500000920E-02 0.  1.
    10030    2    1    2    0    0  0.00000000000E+00  0.00000000000E+00 -0.18814684365E+02  0.35788048816E+04  0.35787554244E+04 0.  0.
        3    1    3    3  502    0  0.12215729680E+04 -0.14384342465E+03  0.12902033000E+04  0.17825700582E+04  0.10100000352E+00 0. -1.
       -3    1    3    3    0  502 -0.12215729680E+04  0.14384342465E+03 -0.13090179843E+04  0.17962348233E+04  0.10100000352E+00 0.  1.
</event>
<event>
 5   0  0.6630125E-07  0.3532607E+04  0.7818609E-02  0.8106106E-01
        1   -1    0    0  501    0  0.00000000000E+00  0.00000000000E+00  0.12880637439E+04  0.12880637439E+04  0.50400001928E-02 0.  1.
       -1   -1    0    0    0  501  0.00000000000E+00  0.00000000000E+00 -0.24221063851E+04  0.24221063851E+04  0.50400001928E-02 0. -1.
    10030    2    1    2    0    0  0.00000000000E+00  0.00000000000E+00 -0.11340426412E+04  0.37101701291E+04  0.35326066403E+04 0.  0.
        4    1    3    3  502    0  0.22098455415E+03 -0.15208044493E+04 -0.14815025863E+04  0.21346034461E+04  0.12699999809E+01 0. -1.
       -4    1    3    3    0  502 -0.22098455415E+03  0.15208044493E+04  0.34745994505E+03  0.15755666830E+04  0.12699999809E+01 0.  1.
</event>
<event>
 5   0  0.6630125E-07  0.3601691E+04  0.7818609E-02  0.8090105E-01
        1   -1    0    0  501    0  0.00000000000E+00  0.00000000000E+00  0.11672358492E+04  0.11672358492E+04  0.50400001928E-02 0. -1.
       -1   -1    0    0    0  501  0.00000000000E+00  0.00000000000E+00 -0.27783962315E+04  0.27783962315E+04  0.50400001928E-02 0.  1.
    10030    2    1    2    0    0  0.00000000000E+00  0.00000000000E+00 -0.16111603823E+04  0.39456320807E+04  0.36016905390E+04 0.  0.
        1    1    3    3  502    0  0.14936172877E+04  0.20846960885E+03  0.27262876875E+03  0.15325399263E+04  0.50400001928E-02 0. -1.
       -1    1    3    3    0  502 -0.14936172877E+04 -0.20846960885E+03 -0.18837891511E+04  0.24130921544E+04  0.50400001928E-02 0.  1.
</event>
<event>
 5   0  0.2023479E-06  0.3389874E+04  0.7818609E-02  0.8140396E-01
       -2   -1    0    0    0  501  0.00000000000E+00  0.00000000000E+00  0.18762618482E+04  0.18762618482E+04  0.25500000920E-02 0. -1.
        2   -1    0    0  501    0  0.00000000000E+00  0.00000000000E+00 -0.15311353882E+04  0.15311353882E+04  0.25500000920E-02 0.  1.
    10030    2    1    2    0    0  0.00000000000E+00  0.00000000000E+00  0.34512645998E+03  0.34073972364E+04  0.33898736928E+04 0.  0.
        5    1    3    3  502    0 -0.92478745009E+03 -0.53489366831E+03  0.14952094518E+04  0.18376660358E+04  0.46999998093E+01 0. -1.
       -5    1    3    3    0  502  0.92478745009E+03  0.53489366831E+03 -0.11500829918E+04  0.15697312007E+04  0.46999998093E+01 0.  1.
</event>
<event>
 5   0  0.6630125E-07  0.3423903E+04  0.7818609E-02  0.8132064E-01
        1   -1    0    0  501    0  0.00000000000E+00  0.00000000000E+00  0.24810400647E+04  0.24810400647E+04  0.50400001928E-02 0.  1.
       -1   -1    0    0    0  501  0.00000000000E+00  0.00000000000E+00 -0.11812701935E+04  0.11812701935E+04  0.50400001928E-02 0. -1.
    10030    2    1    2    0    0  0.00000000000E+00  0.00000000000E+00  0.12997698712E+04  0.36623102582E+04  0.34239034316E+04 0.  0.
        5    1    3    3  502    0 -0.12501747832E+04 -0.10043218199E+04  0.88584651561E+01  0.16036520411E+04  0.46999998093E+01 0.  1.
       -5    1    3    3    0  502  0.12501747832E+04  0.10043218199E+04  0.12909114061E+04  0.20586582171E+04  0.46999998093E+01 0. -1.
</event>
<event>
 5   0  0.2020725E-06  0.3238430E+04  0.7818609E-02  0.8178741E-01
       -2   -1    0    0    0  501  0.00000000000E+00  0.00000000000E+00  0.19279666041E+04  0.19279666041E+04  0.25500000920E-02 0.  1.
        2   -1    0    0  501    0  0.00000000000E+00  0.00000000000E+00 -0.13599080428E+04  0.13599080428E+04  0.25500000920E-02 0. -1.
    10030    2    1    2    0    0  0.00000000000E+00  0.00000000000E+00  0.56805856130E+03  0.32878746468E+04  0.32384300462E+04 0.  0.
        3    1    3    3  502    0 -0.12875981793E+04  0.73039857641E+03 -0.38208726860E+03  0.15288498431E+04  0.10100000352E+00 0.  1.
       -3    1    3    3    0  502  0.12875981793E+04 -0.73039857641E+03  0.95014582990E+03  0.17590248037E+04  0.10100000352E+00 0. -1.
</event>
<event>
 5   0  0.7378896E-07  0.3375008E+04  0.7818609E-02  0.8144067E-01
       -1   -1    0    0    0  501  0.00000000000E+00  0.00000000000E+00  0.10726824204E+04  0.10726824204E+04  0.50400001928E-02 0. -1.
        1   -1    0    0  501    0  0.00000000000E+00  0.00000000000E+00 -0.26547191536E+04  0.26547191536E+04  0.50400001928E-02 0.  1.
    10030    2    1    2    0    0  0.00000000000E+00  0.00000000000E+00 -0.15820367332E+04  0.37274015741E+04  0.33750084843E+04 0.  0.
        2    1    3    3  502    0 -0.14960522215E+04  0.25921462163E+03 -0.16043235856E+04  0.22088953431E+04  0.25500000920E-02 0.  1.
       -2    1    3    3    0  502  0.14960522215E+04 -0.25921462163E+03  0.22286852416E+02  0.15185062309E+04  0.25500000920E-02 0. -1.
</event>
<event>
 5   0  0.6630125E-07  0.3526418E+04  0.7818609E-02  0.8107558E-01
        1   -1    0    0  501    0  0.00000000000E+00  0.00000000000E+00  0.10995025438E+04  0.10995025438E+04  0.50400001928E-02 0.  1.
       -1   -1    0    0    0  501  0.00000000000E+00  0.00000000000E+00 -0.28275573842E+04  0.28275573842E+04  0.50400001928E-02 0. -1.
    10030    2    1    2    0    0  0.00000000000E+00  0.00000000000E+00 -0.17280548404E+04  0.39270599280E+04  0.35264183171E+04 0.  0.
        4    1    3    3  502    0  0.53011121472E+03 -0.49206106026E+03  0.92669410151E+03  0.11755447919E+04  0.12699999809E+01 0.  1.
       -4    1    3    3    0  502 -0.53011121472E+03  0.49206106026E+03 -0.26547489419E+04  0.27515151362E+04  0.12699999809E+01 0. -1.
</event>
<event>
 5   0  0.6630125E-07  0.3429692E+04  0.7818609E-02  0.8130657E-01
       -1   -1    0    0    0  501  0.00000000000E+00  0.00000000000E+00  0.23544598170E+04  0.23544598170E+04  0.50400001928E-02 0. -1.
        1   -1    0    0  501    0  0.00000000000E+00  0.00000000000E+00 -0.12489900478E+04  0.12489900478E+04  0.50400001928E-02 0.  1.
    10030    2    1    2    0    0  0.00000000000E+00  0.00000000000E+00  0.11054697692E+04  0.36034498648E+04  0.34296920441E+04 0.  0.
        1    1    3    3  502    0  0.48508317905E+03 -0.16377190990E+04  0.39247060326E+03  0.17525589041E+04  0.50400001928E-02 0.  1.
       -1    1    3    3    0  502 -0.48508317905E+03  0.16377190990E+04  0.71299916589E+03  0.18508909607E+04  0.50400001928E-02 0. -1.
</event>
<event>
 5   0  0.6630125E-07  0.3455922E+04  0.7818609E-02  0.8124316E-01
        1   -1    0    0  501    0  0.00000000000E+00  0.00000000000E+00  0.16806231849E+04  0.16806231849E+04  0.50400001928E-02 0. -1.
       -1   -1    0    0    0  501  0.00000000000E+00  0.00000000000E+00 -0.17766317688E+04  0.17766317688E+04  0.50400001928E-02 0.  1.
    10030    2    1    2    0    0  0.00000000000E+00  0.00000000000E+00 -0.96008583932E+02  0.34572549537E+04  0.34559216089E+04 0.  0.
        4    1    3    3  502    0 -0.64771639425E+03  0.16013897438E+04 -0.48449789203E+01  0.17274289351E+04  0.12699999809E+01 0. -1.
       -4    1    3    3    0  502  0.64771639425E+03 -0.16013897438E+04 -0.91163605012E+02  0.17298260187E+04  0.12699999809E+01 0.  1.
</event>
<event>
 5   0  0.2001768E-06  0.3485153E+04  0.7818609E-02  0.8117318E-01
       -2   -1    0    0    0  501  0.00000000000E+00  0.00000000000E+00  0.14032043225E+04  0.14032043225E+04  0.25500000920E-02 0.  1.
        2   -1    0    0  501    0  0.00000000000E+00  0.00000000000E+00 -0.21640272834E+04  0.21640272834E+04  0.25500000920E-02 0. -1.
    10030    2    1    2    0    0  0.00000000000E+00  0.00000000000E+00 -0.76082296091E+03  0.35672316059E+04  0.34851527589E+04 0.  0.
        2    1    3    3  502    0 -0.13576917002E+04 -0.10916767273E+04 -0.34093360438E+03  0.17751959195E+04  0.25500000920E-02 0.  1.
       -2    1    3    3    0  502  0.13576917002E+04  0.10916767273E+04 -0.41988935653E+03  0.17920356865E+04  0.25500000920E-02 0. -1.
</event>
<event>
 5   0  0.2073287E-06  0.3403870E+04  0.7818609E-02  0.8136957E-01
        2   -1    0    0  501    0  0.00000000000E+00  0.00000000000E+00  0.21907244648E+04  0.21907244648E+04  0.25500000920E-02 0. -1.
       -2   -1    0    0    0  501  0.00000000000E+00  0.00000000000E+00 -0.13222034419E+04  0.13222034420E+04  0.25500000920E-02 0.  1.
    10030    2    1    2    0    0  0.00000000000E+00  0.00000000000E+00  0.86852102282E+03  0.35129279067E+04  0.34038704016E+04 0.  0.
        1    1    3    3  502    0 -0.13733204223E+04  0.22888378495E+03  0.14444928821E+04  0.20062294126E+04  0.50400001928E-02 0. -1.
       -1    1    3    3    0  502  0.13733204223E+04 -0.22888378495E+03 -0.57597185931E+03  0.15066984941E+04  0.50400001928E-02 0.  1.
</event>
<event>
 5   0  0.2020725E-06  0.3343270E+04  0.7818609E-02  0.8151972E-01
        2   -1    0    0  501    0  0.00000000000E+00  0.00000000000E+00  0.20414507413E+04  0.20414507413E+04  0.25500000920E-02 0.  1.
       -2   -1    0    0    0  501  0.00000000000E+00  0.00000000000E+00 -0.13688123228E+04  0.13688123228E+04  0.25500000920E-02 0. -1.
    10030    2    1    2    0    0  0.00000000000E+00  0.00000000000E+00  0.67263841858E+03  0.34102630641E+04  0.33432696159E+04 0.  0.
        3    1    3    3  502    0  0.10720043561E+04  0.12635002423E+04  0.56150688818E+03  0.17495474265E+04  0.10100000352E+00 0.  1.
       -3    1    3    3    0  502 -0.10720043561E+04 -0.12635002423E+04  0.11113153040E+03  0.16607156376E+04  0.10100000352E+00 0. -1.
</event>
<event>
 5   0  0.2073287E-06  0.3210586E+04  0.7818609E-02  0.8186027E-01
        2   -1    0    0  501    0  0.00000000000E+00  0.00000000000E+00  0.19224790165E+04  0.19224790165E+04  0.25500000920E-02 0.  1.
       -2   -1    0    0    0  501  0.00000000000E+00  0.00000000000E+00 -0.13404390993E+04  0.13404390993E+04  0.25500000920E-02 0. -1.
    10030    2    1    2    0    0  0.00000000000E+00  0.00000000000E+00  0.58203991719E+03  0.32629181158E+04  0.32105862650E+04 0.  0.
        1    1    3    3  502    0 -0.81909160457E+03  0.12451249558E+04  0.89716318822E+03  0.17395829956E+04  0.50400001928E-02 0.  1.
       -1    1    3    3    0  502  0.81909160457E+03 -0.12451249558E+04 -0.31512327103E+03  0.15233351202E+04  0.50400001928E-02 0. -1.
</event>
<event>
 5   0  0.1999883E-06  0.3530105E+04  0.7818609E-02  0.8106692E-01
        2   -1    0    0  501    0  0.00000000000E+00  0.00000000000E+00  0.17318963073E+04  0.17318963073E+04  0.25500000920E-02 0.  1.
       -2   -1    0    0    0  501  0.00000000000E+00  0.00000000000E+00 -0.17988430167E+04  0.17988430167E+04  0.25500000920E-02 0. -1.
    10030    2    1    2    0    0  0.00000000000E+00  0.00000000000E+00 -0.66946709352E+02  0.35307393240E+04  0.35301045753E+04 0.  0.
        4    1    3    3  502    0 -0.11876177415E+04  0.19521405870E+03  0.12578294869E+04  0.17408851368E+04  0.12699999809E+01 0.  1.
       -4    1    3    3    0  502  0.11876177415E+04 -0.19521405870E+03 -0.13247761962E+04  0.17898541872E+04  0.12699999809E+01 0. -1.
</event>
<event>
 5   0  0.6890600E-07  0.2683185E+04  0.7818609E-02  0.8340482E-01
       -1   -1    0    0    0  501  0.00000000000E+00  0.00000000000E+00  0.10564954692E+04  0.10564954692E+04  0.50400001928E-02 0. -1.
        1   -1    0    0  501    0  0.00000000000E+00  0.00000000000E+00 -0.17036232833E+04  0.17036232833E+04  0.50400001928E-02 0.  1.
    10030    2    1    2    0    0  0.00000000000E+00  0.00000000000E+00 -0.64712781409E+03  0.27601187525E+04  0.26831848837E+04 0.  0.
        3    1    3    3  502    0  0.12109850438E+04  0.31206812296E+03  0.17616242256E+03  0.12628952843E+04  0.10100000352E+00 0.  1.
       -3    1    3    3    0  502 -0.12109850438E+04 -0.31206812296E+03 -0.82329023664E+03  0.14972234682E+04  0.10100000352E+00 0. -1.
</event>
<event>
 5   0  0.6630125E-07  0.3445069E+04  0.7818609E-02  0.8126933E-01
       -1   -1    0    0    0  501  0.00000000000E+00  0.00000000000E+00  0.11426303733E+04  0.11426303733E+04  0.50400001928E-02 0.  1.
        1   -1    0    0  501    0  0.00000000000E+00  0.00000000000E+00 -0.25967501972E+04  0.25967501972E+04  0.50400001928E-02 0. -1.
    10030    2    1    2    0    0  0.00000000000E+00  0.00000000000E+00 -0.14541198240E+04  0.37393805705E+04  0.34450693155E+04 0.  0.
        1    1    3    3  502    0 -0.12896700380E+04 -0.75003765758E+03 -0.16616144798E+04  0.22331072464E+04  0.50400001928E-02 0. -1.
       -1    1    3    3    0  502  0.12896700380E+04  0.75003765758E+03  0.20749465582E+03  0.15062733241E+04  0.50400001928E-02 0.  1.
</event>
<event>
 5   0  0.6630125E-07  0.3512770E+04  0.7818609E-02  0.8110770E-01
        1   -1    0    0  501    0  0.00000000000E+00  0.00000000000E+00  0.11192246240E+04  0.11192246240E+04  0.50400001928E-02 0.  1.
       -1   -1    0    0    0  501  0.00000000000E+00  0.00000000000E+00 -0.27562728222E+04  0.27562728222E+04  0.50400001928E-02 0. -1.
    10030    2    1    2    0    0  0.00000000000E+00  0.00000000000E+00 -0.16370481982E+04  0.38754974462E+04  0.35127700825E+04 0.  0.
        5    1    3    3  502    0  0.83652915441E+03 -0.86045926728E+03 -0.22334067947E+04  0.25354090750E+04  0.46999998093E+01 0. -1.
       -5    1    3    3    0  502 -0.83652915441E+03  0.86045926728E+03  0.59635859658E+03  0.13400883712E+04  0.46999998093E+01 0.  1.
</event>
<event>
 5   0  0.6630125E-07  0.2415830E+04  0.7818609E-02  0.8433601E-01
        1   -1    0    0  501    0  0.00000000000E+00  0.00000000000E+00  0.10830497044E+04  0.10830497044E+04  0.50400001928E-02 0.  1.
       -1   -1    0    0    0  501  0.00000000000E+00  0.00000000000E+00 -0.13471756237E+04  0.13471756237E+04  0.50400001928E-02 0. -1.
    10030    2    1    2    0    0  0.00000000000E+00  0.00000000000E+00 -0.26412591931E+03  0.24302253281E+04  0.24158295975E+04 0.  0.
        1    1    3    3  502    0  0.10894079484E+04  0.26915800145E+03 -0.58171922935E+03  0.12639829784E+04  0.50400001928E-02 0. -1.
       -1    1    3    3    0  502 -0.10894079484E+04 -0.26915800145E+03  0.31759331004E+03  0.11662423497E+04  0.50400001928E-02 0.  1.
</event>
<event>
 5   0  0.6630125E-07  0.3421839E+04  0.7818609E-02  0.8132567E-01
       -1   -1    0    0    0  501  0.00000000000E+00  0.00000000000E+00  0.16369590632E+04  0.16369590632E+04  0.50400001928E-02 0.  1.
        1   -1    0    0  501    0  0.00000000000E+00  0.00000000000E+00 -0.17882217741E+04  0.17882217741E+04  0.50400001928E-02 0. -1.
    10030    2    1    2    0    0  0.00000000000E+00  0.00000000000E+00 -0.15126271098E+03  0.34251808373E+04  0.34218391781E+04 0.  0.
        4    1    3    3  502    0 -0.58568220387E+03  0.15231504686E+04  0.43890685390E+03  0.16898674011E+04  0.12699999809E+01 0.  1.
       -4    1    3    3    0  502  0.58568220387E+03 -0.15231504686E+04 -0.59016956488E+03  0.17353134363E+04  0.12699999809E+01 0. -1.
</event>
<event>
 5   0  0.6890600E-07  0.3413406E+04  0.7818609E-02  0.8134624E-01
        1   -1    0    0  501    0  0.00000000000E+00  0.00000000000E+00  0.15742595573E+04  0.15742595573E+04  0.50400001928E-02 0.  1.
       -1   -1    0    0    0  501  0.00000000000E+00  0.00000000000E+00 -0.18502889546E+04  0.18502889546E+04  0.50400001928E-02 0. -1.
    10030    2    1    2    0    0  0.00000000000E+00  0.00000000000E+00 -0.27602939731E+03  0.34245485119E+04  0.34134059651E+04 0.  0.
        3    1    3    3  502    0 -0.15940002261E+04  0.25030717291E+03 -0.69601790006E+03  0.17572510717E+04  0.10100000352E+00 0. -1.
       -3    1    3    3    0  502  0.15940002261E+04 -0.25030717291E+03  0.41998850275E+03  0.16672974402E+04  0.10100000352E+00 0.  1.
</event>
<event>
 5   0  0.1999883E-06  0.3487259E+04  0.7818609E-02  0.8116816E-01
       -2   -1    0    0    0  501  0.00000000000E+00  0.00000000000E+00  0.22118311491E+04  0.22118311491E+04  0.25500000920E-02 0.  1.
        2   -1    0    0  501    0  0.00000000000E+00  0.00000000000E+00 -0.13745368579E+04  0.13745368580E+04  0.25500000920E-02 0. -1.
    10030    2    1    2    0    0  0.00000000000E+00  0.00000000000E+00  0.83729429116E+03  0.35863680071E+04  0.34872587733E+04 0.  0.
        4    1    3    3  502    0 -0.18889007080E+03 -0.13473771830E+04  0.15401145087E+04  0.20550082834E+04  0.12699999809E+01 0.  1.
       -4    1    3    3    0  502  0.18889007080E+03  0.13473771830E+04 -0.70282021758E+03  0.15313597236E+04  0.12699999809E+01 0. -1.
</event>
<event>
 5   0  0.7378896E-07  0.3564801E+04  0.7818609E-02  0.8098602E-01
       -1   -1    0    0    0  501  0.00000000000E+00  0.00000000000E+00  0.15311797533E+04  0.15311797533E+04  0.50400001928E-02 0. -1.
        1   -1    0    0  501    0  0.00000000000E+00  0.00000000000E+00 -0.20748392287E+04  0.20748392287E+04  0.50400001928E-02 0.  1.
    10030    2    1    2    0    0  0.00000000000E+00  0.00000000000E+00 -0.54365947536E+03  0.36060189820E+04  0.35648011548E+04 0.  0.
        2    1    3    3  502    0  0.63087264335E+02 -0.17566894283E+04 -0.57022191591E+03  0.18479964242E+04  0.25500000920E-02 0.  1.
       -2    1    3    3    0  502 -0.63087264335E+02  0.17566894283E+04  0.26562440543E+02  0.17580225578E+04  0.25500000920E-02 0. -1.
</event>
<event>
 5   0  0.6890600E-07  0.2637882E+04  0.7818609E-02  0.8355446E-01
       -1   -1    0    0    0  501  0.00000000000E+00  0.00000000000E+00  0.83706738596E+03  0.83706738597E+03  0.50400001928E-02 0.  1.
        1   -1    0    0  501    0  0.00000000000E+00  0.00000000000E+00 -0.20782143974E+04  0.20782143974E+04  0.50400001928E-02 0. -1.
    10030    2    1    2    0    0  0.00000000000E+00  0.00000000000E+00 -0.12411470114E+04  0.29152817834E+04  0.26378820998E+04 0.  0.
        3    1    3    3  502    0 -0.41907610173E+03 -0.51873321671E+03  0.63702697744E+03  0.92223224263E+03  0.10100000352E+00 0.  1.
       -3    1    3    3    0  502  0.41907610173E+03  0.51873321671E+03 -0.18781739889E+04  0.19930495407E+04  0.10100000352E+00 0. -1.
</event>
<event>
 5   0  0.2023479E-06  0.3464884E+04  0.7818609E-02  0.8122163E-01
       -2   -1    0    0    0  501  0.00000000000E+00  0.00000000000E+00  0.12799071836E+04  0.12799071836E+04  0.25500000920E-02 0.  1.
        2   -1    0    0  501    0  0.00000000000E+00  0.00000000000E+00 -0.23449792463E+04  0.23449792463E+04  0.25500000920E-02 0. -1.
    10030    2    1    2    0    0  0.00000000000E+00  0.00000000000E+00 -0.10650720626E+04  0.36248864299E+04  0.34648842882E+04 0.  0.
        5    1    3    3  502    0  0.33483343801E+03 -0.11644206320E+04  0.76292868413E+03  0.14318069376E+04  0.46999998093E+01 0.  1.
       -5    1    3    3    0  502 -0.33483343801E+03  0.11644206320E+04 -0.18280007468E+04  0.21930794923E+04  0.46999998093E+01 0. -1.
</event>
<event>
 5   0  0.7378896E-07  0.3411116E+04  0.7818609E-02  0.8135183E-01
       -1   -1    0    0    0  501  0.00000000000E+00  0.00000000000E+00  0.12400771522E+04  0.12400771522E+04  0.50400001928E-02 0. -1.
        1   -1    0    0  501    0  0.00000000000E+00  0.00000000000E+00 -0.23457640234E+04  0.23457640234E+04  0.50400001928E-02 0.  1.
    10030    2    1    2    0    0  0.00000000000E+00  0.00000000000E+00 -0.11056868712E+04  0.35858411756E+04  0.34111161633E+04 0.  0.
        2    1    3    3  502    0 -0.18219452828E+03  0.98591962620E+03  0.89757509909E+03  0.13456869673E+04  0.25500000920E-02 0. -1.
       -2    1    3    3    0  502  0.18219452828E+03 -0.98591962620E+03 -0.20032619703E+04  0.22401542083E+04  0.25500000920E-02 0.  1.
</event>
<event>
 5   0  0.6630125E-07  0.2535141E+04  0.7818609E-02  0.8390572E-01
        1   -1    0    0  501    0  0.00000000000E+00  0.00000000000E+00  0.84416567236E+03  0.84416567238E+03  0.50400001928E-02 0. -1.
       -1   -1    0    0    0  501  0.00000000000E+00  0.00000000000E+00 -0.19033402246E+04  0.19033402246E+04  0.50400001928E-02 0.  1.
    10030    2    1    2    0    0  0.00000000000E+00  0.00000000000E+00 -0.10591745522E+04  0.27475058970E+04  0.25351406118E+04 0.  0.
        5    1    3    3  502    0 -0.13923516414E+03 -0.27615192079E+03  0.80263996116E+03  0.86017400074E+03  0.46999998093E+01 0. -1.
       -5    1    3    3    0  502  0.13923516414E+03  0.27615192079E+03 -0.18618145134E+04  0.18873318962E+04  0.46999998093E+01 0.  1.
</event>
<event>
 5   0  0.6630125E-07  0.2856590E+04  0.7818609E-02  0.8285912E-01
       -1   -1    0    0    0  501  0.00000000000E+00  0.00000000000E+00  0.10642592667E+04  0.10642592668E+04  0.50400001928E-02 0.  1.
        1   -1    0    0  501    0  0.00000000000E+00  0.00000000000E+00 -0.19168508490E+04  0.19168508491E+04  0.50400001928E-02 0. -1.
    10030    2    1    2    0    0  0.00000000000E+00  0.00000000000E+00 -0.85259158230E+03  0.29811101158E+04  0.28565897704E+04 0.  0.
        5    1    3    3  502    0  0.21720762225E+03  0.12867581403E+04  0.17959685982E+03  0.13172709611E+04  0.46999998093E+01 0.  1.
       -5    1    3    3    0  502 -0.21720762225E+03 -0.12867581403E+04 -0.10321884421E+04  0.16638391547E+04  0.46999998093E+01 0. -1.
</event>
<event>
 5   0  0.2001768E-06  0.3693131E+04  0.7818609E-02  0.8069486E-01
       -2   -1    0    0    0  501  0.00000000000E+00  0.00000000000E+00  0.12865685406E+04  0.12865685406E+04  0.25500000920E-02 0.  1.
        2   -1    0    0  501    0  0.00000000000E+00  0.00000000000E+00 -0.26503093546E+04  0.26503093546E+04  0.25500000920E-02 0. -1.
    10030    2    1    2    0    0  0.00000000000E+00  0.00000000000E+00 -0.13637408140E+04  0.39368778952E+04  0.36931312668E+04 0.  0.
        2    1    3    3  502    0  0.87938040926E+03 -0.16094485417E+04 -0.91092432823E+03  0.20477835931E+04  0.25500000920E-02 0. -1.
       -2    1    3    3    0  502 -0.87938040926E+03  0.16094485417E+04 -0.45281648581E+03  0.18890943021E+04  0.25500000920E-02 0.  1.
</event>
<event>
 5   0  0.2001768E-06  0.3539005E+04  0.7818609E-02  0.8104608E-01
        2   -1    0    0  501    0  0.00000000000E+00  0.00000000000E+00  0.27934907078E+04  0.27934907078E+04  0.25500000920E-02 0. -1.
       -2   -1    0    0    0  501  0.00000000000E+00  0.00000000000E+00 -0.11208697004E+04  0.11208697004E+04  0.25500000920E-02 0.  1.
    10030    2    1    2    0    0  0.00000000000E+00  0.00000000000E+00  0.16726210074E+04  0.39143604081E+04  0.35390049972E+04 0.  0.
        2    1    3    3  502    0  0.11015701641E+04 -0.15864687438E+03 -0.68528466233E+03  0.13069968346E+04  0.25500000920E-02 0.  1.
       -2    1    3    3    0  502 -0.11015701641E+04  0.15864687438E+03  0.23579056698E+04  0.26073635736E+04  0.25500000920E-02 0. -1.
</event>
<event>
 5   0  0.2020725E-06  0.3521395E+04  0.7818609E-02  0.8108738E-01
       -2   -1    0    0    0  501  0.00000000000E+00  0.00000000000E+00  0.15916395396E+04  0.15916395396E+04  0.25500000920E-02 0. -1.
        2   -1    0    0  501    0  0.00000000000E+00  0.00000000000E+00 -0.19477127014E+04  0.19477127014E+04  0.25500000920E-02 0.  1.
    10030    2    1    2    0    0  0.00000000000E+00  0.00000000000E+00 -0.35607316183E+03  0.35393522411E+04  0.35213954890E+04 0.  0.
        3    1    3    3  502    0  0.53162927804E+03  0.12631567860E+04 -0.12890518388E+04  0.18814487526E+04  0.10100000352E+00 0.  1.
       -3    1    3    3    0  502 -0.53162927804E+03 -0.12631567860E+04  0.93297867699E+03  0.16579034885E+04  0.10100000352E+00 0. -1.
</event>
<event>
 5   0  0.1999883E-06  0.3466846E+04  0.7818609E-02  0.8121692E-01
        2   -1    0    0  501    0  0.00000000000E+00  0.00000000000E+00  0.19058626906E+04  0.19058626906E+04  0.25500000920E-02 0.  1.
       -2   -1    0    0    0  501  0.00000000000E+00  0.00000000000E+00 -0.15765856279E+04  0.15765856279E+04  0.25500000920E-02 0. -1.
    10030    2    1    2    0    0  0.00000000000E+00  0.00000000000E+00  0.32927706267E+03  0.34824483185E+04  0.34668462480E+04 0.  0.
        4    1    3    3  502    0  0.12932931820E+04 -0.50089573204E+03 -0.87987296411E+03  0.16424621258E+04  0.12699999809E+01 0. -1.
       -4    1    3    3    0  502 -0.12932931820E+04  0.50089573204E+03  0.12091500268E+04  0.18399861926E+04  0.12699999809E+01 0.  1.
</event>
<event>
 5   0  0.6630125E-07  0.3510125E+04  0.7818609E-02  0.8111395E-01
       -1   -1    0    0    0  501  0.00000000000E+00  0.00000000000E+00  0.16622975511E+04  0.16622975511E+04  0.50400001928E-02 0.  1.
        1   -1    0    0  501    0  0.00000000000E+00  0.00000000000E+00 -0.18530045855E+04  0.18530045855E+04  0.50400001928E-02 0. -1.
    10030    2    1    2    0    0  0.00000000000E+00  0.00000000000E+00 -0.19070703442E+03  0.35153021365E+04  0.35101253451E+04 0.  0.
        1    1    3    3  502    0  0.15238912321E+02  0.30496943961E+03  0.16354912106E+04  0.16637518095E+04  0.50400001928E-02 0.  1.
       -1    1    3    3    0  502 -0.15238912321E+02 -0.30496943961E+03 -0.18261982450E+04  0.18515503271E+04  0.50400001928E-02 0. -1.
</event>
<event>
 5   0  0.1999883E-06  0.3106436E+04  0.7818609E-02  0.8213974E-01
        2   -1    0    0  501    0  0.00000000000E+00  0.00000000000E+00  0.23650917370E+04  0.23650917370E+04  0.25500000920E-02 0. -1.
       -2   -1    0    0    0  501  0.00000000000E+00  0.00000000000E+00 -0.10200393062E+04  0.10200393062E+04  0.25500000920E-02 0.  1.
    10030    2    1    2    0    0  0.00000000000E+00  0.00000000000E+00  0.13450524308E+04  0.33851310432E+04  0.31064362440E+04 0.  0.
        4    1    3    3  502    0  0.45104841374E+03 -0.98764224046E+03 -0.53779531484E+03  0.12116547694E+04  0.12699999809E+01 0.  1.
       -4    1    3    3    0  502 -0.45104841374E+03  0.98764224046E+03  0.18828477456E+04  0.21734762738E+04  0.12699999809E+01 0. -1.
</event>
<event>
 5   0  0.6630125E-07  0.3475471E+04  0.7818609E-02  0.8119628E-01
       -1   -1    0    0    0  501  0.00000000000E+00  0.00000000000E+00  0.10151082744E+04  0.10151082744E+04  0.50400001928E-02 0.  1.
        1   -1    0    0  501    0  0.00000000000E+00  0.00000000000E+00 -0.29747814577E+04  0.29747814577E+04  0.50400001928E-02 0. -1.
    10030    2    1    2    0    0  0.00000000000E+00  0.00000000000E+00 -0.19596731833E+04  0.39898897321E+04  0.34754713477E+04 0.  0.
        4    1    3    3  502    0  0.36982450096E+03  0.19989493920E+03 -0.29155241910E+04  0.29456766743E+04  0.12699999809E+01 0. -1.
       -4    1    3    3    0  502 -0.36982450096E+03 -0.19989493920E+03  0.95585100771E+03  0.10442130578E+04  0.12699999809E+01 0.  1.
</event>
<event>
 5   0  0.2073287E-06  0.3548542E+04  0.7818609E-02  0.8102382E-01
       -2   -1    0    0    0  501  0.00000000000E+00  0.00000000000E+00  0.14419874293E+04  0.14419874293E+04  0.25500000920E-02 0. -1.
        2   -1    0    0  501    0  0.00000000000E+00  0.00000000000E+00 -0.21831238200E+04  0.21831238200E+04  0.25500000920E-02 0.  1.
    10030    2    1    2    0    0  0.00000000000E+00  0.00000000000E+00 -0.74113639073E+03  0.36251112493E+04  0.35485417315E+04 0.  0.
        1    1    3    3  502    0  0.28259184851E+03  0.11745932601E+04  0.95689715027E+03  0.15411617812E+04  0.50400001928E-02 0. -1.
       -1    1    3    3    0  502 -0.28259184851E+03 -0.11745932601E+04 -0.16980335410E+04  0.20839494682E+04  0.50400001928E-02 0.  1.
</event>
<event>
 5   0  0.6890600E-07  0.3405811E+04  0.7818609E-02  0.8136481E-01
       -1   -1    0    0    0  501  0.00000000000E+00  0.00000000000E+00  0.13053514060E+04  0.13053514060E+04  0.50400001928E-02 0. -1.
        1   -1    0    0  501    0  0.00000000000E+00  0.00000000000E+00 -0.22215379927E+04  0.22215379927E+04  0.50400001928E-02 0.  1.
    10030    2    1    2    0    0  0.00000000000E+00  0.00000000000E+00 -0.91618658663E+03  0.35268893987E+04  0.34058113526E+04 0.  0.
        3    1    3    3  502    0  0.40049913941E+03 -0.85943795498E+03  0.10067090092E+04  0.13829302942E+04  0.10100000352E+00 0. -1.
       -3    1    3    3    0  502 -0.40049913941E+03  0.85943795498E+03 -0.19228955959E+04  0.21439591045E+04  0.10100000352E+00 0.  1.
</event>
<event>
 5   0  0.2020725E-06  0.3458812E+04  0.7818609E-02  0.8123621E-01
        2   -1    0    0  501    0  0.00000000000E+00  0.00000000000E+00  0.15535310471E+04  0.15535310471E+04  0.25500000920E-02 0. -1.
       -2   -1    0    0    0  501  0.00000000000E+00  0.00000000000E+00 -0.19251921382E+04  0.19251921382E+04  0.25500000920E-02 0.  1.
    10030    2    1    2    0    0  0.00000000000E+00  0.00000000000E+00 -0.37166109119E+03  0.34787231853E+04  0.34588123732E+04 0.  0.
        3    1    3    3  502    0 -0.12627397461E+04  0.11465798920E+04 -0.47328807049E+03  0.17700730841E+04  0.10100000352E+00 0.  1.
       -3    1    3    3    0  502  0.12627397461E+04 -0.11465798920E+04  0.10162697930E+03  0.17086501012E+04  0.10100000352E+00 0. -1.
</event>
<event>
 5   0  0.6630125E-07  0.3424226E+04  0.7818609E-02  0.8131986E-01
        1   -1    0    0  501    0  0.00000000000E+00  0.00000000000E+00  0.16231453885E+04  0.16231453885E+04  0.50400001928E-02 0.  1.
       -1   -1    0    0    0  501  0.00000000000E+00  0.00000000000E+00 -0.18059570850E+04  0.18059570850E+04  0.50400001928E-02 0. -1.
    10030    2    1    2    0    0  0.00000000000E+00  0.00000000000E+00 -0.18281169647E+03  0.34291024734E+04  0.34242259939E+04 0.  0.
        5    1    3    3  502    0  0.16213864222E+04 -0.43693439671E+03  0.24299068192E+03  0.16967239488E+04  0.46999998093E+01 0.  1.
       -5    1    3    3    0  502 -0.16213864222E+04  0.43693439671E+03 -0.42580237839E+03  0.17323785246E+04  0.46999998093E+01 0. -1.
</event>
<event>
 5   0  0.2073287E-06  0.3420853E+04  0.7818609E-02  0.8132807E-01
        2   -1    0    0  501    0  0.00000000000E+00  0.00000000000E+00  0.17559145562E+04  0.17559145562E+04  0.25500000920E-02 0. -1.
       -2   -1    0    0    0  501  0.00000000000E+00  0.00000000000E+00 -0.16661164145E+04  0.16661164145E+04  0.25500000920E-02 0.  1.
    10030    2    1    2    0    0  0.00000000000E+00  0.00000000000E+00  0.89798141714E+02  0.34220309707E+04  0.34208525631E+04 0.  0.
        1    1    3    3  502    0  0.15934147305E+03  0.13435213308E+04 -0.10019406548E+04  0.16835451723E+04  0.50400001928E-02 0.  1.
       -1    1    3    3    0  502 -0.15934147305E+03 -0.13435213308E+04  0.10917387966E+04  0.17384857984E+04  0.50400001928E-02 0. -1.
</event>
<event>
 5   0  0.2020725E-06  0.2983512E+04  0.7818609E-02  0.8248455E-01
       -2   -1    0    0    0  501  0.00000000000E+00  0.00000000000E+00  0.96348818866E+03  0.96348818866E+03  0.25500000920E-02 0. -1.
        2   -1    0    0  501    0  0.00000000000E+00  0.00000000000E+00 -0.23096662777E+04  0.23096662777E+04  0.25500000920E-02 0.  1.
    10030    2    1    2    0    0  0.00000000000E+00  0.00000000000E+00 -0.13461780890E+04  0.32731544664E+04  0.29835121440E+04 0.  0.
        3    1    3    3  502    0  0.58257179783E+03 -0.46308324056E+03 -0.20914667785E+04  0.22199255130E+04  0.10100000352E+00 0.  1.
       -3    1    3    3    0  502 -0.58257179783E+03  0.46308324056E+03  0.74528868949E+03  0.10532289534E+04  0.10100000352E+00 0. -1.
</event>
<event>
 5   0  0.6630125E-07  0.3277788E+04  0.7818609E-02  0.8168570E-01
        1   -1    0    0  501    0  0.00000000000E+00  0.00000000000E+00  0.15169535622E+04  0.15169535622E+04  0.50400001928E-02 0. -1.
       -1   -1    0    0    0  501  0.00000000000E+00  0.00000000000E+00 -0.17706366690E+04  0.17706366690E+04  0.50400001928E-02 0.  1.
    10030    2    1    2    0    0  0.00000000000E+00  0.00000000000E+00 -0.25368310680E+03  0.32875902312E+04  0.32777880361E+04 0.  0.
        5    1    3    3  502    0 -0.25359703381E+03 -0.16185838079E+04 -0.16970708942E+03  0.16471027852E+04  0.46999998093E+01 0.  1.
       -5    1    3    3    0  502  0.25359703381E+03  0.16185838079E+04 -0.83976017379E+02  0.16404874460E+04  0.46999998093E+01 0. -1.
</event>
<event>
 5   0  0.6630125E-07  0.3246174E+04  0.7818609E-02  0.8176728E-01
        1   -1    0    0  501    0  0.00000000000E+00  0.00000000000E+00  0.12628298108E+04  0.12628298108E+04  0.50400001928E-02 0.  1.
       -1   -1    0    0    0  501  0.00000000000E+00  0.00000000000E+00 -0.20861177900E+04  0.20861177900E+04  0.50400001928E-02 0. -1.
    10030    2    1    2    0    0  0.00000000000E+00  0.00000000000E+00 -0.82328797928E+03  0.33489476008E+04  0.32461741999E+04 0.  0.
        4    1    3    3  502    0 -0.64496421137E+03 -0.53542445271E+03  0.10222340371E+04  0.13219766330E+04  0.12699999809E+01 0.  1.
       -4    1    3    3    0  502  0.64496421137E+03  0.53542445271E+03 -0.18455220164E+04  0.20269709679E+04  0.12699999809E+01 0. -1.
</event>
<event>
 5   0  0.7378896E-07  0.3412122E+04  0.7818609E-02  0.8134938E-01
       -1   -1    0    0    0  501  0.00000000000E+00  0.00000000000E+00  0.15578911934E+04  0.15578911934E+04  0.50400001928E-02 0. -1.
        1   -1    0    0  501    0  0.00000000000E+00  0.00000000000E+00 -0.18683231062E+04  0.18683231062E+04  0.50400001928E-02 0.  1.
    10030    2    1    2    0    0  0.00000000000E+00  0.00000000000E+00 -0.31043191287E+03  0.34262142996E+04  0.34121219870E+04 0.  0.
        2    1    3    3  502    0  0.11271033580E+04 -0.10758856432E+04  0.54245735891E+03  0.16498945067E+04  0.25500000920E-02 0. -1.
       -2    1    3    3    0  502 -0.11271033580E+04  0.10758856432E+04 -0.85288927178E+03  0.17763197929E+04  0.25500000920E-02 0.  1.
</event>
<event>
 5   0  0.1999883E-06  0.2401045E+04  0.7818609E-02  0.8439112E-01
       -2   -1    0    0    0  501  0.00000000000E+00  0.00000000000E+00  0.11236807374E+04  0.11236807375E+04  0.25500000920E-02 0. -1.
        2   -1    0    0  501    0  0.00000000000E+00  0.00000000000E+00 -0.12826193793E+04  0.12826193793E+04  0.25500000920E-02 0.  1.
    10030    2    1    2    0    0  0.00000000000E+00  0.00000000000E+00 -0.15893864188E+03  0.24063001168E+04  0.24010453474E+04 0.  0.
        4    1    3    3  502    0  0.93117238612E+03  0.66748289639E+03  0.27997652945E+03  0.11794082837E+04  0.12699999809E+01 0. -1.
       -4    1    3    3    0  502 -0.93117238612E+03 -0.66748289639E+03 -0.43891517133E+03  0.12268918331E+04  0.12699999809E+01 0.  1.
</event>
<event>
 5   0  0.2073287E-06  0.3431046E+04  0.7818609E-02  0.8130329E-01
        2   -1    0    0  501    0  0.00000000000E+00  0.00000000000E+00  0.18486326677E+04  0.18486326678E+04  0.25500000920E-02 0. -1.
       -2   -1    0    0    0  501  0.00000000000E+00  0.00000000000E+00 -0.15919973825E+04  0.15919973825E+04  0.25500000920E-02 0.  1.
    10030    2    1    2    0    0  0.00000000000E+00  0.00000000000E+00  0.25663528529E+03  0.34406300502E+04  0.34310455364E+04 0.  0.
        1    1    3    3  502    0 -0.62327598136E+03 -0.19840861306E+03 -0.14620443325E+04  0.16016905310E+04  0.50400001928E-02 0.  1.
       -1    1    3    3    0  502  0.62327598136E+03  0.19840861306E+03  0.17186796178E+04  0.18389395192E+04  0.50400001928E-02 0. -1.
</event>
<event>
 5   0  0.6630125E-07  0.3428023E+04  0.7818609E-02  0.8131063E-01
       -1   -1    0    0    0  501  0.00000000000E+00  0.00000000000E+00  0.13893636370E+04  0.13893636370E+04  0.50400001928E-02 0. -1.
        1   -1    0    0  501    0  0.00000000000E+00  0.00000000000E+00 -0.21145190853E+04  0.21145190853E+04  0.50400001928E-02 0.  1.
    10030    2    1    2    0    0  0.00000000000E+00  0.00000000000E+00 -0.72515544828E+03  0.35038827223E+04  0.34280232944E+04 0.  0.
        1    1    3    3  502    0 -0.16945873502E+04  0.24378451263E+03 -0.44673286017E+03  0.17693579131E+04  0.50400001928E-02 0. -1.
       -1    1    3    3    0  502  0.16945873502E+04 -0.24378451263E+03 -0.27842258811E+03  0.17345248092E+04  0.50400001928E-02 0.  1.
</event>
<event>
 5   0  0.2023479E-06  0.3686826E+04  0.7818609E-02  0.8070888E-01
        2   -1    0    0  501    0  0.00000000000E+00  0.00000000000E+00  0.19848539862E+04  0.19848539862E+04  0.25500000920E-02 0.  1.
       -2   -1    0    0    0  501  0.00000000000E+00  0.00000000000E+00 -0.17120509216E+04  0.17120509216E+04  0.25500000920E-02 0. -1.
    10030    2    1    2    0    0  0.00000000000E+00  0.00000000000E+00  0.27280306457E+03  0.36969049079E+04  0.36868257873E+04 0.  0.
        5    1    3    3  502    0  0.13233619741E+03 -0.11979884613E+04 -0.12622089926E+04  0.17452457860E+04  0.46999998093E+01 0. -1.
       -5    1    3    3    0  502 -0.13233619741E+03  0.11979884613E+04  0.15350120572E+04  0.19516591219E+04  0.46999998093E+01 0.  1.
</event>
<event>
 5   0  0.6630125E-07  0.3488576E+04  0.7818609E-02  0.8116503E-01
       -1   -1    0    0    0  501  0.00000000000E+00  0.00000000000E+00  0.28128967908E+04  0.28128967908E+04  0.50400001928E-02 0. -1.
        1   -1    0    0  501    0  0.00000000000E+00  0.00000000000E+00 -0.10816397532E+04  0.10816397532E+04  0.50400001928E-02 0.  1.
    10030    2    1    2    0    0  0.00000000000E+00  0.00000000000E+00  0.17312570376E+04  0.38945365440E+04  0.34885762085E+04 0.  0.
        4    1    3    3  502    0  0.12892394594E+04 -0.40986499109E+03 -0.36359999286E+03  0.14008334171E+04  0.12699999809E+01 0.  1.
       -4    1    3    3    0  502 -0.12892394594E+04  0.40986499109E+03  0.20948570304E+04  0.24937031270E+04  0.12699999809E+01 0. -1.
</event>
<event>
 5   0  0.6890600E-07  0.3504554E+04  0.7818609E-02  0.8112712E-01
       -1   -1    0    0    0  501  0.00000000000E+00  0.00000000000E+00  0.13936280522E+04  0.13936280522E+04  0.50400001928E-02 0. -1.
        1   -1    0    0  501    0  0.00000000000E+00  0.00000000000E+00 -0.22032237337E+04  0.22032237337E+04  0.50400001928E-02 0.  1.
    10030    2    1    2    0    0  0.00000000000E+00  0.00000000000E+00 -0.80959568146E+03  0.35968517859E+04  0.35045538378E+04 0.  0.
        3    1    3    3  502    0 -0.36785839301E+03  0.45372083734E+03  0.12907685793E+04  0.14167801280E+04  0.10100000352E+00 0. -1.
       -3    1    3    3    0  502  0.36785839301E+03 -0.45372083734E+03 -0.21003642608E+04  0.21800716579E+04  0.10100000352E+00 0.  1.
</event>
<event>
 5   0  0.7378896E-07  0.3597647E+04  0.7818609E-02  0.8091031E-01
        1   -1    0    0  501    0  0.00000000000E+00  0.00000000000E+00  0.17439471795E+04  0.17439471795E+04  0.50400001928E-02 0. -1.
       -1   -1    0    0    0  501  0.00000000000E+00  0.00000000000E+00 -0.18554266431E+04  0.18554266431E+04  0.50400001928E-02 0.  1.
    10030    2    1    2    0    0  0.00000000000E+00  0.00000000000E+00 -0.11147946366E+03  0.35993738226E+04  0.35976470427E+04 0.  0.
        2    1    3    3  502    0  0.10530376109E+04  0.13501537798E+04 -0.60733240829E+03  0.18167707872E+04  0.25500000920E-02 0.  1.
       -2    1    3    3    0  502 -0.10530376109E+04 -0.13501537798E+04  0.49585294464E+03  0.17826030354E+04  0.25500000920E-02 0. -1.
</event>
<event>
 5   0  0.1999883E-06  0.3540307E+04  0.7818609E-02  0.8104304E-01
       -2   -1    0    0    0  501  0.00000000000E+00  0.00000000000E+00  0.14912769694E+04  0.14912769694E+04  0.25500000920E-02 0. -1.
        2   -1    0    0  501    0  0.00000000000E+00  0.00000000000E+00 -0.21011812558E+04  0.21011812558E+04  0.25500000920E-02 0.  1.
    10030    2    1    2    0    0  0.00000000000E+00  0.00000000000E+00 -0.60990428639E+03  0.35924582252E+04  0.35403068880E+04 0.  0.
        4    1    3    3  502    0  0.12553653210E+04  0.76643026275E+03  0.69448508956E+03  0.16265511334E+04  0.12699999809E+01 0. -1.
       -4    1    3    3    0  502 -0.12553653210E+04 -0.76643026275E+03 -0.13043893759E+04  0.19659070919E+04  0.12699999809E+01 0.  1.
</event>
<event>
 5   0  0.6630125E-07  0.3465653E+04  0.7818609E-02  0.8121978E-01
       -1   -1    0    0    0  501  0.00000000000E+00  0.00000000000E+00  0.88232210341E+03  0.88232210343E+03  0.50400001928E-02 0. -1.
        1   -1    0    0  501    0  0.00000000000E+00  0.00000000000E+00 -0.34031654232E+04  0.34031654232E+04  0.50400001928E-02 0.  1.
    10030    2    1    2    0    0  0.00000000000E+00  0.00000000000E+00 -0.25208433198E+04  0.42854875266E+04  0.34656532282E+04 0.  0.
        1    1    3    3  502    0  0.10186307648E+04  0.53974961035E+03  0.33935884048E+03  0.12017082423E+04  0.50400001928E-02 0. -1.
       -1    1    3    3    0  502 -0.10186307648E+04 -0.53974961035E+03 -0.28602021602E+04  0.30837792843E+04  0.50400001928E-02 0.  1.
</event>
<event>
 5   0  0.6890600E-07  0.3069184E+04  0.7818609E-02  0.8224246E-01
        1   -1    0    0  501    0  0.00000000000E+00  0.00000000000E+00  0.14666271491E+04  0.14666271491E+04  0.50400001928E-02 0. -1.
       -1   -1    0    0    0  501  0.00000000000E+00  0.00000000000E+00 -0.16057066971E+04  0.16057066971E+04  0.50400001928E-02 0.  1.
    10030    2    1    2    0    0  0.00000000000E+00  0.00000000000E+00 -0.13907954796E+03  0.30723338462E+04  0.30691842796E+04 0.  0.
        3    1    3    3  502    0 -0.14263097474E+04 -0.39169517272E+03 -0.47884617705E+03  0.15546955572E+04  0.10100000352E+00 0. -1.
       -3    1    3    3    0  502  0.14263097474E+04  0.39169517272E+03  0.33976662909E+03  0.15176382891E+04  0.10100000352E+00 0.  1.
</event>
<event>
 5   0  0.2001768E-06  0.3320106E+04  0.7818609E-02  0.8157798E-01
       -2   -1    0    0    0  501  0.00000000000E+00  0.00000000000E+00  0.13833043895E+04  0.13833043895E+04  0.25500000920E-02 0.  1.
        2   -1    0    0  501    0  0.00000000000E+00  0.00000000000E+00 -0.19921687198E+04  0.19921687198E+04  0.25500000920E-02 0. -1.
    10030    2    1    2    0    0  0.00000000000E+00  0.00000000000E+00 -0.60886433036E+03  0.33754731093E+04  0.33201058626E+04 0.  0.
        2    1    3    3  502    0  0.14413091008E+04 -0.73852332866E+03  0.66323234508E+02  0.16208600811E+04  0.25500000920E-02 0. -1.
       -2    1    3    3    0  502 -0.14413091008E+04  0.73852332866E+03 -0.67518756486E+03  0.17546130282E+04  0.25500000920E-02 0.  1.
</event>
<event>
 5   0  0.1999883E-06  0.3457624E+04  0.7818609E-02  0.8123907E-01
       -2   -1    0    0    0  501  0.00000000000E+00  0.00000000000E+00  0.14709609169E+04  0.14709609169E+04  0.25500000920E-02 0.  1.
        2   -1    0    0  501    0  0.00000000000E+00  0.00000000000E+00 -0.20318631553E+04  0.20318631553E+04  0.25500000920E-02 0. -1.
    10030    2    1    2    0    0  0.00000000000E+00  0.00000000000E+00 -0.56090223836E+03  0.35028240722E+04  0.34576242074E+04 0.  0.
        4    1    3    3  502    0 -0.88109781654E+03 -0.53787211118E+03  0.11244543546E+04  0.15264465201E+04  0.12699999809E+01 0.  1.
       -4    1    3    3    0  502  0.88109781654E+03  0.53787211118E+03 -0.16853565929E+04  0.19763775521E+04  0.12699999809E+01 0. -1.
</event>
<event>
 5   0  0.6630125E-07  0.3511581E+04  0.7818609E-02  0.8111051E-01
       -1   -1    0    0    0  501  0.00000000000E+00  0.00000000000E+00  0.16894168637E+04  0.16894168637E+04  0.50400001928E-02 0.  1.
        1   -1    0    0  501    0  0.00000000000E+00  0.00000000000E+00 -0.18247720748E+04  0.18247720748E+04  0.50400001928E-02 0. -1.
    10030    2    1    2    0    0  0.00000000000E+00  0.00000000000E+00 -0.13535521109E+03  0.35141889385E+04  0.35115812481E+04 0.  0.
        5    1    3    3  502    0  0.89750201937E+03  0.14485345451E+04 -0.49109512434E+03  0.17734031449E+04  0.46999998093E+01 0. -1.
       -5    1    3    3    0  502 -0.89750201937E+03 -0.14485345451E+04  0.35573991325E+03  0.17407857936E+04  0.46999998093E+01 0.  1.
</event>
<event>
 5   0  0.1999883E-06  0.3506411E+04  0.7818609E-02  0.8112272E-01
        2   -1    0    0  501    0  0.00000000000E+00  0.00000000000E+00  0.16552439670E+04  0.16552439670E+04  0.25500000920E-02 0. -1.
       -2   -1    0    0    0  501  0.00000000000E+00  0.00000000000E+00 -0.18569644239E+04  0.18569644239E+04  0.25500000920E-02 0.  1.
    10030    2    1    2    0    0  0.00000000000E+00  0.00000000000E+00 -0.20172045690E+03  0.35122083910E+04  0.35064107915E+04 0.  0.
        4    1    3    3  502    0 -0.45077736354E+03  0.13945244854E+04  0.86293066664E+03  0.17007497523E+04  0.12699999809E+01 0.  1.
       -4    1    3    3    0  502  0.45077736354E+03 -0.13945244854E+04 -0.10646511235E+04  0.18114586386E+04  0.12699999809E+01 0. -1.
</event>
<event>
 5   0  0.7378896E-07  0.3574937E+04  0.7818609E-02  0.8096257E-01
       -1   -1    0    0    0  501  0.00000000000E+00  0.00000000000E+00  0.20200704962E+04  0.20200704962E+04  0.50400001928E-02 0.  1.
        1   -1    0    0  501    0  0.00000000000E+00  0.00000000000E+00 -0.15816495397E+04  0.15816495397E+04  0.50400001928E-02 0. -1.
    10030    2    1    2    0    0  0.00000000000E+00  0.00000000000E+00  0.43842095649E+03  0.36017200359E+04  0.35749369620E+04 0.  0.
        2    1    3    3  502    0 -0.75034070616E+03 -0.15043458149E+04  0.83119531362E+03  0.18753541414E+04  0.25500000920E-02 0.  1.
       -2    1    3    3    0  502  0.75034070616E+03  0.15043458149E+04 -0.39277435714E+03  0.17263658945E+04  0.25500000920E-02 0. -1.
</event>
<event>
 5   0  0.2023479E-06  0.3578255E+04  0.7818609E-02  0.8095491E-01
        2   -1    0    0  501    0  0.00000000000E+00  0.00000000000E+00  0.20745202841E+04  0.20745202841E+04  0.25500000920E-02 0.  1.
       -2   -1    0    0    0  501  0.00000000000E+00  0.00000000000E+00 -0.15429961274E+04  0.15429961274E+04  0.25500000920E-02 0. -1.
    10030    2    1    2    0    0  0.00000000000E+00  0.00000000000E+00  0.53152415667E+03  0.36175164115E+04  0.35782547503E+04 0.  0.
        5    1    3    3  502    0 -0.10822111336E+03  0.15880132170E+04  0.10917065737E+04  0.19301147945E+04  0.46999998093E+01 0.  1.
       -5    1    3    3    0  502  0.10822111336E+03 -0.15880132170E+04 -0.56018241706E+03  0.16874016170E+04  0.46999998093E+01 0. -1.
</event>
<event>
 5   0  0.6630125E-07  0.3522681E+04  0.7818609E-02  0.8108436E-01
       -1   -1    0    0    0  501  0.00000000000E+00  0.00000000000E+00  0.32782875546E+04  0.32782875546E+04  0.50400001928E-02 0. -1.
        1   -1    0    0  501    0  0.00000000000E+00  0.00000000000E+00 -0.94632353725E+03  0.94632353726E+03  0.50400001928E-02 0.  1.
    10030    2    1    2    0    0  0.00000000000E+00  0.00000000000E+00  0.23319640173E+04  0.42246110918E+04  0.35226811805E+04 0.  0.
        4    1    3    3  502    0 -0.12412705207E+04 -0.10017056301E+04  0.20619444179E+04  0.26068722773E+04  0.12699999809E+01 0. -1.
       -4    1    3    3    0  502  0.12412705207E+04  0.10017056301E+04  0.27001959942E+03  0.16177388145E+04  0.12699999809E+01 0.  1.
</event>
<event>
 5   0  0.2020725E-06  0.3625038E+04  0.7818609E-02  0.8084780E-01
        2   -1    0    0  501    0  0.00000000000E+00  0.00000000000E+00  0.21934140981E+04  0.21934140981E+04  0.25500000920E-02 0. -1.
       -2   -1    0    0    0  501  0.00000000000E+00  0.00000000000E+00 -0.14977675070E+04  0.14977675070E+04  0.25500000920E-02 0.  1.
    10030    2    1    2    0    0  0.00000000000E+00  0.00000000000E+00  0.69564659114E+03  0.36911816051E+04  0.36250375808E+04 0.  0.
        3    1    3    3  502    0 -0.17024749610E+04  0.56088930439E+03  0.74207478624E+02  0.17940246834E+04  0.10100000352E+00 0. -1.
       -3    1    3    3    0  502  0.17024749610E+04 -0.56088930439E+03  0.62143911251E+03  0.18971569217E+04  0.10100000352E+00 0.  1.
</event>
<event>
 5   0  0.2023479E-06  0.2142900E+04  0.7818609E-02  0.8542577E-01
       -2   -1    0    0    0  501  0.00000000000E+00  0.00000000000E+00  0.15858219385E+04  0.15858219385E+04  0.25500000920E-02 0. -1.
        2   -1    0    0  501    0  0.00000000000E+00  0.00000000000E+00 -0.72391825603E+03  0.72391825604E+03  0.25500000920E-02 0.  1.
    10030    2    1    2    0    0  0.00000000000E+00  0.00000000000E+00  0.86190368244E+03  0.23097401945E+04  0.21429003263E+04 0.  0.
        5    1    3    3  502    0  0.21089014337E+03  0.44795145533E+03 -0.59320985740E+03  0.77269346044E+03  0.46999998093E+01 0.  1.
       -5    1    3    3    0  502 -0.21089014337E+03 -0.44795145533E+03  0.14551135398E+04  0.15370467341E+04  0.46999998093E+01 0. -1.
</event>
<event>
 5   0  0.2001768E-06  0.2198290E+04  0.7818609E-02  0.8519140E-01
       -2   -1    0    0    0  501  0.00000000000E+00  0.00000000000E+00  0.10689571763E+04  0.10689571763E+04  0.25500000920E-02 0.  1.
        2   -1    0    0  501    0  0.00000000000E+00  0.00000000000E+00 -0.11301857913E+04  0.11301857913E+04  0.25500000920E-02 0. -1.
    10030    2    1    2    0    0  0.00000000000E+00  0.00000000000E+00 -0.61228614957E+02  0.21991429676E+04  0.21982904377E+04 0.  0.
        2    1    3    3  502    0  0.51756661677E+03 -0.94443842325E+03  0.18920045438E+03  0.10934513935E+04  0.25500000920E-02 0.  1.
       -2    1    3    3    0  502 -0.51756661677E+03  0.94443842325E+03 -0.25042906933E+03  0.11056915740E+04  0.25500000920E-02 0. -1.
</event>
<event>
 5   0  0.6630125E-07  0.3533114E+04  0.7818609E-02  0.8105987E-01
        3   -1    0    0  501    0  0.00000000000E+00  0.00000000000E+00  0.13845514979E+04  0.13845515015E+04  0.10100000352E+00 0.  1.
       -3   -1    0    0    0  501  0.00000000000E+00  0.00000000000E+00 -0.22539602374E+04  0.22539602397E+04  0.10100000352E+00 0. -1.
    10030    2    1    2    0    0  0.00000000000E+00  0.00000000000E+00 -0.86940873955E+03  0.36385117412E+04  0.35331142261E+04 0.  0.
        4    1    3    3  502    0  0.11119554764E+04 -0.89603591349E+03  0.63621974674E+03  0.15633625679E+04  0.12699999809E+01 0.  1.
       -4    1    3    3    0  502 -0.11119554764E+04  0.89603591349E+03 -0.15056284863E+04  0.20751491733E+04  0.12699999809E+01 0. -1.
</event>
<event>
 5   0  0.1999883E-06  0.3441912E+04  0.7818609E-02  0.8127696E-01
       -2   -1    0    0    0  501  0.00000000000E+00  0.00000000000E+00  0.14434367832E+04  0.14434367832E+04  0.25500000920E-02 0.  1.
        2   -1    0    0  501    0  0.00000000000E+00  0.00000000000E+00 -0.20518314624E+04  0.20518314624E+04  0.25500000920E-02 0. -1.
    10030    2    1    2    0    0  0.00000000000E+00  0.00000000000E+00 -0.60839467921E+03  0.34952682456E+04  0.34419116815E+04 0.  0.
        4    1    3    3  502    0 -0.10863237951E+04 -0.11504104840E+04  0.38315855228E+03  0.16279913263E+04  0.12699999809E+01 0.  1.
       -4    1    3    3    0  502  0.10863237951E+04  0.11504104840E+04 -0.99155323149E+03  0.18672769193E+04  0.12699999809E+01 0. -1.
</event>
<event>
 5   0  0.2023479E-06  0.2567776E+04  0.7818609E-02  0.8379230E-01
        2   -1    0    0  501    0  0.00000000000E+00  0.00000000000E+00  0.17037788598E+04  0.17037788598E+04  0.25500000920E-02 0. -1.
       -2   -1    0    0    0  501  0.00000000000E+00  0.00000000000E+00 -0.96747774002E+03  0.96747774002E+03  0.25500000920E-02 0.  1.
    10030    2    1    2    0    0  0.00000000000E+00  0.00000000000E+00  0.73630111974E+03  0.26712565998E+04  0.25677757852E+04 0.  0.
        5    1    3    3  502    0 -0.92149603533E+03  0.73538104193E+02  0.12950005939E+04  0.15911038382E+04  0.46999998093E+01 0. -1.
       -5    1    3    3    0  502  0.92149603533E+03 -0.73538104193E+02 -0.55869947413E+03  0.10801527616E+04  0.46999998093E+01 0.  1.
</event>
<event>
 5   0  0.6630125E-07  0.3600952E+04  0.7818609E-02  0.8090274E-01
        1   -1    0    0  501    0  0.00000000000E+00  0.00000000000E+00  0.18451219430E+04  0.18451219430E+04  0.50400001928E-02 0.  1.
       -1   -1    0    0    0  501  0.00000000000E+00  0.00000000000E+00 -0.17569099290E+04  0.17569099290E+04  0.50400001928E-02 0. -1.
    10030    2    1    2    0    0  0.00000000000E+00  0.00000000000E+00  0.88212013976E+02  0.36020318720E+04  0.36009515753E+04 0.  0.
        4    1    3    3  502    0 -0.47445704875E+02  0.12114043326E+04 -0.12874431823E+04  0.17684069420E+04  0.12699999809E+01 0. -1.
       -4    1    3    3    0  502  0.47445704875E+02 -0.12114043326E+04  0.13756551963E+04  0.18336249300E+04  0.12699999809E+01 0.  1.
</event>
<event>
 5   0  0.6630125E-07  0.2377785E+04  0.7818609E-02  0.8447868E-01
        4   -1    0    0  501    0  0.00000000000E+00  0.00000000000E+00  0.11196103798E+04  0.11196111001E+04  0.12699999809E+01 0.  1.
       -4   -1    0    0    0  501  0.00000000000E+00  0.00000000000E+00 -0.12624600573E+04  0.12624606961E+04  0.12699999809E+01 0. -1.
    10030    2    1    2    0    0  0.00000000000E+00  0.00000000000E+00 -0.14284967742E+03  0.23820717962E+04  0.23777846858E+04 0.  0.
        3    1    3    3  502    0  0.52024166439E+03  0.97162526808E+03 -0.51805142007E+03  0.12178195002E+04  0.10100000352E+00 0. -1.
       -3    1    3    3    0  502 -0.52024166439E+03 -0.97162526808E+03  0.37520174265E+03  0.11642522960E+04  0.10100000352E+00 0.  1.
</event>
<event>
 5   0  0.2023479E-06  0.3425140E+04  0.7818609E-02  0.8131764E-01
       -2   -1    0    0    0  501  0.00000000000E+00  0.00000000000E+00  0.15602958699E+04  0.15602958699E+04  0.25500000920E-02 0.  1.
        2   -1    0    0  501    0  0.00000000000E+00  0.00000000000E+00 -0.18797045871E+04  0.18797045871E+04  0.25500000920E-02 0. -1.
    10030    2    1    2    0    0  0.00000000000E+00  0.00000000000E+00 -0.31940871723E+03  0.34400004569E+04  0.34251395906E+04 0.  0.
        5    1    3    3  502    0 -0.15493017730E+04  0.40387859018E+02  0.57209000821E+03  0.16520521270E+04  0.46999998093E+01 0.  1.
       -5    1    3    3    0  502  0.15493017730E+04 -0.40387859018E+02 -0.89149872544E+03  0.17879483299E+04  0.46999998093E+01 0. -1.
</event>
<event>
 5   0  0.6890600E-07  0.3454991E+04  0.7818609E-02  0.8124540E-01
        1   -1    0    0  501    0  0.00000000000E+00  0.00000000000E+00  0.17057763087E+04  0.17057763087E+04  0.50400001928E-02 0.  1.
       -1   -1    0    0    0  501  0.00000000000E+00  0.00000000000E+00 -0.17494914357E+04  0.17494914357E+04  0.50400001928E-02 0. -1.
    10030    2    1    2    0    0  0.00000000000E+00  0.00000000000E+00 -0.43715127016E+02  0.34552677444E+04  0.34549911973E+04 0.  0.
        3    1    3    3  502    0  0.14918389933E+04  0.11686607631E+03  0.84134521673E+03  0.17167128606E+04  0.10100000352E+00 0.  1.
       -3    1    3    3    0  502 -0.14918389933E+04 -0.11686607631E+03 -0.88506034374E+03  0.17385548838E+04  0.10100000352E+00 0. -1.
</event>
<event>
 5   0  0.2073287E-06  0.3488467E+04  0.7818609E-02  0.8116528E-01
        2   -1    0    0  501    0  0.00000000000E+00  0.00000000000E+00  0.15740994253E+04  0.15740994253E+04  0.25500000920E-02 0.  1.
       -2   -1    0    0    0  501  0.00000000000E+00  0.00000000000E+00 -0.19327567208E+04  0.19327567208E+04  0.25500000920E-02 0. -1.
    10030    2    1    2    0    0  0.00000000000E+00  0.00000000000E+00 -0.35865729546E+03  0.35068561461E+04  0.34884674248E+04 0.  0.
        1    1    3    3  502    0  0.55905904536E+02 -0.17371331023E+04 -0.32705345476E+03  0.17685363574E+04  0.50400001928E-02 0.  1.
       -1    1    3    3    0  502 -0.55905904536E+02  0.17371331023E+04 -0.31603840697E+02  0.17383197887E+04  0.50400001928E-02 0. -1.
</event>
<event>
 5   0  0.6630125E-07  0.2569056E+04  0.7818609E-02  0.8378789E-01
        1   -1    0    0  501    0  0.00000000000E+00  0.00000000000E+00  0.21802004564E+04  0.21802004565E+04  0.50400001928E-02 0. -1.
       -1   -1    0    0    0  501  0.00000000000E+00  0.00000000000E+00 -0.75681701655E+03  0.75681701657E+03  0.50400001928E-02 0.  1.
    10030    2    1    2    0    0  0.00000000000E+00  0.00000000000E+00  0.14233834399E+04  0.29370174730E+04  0.25690564844E+04 0.  0.
        1    1    3    3  502    0 -0.79159882863E+03  0.88316467812E+03  0.12757149047E+04  0.17418544923E+04  0.50400001928E-02 0. -1.
       -1    1    3    3    0  502  0.79159882863E+03 -0.88316467812E+03  0.14766853515E+03  0.11951629807E+04  0.50400001928E-02 0.  1.
</event>
<event>
 5   0  0.2073287E-06  0.3530493E+04  0.7818609E-02  0.8106601E-01
       -2   -1    0    0    0  501  0.00000000000E+00  0.00000000000E+00  0.13023881333E+04  0.13023881333E+04  0.25500000920E-02 0.  1.
        2   -1    0    0  501    0  0.00000000000E+00  0.00000000000E+00 -0.23926007775E+04  0.23926007775E+04  0.25500000920E-02 0. -1.
    10030    2    1    2    0    0  0.00000000000E+00  0.00000000000E+00 -0.10902126442E+04  0.36949889108E+04  0.35304928043E+04 0.  0.
        1    1    3    3  502    0 -0.96167491772E+03 -0.27802134402E+03  0.97659101718E+03  0.13985151161E+04  0.50400001928E-02 0.  1.
       -1    1    3    3    0  502  0.96167491772E+03  0.27802134402E+03 -0.20668036613E+04  0.22964737947E+04  0.50400001928E-02 0. -1.
</event>
<event>
 5   0  0.2073287E-06  0.3496949E+04  0.7818609E-02  0.8114513E-01
        2   -1    0    0  501    0  0.00000000000E+00  0.00000000000E+00  0.21556979656E+04  0.21556979656E+04  0.25500000920E-02 0.  1.
       -2   -1    0    0    0  501  0.00000000000E+00  0.00000000000E+00 -0.14181776466E+04  0.14181776466E+04  0.25500000920E-02 0. -1.
    10030    2    1    2    0    0  0.00000000000E+00  0.00000000000E+00  0.73752031892E+03  0.35738756122E+04  0.34969487658E+04 0.  0.
        1    1    3    3  502    0 -0.14385455743E+04 -0.48824896543E+03 -0.51593992344E+03  0.16043672978E+04  0.50400001928E-02 0.  1.
       -1    1    3    3    0  502  0.14385455743E+04  0.48824896543E+03  0.12534602424E+04  0.19695083145E+04  0.50400001928E-02 0. -1.
</event>
<event>
 5   0  0.2023479E-06  0.2959737E+04  0.7818609E-02  0.8255323E-01
        2   -1    0    0  501    0  0.00000000000E+00  0.00000000000E+00  0.22053133246E+04  0.22053133246E+04  0.25500000920E-02 0.  1.
       -2   -1    0    0    0  501  0.00000000000E+00  0.00000000000E+00 -0.99306080327E+03  0.99306080327E+03  0.25500000920E-02 0. -1.
    10030    2    1    2    0    0  0.00000000000E+00  0.00000000000E+00  0.12122525214E+04  0.31983741279E+04  0.29597366245E+04 0.  0.
        5    1    3    3  502    0 -0.74310971590E+03 -0.73254151938E+03 -0.52784282328E+03  0.11693884143E+04  0.46999998093E+01 0. -1.
       -5    1    3    3    0  502  0.74310971590E+03  0.73254151938E+03  0.17400953447E+04  0.20289857136E+04  0.46999998093E+01 0.  1.
</event>
<event>
 5   0  0.2020725E-06  0.3405720E+04  0.7818609E-02  0.8136504E-01
        2   -1    0    0  501    0  0.00000000000E+00  0.00000000000E+00  0.17376687147E+04  0.17376687147E+04  0.25500000920E-02 0.  1.
       -2   -1    0    0    0  501  0.00000000000E+00  0.00000000000E+00 -0.16687490025E+04  0.16687490025E+04  0.25500000920E-02 0. -1.
    10030    2    1    2    0    0  0.00000000000E+00  0.00000000000E+00  0.68919712153E+02  0.34064177172E+04  0.34057204433E+04 0.  0.
        3    1    3    3  502    0  0.13207945442E+04  0.10615902485E+04  0.20260388317E+03  0.17066108013E+04  0.10100000352E+00 0. -1.
       -3    1    3    3    0  502 -0.13207945442E+04 -0.10615902485E+04 -0.13368417102E+03  0.16998069159E+04  0.10100000352E+00 0.  1.
</event>
<event>
 5   0  0.7378896E-07  0.3518359E+04  0.7818609E-02  0.8109453E-01
        1   -1    0    0  501    0  0.00000000000E+00  0.00000000000E+00  0.15599783929E+04  0.15599783929E+04  0.50400001928E-02 0.  1.
       -1   -1    0    0    0  501  0.00000000000E+00  0.00000000000E+00 -0.19838175567E+04  0.19838175567E+04  0.50400001928E-02 0. -1.
    10030    2    1    2    0    0  0.00000000000E+00  0.00000000000E+00 -0.42383916381E+03  0.35437959496E+04  0.35183590061E+04 0.  0.
        2    1    3    3  502    0  0.17508830778E+04  0.66808204848E+02 -0.37008235415E+03  0.17908142945E+04  0.25500000920E-02 0. -1.
       -2    1    3    3    0  502 -0.17508830778E+04 -0.66808204848E+02 -0.53756809663E+02  0.17529816551E+04  0.25500000920E-02 0.  1.
</event>
<event>
 5   0  0.6890600E-07  0.3261417E+04  0.7818609E-02  0.8172783E-01
        1   -1    0    0  501    0  0.00000000000E+00  0.00000000000E+00  0.18662898997E+04  0.18662898997E+04  0.50400001928E-02 0.  1.
       -1   -1    0    0    0  501  0.00000000000E+00  0.00000000000E+00 -0.14248646284E+04  0.14248646284E+04  0.50400001928E-02 0. -1.
    10030    2    1    2    0    0  0.00000000000E+00  0.00000000000E+00  0.44142527130E+03  0.32911545281E+04  0.32614171548E+04 0.  0.
        3    1    3    3  502    0  0.13282673006E+04 -0.84667730280E+03  0.64652450427E+03  0.17026891736E+04  0.10100000352E+00 0. -1.
       -3    1    3    3    0  502 -0.13282673006E+04  0.84667730280E+03 -0.20509923298E+03  0.15884653545E+04  0.10100000352E+00 0.  1.
</event>
<event>
 5   0  0.6630125E-07  0.3523002E+04  0.7818609E-02  0.8108360E-01
        3   -1    0    0  501    0  0.00000000000E+00  0.00000000000E+00  0.27543915742E+04  0.27543915761E+04  0.10100000352E+00 0.  1.
       -3   -1    0    0    0  501  0.00000000000E+00  0.00000000000E+00 -0.11265232728E+04  0.11265232773E+04  0.10100000352E+00 0. -1.
    10030    2    1    2    0    0  0.00000000000E+00  0.00000000000E+00  0.16278683015E+04  0.38809148534E+04  0.35230022555E+04 0.  0.
        3    1    3    3  502    0  0.12267488079E+04 -0.67097467432E+03  0.19941134082E+04  0.24354892622E+04  0.10100000352E+00 0.  1.
       -3    1    3    3    0  502 -0.12267488079E+04  0.67097467432E+03 -0.36624510674E+03  0.14454255912E+04  0.10100000352E+00 0. -1.
</event>
<event>
 5   0  0.7378896E-07  0.3465171E+04  0.7818609E-02  0.8122094E-01
        1   -1    0    0  501    0  0.00000000000E+00  0.00000000000E+00  0.19558839361E+04  0.19558839361E+04  0.50400001928E-02 0.  1.
       -1   -1    0    0    0  501  0.00000000000E+00  0.00000000000E+00 -0.15347806314E+04  0.15347806314E+04  0.50400001928E-02 0. -1.
    10030    2    1    2    0    0  0.00000000000E+00  0.00000000000E+00  0.42110330467E+03  0.34906645675E+04  0.34651711545E+04 0.  0.
        2    1    3    3  502    0  0.16607946884E+04 -0.30147532589E+03 -0.18312576566E+03  0.16978402207E+04  0.25500000920E-02 0. -1.
       -2    1    3    3    0  502 -0.16607946884E+04  0.30147532589E+03  0.60422907034E+03  0.17928243468E+04  0.25500000920E-02 0.  1.
</event>
<event>
 5   0  0.6630125E-07  0.3565105E+04  0.7818609E-02  0.8098532E-01
        1   -1    0    0  501    0  0.00000000000E+00  0.00000000000E+00  0.24590139866E+04  0.24590139866E+04  0.50400001928E-02 0.  1.
       -1   -1    0    0    0  501  0.00000000000E+00  0.00000000000E+00 -0.12921821033E+04  0.12921821033E+04  0.50400001928E-02 0. -1.
    10030    2    1    2    0    0  0.00000000000E+00  0.00000000000E+00  0.11668318833E+04  0.37511960899E+04  0.35651052525E+04 0.  0.
        1    1    3    3  502    0 -0.13670154088E+04  0.81175603650E+03  0.14316041591E+04  0.21394320412E+04  0.50400001928E-02 0.  1.
       -1    1    3    3    0  502  0.13670154088E+04 -0.81175603650E+03 -0.26477227585E+03  0.16117640487E+04  0.50400001928E-02 0. -1.
</event>
<event>
 5   0  0.1999883E-06  0.3481919E+04  0.7818609E-02  0.8118088E-01
       -2   -1    0    0    0  501  0.00000000000E+00  0.00000000000E+00  0.16671135201E+04  0.16671135201E+04  0.25500000920E-02 0.  1.
        2   -1    0    0  501    0  0.00000000000E+00  0.00000000000E+00 -0.18180769273E+04  0.18180769273E+04  0.25500000920E-02 0. -1.
    10030    2    1    2    0    0  0.00000000000E+00  0.00000000000E+00 -0.15096340723E+03  0.34851904474E+04  0.34819193707E+04 0.  0.
        4    1    3    3  502    0 -0.99609869636E+02  0.14522536437E+04  0.88038991530E+03  0.17011909909E+04  0.12699999809E+01 0.  1.
       -4    1    3    3    0  502  0.99609869636E+02 -0.14522536437E+04 -0.10313533225E+04  0.17839994564E+04  0.12699999809E+01 0. -1.
</event>
<event>
 5   0  0.6890600E-07  0.3490806E+04  0.7818609E-02  0.8115972E-01
        1   -1    0    0  501    0  0.00000000000E+00  0.00000000000E+00  0.15534025583E+04  0.15534025583E+04  0.50400001928E-02 0. -1.
       -1   -1    0    0    0  501  0.00000000000E+00  0.00000000000E+00 -0.19611345358E+04  0.19611345358E+04  0.50400001928E-02 0.  1.
    10030    2    1    2    0    0  0.00000000000E+00  0.00000000000E+00 -0.40773197757E+03  0.35145370941E+04  0.34908058698E+04 0.  0.
        3    1    3    3  502    0 -0.17190201120E+04  0.11342814808E+03  0.78280662722E+02  0.17245358687E+04  0.10100000352E+00 0. -1.
       -3    1    3    3    0  502  0.17190201120E+04 -0.11342814808E+03 -0.48601264029E+03  0.17900012254E+04  0.10100000352E+00 0.  1.
</event>
<event>
 5   0  0.2001768E-06  0.3467308E+04  0.7818609E-02  0.8121581E-01
        2   -1    0    0  501    0  0.00000000000E+00  0.00000000000E+00  0.15479977905E+04  0.15479977905E+04  0.25500000920E-02 0.  1.
       -2   -1    0    0    0  501  0.00000000000E+00  0.00000000000E+00 -0.19415769521E+04  0.19415769521E+04  0.25500000920E-02 0. -1.
    10030    2    1    2    0    0  0.00000000000E+00  0.00000000000E+00 -0.39357916165E+03  0.34895747426E+04  0.34673083693E+04 0.  0.
        2    1    3    3  502    0  0.10058127255E+04  0.63522936316E+03 -0.14659913252E+04  0.18879370085E+04  0.25500000920E-02 0. -1.
       -2    1    3    3    0  502 -0.10058127255E+04 -0.63522936316E+03  0.10724121636E+04  0.16016377341E+04  0.25500000920E-02 0.  1.
</event>
<event>
 5   0  0.6630125E-07  0.3469975E+04  0.7818609E-02  0.8120943E-01
       -1   -1    0    0    0  501  0.00000000000E+00  0.00000000000E+00  0.13192231168E+04  0.13192231168E+04  0.50400001928E-02 0.  1.
        1   -1    0    0  501    0  0.00000000000E+00  0.00000000000E+00 -0.22817835483E+04  0.22817835483E+04  0.50400001928E-02 0. -1.
    10030    2    1    2    0    0  0.00000000000E+00  0.00000000000E+00 -0.96256043152E+03  0.36010066652E+04  0.34699749882E+04 0.  0.
        5    1    3    3  502    0  0.22708136397E+03 -0.39163273477E+03  0.12568441212E+04  0.13358972190E+04  0.46999998093E+01 0.  1.
       -5    1    3    3    0  502 -0.22708136397E+03  0.39163273477E+03 -0.22194045527E+04  0.22651094462E+04  0.46999998093E+01 0. -1.
</event>
<event>
 5   0  0.1999883E-06  0.3502897E+04  0.7818609E-02  0.8113104E-01
       -2   -1    0    0    0  501  0.00000000000E+00  0.00000000000E+00  0.14442493864E+04  0.14442493864E+04  0.25500000920E-02 0. -1.
        2   -1    0    0  501    0  0.00000000000E+00  0.00000000000E+00 -0.21239901556E+04  0.21239901556E+04  0.25500000920E-02 0.  1.
    10030    2    1    2    0    0  0.00000000000E+00  0.00000000000E+00 -0.67974076914E+03  0.35682395420E+04  0.35028967892E+04 0.  0.
        4    1    3    3  502    0 -0.92324733805E+03 -0.42175050594E+03  0.11140991159E+04  0.15071421928E+04  0.12699999809E+01 0. -1.
       -4    1    3    3    0  502  0.92324733805E+03  0.42175050594E+03 -0.17938398851E+04  0.20610973491E+04  0.12699999809E+01 0.  1.
</event>
<event>
 5   0  0.2073287E-06  0.3402973E+04  0.7818609E-02  0.8137177E-01
        2   -1    0    0  501    0  0.00000000000E+00  0.00000000000E+00  0.23020659042E+04  0.23020659042E+04  0.25500000920E-02 0. -1.
       -2   -1    0    0    0  501  0.00000000000E+00  0.00000000000E+00 -0.12575904685E+04  0.12575904685E+04  0.25500000920E-02 0.  1.
    10030    2    1    2    0    0  0.00000000000E+00  0.00000000000E+00  0.10444754357E+04  0.35596563727E+04  0.34029728996E+04 0.  0.
        1    1    3    3  502    0  0.81993625745E+03  0.37561157245E+02  0.20812806152E+04  0.22372830188E+04  0.50400001928E-02 0. -1.
       -1    1    3    3    0  502 -0.81993625745E+03 -0.37561157245E+02 -0.10368051795E+04  0.13223733539E+04  0.50400001928E-02 0.  1.
</event>
<event>
 5   0  0.2073287E-06  0.2188620E+04  0.7818609E-02  0.8523180E-01
        2   -1    0    0  501    0  0.00000000000E+00  0.00000000000E+00  0.31917986371E+04  0.31917986371E+04  0.25500000920E-02 0.  1.
       -2   -1    0    0    0  501  0.00000000000E+00  0.00000000000E+00 -0.37518475552E+03  0.37518475552E+03  0.25500000920E-02 0. -1.
    10030    2    1    2    0    0  0.00000000000E+00  0.00000000000E+00  0.28166138816E+04  0.35669833927E+04  0.21886198312E+04 0.  0.
        1    1    3    3  502    0 -0.41955404061E+02 -0.10903323064E+04  0.12726386107E+04  0.16763632744E+04  0.50400001928E-02 0. -1.
       -1    1    3    3    0  502  0.41955404061E+02  0.10903323064E+04  0.15439752710E+04  0.18906201183E+04  0.50400001928E-02 0.  1.
</event>
<event>
 5   0  0.6630125E-07  0.3210607E+04  0.7818609E-02  0.8186022E-01
        1   -1    0    0  501    0  0.00000000000E+00  0.00000000000E+00  0.13651566257E+04  0.13651566257E+04  0.50400001928E-02 0.  1.
       -1   -1    0    0    0  501  0.00000000000E+00  0.00000000000E+00 -0.18876948763E+04  0.18876948764E+04  0.50400001928E-02 0. -1.
    10030    2    1    2    0    0  0.00000000000E+00  0.00000000000E+00 -0.52253825063E+03  0.32528515021E+04  0.32106069008E+04 0.  0.
        4    1    3    3  502    0 -0.16870914997E+03  0.66822381085E+03  0.12076391208E+04  0.13904602467E+04  0.12699999809E+01 0.  1.
       -4    1    3    3    0  502  0.16870914997E+03 -0.66822381085E+03 -0.17301773714E+04  0.18623912554E+04  0.12699999809E+01 0. -1.
</event>
<event>
 5   0  0.1999883E-06  0.2616581E+04  0.7818609E-02  0.8362591E-01
       -2   -1    0    0    0  501  0.00000000000E+00  0.00000000000E+00  0.12110895717E+04  0.12110895717E+04  0.25500000920E-02 0.  1.
        2   -1    0    0  501    0  0.00000000000E+00  0.00000000000E+00 -0.14132926464E+04  0.14132926464E+04  0.25500000920E-02 0. -1.
    10030    2    1    2    0    0  0.00000000000E+00  0.00000000000E+00 -0.20220307475E+03  0.26243822181E+04  0.26165809644E+04 0.  0.
        4    1    3    3  502    0 -0.61292122783E+03 -0.20238206953E+03 -0.12424712860E+04  0.14001312235E+04  0.12699999809E+01 0. -1.
       -4    1    3    3    0  502  0.61292122783E+03  0.20238206953E+03  0.10402682113E+04  0.12242509946E+04  0.12699999809E+01 0.  1.
</event>
<event>
 5   0  0.1999883E-06  0.3508281E+04  0.7818609E-02  0.8111830E-01
       -2   -1    0    0    0  501  0.00000000000E+00  0.00000000000E+00  0.20850772895E+04  0.20850772895E+04  0.25500000920E-02 0. -1.
        2   -1    0    0  501    0  0.00000000000E+00  0.00000000000E+00 -0.14757290351E+04  0.14757290351E+04  0.25500000920E-02 0.  1.
    10030    2    1    2    0    0  0.00000000000E+00  0.00000000000E+00  0.60934825435E+03  0.35608063246E+04  0.35082811157E+04 0.  0.
        4    1    3    3  502    0 -0.99632477457E+03 -0.10241392809E+04  0.13374961439E+04  0.19571463591E+04  0.12699999809E+01 0. -1.
       -4    1    3    3    0  502  0.99632477457E+03  0.10241392809E+04 -0.72814788950E+03  0.16036599655E+04  0.12699999809E+01 0.  1.
</event>
<event>
 5   0  0.7378896E-07  0.2551455E+04  0.7818609E-02  0.8384881E-01
        1   -1    0    0  501    0  0.00000000000E+00  0.00000000000E+00  0.59645741518E+03  0.59645741521E+03  0.50400001928E-02 0.  1.
       -1   -1    0    0    0  501  0.00000000000E+00  0.00000000000E+00 -0.27285771109E+04  0.27285771110E+04  0.50400001928E-02 0. -1.
    10030    2    1    2    0    0  0.00000000000E+00  0.00000000000E+00 -0.21321196958E+04  0.33250345262E+04  0.25514545269E+04 0.  0.
        2    1    3    3  502    0 -0.23799326405E+03 -0.42987424816E+03  0.46819451178E+03  0.67870373789E+03  0.25500000920E-02 0.  1.
       -2    1    3    3    0  502  0.23799326405E+03  0.42987424816E+03 -0.26003142075E+04  0.26463307883E+04  0.25500000920E-02 0. -1.
</event>
<event>
 5   0  0.1999883E-06  0.2333351E+04  0.7818609E-02  0.8464886E-01
       -2   -1    0    0    0  501  0.00000000000E+00  0.00000000000E+00  0.15400711724E+04  0.15400711724E+04  0.25500000920E-02 0.  1.
        2   -1    0    0  501    0  0.00000000000E+00  0.00000000000E+00 -0.88381071250E+03  0.88381071250E+03  0.25500000920E-02 0. -1.
    10030    2    1    2    0    0  0.00000000000E+00  0.00000000000E+00  0.65626045994E+03  0.24238818849E+04  0.23333507239E+04 0.  0.
        4    1    3    3  502    0 -0.90748122420E+03 -0.31471294855E+03 -0.35980509551E+03  0.10256840312E+04  0.12699999809E+01 0. -1.
       -4    1    3    3    0  502  0.90748122420E+03  0.31471294855E+03  0.10160655554E+04  0.13981978537E+04  0.12699999809E+01 0.  1.
</event>
<event>
 5   0  0.6630125E-07  0.3544772E+04  0.7818609E-02  0.8103261E-01
        1   -1    0    0  501    0  0.00000000000E+00  0.00000000000E+00  0.24799507580E+04  0.24799507580E+04  0.50400001928E-02 0. -1.
       -1   -1    0    0    0  501  0.00000000000E+00  0.00000000000E+00 -0.12666990998E+04  0.12666990998E+04  0.50400001928E-02 0.  1.
    10030    2    1    2    0    0  0.00000000000E+00  0.00000000000E+00  0.12132516582E+04  0.37466498578E+04  0.35447715823E+04 0.  0.
        5    1    3    3  502    0 -0.15095256436E+04 -0.52641985408E+03  0.14154135245E+04  0.21352290432E+04  0.46999998093E+01 0. -1.
       -5    1    3    3    0  502  0.15095256436E+04  0.52641985408E+03 -0.20216186635E+03  0.16114208146E+04  0.46999998093E+01 0.  1.
</event>
<event>
 5   0  0.6630125E-07  0.3503947E+04  0.7818609E-02  0.8112855E-01
        1   -1    0    0  501    0  0.00000000000E+00  0.00000000000E+00  0.21989337413E+04  0.21989337413E+04  0.50400001928E-02 0. -1.
       -1   -1    0    0    0  501  0.00000000000E+00  0.00000000000E+00 -0.13958636474E+04  0.13958636475E+04  0.50400001928E-02 0.  1.
    10030    2    1    2    0    0  0.00000000000E+00  0.00000000000E+00  0.80307009381E+03  0.35947973887E+04  0.35039473013E+04 0.  0.
        5    1    3    3  502    0  0.11516031805E+04  0.79288591815E+03  0.14846213119E+04  0.20393578632E+04  0.46999998093E+01 0. -1.
       -5    1    3    3    0  502 -0.11516031805E+04 -0.79288591815E+03 -0.68155121806E+03  0.15554395255E+04  0.46999998093E+01 0.  1.
</event>
<event>
 5   0  0.6630125E-07  0.3545898E+04  0.7818609E-02  0.8102998E-01
        1   -1    0    0  501    0  0.00000000000E+00  0.00000000000E+00  0.21022230145E+04  0.21022230145E+04  0.50400001928E-02 0.  1.
       -1   -1    0    0    0  501  0.00000000000E+00  0.00000000000E+00 -0.14952500078E+04  0.14952500078E+04  0.50400001928E-02 0. -1.
    10030    2    1    2    0    0  0.00000000000E+00  0.00000000000E+00  0.60697300676E+03  0.35974730223E+04  0.35458984638E+04 0.  0.
        5    1    3    3  502    0 -0.13473890867E+04  0.98266460842E+03 -0.30713112223E+03  0.16957118564E+04  0.46999998093E+01 0. -1.
       -5    1    3    3    0  502  0.13473890867E+04 -0.98266460842E+03  0.91410412898E+03  0.19017611659E+04  0.46999998093E+01 0.  1.
</event>
<event>
 5   0  0.7378896E-07  0.3486134E+04  0.7818609E-02  0.8117084E-01
        1   -1    0    0  501    0  0.00000000000E+00  0.00000000000E+00  0.13048967532E+04  0.13048967533E+04  0.50400001928E-02 0. -1.
       -1   -1    0    0    0  501  0.00000000000E+00  0.00000000000E+00 -0.23283702520E+04  0.23283702520E+04  0.50400001928E-02 0.  1.
    10030    2    1    2    0    0  0.00000000000E+00  0.00000000000E+00 -0.10234734988E+04  0.36332670053E+04  0.34861341238E+04 0.  0.
        2    1    3    3  502    0 -0.96151163872E+03 -0.14345786940E+04 -0.26563037232E+03  0.17473065431E+04  0.25500000920E-02 0.  1.
       -2    1    3    3    0  502  0.96151163872E+03  0.14345786940E+04 -0.75784312644E+03  0.18859604622E+04  0.25500000920E-02 0. -1.
</event>
<event>
 5   0  0.2020725E-06  0.3514606E+04  0.7818609E-02  0.8110337E-01
       -2   -1    0    0    0  501  0.00000000000E+00  0.00000000000E+00  0.10770459686E+04  0.10770459686E+04  0.25500000920E-02 0. -1.
        2   -1    0    0  501    0  0.00000000000E+00  0.00000000000E+00 -0.28672066940E+04  0.28672066940E+04  0.25500000920E-02 0.  1.
    10030    2    1    2    0    0  0.00000000000E+00  0.00000000000E+00 -0.17901607254E+04  0.39442526626E+04  0.35146057593E+04 0.  0.
        3    1    3    3  502    0  0.59250817431E+03 -0.13768910754E+04 -0.19243816136E+04  0.24392907935E+04  0.10100000352E+00 0.  1.
       -3    1    3    3    0  502 -0.59250817431E+03  0.13768910754E+04  0.13422088826E+03  0.15049618691E+04  0.10100000352E+00 0. -1.
</event>
<event>
 5   0  0.2023479E-06  0.3519616E+04  0.7818609E-02  0.8109157E-01
        2   -1    0    0  501    0  0.00000000000E+00  0.00000000000E+00  0.17947964366E+04  0.17947964366E+04  0.25500000920E-02 0.  1.
       -2   -1    0    0    0  501  0.00000000000E+00  0.00000000000E+00 -0.17255016454E+04  0.17255016454E+04  0.25500000920E-02 0. -1.
    10030    2    1    2    0    0  0.00000000000E+00  0.00000000000E+00  0.69294791145E+02  0.35202980820E+04  0.35196160044E+04 0.  0.
        5    1    3    3  502    0 -0.57924638664E+03 -0.12766885417E+04  0.10985462065E+04  0.17810912011E+04  0.46999998093E+01 0.  1.
       -5    1    3    3    0  502  0.57924638664E+03  0.12766885417E+04 -0.10292514153E+04  0.17392068809E+04  0.46999998093E+01 0. -1.
</event>
<event>
 5   0  0.2001768E-06  0.2877704E+04  0.7818609E-02  0.8279542E-01
       -2   -1    0    0    0  501  0.00000000000E+00  0.00000000000E+00  0.11289790192E+04  0.11289790192E+04  0.25500000920E-02 0. -1.
        2   -1    0    0  501    0  0.00000000000E+00  0.00000000000E+00 -0.18337759301E+04  0.18337759301E+04  0.25500000920E-02 0.  1.
    10030    2    1    2    0    0  0.00000000000E+00  0.00000000000E+00 -0.70479691091E+03  0.29627549494E+04  0.28777036339E+04 0.  0.
        2    1    3    3  502    0 -0.12635299127E+04 -0.19165758706E+03  0.32824121272E+03  0.13194630593E+04  0.25500000920E-02 0. -1.
       -2    1    3    3    0  502  0.12635299127E+04  0.19165758706E+03 -0.10330381236E+04  0.16432918901E+04  0.25500000920E-02 0.  1.
</event>
<event>
 5   0  0.7378896E-07  0.3564009E+04  0.7818609E-02  0.8098786E-01
       -1   -1    0    0    0  501  0.00000000000E+00  0.00000000000E+00  0.13940559137E+04  0.13940559137E+04  0.50400001928E-02 0. -1.
        1   -1    0    0  501    0  0.00000000000E+00  0.00000000000E+00 -0.22779147929E+04  0.22779147929E+04  0.50400001928E-02 0.  1.
    10030    2    1    2    0    0  0.00000000000E+00  0.00000000000E+00 -0.88385887924E+03  0.36719707066E+04  0.35640093086E+04 0.  0.
        2    1    3    3  502    0  0.11670101258E+03 -0.11388493437E+04 -0.18489266403E+04  0.21746555302E+04  0.25500000920E-02 0.  1.
       -2    1    3    3    0  502 -0.11670101258E+03  0.11388493437E+04  0.96506776107E+03  0.14973151764E+04  0.25500000920E-02 0. -1.
</event>
<event>
 5   0  0.2073287E-06  0.3490187E+04  0.7818609E-02  0.8116119E-01
        2   -1    0    0  501    0  0.00000000000E+00  0.00000000000E+00  0.16380415011E+04  0.16380415011E+04  0.25500000920E-02 0. -1.
       -2   -1    0    0    0  501  0.00000000000E+00  0.00000000000E+00 -0.18591420236E+04  0.18591420236E+04  0.25500000920E-02 0.  1.
    10030    2    1    2    0    0  0.00000000000E+00  0.00000000000E+00 -0.22110052257E+03  0.34971835247E+04  0.34901872678E+04 0.  0.
        1    1    3    3  502    0 -0.49854722891E+03 -0.75052572184E+03 -0.16080404780E+04  0.18432667679E+04  0.50400001928E-02 0.  1.
       -1    1    3    3    0  502  0.49854722891E+03  0.75052572184E+03  0.13869399554E+04  0.16539167568E+04  0.50400001928E-02 0. -1.
</event>
<event>
 5   0  0.6630125E-07  0.3467375E+04  0.7818609E-02  0.8121565E-01
        3   -1    0    0  501    0  0.00000000000E+00  0.00000000000E+00  0.25539353949E+04  0.25539353969E+04  0.10100000352E+00 0.  1.
       -3   -1    0    0    0  501  0.00000000000E+00  0.00000000000E+00 -0.11768788146E+04  0.11768788190E+04  0.10100000352E+00 0. -1.
    10030    2    1    2    0    0  0.00000000000E+00  0.00000000000E+00  0.13770565803E+04  0.37308142159E+04  0.34673750717E+04 0.  0.
        5    1    3    3  502    0  0.68390284102E+03  0.40327842850E+02 -0.10250470066E+04  0.12329204705E+04  0.46999998093E+01 0. -1.
       -5    1    3    3    0  502 -0.68390284102E+03 -0.40327842850E+02  0.24021035869E+04  0.24978937453E+04  0.46999998093E+01 0.  1.
</event>
<event>
 5   0  0.6630125E-07  0.3549065E+04  0.7818609E-02  0.8102260E-01
        4   -1    0    0  501    0  0.00000000000E+00  0.00000000000E+00  0.13900875568E+04  0.13900881369E+04  0.12699999809E+01 0.  1.
       -4   -1    0    0    0  501  0.00000000000E+00  0.00000000000E+00 -0.22652988017E+04  0.22652991577E+04  0.12699999809E+01 0. -1.
    10030    2    1    2    0    0  0.00000000000E+00  0.00000000000E+00 -0.87521124488E+03  0.36553872946E+04  0.35490648839E+04 0.  0.
        4    1    3    3  502    0 -0.85914236169E+03  0.99716863239E+03  0.78821425417E+03  0.15341949688E+04  0.12699999809E+01 0.  1.
       -4    1    3    3    0  502  0.85914236169E+03 -0.99716863239E+03 -0.16634254990E+04  0.21211923258E+04  0.12699999809E+01 0. -1.
</event>
<event>
 5   0  0.6630125E-07  0.3532770E+04  0.7818609E-02  0.8106067E-01
       -1   -1    0    0    0  501  0.00000000000E+00  0.00000000000E+00  0.14523635677E+04  0.14523635677E+04  0.50400001928E-02 0.  1.
        1   -1    0    0  501    0  0.00000000000E+00  0.00000000000E+00 -0.21483025039E+04  0.21483025040E+04  0.50400001928E-02 0. -1.
    10030    2    1    2    0    0  0.00000000000E+00  0.00000000000E+00 -0.69593893623E+03  0.36006660717E+04  0.35327701817E+04 0.  0.
        1    1    3    3  502    0 -0.11159722804E+04 -0.13524774540E+04 -0.56544053039E+03  0.18423659755E+04  0.50400001928E-02 0. -1.
       -1    1    3    3    0  502  0.11159722804E+04  0.13524774540E+04 -0.13049840584E+03  0.17583000962E+04  0.50400001928E-02 0.  1.
</event>
<event>
 5   0  0.6890600E-07  0.3585948E+04  0.7818609E-02  0.8093718E-01
       -1   -1    0    0    0  501  0.00000000000E+00  0.00000000000E+00  0.15440367304E+04  0.15440367304E+04  0.50400001928E-02 0. -1.
        1   -1    0    0  501    0  0.00000000000E+00  0.00000000000E+00 -0.20820462339E+04  0.20820462339E+04  0.50400001928E-02 0.  1.
    10030    2    1    2    0    0  0.00000000000E+00  0.00000000000E+00 -0.53800950345E+03  0.36260829643E+04  0.35859480529E+04 0.  0.
        3    1    3    3  502    0 -0.14212809176E+03  0.12735273036E+04  0.99909795648E+03  0.16248904346E+04  0.10100000352E+00 0. -1.
       -3    1    3    3    0  502  0.14212809176E+03 -0.12735273036E+04 -0.15371074599E+04  0.20011925297E+04  0.10100000352E+00 0.  1.
</event>
<event>
 5   0  0.7378896E-07  0.3470718E+04  0.7818609E-02  0.8120765E-01
        1   -1    0    0  501    0  0.00000000000E+00  0.00000000000E+00  0.12593436757E+04  0.12593436757E+04  0.50400001928E-02 0. -1.
       -1   -1    0    0    0  501  0.00000000000E+00  0.00000000000E+00 -0.23913022588E+04  0.23913022588E+04  0.50400001928E-02 0.  1.
    10030    2    1    2    0    0  0.00000000000E+00  0.00000000000E+00 -0.11319585832E+04  0.36506459345E+04  0.34707182982E+04 0.  0.
        2    1    3    3  502    0 -0.38783583526E+03 -0.19122166942E+03 -0.23337270432E+04  0.23734498676E+04  0.25500000920E-02 0.  1.
       -2    1    3    3    0  502  0.38783583526E+03  0.19122166942E+03  0.12017684600E+04  0.12771960670E+04  0.25500000920E-02 0. -1.
</event>
<event>
 5   0  0.6890600E-07  0.3590599E+04  0.7818609E-02  0.8092649E-01
       -1   -1    0    0    0  501  0.00000000000E+00  0.00000000000E+00  0.16519057221E+04  0.16519057221E+04  0.50400001928E-02 0.  1.
        1   -1    0    0  501    0  0.00000000000E+00  0.00000000000E+00 -0.19511403350E+04  0.19511403350E+04  0.50400001928E-02 0. -1.
    10030    2    1    2    0    0  0.00000000000E+00  0.00000000000E+00 -0.29923461285E+03  0.36030460571E+04  0.35905987712E+04 0.  0.
        3    1    3    3  502    0 -0.12318185875E+04 -0.81658344253E+03 -0.11724222125E+04  0.18864674409E+04  0.10100000352E+00 0. -1.
       -3    1    3    3    0  502  0.12318185875E+04  0.81658344253E+03  0.87318759964E+03  0.17165786162E+04  0.10100000352E+00 0.  1.
</event>
<event>
 5   0  0.6630125E-07  0.3541814E+04  0.7818609E-02  0.8103951E-01
        1   -1    0    0  501    0  0.00000000000E+00  0.00000000000E+00  0.18635800833E+04  0.18635800833E+04  0.50400001928E-02 0.  1.
       -1   -1    0    0    0  501  0.00000000000E+00  0.00000000000E+00 -0.16828425061E+04  0.16828425061E+04  0.50400001928E-02 0. -1.
    10030    2    1    2    0    0  0.00000000000E+00  0.00000000000E+00  0.18073757715E+03  0.35464225894E+04  0.35418140989E+04 0.  0.
        4    1    3    3  502    0  0.11349903906E+04 -0.41689854108E+03 -0.12051859157E+04  0.17071854863E+04  0.12699999809E+01 0.  1.
       -4    1    3    3    0  502 -0.11349903906E+04  0.41689854108E+03  0.13859234929E+04  0.18392371031E+04  0.12699999809E+01 0. -1.
</event>
<event>
 5   0  0.7378896E-07  0.3476232E+04  0.7818609E-02  0.8119446E-01
        1   -1    0    0  501    0  0.00000000000E+00  0.00000000000E+00  0.15457973715E+04  0.15457973716E+04  0.50400001928E-02 0.  1.
       -1   -1    0    0    0  501  0.00000000000E+00  0.00000000000E+00 -0.19543612875E+04  0.19543612875E+04  0.50400001928E-02 0. -1.
    10030    2    1    2    0    0  0.00000000000E+00  0.00000000000E+00 -0.40856391594E+03  0.35001586590E+04  0.34762316041E+04 0.  0.
        2    1    3    3  502    0 -0.10655052192E+04  0.13361274634E+04  0.11493104649E+03  0.17128184714E+04  0.25500000920E-02 0. -1.
       -2    1    3    3    0  502  0.10655052192E+04 -0.13361274634E+04 -0.52349496243E+03  0.17873401876E+04  0.25500000920E-02 0.  1.
</event>
<event>
 5   0  0.2001768E-06  0.3521085E+04  0.7818609E-02  0.8108811E-01
       -2   -1    0    0    0  501  0.00000000000E+00  0.00000000000E+00  0.19614217823E+04  0.19614217823E+04  0.25500000920E-02 0. -1.
        2   -1    0    0  501    0  0.00000000000E+00  0.00000000000E+00 -0.15802366567E+04  0.15802366567E+04  0.25500000920E-02 0.  1.
    10030    2    1    2    0    0  0.00000000000E+00  0.00000000000E+00  0.38118512556E+03  0.35416584390E+04  0.35210854006E+04 0.  0.
        2    1    3    3  502    0 -0.89287295480E+03  0.78531381297E+03  0.14964735635E+04  0.19113798744E+04  0.25500000920E-02 0. -1.
       -2    1    3    3    0  502  0.89287295480E+03 -0.78531381297E+03 -0.11152884379E+04  0.16302785645E+04  0.25500000920E-02 0.  1.
</event>
<event>
 5   0  0.7378896E-07  0.3087110E+04  0.7818609E-02  0.8219284E-01
        1   -1    0    0  501    0  0.00000000000E+00  0.00000000000E+00  0.15127481626E+04  0.15127481626E+04  0.50400001928E-02 0. -1.
       -1   -1    0    0    0  501  0.00000000000E+00  0.00000000000E+00 -0.15749887750E+04  0.15749887750E+04  0.50400001928E-02 0.  1.
    10030    2    1    2    0    0  0.00000000000E+00  0.00000000000E+00 -0.62240612404E+02  0.30877369376E+04  0.30871095707E+04 0.  0.
        2    1    3    3  502    0  0.13483318705E+04  0.26635851222E+02 -0.78217441293E+03  0.15590077337E+04  0.25500000920E-02 0.  1.
       -2    1    3    3    0  502 -0.13483318705E+04 -0.26635851222E+02  0.71993380052E+03  0.15287292038E+04  0.25500000920E-02 0. -1.
</event>
<event>
 5   0  0.6630125E-07  0.2191103E+04  0.7818609E-02  0.8522140E-01
        1   -1    0    0  501    0  0.00000000000E+00  0.00000000000E+00  0.13808781098E+04  0.13808781098E+04  0.50400001928E-02 0.  1.
       -1   -1    0    0    0  501  0.00000000000E+00  0.00000000000E+00 -0.86918136493E+03  0.86918136495E+03  0.50400001928E-02 0. -1.
    10030    2    1    2    0    0  0.00000000000E+00  0.00000000000E+00  0.51169674483E+03  0.22500594747E+04  0.21911033935E+04 0.  0.
        5    1    3    3  502    0 -0.55274557431E+03 -0.47179964332E+03 -0.58602054209E+03  0.93357631670E+03  0.46999998093E+01 0. -1.
       -5    1    3    3    0  502  0.55274557431E+03  0.47179964332E+03  0.10977172869E+04  0.13164831580E+04  0.46999998093E+01 0.  1.
</event>
<event>
 5   0  0.6630125E-07  0.2886866E+04  0.7818609E-02  0.8276796E-01
        3   -1    0    0  501    0  0.00000000000E+00  0.00000000000E+00  0.13203957374E+04  0.13203957412E+04  0.10100000352E+00 0. -1.
       -3   -1    0    0    0  501  0.00000000000E+00  0.00000000000E+00 -0.15779354423E+04  0.15779354456E+04  0.10100000352E+00 0.  1.
    10030    2    1    2    0    0  0.00000000000E+00  0.00000000000E+00 -0.25753970496E+03  0.28983311868E+04  0.28868662887E+04 0.  0.
        1    1    3    3  502    0 -0.35708948565E+03  0.38577325256E+03  0.12208774315E+04  0.13292387317E+04  0.50400001928E-02 0. -1.
       -1    1    3    3    0  502  0.35708948565E+03 -0.38577325256E+03 -0.14784171365E+04  0.15690924551E+04  0.50400001928E-02 0.  1.
</event>
<event>
 5   0  0.2020725E-06  0.3512709E+04  0.7818609E-02  0.8110785E-01
        2   -1    0    0  501    0  0.00000000000E+00  0.00000000000E+00  0.18711866975E+04  0.18711866975E+04  0.25500000920E-02 0. -1.
       -2   -1    0    0    0  501  0.00000000000E+00  0.00000000000E+00 -0.16485696379E+04  0.16485696379E+04  0.25500000920E-02 0.  1.
    10030    2    1    2    0    0  0.00000000000E+00  0.00000000000E+00  0.22261705965E+03  0.35197563354E+04  0.35127092543E+04 0.  0.
        3    1    3    3  502    0  0.95651082239E+03  0.95879811985E+03  0.12318430161E+04  0.18307495772E+04  0.10100000352E+00 0. -1.
       -3    1    3    3    0  502 -0.95651082239E+03 -0.95879811985E+03 -0.10092259564E+04  0.16890067582E+04  0.10100000352E+00 0.  1.
</event>
<event>
 5   0  0.2020725E-06  0.3404174E+04  0.7818609E-02  0.8136883E-01
       -2   -1    0    0    0  501  0.00000000000E+00  0.00000000000E+00  0.25494405194E+04  0.25494405194E+04  0.25500000920E-02 0.  1.
        2   -1    0    0  501    0  0.00000000000E+00  0.00000000000E+00 -0.11363668353E+04  0.11363668353E+04  0.25500000920E-02 0. -1.
    10030    2    1    2    0    0  0.00000000000E+00  0.00000000000E+00  0.14130736841E+04  0.36858073547E+04  0.34041737058E+04 0.  0.
        3    1    3    3  502    0  0.14357812247E+04  0.79707887110E+03  0.22196480316E+03  0.16571272842E+04  0.10100000352E+00 0. -1.
       -3    1    3    3    0  502 -0.14357812247E+04 -0.79707887110E+03  0.11911088810E+04  0.20286800705E+04  0.10100000352E+00 0.  1.
</event>
<event>
 5   0  0.1999883E-06  0.3459877E+04  0.7818609E-02  0.8123365E-01
        2   -1    0    0  501    0  0.00000000000E+00  0.00000000000E+00  0.18561956972E+04  0.18561956972E+04  0.25500000920E-02 0. -1.
       -2   -1    0    0    0  501  0.00000000000E+00  0.00000000000E+00 -0.16122694852E+04  0.16122694852E+04  0.25500000920E-02 0.  1.
    10030    2    1    2    0    0  0.00000000000E+00  0.00000000000E+00  0.24392621202E+03  0.34684651825E+04  0.34598772702E+04 0.  0.
        4    1    3    3  502    0 -0.12402367344E+04 -0.21378503539E+02  0.13307927509E+04  0.18192457659E+04  0.12699999809E+01 0. -1.
       -4    1    3    3    0  502  0.12402367344E+04  0.21378503539E+02 -0.10868665389E+04  0.16492194166E+04  0.12699999809E+01 0.  1.
</event>
<event>
 5   0  0.2020725E-06  0.3521894E+04  0.7818609E-02  0.8108621E-01
       -2   -1    0    0    0  501  0.00000000000E+00  0.00000000000E+00  0.20095891091E+04  0.20095891091E+04  0.25500000920E-02 0.  1.
        2   -1    0    0  501    0  0.00000000000E+00  0.00000000000E+00 -0.15430685598E+04  0.15430685598E+04  0.25500000920E-02 0. -1.
    10030    2    1    2    0    0  0.00000000000E+00  0.00000000000E+00  0.46652054935E+03  0.35526576689E+04  0.35218936794E+04 0.  0.
        3    1    3    3  502    0  0.62361333301E+03 -0.87953583957E+03 -0.11711862006E+04  0.15919026380E+04  0.10100000352E+00 0. -1.
       -3    1    3    3    0  502 -0.62361333301E+03  0.87953583957E+03  0.16377067499E+04  0.19607550309E+04  0.10100000352E+00 0.  1.
</event>
<event>
 5   0  0.2073287E-06  0.3490252E+04  0.7818609E-02  0.8116104E-01
       -2   -1    0    0    0  501  0.00000000000E+00  0.00000000000E+00  0.11617406886E+04  0.11617406886E+04  0.25500000920E-02 0. -1.
        2   -1    0    0  501    0  0.00000000000E+00  0.00000000000E+00 -0.26214671505E+04  0.26214671505E+04  0.25500000920E-02 0.  1.
    10030    2    1    2    0    0  0.00000000000E+00  0.00000000000E+00 -0.14597264619E+04  0.37832078390E+04  0.34902521700E+04 0.  0.
        1    1    3    3  502    0 -0.10998278318E+04 -0.12891191650E+03 -0.21918608449E+04  0.24557063149E+04  0.50400001928E-02 0.  1.
       -1    1    3    3    0  502  0.10998278318E+04  0.12891191650E+03  0.73213438296E+03  0.13275015241E+04  0.50400001928E-02 0. -1.
</event>
<event>
 5   0  0.2020725E-06  0.3426326E+04  0.7818609E-02  0.8131475E-01
        2   -1    0    0  501    0  0.00000000000E+00  0.00000000000E+00  0.19569949405E+04  0.19569949405E+04  0.25500000920E-02 0.  1.
       -2   -1    0    0    0  501  0.00000000000E+00  0.00000000000E+00 -0.14997109252E+04  0.14997109252E+04  0.25500000920E-02 0. -1.
    10030    2    1    2    0    0  0.00000000000E+00  0.00000000000E+00  0.45728401531E+03  0.34567058657E+04  0.34263255496E+04 0.  0.
        3    1    3    3  502    0 -0.31897830162E+03  0.10948309219E+04 -0.10611793268E+04  0.15577238132E+04  0.10100000352E+00 0. -1.
       -3    1    3    3    0  502  0.31897830162E+03 -0.10948309219E+04  0.15184633421E+04  0.18989820525E+04  0.10100000352E+00 0.  1.
</event>
<event>
 5   0  0.2023479E-06  0.3562148E+04  0.7818609E-02  0.8099218E-01
       -2   -1    0    0    0  501  0.00000000000E+00  0.00000000000E+00  0.20458112000E+04  0.20458112000E+04  0.25500000920E-02 0. -1.
        2   -1    0    0  501    0  0.00000000000E+00  0.00000000000E+00 -0.15505951518E+04  0.15505951518E+04  0.25500000920E-02 0.  1.
    10030    2    1    2    0    0  0.00000000000E+00  0.00000000000E+00  0.49521604823E+03  0.35964063519E+04  0.35621481880E+04 0.  0.
        5    1    3    3  502    0 -0.22444192730E+03 -0.23269367380E+03 -0.15207164788E+04  0.15547093694E+04  0.46999998093E+01 0.  1.
       -5    1    3    3    0  502  0.22444192730E+03  0.23269367380E+03  0.20159325270E+04  0.20416969824E+04  0.46999998093E+01 0. -1.
</event>
<event>
 5   0  0.6890600E-07  0.3510084E+04  0.7818609E-02  0.8111404E-01
       -1   -1    0    0    0  501  0.00000000000E+00  0.00000000000E+00  0.30527916295E+04  0.30527916295E+04  0.50400001928E-02 0.  1.
        1   -1    0    0  501    0  0.00000000000E+00  0.00000000000E+00 -0.10089690503E+04  0.10089690503E+04  0.50400001928E-02 0. -1.
    10030    2    1    2    0    0  0.00000000000E+00  0.00000000000E+00  0.20438225792E+04  0.40617606798E+04  0.35100839142E+04 0.  0.
        3    1    3    3  502    0  0.75541032184E+03  0.10929927830E+04  0.23488236832E+04  0.26985645597E+04  0.10100000352E+00 0.  1.
       -3    1    3    3    0  502 -0.75541032184E+03 -0.10929927830E+04 -0.30500110399E+03  0.13631961200E+04  0.10100000352E+00 0. -1.
</event>
<event>
 5   0  0.6630125E-07  0.3459144E+04  0.7818609E-02  0.8123541E-01
       -1   -1    0    0    0  501  0.00000000000E+00  0.00000000000E+00  0.14982169274E+04  0.14982169274E+04  0.50400001928E-02 0.  1.
        1   -1    0    0  501    0  0.00000000000E+00  0.00000000000E+00 -0.19966527136E+04  0.19966527136E+04  0.50400001928E-02 0. -1.
    10030    2    1    2    0    0  0.00000000000E+00  0.00000000000E+00 -0.49843578619E+03  0.34948696410E+04  0.34591437632E+04 0.  0.
        1    1    3    3  502    0 -0.10666895738E+03 -0.10295723965E+04 -0.16491771402E+04  0.19470959981E+04  0.50400001928E-02 0. -1.
       -1    1    3    3    0  502  0.10666895738E+03  0.10295723965E+04  0.11507413540E+04  0.15477736430E+04  0.50400001928E-02 0.  1.
</event>
<event>
 5   0  0.6890600E-07  0.2857204E+04  0.7818609E-02  0.8285726E-01
        1   -1    0    0  501    0  0.00000000000E+00  0.00000000000E+00  0.18039168781E+04  0.18039168781E+04  0.50400001928E-02 0.  1.
       -1   -1    0    0    0  501  0.00000000000E+00  0.00000000000E+00 -0.11313731433E+04  0.11313731434E+04  0.50400001928E-02 0. -1.
    10030    2    1    2    0    0  0.00000000000E+00  0.00000000000E+00  0.67254373477E+03  0.29352900215E+04  0.28572036041E+04 0.  0.
        3    1    3    3  502    0  0.14242723643E+04 -0.85960645342E+02  0.26390454372E+03  0.14510639609E+04  0.10100000352E+00 0.  1.
       -3    1    3    3    0  502 -0.14242723643E+04  0.85960645342E+02  0.40863919105E+03  0.14842260606E+04  0.10100000352E+00 0. -1.
</event>
<event>
 5   0  0.6630125E-07  0.3111922E+04  0.7818609E-02  0.8212474E-01
        1   -1    0    0  501    0  0.00000000000E+00  0.00000000000E+00  0.34954950414E+04  0.34954950414E+04  0.50400001928E-02 0. -1.
       -1   -1    0    0    0  501  0.00000000000E+00  0.00000000000E+00 -0.69261002608E+03  0.69261002610E+03  0.50400001928E-02 0.  1.
    10030    2    1    2    0    0  0.00000000000E+00  0.00000000000E+00  0.28028850153E+04  0.41881050675E+04  0.31119221789E+04 0.  0.
        1    1    3    3  502    0  0.47408641641E+03 -0.87577241853E+03  0.30104106532E+04  0.31708528128E+04  0.50400001928E-02 0. -1.
       -1    1    3    3    0  502 -0.47408641641E+03  0.87577241853E+03 -0.20752563792E+03  0.10172522547E+04  0.50400001928E-02 0.  1.
</event>
<event>
 5   0  0.6630125E-07  0.2270954E+04  0.7818609E-02  0.8489462E-01
        1   -1    0    0  501    0  0.00000000000E+00  0.00000000000E+00  0.13515577457E+04  0.13515577457E+04  0.50400001928E-02 0. -1.
       -1   -1    0    0    0  501  0.00000000000E+00  0.00000000000E+00 -0.95394219149E+03  0.95394219150E+03  0.50400001928E-02 0.  1.
    10030    2    1    2    0    0  0.00000000000E+00  0.00000000000E+00  0.39761555419E+03  0.23054999372E+04  0.22709539474E+04 0.  0.
        4    1    3    3  502    0 -0.24644998325E+03  0.53624003859E+03  0.11836238916E+04  0.13225952151E+04  0.12699999809E+01 0. -1.
       -4    1    3    3    0  502  0.24644998325E+03 -0.53624003859E+03 -0.78600833746E+03  0.98290472208E+03  0.12699999809E+01 0.  1.
</event>
<event>
 5   0  0.1999883E-06  0.3471410E+04  0.7818609E-02  0.8120599E-01
       -2   -1    0    0    0  501  0.00000000000E+00  0.00000000000E+00  0.12525473073E+04  0.12525473073E+04  0.25500000920E-02 0.  1.
        2   -1    0    0  501    0  0.00000000000E+00  0.00000000000E+00 -0.24052356481E+04  0.24052356481E+04  0.25500000920E-02 0. -1.
    10030    2    1    2    0    0  0.00000000000E+00  0.00000000000E+00 -0.11526883408E+04  0.36577829554E+04  0.34714097623E+04 0.  0.
        4    1    3    3  502    0 -0.49594127264E+03  0.80005935009E+03  0.96024123340E+03  0.13446626152E+04  0.12699999809E+01 0.  1.
       -4    1    3    3    0  502  0.49594127264E+03 -0.80005935009E+03 -0.21129295742E+04  0.23131203401E+04  0.12699999809E+01 0. -1.
</event>
<event>
 5   0  0.2023479E-06  0.2847351E+04  0.7818609E-02  0.8288717E-01
        2   -1    0    0  501    0  0.00000000000E+00  0.00000000000E+00  0.10935976771E+04  0.10935976771E+04  0.25500000920E-02 0.  1.
       -2   -1    0    0    0  501  0.00000000000E+00  0.00000000000E+00 -0.18533799732E+04  0.18533799732E+04  0.25500000920E-02 0. -1.
    10030    2    1    2    0    0  0.00000000000E+00  0.00000000000E+00 -0.75978229607E+03  0.29469776503E+04  0.28473510732E+04 0.  0.
        5    1    3    3  502    0  0.64144286896E+03 -0.12586961308E+04 -0.56231086583E+03  0.15205198137E+04  0.46999998093E+01 0. -1.
       -5    1    3    3    0  502 -0.64144286896E+03  0.12586961308E+04 -0.19747143024E+03  0.14264578366E+04  0.46999998093E+01 0.  1.
</event>
<event>
 5   0  0.6630125E-07  0.3391488E+04  0.7818609E-02  0.8139999E-01
        1   -1    0    0  501    0  0.00000000000E+00  0.00000000000E+00  0.22265325117E+04  0.22265325117E+04  0.50400001928E-02 0. -1.
       -1   -1    0    0    0  501  0.00000000000E+00  0.00000000000E+00 -0.12914913787E+04  0.12914913787E+04  0.50400001928E-02 0.  1.
    10030    2    1    2    0    0  0.00000000000E+00  0.00000000000E+00  0.93504113299E+03  0.35180238904E+04  0.33914878996E+04 0.  0.
        1    1    3    3  502    0 -0.10161807748E+04 -0.64115330330E+03  0.17087634212E+04  0.20889167899E+04  0.50400001928E-02 0. -1.
       -1    1    3    3    0  502  0.10161807748E+04  0.64115330330E+03 -0.77372228825E+03  0.14291071005E+04  0.50400001928E-02 0.  1.
</event>
<event>
 5   0  0.2020725E-06  0.3422255E+04  0.7818609E-02  0.8132466E-01
        2   -1    0    0  501    0  0.00000000000E+00  0.00000000000E+00  0.30043882164E+04  0.30043882164E+04  0.25500000920E-02 0. -1.
       -2   -1    0    0    0  501  0.00000000000E+00  0.00000000000E+00 -0.97456021888E+03  0.97456021888E+03  0.25500000920E-02 0.  1.
    10030    2    1    2    0    0  0.00000000000E+00  0.00000000000E+00  0.20298279976E+04  0.39789484353E+04  0.34222549512E+04 0.  0.
        3    1    3    3  502    0  0.16877100271E+04 -0.17227295099E+03  0.12746712445E+04  0.21219872518E+04  0.10100000352E+00 0.  1.
       -3    1    3    3    0  502 -0.16877100271E+04  0.17227295099E+03  0.75515675310E+03  0.18569611835E+04  0.10100000352E+00 0. -1.
</event>
<event>
 5   0  0.2073287E-06  0.3516096E+04  0.7818609E-02  0.8109986E-01
       -2   -1    0    0    0  501  0.00000000000E+00  0.00000000000E+00  0.16878217193E+04  0.16878217194E+04  0.25500000920E-02 0. -1.
        2   -1    0    0  501    0  0.00000000000E+00  0.00000000000E+00 -0.18311965192E+04  0.18311965192E+04  0.25500000920E-02 0.  1.
    10030    2    1    2    0    0  0.00000000000E+00  0.00000000000E+00 -0.14337479981E+03  0.35190182385E+04  0.35160962771E+04 0.  0.
        1    1    3    3  502    0  0.42084632171E+03  0.13955361991E+04 -0.10554082551E+04  0.17995887014E+04  0.50400001928E-02 0.  1.
       -1    1    3    3    0  502 -0.42084632171E+03 -0.13955361991E+04  0.91203345529E+03  0.17194295371E+04  0.50400001928E-02 0. -1.
</event>
<event>
 5   0  0.2001768E-06  0.3470331E+04  0.7818609E-02  0.8120857E-01
       -2   -1    0    0    0  501  0.00000000000E+00  0.00000000000E+00  0.22658760414E+04  0.22658760414E+04  0.25500000920E-02 0.  1.
        2   -1    0    0  501    0  0.00000000000E+00  0.00000000000E+00 -0.13287576305E+04  0.13287576305E+04  0.25500000920E-02 0. -1.
    10030    2    1    2    0    0  0.00000000000E+00  0.00000000000E+00  0.93711841090E+03  0.35946336719E+04  0.34703314422E+04 0.  0.
        2    1    3    3  502    0  0.12670053676E+04 -0.43095848527E+03 -0.67543298474E+03  0.14990788954E+04  0.25500000920E-02 0. -1.
       -2    1    3    3    0  502 -0.12670053676E+04  0.43095848527E+03  0.16125513956E+04  0.20955547765E+04  0.25500000920E-02 0.  1.
</event>
<event>
 5   0  0.7378896E-07  0.2157299E+04  0.7818609E-02  0.8536414E-01
        1   -1    0    0  501    0  0.00000000000E+00  0.00000000000E+00  0.13920862602E+04  0.13920862603E+04  0.50400001928E-02 0.  1.
       -1   -1    0    0    0  501  0.00000000000E+00  0.00000000000E+00 -0.83578507985E+03  0.83578507986E+03  0.50400001928E-02 0. -1.
    10030    2    1    2    0    0  0.00000000000E+00  0.00000000000E+00  0.55630118040E+03  0.22278713401E+04  0.21572991691E+04 0.  0.
        2    1    3    3  502    0 -0.41294319813E+03  0.19471669398E+03 -0.73108460454E+03  0.86192886876E+03  0.25500000920E-02 0. -1.
       -2    1    3    3    0  502  0.41294319813E+03 -0.19471669398E+03  0.12873857849E+04  0.13659424714E+04  0.25500000920E-02 0.  1.
</event>
<event>
 5   0  0.6630125E-07  0.3705224E+04  0.7818609E-02  0.8066805E-01
       -1   -1    0    0    0  501  0.00000000000E+00  0.00000000000E+00  0.16247358450E+04  0.16247358450E+04  0.50400001928E-02 0.  1.
        1   -1    0    0  501    0  0.00000000000E+00  0.00000000000E+00 -0.21124492481E+04  0.21124492481E+04  0.50400001928E-02 0. -1.
    10030    2    1    2    0    0  0.00000000000E+00  0.00000000000E+00 -0.48771340310E+03  0.37371850931E+04  0.37052244272E+04 0.  0.
        4    1    3    3  502    0  0.12032428087E+03 -0.13399450780E+04  0.10408015069E+04  0.17009409555E+04  0.12699999809E+01 0.  1.
       -4    1    3    3    0  502 -0.12032428087E+03  0.13399450780E+04 -0.15285149100E+04  0.20362441375E+04  0.12699999809E+01 0. -1.
</event>
<event>
 5   0  0.2023479E-06  0.3230001E+04  0.7818609E-02  0.8180938E-01
        2   -1    0    0  501    0  0.00000000000E+00  0.00000000000E+00  0.21165517307E+04  0.21165517308E+04  0.25500000920E-02 0. -1.
       -2   -1    0    0    0  501  0.00000000000E+00  0.00000000000E+00 -0.12323003371E+04  0.12323003371E+04  0.25500000920E-02 0.  1.
    10030    2    1    2    0    0  0.00000000000E+00  0.00000000000E+00  0.88425139362E+03  0.33488520679E+04  0.32300014931E+04 0.  0.
        5    1    3    3  502    0  0.14777306141E+04  0.35495639634E+03  0.10086029953E+04  0.18240021665E+04  0.46999998093E+01 0.  1.
       -5    1    3    3    0  502 -0.14777306141E+04 -0.35495639634E+03 -0.12435160170E+03  0.15248499014E+04  0.46999998093E+01 0. -1.
</event>
<event>
 5   0  0.2023479E-06  0.3547390E+04  0.7818609E-02  0.8102650E-01
        2   -1    0    0  501    0  0.00000000000E+00  0.00000000000E+00  0.28782168779E+04  0.28782168779E+04  0.25500000920E-02 0. -1.
       -2   -1    0    0    0  501  0.00000000000E+00  0.00000000000E+00 -0.10930358249E+04  0.10930358249E+04  0.25500000920E-02 0.  1.
    10030    2    1    2    0    0  0.00000000000E+00  0.00000000000E+00  0.17851810530E+04  0.39712527028E+04  0.35473901164E+04 0.  0.
        5    1    3    3  502    0 -0.92155325193E+03  0.44592745514E+03  0.25140528508E+04  0.27145157060E+04  0.46999998093E+01 0. -1.
       -5    1    3    3    0  502  0.92155325193E+03 -0.44592745514E+03 -0.72887179787E+03  0.12567369968E+04  0.46999998093E+01 0.  1.
</event>
<event>
 5   0  0.6630125E-07  0.2880872E+04  0.7818609E-02  0.8278591E-01
        1   -1    0    0  501    0  0.00000000000E+00  0.00000000000E+00  0.10748647055E+04  0.10748647055E+04  0.50400001928E-02 0. -1.
       -1   -1    0    0    0  501  0.00000000000E+00  0.00000000000E+00 -0.19303415240E+04  0.19303415240E+04  0.50400001928E-02 0.  1.
    10030    2    1    2    0    0  0.00000000000E+00  0.00000000000E+00 -0.85547681847E+03  0.30052062295E+04  0.28808720719E+04 0.  0.
        5    1    3    3  502    0 -0.12497143121E+04  0.57225496503E+02 -0.11725369796E+04  0.17146211470E+04  0.46999998093E+01 0.  1.
       -5    1    3    3    0  502  0.12497143121E+04 -0.57225496503E+02  0.31706016114E+03  0.12905850825E+04  0.46999998093E+01 0. -1.
</event>
<event>
 5   0  0.6630125E-07  0.3107056E+04  0.7818609E-02  0.8213804E-01
        1   -1    0    0  501    0  0.00000000000E+00  0.00000000000E+00  0.24636549238E+04  0.24636549238E+04  0.50400001928E-02 0. -1.
       -1   -1    0    0    0  501  0.00000000000E+00  0.00000000000E+00 -0.97962135998E+03  0.97962135999E+03  0.50400001928E-02 0.  1.
    10030    2    1    2    0    0  0.00000000000E+00  0.00000000000E+00  0.14840335638E+04  0.34432762838E+04  0.31070558328E+04 0.  0.
        4    1    3    3  502    0 -0.10848068186E+04 -0.53164102212E+03  0.18244393945E+04  0.21881564677E+04  0.12699999809E+01 0. -1.
       -4    1    3    3    0  502  0.10848068186E+04  0.53164102212E+03 -0.34040583070E+03  0.12551198160E+04  0.12699999809E+01 0.  1.
</event>
<event>
 5   0  0.6890600E-07  0.3514962E+04  0.7818609E-02  0.8110253E-01
       -1   -1    0    0    0  501  0.00000000000E+00  0.00000000000E+00  0.11081587312E+04  0.11081587312E+04  0.50400001928E-02 0.  1.
        1   -1    0    0  501    0  0.00000000000E+00  0.00000000000E+00 -0.27872713425E+04  0.27872713425E+04  0.50400001928E-02 0. -1.
    10030    2    1    2    0    0  0.00000000000E+00  0.00000000000E+00 -0.16791126113E+04  0.38954300737E+04  0.35149617776E+04 0.  0.
        3    1    3    3  502    0  0.86261986923E+03  0.12637382266E+04 -0.17977803127E+04  0.23607544149E+04  0.10100000352E+00 0.  1.
       -3    1    3    3    0  502 -0.86261986923E+03 -0.12637382266E+04  0.11866770146E+03  0.15346756588E+04  0.10100000352E+00 0. -1.
</event>
<event>
 5   0  0.6630125E-07  0.3431303E+04  0.7818609E-02  0.8130266E-01
        1   -1    0    0  501    0  0.00000000000E+00  0.00000000000E+00  0.16399527405E+04  0.16399527405E+04  0.50400001928E-02 0.  1.
       -1   -1    0    0    0  501  0.00000000000E+00  0.00000000000E+00 -0.17948440695E+04  0.17948440695E+04  0.50400001928E-02 0. -1.
    10030    2    1    2    0    0  0.00000000000E+00  0.00000000000E+00 -0.15489132899E+03  0.34347968100E+04  0.34313026392E+04 0.  0.
        5    1    3    3  502    0  0.35473107210E+03 -0.11607551594E+04 -0.12912193619E+04  0.17721332355E+04  0.46999998093E+01 0. -1.
       -5    1    3    3    0  502 -0.35473107210E+03  0.11607551594E+04  0.11363280329E+04  0.16626635745E+04  0.46999998093E+01 0.  1.
</event>
<event>
 5   0  0.6630125E-07  0.3502083E+04  0.7818609E-02  0.8113297E-01
       -1   -1    0    0    0  501  0.00000000000E+00  0.00000000000E+00  0.15449524269E+04  0.15449524269E+04  0.50400001928E-02 0.  1.
        1   -1    0    0  501    0  0.00000000000E+00  0.00000000000E+00 -0.19846213539E+04  0.19846213539E+04  0.50400001928E-02 0. -1.
    10030    2    1    2    0    0  0.00000000000E+00  0.00000000000E+00 -0.43966892706E+03  0.35295737808E+04  0.35020825673E+04 0.  0.
        1    1    3    3  502    0  0.60634126098E+03  0.11299504470E+04 -0.14215483029E+04  0.19144809518E+04  0.50400001928E-02 0.  1.
       -1    1    3    3    0  502 -0.60634126098E+03 -0.11299504470E+04  0.98187937586E+03  0.16150928289E+04  0.50400001928E-02 0. -1.
</event>
<event>
 5   0  0.6630125E-07  0.3487755E+04  0.7818609E-02  0.8116698E-01
       -3   -1    0    0    0  501  0.00000000000E+00  0.00000000000E+00  0.91958382375E+03  0.91958382929E+03  0.10100000352E+00 0. -1.
        3   -1    0    0  501    0  0.00000000000E+00  0.00000000000E+00 -0.33070481608E+04  0.33070481623E+04  0.10100000352E+00 0.  1.
    10030    2    1    2    0    0  0.00000000000E+00  0.00000000000E+00 -0.23874643370E+04  0.42266319916E+04  0.34877545831E+04 0.  0.
        1    1    3    3  502    0 -0.51569173699E+02 -0.71224765774E+03  0.73427046371E+03  0.10242603280E+04  0.50400001928E-02 0. -1.
       -1    1    3    3    0  502  0.51569173699E+02  0.71224765774E+03 -0.31217348007E+04  0.32023716636E+04  0.50400001928E-02 0.  1.
</event>
<event>
 5   0  0.2073287E-06  0.3483842E+04  0.7818609E-02  0.8117630E-01
        2   -1    0    0  501    0  0.00000000000E+00  0.00000000000E+00  0.19246007565E+04  0.19246007565E+04  0.25500000920E-02 0. -1.
       -2   -1    0    0    0  501  0.00000000000E+00  0.00000000000E+00 -0.15765804880E+04  0.15765804880E+04  0.25500000920E-02 0.  1.
    10030    2    1    2    0    0  0.00000000000E+00  0.00000000000E+00  0.34802026852E+03  0.35011812446E+04  0.34838415578E+04 0.  0.
        1    1    3    3  502    0 -0.12096519591E+04  0.48554795897E+03 -0.98728146190E+03  0.16351572914E+04  0.50400001928E-02 0.  1.
       -1    1    3    3    0  502  0.12096519591E+04 -0.48554795897E+03  0.13353017304E+04  0.18660239532E+04  0.50400001928E-02 0. -1.
</event>
<event>
 5   0  0.6630125E-07  0.3372803E+04  0.7818609E-02  0.8144614E-01
        1   -1    0    0  501    0  0.00000000000E+00  0.00000000000E+00  0.26807673742E+04  0.26807673742E+04  0.50400001928E-02 0.  1.
       -1   -1    0    0    0  501  0.00000000000E+00  0.00000000000E+00 -0.10608716798E+04  0.10608716798E+04  0.50400001928E-02 0. -1.
    10030    2    1    2    0    0  0.00000000000E+00  0.00000000000E+00  0.16198956944E+04  0.37416390541E+04  0.33728030999E+04 0.  0.
        1    1    3    3  502    0 -0.13556653714E+04 -0.83224614468E+03  0.14310761552E+04  0.21397292368E+04  0.50400001928E-02 0.  1.
       -1    1    3    3    0  502  0.13556653714E+04  0.83224614468E+03  0.18881953916E+03  0.16019098173E+04  0.50400001928E-02 0. -1.
</event>
<event>
 5   0  0.1999883E-06  0.2248866E+04  0.7818609E-02  0.8498360E-01
        2   -1    0    0  501    0  0.00000000000E+00  0.00000000000E+00  0.11655044305E+04  0.11655044305E+04  0.25500000920E-02 0. -1.
       -2   -1    0    0    0  501  0.00000000000E+00  0.00000000000E+00 -0.10848091695E+04  0.10848091695E+04  0.25500000920E-02 0.  1.
    10030    2    1    2    0    0  0.00000000000E+00  0.00000000000E+00  0.80695261015E+02  0.22503136000E+04  0.22488662862E+04 0.  0.
        4    1    3    3  502    0 -0.14354404273E+03 -0.18865584048E+03 -0.10595196049E+04  0.10857160422E+04  0.12699999809E+01 0.  1.
       -4    1    3    3    0  502  0.14354404273E+03  0.18865584048E+03  0.11402148659E+04  0.11645975578E+04  0.12699999809E+01 0. -1.
</event>
<event>
 5   0  0.2023479E-06  0.3458071E+04  0.7818609E-02  0.8123799E-01
        2   -1    0    0  501    0  0.00000000000E+00  0.00000000000E+00  0.10306610979E+04  0.10306610979E+04  0.25500000920E-02 0.  1.
       -2   -1    0    0    0  501  0.00000000000E+00  0.00000000000E+00 -0.29006270970E+04  0.29006270970E+04  0.25500000920E-02 0. -1.
    10030    2    1    2    0    0  0.00000000000E+00  0.00000000000E+00 -0.18699659991E+04  0.39312881948E+04  0.34580708543E+04 0.  0.
        5    1    3    3  502    0 -0.28708288721E+03 -0.97490211753E+03 -0.25252208442E+04  0.27220604558E+04  0.46999998093E+01 0. -1.
       -5    1    3    3    0  502  0.28708288721E+03  0.97490211753E+03  0.65525484511E+03  0.12092277391E+04  0.46999998093E+01 0.  1.
</event>
<event>
 5   0  0.7378896E-07  0.3481966E+04  0.7818609E-02  0.8118077E-01
        1   -1    0    0  501    0  0.00000000000E+00  0.00000000000E+00  0.17639922162E+04  0.17639922162E+04  0.50400001928E-02 0.  1.
       -1   -1    0    0    0  501  0.00000000000E+00  0.00000000000E+00 -0.17182742356E+04  0.17182742356E+04  0.50400001928E-02 0. -1.
    10030    2    1    2    0    0  0.00000000000E+00  0.00000000000E+00  0.45717980592E+02  0.34822664519E+04  0.34819663278E+04 0.  0.
        2    1    3    3  502    0  0.15238575975E+04  0.57750928537E+03  0.63558089767E+03  0.17491775295E+04  0.25500000920E-02 0.  1.
       -2    1    3    3    0  502 -0.15238575975E+04 -0.57750928537E+03 -0.58986291708E+03  0.17330889224E+04  0.25500000920E-02 0. -1.
</event>
<event>
 5   0  0.6630125E-07  0.2879662E+04  0.7818609E-02  0.8278954E-01
        1   -1    0    0  501    0  0.00000000000E+00  0.00000000000E+00  0.13315657560E+04  0.13315657560E+04  0.50400001928E-02 0. -1.
       -1   -1    0    0    0  501  0.00000000000E+00  0.00000000000E+00 -0.15568988643E+04  0.15568988643E+04  0.50400001928E-02 0.  1.
    10030    2    1    2    0    0  0.00000000000E+00  0.00000000000E+00 -0.22533310837E+03  0.28884646203E+04  0.28796619338E+04 0.  0.
        1    1    3    3  502    0 -0.21818055422E+03  0.10546986466E+04  0.84582825567E+03  0.13694588082E+04  0.50400001928E-02 0. -1.
       -1    1    3    3    0  502  0.21818055422E+03 -0.10546986466E+04 -0.10711613640E+04  0.15190058121E+04  0.50400001928E-02 0.  1.
</event>
<event>
 5   0  0.2001768E-06  0.3523062E+04  0.7818609E-02  0.8108346E-01
       -2   -1    0    0    0  501  0.00000000000E+00  0.00000000000E+00  0.11749783383E+04  0.11749783383E+04  0.25500000920E-02 0. -1.
        2   -1    0    0  501    0  0.00000000000E+00  0.00000000000E+00 -0.26408924644E+04  0.26408924644E+04  0.25500000920E-02 0.  1.
    10030    2    1    2    0    0  0.00000000000E+00  0.00000000000E+00 -0.14659141261E+04  0.38158708027E+04  0.35230619860E+04 0.  0.
        2    1    3    3  502    0  0.37470482352E+03 -0.13058421818E+03 -0.25918548397E+04  0.26220540523E+04  0.25500000920E-02 0.  1.
       -2    1    3    3    0  502 -0.37470482352E+03  0.13058421818E+03  0.11259407137E+04  0.11938167504E+04  0.25500000920E-02 0. -1.
</event>
<event>
 5   0  0.6890600E-07  0.3644915E+04  0.7818609E-02  0.8080280E-01
       -1   -1    0    0    0  501  0.00000000000E+00  0.00000000000E+00  0.18639285930E+04  0.18639285930E+04  0.50400001928E-02 0.  1.
        1   -1    0    0  501    0  0.00000000000E+00  0.00000000000E+00 -0.17819094478E+04  0.17819094478E+04  0.50400001928E-02 0. -1.
    10030    2    1    2    0    0  0.00000000000E+00  0.00000000000E+00  0.82019145238E+02  0.36458380408E+04  0.36449153460E+04 0.  0.
        3    1    3    3  502    0  0.55393032180E+03 -0.12859408450E+04  0.12078679124E+04  0.18491694250E+04  0.10100000352E+00 0.  1.
       -3    1    3    3    0  502 -0.55393032180E+03  0.12859408450E+04 -0.11258487672E+04  0.17966686158E+04  0.10100000352E+00 0. -1.
</event>
<event>
 5   0  0.6890600E-07  0.3500092E+04  0.7818609E-02  0.8113768E-01
        1   -1    0    0  501    0  0.00000000000E+00  0.00000000000E+00  0.11278225062E+04  0.11278225062E+04  0.50400001928E-02 0.  1.
       -1   -1    0    0    0  501  0.00000000000E+00  0.00000000000E+00 -0.27155516545E+04  0.27155516545E+04  0.50400001928E-02 0. -1.
    10030    2    1    2    0    0  0.00000000000E+00  0.00000000000E+00 -0.15877291483E+04  0.38433741607E+04  0.35000915832E+04 0.  0.
        3    1    3    3  502    0  0.14315266237E+04  0.57610928879E+03  0.11262530961E+03  0.15472087311E+04  0.10100000352E+00 0.  1.
       -3    1    3    3    0  502 -0.14315266237E+04 -0.57610928879E+03 -0.17003544579E+04  0.22961654296E+04  0.10100000352E+00 0. -1.
</event>
<event>
 5   0  0.2001768E-06  0.3369495E+04  0.7818609E-02  0.8145434E-01
       -2   -1    0    0    0  501  0.00000000000E+00  0.00000000000E+00  0.13102229998E+04  0.13102229998E+04  0.25500000920E-02 0. -1.
        2   -1    0    0  501    0  0.00000000000E+00  0.00000000000E+00 -0.21663285587E+04  0.21663285587E+04  0.25500000920E-02 0.  1.
    10030    2    1    2    0    0  0.00000000000E+00  0.00000000000E+00 -0.85610555895E+03  0.34765515585E+04  0.33694946225E+04 0.  0.
        2    1    3    3  502    0  0.13097098500E+04  0.55149244584E+03 -0.13617296697E+04  0.19681949859E+04  0.25500000920E-02 0.  1.
       -2    1    3    3    0  502 -0.13097098500E+04 -0.55149244584E+03  0.50562411079E+03  0.15083565727E+04  0.25500000920E-02 0. -1.
</event>
<event>
 5   0  0.6630125E-07  0.3587283E+04  0.7818609E-02  0.8093411E-01
       -1   -1    0    0    0  501  0.00000000000E+00  0.00000000000E+00  0.12732961361E+04  0.12732961361E+04  0.50400001928E-02 0. -1.
        1   -1    0    0  501    0  0.00000000000E+00  0.00000000000E+00 -0.25266312049E+04  0.25266312049E+04  0.50400001928E-02 0.  1.
    10030    2    1    2    0    0  0.00000000000E+00  0.00000000000E+00 -0.12533350688E+04  0.37999273411E+04  0.35872829555E+04 0.  0.
        5    1    3    3  502    0  0.14568550521E+04 -0.86157685349E+03 -0.12554771772E+04  0.21073647880E+04  0.46999998093E+01 0.  1.
       -5    1    3    3    0  502 -0.14568550521E+04  0.86157685349E+03  0.21421083689E+01  0.16925625530E+04  0.46999998093E+01 0. -1.
</event>
<event>
 5   0  0.2020725E-06  0.3389850E+04  0.7818609E-02  0.8140402E-01
       -2   -1    0    0    0  501  0.00000000000E+00  0.00000000000E+00  0.27315956250E+04  0.27315956250E+04  0.25500000920E-02 0. -1.
        2   -1    0    0  501    0  0.00000000000E+00  0.00000000000E+00 -0.10516823559E+04  0.10516823559E+04  0.25500000920E-02 0.  1.
    10030    2    1    2    0    0  0.00000000000E+00  0.00000000000E+00  0.16799132690E+04  0.37832779809E+04  0.33898500984E+04 0.  0.
        3    1    3    3  502    0  0.16132889770E+04 -0.38304854127E+03  0.12319202219E+04  0.20656851046E+04  0.10100000352E+00 0.  1.
       -3    1    3    3    0  502 -0.16132889770E+04  0.38304854127E+03  0.44799304711E+03  0.17175928763E+04  0.10100000352E+00 0. -1.
</event>
<event>
 5   0  0.2020725E-06  0.3516799E+04  0.7818609E-02  0.8109820E-01
       -2   -1    0    0    0  501  0.00000000000E+00  0.00000000000E+00  0.11075801599E+04  0.11075801599E+04  0.25500000920E-02 0.  1.
        2   -1    0    0  501    0  0.00000000000E+00  0.00000000000E+00 -0.27916437818E+04  0.27916437818E+04  0.25500000920E-02 0. -1.
    10030    2    1    2    0    0  0.00000000000E+00  0.00000000000E+00 -0.16840636219E+04  0.38992239417E+04  0.35167992642E+04 0.  0.
        3    1    3    3  502    0 -0.13215118045E+04  0.91072021332E+03 -0.45460493631E+02  0.16055751066E+04  0.10100000352E+00 0. -1.
       -3    1    3    3    0  502  0.13215118045E+04 -0.91072021332E+03 -0.16386031283E+04  0.22936488351E+04  0.10100000352E+00 0.  1.
</event>
<event>
 5   0  0.2001768E-06  0.3480479E+04  0.7818609E-02  0.8118432E-01
        2   -1    0    0  501    0  0.00000000000E+00  0.00000000000E+00  0.17006202470E+04  0.17006202470E+04  0.25500000920E-02 0. -1.
       -2   -1    0    0    0  501  0.00000000000E+00  0.00000000000E+00 -0.17807815778E+04  0.17807815778E+04  0.25500000920E-02 0.  1.
    10030    2    1    2    0    0  0.00000000000E+00  0.00000000000E+00 -0.80161330739E+02  0.34814018248E+04  0.34804788215E+04 0.  0.
        2    1    3    3  502    0  0.35422718124E+03  0.16724678795E+04 -0.36544758038E+03  0.17481926776E+04  0.25500000920E-02 0.  1.
       -2    1    3    3    0  502 -0.35422718124E+03 -0.16724678795E+04  0.28528624964E+03  0.17332091473E+04  0.25500000920E-02 0. -1.
</event>
<event>
 5   0  0.6630125E-07  0.3571235E+04  0.7818609E-02  0.8097113E-01
       -1   -1    0    0    0  501  0.00000000000E+00  0.00000000000E+00  0.12440074464E+04  0.12440074464E+04  0.50400001928E-02 0. -1.
        1   -1    0    0  501    0  0.00000000000E+00  0.00000000000E+00 -0.25630309772E+04  0.25630309772E+04  0.50400001928E-02 0.  1.
    10030    2    1    2    0    0  0.00000000000E+00  0.00000000000E+00 -0.13190235308E+04  0.38070384237E+04  0.35712348683E+04 0.  0.
        4    1    3    3  502    0  0.41323307321E+03 -0.14201296279E+04  0.40699549738E+03  0.15340067408E+04  0.12699999809E+01 0. -1.
       -4    1    3    3    0  502 -0.41323307321E+03  0.14201296279E+04 -0.17260190282E+04  0.22730316829E+04  0.12699999809E+01 0.  1.
</event>
<event>
 5   0  0.2073287E-06  0.2243099E+04  0.7818609E-02  0.8500701E-01
       -2   -1    0    0    0  501  0.00000000000E+00  0.00000000000E+00  0.72905467951E+03  0.72905467952E+03  0.25500000920E-02 0. -1.
        2   -1    0    0  501    0  0.00000000000E+00  0.00000000000E+00 -0.17253476792E+04  0.17253476792E+04  0.25500000920E-02 0.  1.
    10030    2    1    2    0    0  0.00000000000E+00  0.00000000000E+00 -0.99629299967E+03  0.24544023587E+04  0.22430985705E+04 0.  0.
        1    1    3    3  502    0 -0.63146188892E+02  0.55919185307E+03  0.56339264541E+03  0.79630034700E+03  0.50400001928E-02 0. -1.
       -1    1    3    3    0  502  0.63146188892E+02 -0.55919185307E+03 -0.15596856451E+04  0.16581020117E+04  0.50400001928E-02 0.  1.
</event>
<event>
 5   0  0.2001768E-06  0.3575988E+04  0.7818609E-02  0.8096014E-01
        2   -1    0    0  501    0  0.00000000000E+00  0.00000000000E+00  0.19755819180E+04  0.19755819180E+04  0.25500000920E-02 0. -1.
       -2   -1    0    0    0  501  0.00000000000E+00  0.00000000000E+00 -0.16182179215E+04  0.16182179215E+04  0.25500000920E-02 0.  1.
    10030    2    1    2    0    0  0.00000000000E+00  0.00000000000E+00  0.35736399647E+03  0.35937998395E+04  0.35759877321E+04 0.  0.
        2    1    3    3  502    0  0.29422686025E+03  0.15702939325E+04 -0.62814290274E+03  0.17166700283E+04  0.25500000920E-02 0.  1.
       -2    1    3    3    0  502 -0.29422686025E+03 -0.15702939325E+04  0.98550689921E+03  0.18771298112E+04  0.25500000920E-02 0. -1.
</event>
<event>
 5   0  0.1999883E-06  0.3692935E+04  0.7818609E-02  0.8069529E-01
        2   -1    0    0  501    0  0.00000000000E+00  0.00000000000E+00  0.11378317832E+04  0.11378317832E+04  0.25500000920E-02 0. -1.
       -2   -1    0    0    0  501  0.00000000000E+00  0.00000000000E+00 -0.29964384375E+04  0.29964384375E+04  0.25500000920E-02 0.  1.
    10030    2    1    2    0    0  0.00000000000E+00  0.00000000000E+00 -0.18586066543E+04  0.41342702207E+04  0.36929353586E+04 0.  0.
        4    1    3    3  502    0 -0.10431500838E+04 -0.64268588786E+03  0.61717191494E+03  0.13719001542E+04  0.12699999809E+01 0. -1.
       -4    1    3    3    0  502  0.10431500838E+04  0.64268588786E+03 -0.24757785692E+04  0.27623700665E+04  0.12699999809E+01 0.  1.
</event>
<event>
 5   0  0.2020725E-06  0.3572897E+04  0.7818609E-02  0.8096728E-01
       -2   -1    0    0    0  501  0.00000000000E+00  0.00000000000E+00  0.14002986438E+04  0.14002986438E+04  0.25500000920E-02 0. -1.
        2   -1    0    0  501    0  0.00000000000E+00  0.00000000000E+00 -0.22790835562E+04  0.22790835562E+04  0.25500000920E-02 0.  1.
    10030    2    1    2    0    0  0.00000000000E+00  0.00000000000E+00 -0.87878491237E+03  0.36793822000E+04  0.35728966472E+04 0.  0.
        3    1    3    3  502    0 -0.31681863485E+02 -0.15208302798E+04  0.52525888133E+03  0.16092934422E+04  0.10100000352E+00 0. -1.
       -3    1    3    3    0  502  0.31681863485E+02  0.15208302798E+04 -0.14040437937E+04  0.20700887578E+04  0.10100000352E+00 0.  1.
</event>
<event>
 5   0  0.7378896E-07  0.3473012E+04  0.7818609E-02  0.8120216E-01
        1   -1    0    0  501    0  0.00000000000E+00  0.00000000000E+00  0.24236827359E+04  0.24236827359E+04  0.50400001928E-02 0. -1.
       -1   -1    0    0    0  501  0.00000000000E+00  0.00000000000E+00 -0.12441614238E+04  0.12441614238E+04  0.50400001928E-02 0.  1.
    10030    2    1    2    0    0  0.00000000000E+00  0.00000000000E+00  0.11795213121E+04  0.36678441597E+04  0.34730116980E+04 0.  0.
        2    1    3    3  502    0  0.57417257029E+03 -0.97295571700E+03 -0.80298351947E+03  0.13860373373E+04  0.25500000920E-02 0.  1.
       -2    1    3    3    0  502 -0.57417257029E+03  0.97295571700E+03  0.19825048316E+04  0.22818068225E+04  0.25500000920E-02 0. -1.
</event>
<event>
 5   0  0.2073287E-06  0.3533631E+04  0.7818609E-02  0.8105866E-01
        2   -1    0    0  501    0  0.00000000000E+00  0.00000000000E+00  0.22345528534E+04  0.22345528534E+04  0.25500000920E-02 0. -1.
       -2   -1    0    0    0  501  0.00000000000E+00  0.00000000000E+00 -0.13969851099E+04  0.13969851099E+04  0.25500000920E-02 0.  1.
    10030    2    1    2    0    0  0.00000000000E+00  0.00000000000E+00  0.83756774352E+03  0.36315379633E+04  0.35336310296E+04 0.  0.
        1    1    3    3  502    0 -0.31782754592E+03  0.16090615418E+04  0.10939050992E+04  0.19714770504E+04  0.50400001928E-02 0. -1.
       -1    1    3    3    0  502  0.31782754592E+03 -0.16090615418E+04 -0.25633735571E+03  0.16600609128E+04  0.50400001928E-02 0.  1.
</event>
<event>
 5   0  0.1999883E-06  0.2444754E+04  0.7818609E-02  0.8422936E-01
        2   -1    0    0  501    0  0.00000000000E+00  0.00000000000E+00  0.15541170497E+04  0.15541170497E+04  0.25500000920E-02 0.  1.
       -2   -1    0    0    0  501  0.00000000000E+00  0.00000000000E+00 -0.96144953134E+03  0.96144953135E+03  0.25500000920E-02 0. -1.
    10030    2    1    2    0    0  0.00000000000E+00  0.00000000000E+00  0.59266751839E+03  0.25155665811E+04  0.24447536556E+04 0.  0.
        4    1    3    3  502    0  0.94468597811E+03  0.18332536636E+03  0.10719331467E+04  0.14405145161E+04  0.12699999809E+01 0.  1.
       -4    1    3    3    0  502 -0.94468597811E+03 -0.18332536636E+03 -0.47926562826E+03  0.10750520650E+04  0.12699999809E+01 0. -1.
</event>
<event>
 5   0  0.6630125E-07  0.3355898E+04  0.7818609E-02  0.8148816E-01
       -1   -1    0    0    0  501  0.00000000000E+00  0.00000000000E+00  0.15783836430E+04  0.15783836430E+04  0.50400001928E-02 0.  1.
        1   -1    0    0  501    0  0.00000000000E+00  0.00000000000E+00 -0.17837947225E+04  0.17837947225E+04  0.50400001928E-02 0. -1.
    10030    2    1    2    0    0  0.00000000000E+00  0.00000000000E+00 -0.20541107948E+03  0.33621783656E+04  0.33558977413E+04 0.  0.
        1    1    3    3  502    0  0.28930212125E+03 -0.85264449916E+03  0.13158589346E+04  0.15944224958E+04  0.50400001928E-02 0.  1.
       -1    1    3    3    0  502 -0.28930212125E+03  0.85264449916E+03 -0.15212700141E+04  0.17677558698E+04  0.50400001928E-02 0. -1.
</event>
<event>
 5   0  0.7378896E-07  0.3626841E+04  0.7818609E-02  0.8084371E-01
       -1   -1    0    0    0  501  0.00000000000E+00  0.00000000000E+00  0.16759746197E+04  0.16759746198E+04  0.50400001928E-02 0.  1.
        1   -1    0    0  501    0  0.00000000000E+00  0.00000000000E+00 -0.19621378515E+04  0.19621378515E+04  0.50400001928E-02 0. -1.
    10030    2    1    2    0    0  0.00000000000E+00  0.00000000000E+00 -0.28616323175E+03  0.36381124713E+04  0.36268406304E+04 0.  0.
        2    1    3    3  502    0 -0.37843918019E+03 -0.36310638803E+02 -0.19217134270E+04  0.19589581851E+04  0.25500000920E-02 0. -1.
       -2    1    3    3    0  502  0.37843918019E+03  0.36310638803E+02  0.16355501952E+04  0.16791542861E+04  0.25500000920E-02 0.  1.
</event>
<event>
 5   0  0.6630125E-07  0.2641164E+04  0.7818609E-02  0.8354352E-01
       -1   -1    0    0    0  501  0.00000000000E+00  0.00000000000E+00  0.12484509695E+04  0.12484509695E+04  0.50400001928E-02 0. -1.
        1   -1    0    0  501    0  0.00000000000E+00  0.00000000000E+00 -0.13968801692E+04  0.13968801692E+04  0.50400001928E-02 0.  1.
    10030    2    1    2    0    0  0.00000000000E+00  0.00000000000E+00 -0.14842919971E+03  0.26453311387E+04  0.26411636840E+04 0.  0.
        5    1    3    3  502    0  0.23394663709E+03  0.51078027038E+03 -0.12712098800E+04  0.13898288250E+04  0.46999998093E+01 0.  1.
       -5    1    3    3    0  502 -0.23394663709E+03 -0.51078027038E+03  0.11227806803E+04  0.12555023137E+04  0.46999998093E+01 0. -1.
</event>
<event>
 5   0  0.6630125E-07  0.3493990E+04  0.7818609E-02  0.8115216E-01
        3   -1    0    0  501    0  0.00000000000E+00  0.00000000000E+00  0.11438747916E+04  0.11438747960E+04  0.10100000352E+00 0.  1.
       -3   -1    0    0    0  501  0.00000000000E+00  0.00000000000E+00 -0.26681162417E+04  0.26681162436E+04  0.10100000352E+00 0. -1.
    10030    2    1    2    0    0  0.00000000000E+00  0.00000000000E+00 -0.15242414501E+04  0.38119910396E+04  0.34939896520E+04 0.  0.
        4    1    3    3  502    0  0.43662052212E+03 -0.69003038306E+02 -0.26060923915E+04  0.26433157332E+04  0.12699999809E+01 0. -1.
       -4    1    3    3    0  502 -0.43662052212E+03  0.69003038306E+02  0.10818509414E+04  0.11686753064E+04  0.12699999809E+01 0.  1.
</event>
<event>
 5   0  0.6890600E-07  0.3345606E+04  0.7818609E-02  0.8151387E-01
        1   -1    0    0  501    0  0.00000000000E+00  0.00000000000E+00  0.29649201715E+04  0.29649201715E+04  0.50400001928E-02 0.  1.
       -1   -1    0    0    0  501  0.00000000000E+00  0.00000000000E+00 -0.94379285554E+03  0.94379285555E+03  0.50400001928E-02 0. -1.
    10030    2    1    2    0    0  0.00000000000E+00  0.00000000000E+00  0.20211273160E+04  0.39087130271E+04  0.33456063577E+04 0.  0.
        3    1    3    3  502    0 -0.75625644348E+03  0.13449774624E+04  0.25577398370E+03  0.15640679408E+04  0.10100000352E+00 0. -1.
       -3    1    3    3    0  502  0.75625644348E+03 -0.13449774624E+04  0.17653533323E+04  0.23446450863E+04  0.10100000352E+00 0.  1.
</event>
<event>
 5   0  0.1999883E-06  0.3320718E+04  0.7818609E-02  0.8157644E-01
       -2   -1    0    0    0  501  0.00000000000E+00  0.00000000000E+00  0.12767797264E+04  0.12767797264E+04  0.25500000920E-02 0.  1.
        2   -1    0    0  501    0  0.00000000000E+00  0.00000000000E+00 -0.21591756064E+04  0.21591756064E+04  0.25500000920E-02 0. -1.
    10030    2    1    2    0    0  0.00000000000E+00  0.00000000000E+00 -0.88239588000E+03  0.34359553328E+04  0.33207177778E+04 0.  0.
        4    1    3    3  502    0 -0.55566416501E+03  0.82235202998E+03 -0.18184662038E+04  0.20716772125E+04  0.12699999809E+01 0. -1.
       -4    1    3    3    0  502  0.55566416501E+03 -0.82235202998E+03  0.93607032380E+03  0.13642781203E+04  0.12699999809E+01 0.  1.
</event>
<event>
 5   0  0.6630125E-07  0.3541490E+04  0.7818609E-02  0.8104027E-01
       -1   -1    0    0    0  501  0.00000000000E+00  0.00000000000E+00  0.15855734216E+04  0.15855734216E+04  0.50400001928E-02 0.  1.
        1   -1    0    0  501    0  0.00000000000E+00  0.00000000000E+00 -0.19775419053E+04  0.19775419054E+04  0.50400001928E-02 0. -1.
    10030    2    1    2    0    0  0.00000000000E+00  0.00000000000E+00 -0.39196848374E+03  0.35631153270E+04  0.35414900171E+04 0.  0.
        1    1    3    3  502    0 -0.51234385925E+03 -0.13581888546E+04 -0.12162596892E+04  0.18937953497E+04  0.50400001928E-02 0. -1.
       -1    1    3    3    0  502  0.51234385925E+03  0.13581888546E+04  0.82429120549E+03  0.16693199772E+04  0.50400001928E-02 0.  1.
</event>
<event>
 5   0  0.2023479E-06  0.3300627E+04  0.7818609E-02  0.8162736E-01
        2   -1    0    0  501    0  0.00000000000E+00  0.00000000000E+00  0.17169538666E+04  0.17169538666E+04  0.25500000920E-02 0.  1.
       -2   -1    0    0    0  501  0.00000000000E+00  0.00000000000E+00 -0.15862596903E+04  0.15862596903E+04  0.25500000920E-02 0. -1.
    10030    2    1    2    0    0  0.00000000000E+00  0.00000000000E+00  0.13069417635E+03  0.33032135569E+04  0.33006270366E+04 0.  0.
        5    1    3    3  502    0  0.15780776375E+04 -0.45159755725E+03  0.23648763119E+03  0.16583780852E+04  0.46999998093E+01 0.  1.
       -5    1    3    3    0  502 -0.15780776375E+04  0.45159755725E+03 -0.10579345484E+03  0.16448354717E+04  0.46999998093E+01 0. -1.
</event>
<event>
 5   0  0.2023479E-06  0.3484933E+04  0.7818609E-02  0.8117370E-01
        2   -1    0    0  501    0  0.00000000000E+00  0.00000000000E+00  0.15116466965E+04  0.15116466965E+04  0.25500000920E-02 0. -1.
       -2   -1    0    0    0  501  0.00000000000E+00  0.00000000000E+00 -0.20085313519E+04  0.20085313519E+04  0.25500000920E-02 0.  1.
    10030    2    1    2    0    0  0.00000000000E+00  0.00000000000E+00 -0.49688465547E+03  0.35201780484E+04  0.34849331603E+04 0.  0.
        5    1    3    3  502    0  0.49209526726E+03 -0.16714924721E+04 -0.23724616277E+03  0.17585086489E+04  0.46999998093E+01 0.  1.
       -5    1    3    3    0  502 -0.49209526726E+03  0.16714924721E+04 -0.25963849269E+03  0.17616693995E+04  0.46999998093E+01 0. -1.
</event>
<event>
 5   0  0.2023479E-06  0.2947427E+04  0.7818609E-02  0.8258905E-01
        2   -1    0    0  501    0  0.00000000000E+00  0.00000000000E+00  0.18352188224E+04  0.18352188224E+04  0.25500000920E-02 0.  1.
       -2   -1    0    0    0  501  0.00000000000E+00  0.00000000000E+00 -0.11834186005E+04  0.11834186005E+04  0.25500000920E-02 0. -1.
    10030    2    1    2    0    0  0.00000000000E+00  0.00000000000E+00  0.65180022187E+03  0.30186374229E+04  0.29474274141E+04 0.  0.
        5    1    3    3  502    0  0.95290916519E+03 -0.48365527278E+03 -0.71343399368E+03  0.12849001725E+04  0.46999998093E+01 0. -1.
       -5    1    3    3    0  502 -0.95290916519E+03  0.48365527278E+03  0.13652342155E+04  0.17337372504E+04  0.46999998093E+01 0.  1.
</event>
<event>
 5   0  0.2001768E-06  0.3447848E+04  0.7818609E-02  0.8126262E-01
        2   -1    0    0  501    0  0.00000000000E+00  0.00000000000E+00  0.23761732656E+04  0.23761732656E+04  0.25500000920E-02 0.  1.
       -2   -1    0    0    0  501  0.00000000000E+00  0.00000000000E+00 -0.12507140221E+04  0.12507140221E+04  0.25500000920E-02 0. -1.
    10030    2    1    2    0    0  0.00000000000E+00  0.00000000000E+00  0.11254592434E+04  0.36268872877E+04  0.34478475734E+04 0.  0.
        2    1    3    3  502    0  0.41826297603E+03  0.11806176400E+04 -0.68331060051E+03  0.14267849543E+04  0.25500000920E-02 0. -1.
       -2    1    3    3    0  502 -0.41826297603E+03 -0.11806176400E+04  0.18087698439E+04  0.22001023334E+04  0.25500000920E-02 0.  1.
</event>
<event>
 5   0  0.6630125E-07  0.2513971E+04  0.7818609E-02  0.8398025E-01
       -1   -1    0    0    0  501  0.00000000000E+00  0.00000000000E+00  0.86562520282E+03  0.86562520283E+03  0.50400001928E-02 0.  1.
        1   -1    0    0  501    0  0.00000000000E+00  0.00000000000E+00 -0.18252846657E+04  0.18252846657E+04  0.50400001928E-02 0. -1.
    10030    2    1    2    0    0  0.00000000000E+00  0.00000000000E+00 -0.95965946285E+03  0.26909098685E+04  0.25139708900E+04 0.  0.
        4    1    3    3  502    0 -0.51119161349E+03  0.98571356725E+02 -0.17044600781E+04  0.17821949806E+04  0.12699999809E+01 0. -1.
       -4    1    3    3    0  502  0.51119161349E+03 -0.98571356725E+02  0.74480061528E+03  0.90871488790E+03  0.12699999809E+01 0.  1.
</event>
<event>
 5   0  0.2073287E-06  0.3554625E+04  0.7818609E-02  0.8100965E-01
       -2   -1    0    0    0  501  0.00000000000E+00  0.00000000000E+00  0.17003680650E+04  0.17003680650E+04  0.25500000920E-02 0. -1.
        2   -1    0    0  501    0  0.00000000000E+00  0.00000000000E+00 -0.18577387706E+04  0.18577387706E+04  0.25500000920E-02 0.  1.
    10030    2    1    2    0    0  0.00000000000E+00  0.00000000000E+00 -0.15737070563E+03  0.35581068356E+04  0.35546249753E+04 0.  0.
        1    1    3    3  502    0  0.10514303268E+02 -0.14497905848E+04  0.95034710900E+03  0.17335405729E+04  0.50400001928E-02 0. -1.
       -1    1    3    3    0  502 -0.10514303268E+02  0.14497905848E+04 -0.11077178146E+04  0.18245662627E+04  0.50400001928E-02 0.  1.
</event>
<event>
 5   0  0.2023479E-06  0.3541444E+04  0.7818609E-02  0.8104038E-01
        2   -1    0    0  501    0  0.00000000000E+00  0.00000000000E+00  0.17380167890E+04  0.17380167890E+04  0.25500000920E-02 0.  1.
       -2   -1    0    0    0  501  0.00000000000E+00  0.00000000000E+00 -0.18040428500E+04  0.18040428500E+04  0.25500000920E-02 0. -1.
    10030    2    1    2    0    0  0.00000000000E+00  0.00000000000E+00 -0.66026061031E+02  0.35420596391E+04  0.35414442034E+04 0.  0.
        5    1    3    3  502    0  0.15265507726E+03  0.63458873692E+03  0.16133071115E+04  0.17403414503E+04  0.46999998093E+01 0.  1.
       -5    1    3    3    0  502 -0.15265507726E+03 -0.63458873692E+03 -0.16793331725E+04  0.18017181888E+04  0.46999998093E+01 0. -1.
</event>
<event>
 5   0  0.1999883E-06  0.3446493E+04  0.7818609E-02  0.8126589E-01
       -2   -1    0    0    0  501  0.00000000000E+00  0.00000000000E+00  0.14983744637E+04  0.14983744637E+04  0.25500000920E-02 0.  1.
        2   -1    0    0  501    0  0.00000000000E+00  0.00000000000E+00 -0.19818667628E+04  0.19818667628E+04  0.25500000920E-02 0. -1.
    10030    2    1    2    0    0  0.00000000000E+00  0.00000000000E+00 -0.48349229914E+03  0.34802412265E+04  0.34464930279E+04 0.  0.
        4    1    3    3  502    0  0.16374755976E+04 -0.37091120210E+03  0.15022421988E+03  0.16856661537E+04  0.12699999809E+01 0.  1.
       -4    1    3    3    0  502 -0.16374755976E+04  0.37091120210E+03 -0.63371651902E+03  0.17945750728E+04  0.12699999809E+01 0. -1.
</event>
<event>
 5   0  0.2020725E-06  0.3408188E+04  0.7818609E-02  0.8135900E-01
       -2   -1    0    0    0  501  0.00000000000E+00  0.00000000000E+00  0.33273245597E+04  0.33273245598E+04  0.25500000920E-02 0.  1.
        2   -1    0    0  501    0  0.00000000000E+00  0.00000000000E+00 -0.87275428321E+03  0.87275428321E+03  0.25500000920E-02 0. -1.
    10030    2    1    2    0    0  0.00000000000E+00  0.00000000000E+00  0.24545702765E+04  0.42000788430E+04  0.34081882349E+04 0.  0.
        3    1    3    3  502    0  0.23723308885E+03 -0.10668230247E+04 -0.38400684421E+03  0.11583834300E+04  0.10100000352E+00 0. -1.
       -3    1    3    3    0  502 -0.23723308885E+03  0.10668230247E+04  0.28385771207E+04  0.30416954129E+04  0.10100000352E+00 0.  1.
</event>
<event>
 5   0  0.2023479E-06  0.3445112E+04  0.7818609E-02  0.8126922E-01
       -2   -1    0    0    0  501  0.00000000000E+00  0.00000000000E+00  0.19950798967E+04  0.19950798967E+04  0.25500000920E-02 0.  1.
        2   -1    0    0  501    0  0.00000000000E+00  0.00000000000E+00 -0.14872582852E+04  0.14872582852E+04  0.25500000920E-02 0. -1.
    10030    2    1    2    0    0  0.00000000000E+00  0.00000000000E+00  0.50782161157E+03  0.34823381819E+04  0.34451119610E+04 0.  0.
        5    1    3    3  502    0 -0.31509506758E+03 -0.52819746720E+03 -0.13724811001E+04  0.15039959861E+04  0.46999998093E+01 0. -1.
       -5    1    3    3    0  502  0.31509506758E+03  0.52819746720E+03  0.18803027117E+04  0.19783421958E+04  0.46999998093E+01 0.  1.
</event>
<event>
 5   0  0.6630125E-07  0.3586993E+04  0.7818609E-02  0.8093478E-01
       -1   -1    0    0    0  501  0.00000000000E+00  0.00000000000E+00  0.12106767350E+04  0.12106767350E+04  0.50400001928E-02 0. -1.
        1   -1    0    0  501    0  0.00000000000E+00  0.00000000000E+00 -0.26568852034E+04  0.26568852034E+04  0.50400001928E-02 0.  1.
    10030    2    1    2    0    0  0.00000000000E+00  0.00000000000E+00 -0.14462084684E+04  0.38675619384E+04  0.35869926698E+04 0.  0.
        4    1    3    3  502    0 -0.10988332276E+04 -0.43609225552E+03  0.73109903407E+03  0.13900065928E+04  0.12699999809E+01 0. -1.
       -4    1    3    3    0  502  0.10988332276E+04  0.43609225552E+03 -0.21773075024E+04  0.24775553456E+04  0.12699999809E+01 0.  1.
</event>
<event>
 5   0  0.6890600E-07  0.3504666E+04  0.7818609E-02  0.8112685E-01
       -1   -1    0    0    0  501  0.00000000000E+00  0.00000000000E+00  0.12874337035E+04  0.12874337035E+04  0.50400001928E-02 0. -1.
        1   -1    0    0  501    0  0.00000000000E+00  0.00000000000E+00 -0.23851094158E+04  0.23851094158E+04  0.50400001928E-02 0.  1.
    10030    2    1    2    0    0  0.00000000000E+00  0.00000000000E+00 -0.10976757123E+04  0.36725431192E+04  0.35046656036E+04 0.  0.
        3    1    3    3  502    0  0.86606819556E+03  0.14481199405E+04 -0.10442909688E+04  0.19843560969E+04  0.10100000352E+00 0.  1.
       -3    1    3    3    0  502 -0.86606819556E+03 -0.14481199405E+04 -0.53384743471E+02  0.16881870224E+04  0.10100000352E+00 0. -1.
</event>
<event>
 5   0  0.6630125E-07  0.3475758E+04  0.7818609E-02  0.8119559E-01
        1   -1    0    0  501    0  0.00000000000E+00  0.00000000000E+00  0.18402486218E+04  0.18402486218E+04  0.50400001928E-02 0.  1.
       -1   -1    0    0    0  501  0.00000000000E+00  0.00000000000E+00 -0.16412035387E+04  0.16412035387E+04  0.50400001928E-02 0. -1.
    10030    2    1    2    0    0  0.00000000000E+00  0.00000000000E+00  0.19904508307E+03  0.34814521605E+04  0.34757575003E+04 0.  0.
        5    1    3    3  502    0  0.30190731097E+03 -0.26292877523E+03 -0.15943782603E+04  0.16438806806E+04  0.46999998093E+01 0. -1.
       -5    1    3    3    0  502 -0.30190731097E+03  0.26292877523E+03  0.17934233433E+04  0.18375714799E+04  0.46999998093E+01 0.  1.
</event>
<event>
 5   0  0.2073287E-06  0.3498921E+04  0.7818609E-02  0.8114046E-01
       -2   -1    0    0    0  501  0.00000000000E+00  0.00000000000E+00  0.17137939749E+04  0.17137939749E+04  0.25500000920E-02 0. -1.
        2   -1    0    0  501    0  0.00000000000E+00  0.00000000000E+00 -0.17858688796E+04  0.17858688796E+04  0.25500000920E-02 0.  1.
    10030    2    1    2    0    0  0.00000000000E+00  0.00000000000E+00 -0.72074904658E+02  0.34996628545E+04  0.34989205912E+04 0.  0.
        1    1    3    3  502    0  0.15376848711E+04 -0.70492322055E+03  0.41039770561E+03  0.17406371783E+04  0.50400001928E-02 0. -1.
       -1    1    3    3    0  502 -0.15376848711E+04  0.70492322055E+03 -0.48247261027E+03  0.17590256762E+04  0.50400001928E-02 0.  1.
</event>
<event>
 5   0  0.2023479E-06  0.3581343E+04  0.7818609E-02  0.8094779E-01
       -2   -1    0    0    0  501  0.00000000000E+00  0.00000000000E+00  0.12274185397E+04  0.12274185397E+04  0.25500000920E-02 0. -1.
        2   -1    0    0  501    0  0.00000000000E+00  0.00000000000E+00 -0.26123969644E+04  0.26123969644E+04  0.25500000920E-02 0.  1.
    10030    2    1    2    0    0  0.00000000000E+00  0.00000000000E+00 -0.13849784247E+04  0.38398155042E+04  0.35813430259E+04 0.  0.
        5    1    3    3  502    0 -0.10088181867E+04  0.14584631444E+04 -0.42626760257E+03  0.18238846006E+04  0.46999998093E+01 0.  1.
       -5    1    3    3    0  502  0.10088181867E+04 -0.14584631444E+04 -0.95871082213E+03  0.20159309035E+04  0.46999998093E+01 0. -1.
</event>
<event>
 5   0  0.6630125E-07  0.2573260E+04  0.7818609E-02  0.8377341E-01
       -1   -1    0    0    0  501  0.00000000000E+00  0.00000000000E+00  0.97623090039E+03  0.97623090041E+03  0.50400001928E-02 0.  1.
        1   -1    0    0  501    0  0.00000000000E+00  0.00000000000E+00 -0.16957223600E+04  0.16957223600E+04  0.50400001928E-02 0. -1.
    10030    2    1    2    0    0  0.00000000000E+00  0.00000000000E+00 -0.71949145956E+03  0.26719532604E+04  0.25732598519E+04 0.  0.
        5    1    3    3  502    0  0.55922272809E+03  0.31394850845E+03 -0.15179175367E+04  0.16478438833E+04  0.46999998093E+01 0. -1.
       -5    1    3    3    0  502 -0.55922272809E+03 -0.31394850845E+03  0.79842607712E+03  0.10241093771E+04  0.46999998093E+01 0.  1.
</event>
<event>
 5   0  0.6630125E-07  0.3604985E+04  0.7818609E-02  0.8089351E-01
       -1   -1    0    0    0  501  0.00000000000E+00  0.00000000000E+00  0.13294020238E+04  0.13294020238E+04  0.50400001928E-02 0.  1.
        1   -1    0    0  501    0  0.00000000000E+00  0.00000000000E+00 -0.24439407555E+04  0.24439407555E+04  0.50400001928E-02 0. -1.
    10030    2    1    2    0    0  0.00000000000E+00  0.00000000000E+00 -0.11145387317E+04  0.37733427793E+04  0.36049853184E+04 0.  0.
        1    1    3    3  502    0  0.55145023761E+03  0.54313974455E+03 -0.22611375636E+04  0.23899458631E+04  0.50400001928E-02 0. -1.
       -1    1    3    3    0  502 -0.55145023761E+03 -0.54313974455E+03  0.11465988319E+04  0.13833969163E+04  0.50400001928E-02 0.  1.
</event>
<event>
 5   0  0.2001768E-06  0.3402311E+04  0.7818609E-02  0.8137339E-01
       -2   -1    0    0    0  501  0.00000000000E+00  0.00000000000E+00  0.14570605876E+04  0.14570605876E+04  0.25500000920E-02 0. -1.
        2   -1    0    0  501    0  0.00000000000E+00  0.00000000000E+00 -0.19861427344E+04  0.19861427344E+04  0.25500000920E-02 0.  1.
    10030    2    1    2    0    0  0.00000000000E+00  0.00000000000E+00 -0.52908214683E+03  0.34432033219E+04  0.34023111554E+04 0.  0.
        2    1    3    3  502    0 -0.12668330170E+04 -0.10207078857E+04  0.23864693321E+03  0.16442818614E+04  0.25500000920E-02 0. -1.
       -2    1    3    3    0  502  0.12668330170E+04  0.10207078857E+04 -0.76772908004E+03  0.17989214606E+04  0.25500000920E-02 0.  1.
</event>
<event>
 5   0  0.6630125E-07  0.3342387E+04  0.7818609E-02  0.8152193E-01
       -1   -1    0    0    0  501  0.00000000000E+00  0.00000000000E+00  0.14073430011E+04  0.14073430011E+04  0.50400001928E-02 0.  1.
        1   -1    0    0  501    0  0.00000000000E+00  0.00000000000E+00 -0.19845112409E+04  0.19845112409E+04  0.50400001928E-02 0. -1.
    10030    2    1    2    0    0  0.00000000000E+00  0.00000000000E+00 -0.57716823975E+03  0.33918542420E+04  0.33423871742E+04 0.  0.
        1    1    3    3  502    0 -0.15329888499E+04  0.50752457406E+03 -0.72536324677E+03  0.17702507864E+04  0.50400001928E-02 0. -1.
       -1    1    3    3    0  502  0.15329888499E+04 -0.50752457406E+03  0.14819500703E+03  0.16216034556E+04  0.50400001928E-02 0.  1.
</event>
<event>
 5   0  0.1999883E-06  0.3515373E+04  0.7818609E-02  0.8110156E-01
       -2   -1    0    0    0  501  0.00000000000E+00  0.00000000000E+00  0.18864187429E+04  0.18864187429E+04  0.25500000920E-02 0.  1.
        2   -1    0    0  501    0  0.00000000000E+00  0.00000000000E+00 -0.16377387498E+04  0.16377387498E+04  0.25500000920E-02 0. -1.
    10030    2    1    2    0    0  0.00000000000E+00  0.00000000000E+00  0.24867999314E+03  0.35241574927E+04  0.35153725684E+04 0.  0.
        4    1    3    3  502    0 -0.84443377944E+03 -0.54238923560E+02  0.16687902303E+04  0.18710619216E+04  0.12699999809E+01 0.  1.
       -4    1    3    3    0  502  0.84443377944E+03  0.54238923560E+02 -0.14201102372E+04  0.16530955711E+04  0.12699999809E+01 0. -1.
</event>
<event>
 5   0  0.2073287E-06  0.3450638E+04  0.7818609E-02  0.8125589E-01
        2   -1    0    0  501    0  0.00000000000E+00  0.00000000000E+00  0.17000856750E+04  0.17000856750E+04  0.25500000920E-02 0.  1.
       -2   -1    0    0    0  501  0.00000000000E+00  0.00000000000E+00 -0.17509271648E+04  0.17509271648E+04  0.25500000920E-02 0. -1.
    10030    2    1    2    0    0  0.00000000000E+00  0.00000000000E+00 -0.50841489789E+02  0.34510128398E+04  0.34506383124E+04 0.  0.
        1    1    3    3  502    0 -0.56111434719E+03  0.77204411335E+03 -0.14628744780E+04  0.17466834751E+04  0.50400001928E-02 0. -1.
       -1    1    3    3    0  502  0.56111434719E+03 -0.77204411335E+03  0.14120329882E+04  0.17043293647E+04  0.50400001928E-02 0.  1.
</event>
<event>
 5   0  0.2023479E-06  0.3527467E+04  0.7818609E-02  0.8107311E-01
        2   -1    0    0  501    0  0.00000000000E+00  0.00000000000E+00  0.16881173844E+04  0.16881173844E+04  0.25500000920E-02 0.  1.
       -2   -1    0    0    0  501  0.00000000000E+00  0.00000000000E+00 -0.18427362065E+04  0.18427362065E+04  0.25500000920E-02 0. -1.
    10030    2    1    2    0    0  0.00000000000E+00  0.00000000000E+00 -0.15461882210E+03  0.35308535909E+04  0.35274665272E+04 0.  0.
        5    1    3    3  502    0 -0.13523542267E+04 -0.25305651822E+03  0.10273051020E+04  0.17170548677E+04  0.46999998093E+01 0.  1.
       -5    1    3    3    0  502  0.13523542267E+04  0.25305651822E+03 -0.11819239241E+04  0.18137987232E+04  0.46999998093E+01 0. -1.
</event>
<event>
 5   0  0.6630125E-07  0.3511069E+04  0.7818609E-02  0.8111172E-01
        1   -1    0    0  501    0  0.00000000000E+00  0.00000000000E+00  0.15709973365E+04  0.15709973365E+04  0.50400001928E-02 0.  1.
       -1   -1    0    0    0  501  0.00000000000E+00  0.00000000000E+00 -0.19617485839E+04  0.19617485839E+04  0.50400001928E-02 0. -1.
    10030    2    1    2    0    0  0.00000000000E+00  0.00000000000E+00 -0.39075124742E+03  0.35327459204E+04  0.35110692390E+04 0.  0.
        1    1    3    3  502    0  0.15748529333E+04  0.16821071513E+03 -0.95731245634E+03  0.18506495469E+04  0.50400001928E-02 0.  1.
       -1    1    3    3    0  502 -0.15748529333E+04 -0.16821071513E+03  0.56656120893E+03  0.16820963735E+04  0.50400001928E-02 0. -1.
</event>
<event>
 5   0  0.6630125E-07  0.3629417E+04  0.7818609E-02  0.8083786E-01
       -1   -1    0    0    0  501  0.00000000000E+00  0.00000000000E+00  0.14859587950E+04  0.14859587951E+04  0.50400001928E-02 0.  1.
        1   -1    0    0  501    0  0.00000000000E+00  0.00000000000E+00 -0.22161905073E+04  0.22161905073E+04  0.50400001928E-02 0. -1.
    10030    2    1    2    0    0  0.00000000000E+00  0.00000000000E+00 -0.73023171221E+03  0.37021493023E+04  0.36294174606E+04 0.  0.
        5    1    3    3  502    0  0.14129119809E+04 -0.96321040637E+03 -0.98478557829E+03  0.19733016186E+04  0.46999998093E+01 0.  1.
       -5    1    3    3    0  502 -0.14129119809E+04  0.96321040637E+03  0.25455386607E+03  0.17288476837E+04  0.46999998093E+01 0. -1.
</event>
<event>
 5   0  0.1999883E-06  0.2716199E+04  0.7818609E-02  0.8329768E-01
       -2   -1    0    0    0  501  0.00000000000E+00  0.00000000000E+00  0.73035629027E+03  0.73035629027E+03  0.25500000920E-02 0.  1.
        2   -1    0    0  501    0  0.00000000000E+00  0.00000000000E+00 -0.25253902487E+04  0.25253902487E+04  0.25500000920E-02 0. -1.
    10030    2    1    2    0    0  0.00000000000E+00  0.00000000000E+00 -0.17950339584E+04  0.32557465390E+04  0.27161992957E+04 0.  0.
        4    1    3    3  502    0  0.10240664151E+03 -0.10057548722E+04 -0.19845214076E+04  0.22271858506E+04  0.12699999809E+01 0. -1.
       -4    1    3    3    0  502 -0.10240664151E+03  0.10057548722E+04  0.18948744915E+03  0.10285606883E+04  0.12699999809E+01 0.  1.
</event>
<event>
 5   0  0.6630125E-07  0.3520172E+04  0.7818609E-02  0.8109026E-01
        1   -1    0    0  501    0  0.00000000000E+00  0.00000000000E+00  0.92137907953E+03  0.92137907954E+03  0.50400001928E-02 0. -1.
       -1   -1    0    0    0  501  0.00000000000E+00  0.00000000000E+00 -0.33622463885E+04  0.33622463885E+04  0.50400001928E-02 0.  1.
    10030    2    1    2    0    0  0.00000000000E+00  0.00000000000E+00 -0.24408673090E+04  0.42836254680E+04  0.35201724291E+04 0.  0.
        4    1    3    3  502    0 -0.70996240678E+03  0.95915144317E+03  0.35394866079E+03  0.12447085512E+04  0.12699999809E+01 0. -1.
       -4    1    3    3    0  502  0.70996240678E+03 -0.95915144317E+03 -0.27948159698E+04  0.30389169169E+04  0.12699999809E+01 0.  1.
</event>
<event>
 5   0  0.1999883E-06  0.2874391E+04  0.7818609E-02  0.8280538E-01
        2   -1    0    0  501    0  0.00000000000E+00  0.00000000000E+00  0.18116561642E+04  0.18116561642E+04  0.25500000920E-02 0.  1.
       -2   -1    0    0    0  501  0.00000000000E+00  0.00000000000E+00 -0.11401343187E+04  0.11401343188E+04  0.25500000920E-02 0. -1.
    10030    2    1    2    0    0  0.00000000000E+00  0.00000000000E+00  0.67152184544E+03  0.29517904829E+04  0.28743913210E+04 0.  0.
        4    1    3    3  502    0  0.96284517836E+02  0.38609297344E+03  0.17539585660E+04  0.17985301656E+04  0.12699999809E+01 0.  1.
       -4    1    3    3    0  502 -0.96284517836E+02 -0.38609297344E+03 -0.10824367206E+04  0.11532603173E+04  0.12699999809E+01 0. -1.
</event>
<event>
 5   0  0.7378896E-07  0.3489123E+04  0.7818609E-02  0.8116372E-01
        1   -1    0    0  501    0  0.00000000000E+00  0.00000000000E+00  0.10007563723E+04  0.10007563723E+04  0.50400001928E-02 0.  1.
       -1   -1    0    0    0  501  0.00000000000E+00  0.00000000000E+00 -0.30411953037E+04  0.30411953037E+04  0.50400001928E-02 0. -1.
    10030    2    1    2    0    0  0.00000000000E+00  0.00000000000E+00 -0.20404389314E+04  0.40419516760E+04  0.34891234313E+04 0.  0.
        2    1    3    3  502    0  0.57870630069E+03  0.11282777305E+04  0.36777930753E+03  0.13202928609E+04  0.25500000920E-02 0.  1.
       -2    1    3    3    0  502 -0.57870630069E+03 -0.11282777305E+04 -0.24082182389E+04  0.27216588151E+04  0.25500000920E-02 0. -1.
</event>
<event>
 5   0  0.2073287E-06  0.3026027E+04  0.7818609E-02  0.8236337E-01
        2   -1    0    0  501    0  0.00000000000E+00  0.00000000000E+00  0.19395983801E+04  0.19395983801E+04  0.25500000920E-02 0.  1.
       -2   -1    0    0    0  501  0.00000000000E+00  0.00000000000E+00 -0.11802497572E+04  0.11802497572E+04  0.25500000920E-02 0. -1.
    10030    2    1    2    0    0  0.00000000000E+00  0.00000000000E+00  0.75934862296E+03  0.31198481373E+04  0.30260274402E+04 0.  0.
        1    1    3    3  502    0 -0.11122685689E+04  0.97642718541E+03  0.55835299173E+02  0.14811039796E+04  0.50400001928E-02 0. -1.
       -1    1    3    3    0  502  0.11122685689E+04 -0.97642718541E+03  0.70351332379E+03  0.16387441577E+04  0.50400001928E-02 0.  1.
</event>
<event>
 5   0  0.6890600E-07  0.2931718E+04  0.7818609E-02  0.8263503E-01
        1   -1    0    0  501    0  0.00000000000E+00  0.00000000000E+00  0.14071709677E+04  0.14071709677E+04  0.50400001928E-02 0.  1.
       -1   -1    0    0    0  501  0.00000000000E+00  0.00000000000E+00 -0.15269945911E+04  0.15269945911E+04  0.50400001928E-02 0. -1.
    10030    2    1    2    0    0  0.00000000000E+00  0.00000000000E+00 -0.11982362343E+03  0.29341655588E+04  0.29317178967E+04 0.  0.
        3    1    3    3  502    0  0.14077731099E+03  0.67340783002E+02  0.13988335937E+04  0.14075114442E+04  0.10100000352E+00 0.  1.
       -3    1    3    3    0  502 -0.14077731099E+03 -0.67340783002E+02 -0.15186572171E+04  0.15266541146E+04  0.10100000352E+00 0. -1.
</event>
<event>
 5   0  0.6630125E-07  0.3453897E+04  0.7818609E-02  0.8124804E-01
        1   -1    0    0  501    0  0.00000000000E+00  0.00000000000E+00  0.21072663557E+04  0.21072663557E+04  0.50400001928E-02 0.  1.
       -1   -1    0    0    0  501  0.00000000000E+00  0.00000000000E+00 -0.14152700450E+04  0.14152700450E+04  0.50400001928E-02 0. -1.
    10030    2    1    2    0    0  0.00000000000E+00  0.00000000000E+00  0.69199631069E+03  0.35225364007E+04  0.34538969007E+04 0.  0.
        1    1    3    3  502    0 -0.34955398716E+03 -0.16335336822E+04 -0.10057428122E+03  0.16735398015E+04  0.50400001928E-02 0. -1.
       -1    1    3    3    0  502  0.34955398716E+03  0.16335336822E+04  0.79257059191E+03  0.18489965993E+04  0.50400001928E-02 0.  1.
</event>
<event>
 5   0  0.6890600E-07  0.3486443E+04  0.7818609E-02  0.8117010E-01
       -1   -1    0    0    0  501  0.00000000000E+00  0.00000000000E+00  0.13286246912E+04  0.13286246912E+04  0.50400001928E-02 0.  1.
        1   -1    0    0  501    0  0.00000000000E+00  0.00000000000E+00 -0.22871933905E+04  0.22871933905E+04  0.50400001928E-02 0. -1.
    10030    2    1    2    0    0  0.00000000000E+00  0.00000000000E+00 -0.95856869937E+03  0.36158180817E+04  0.34864432376E+04 0.  0.
        3    1    3    3  502    0  0.21515658721E+03  0.94702787959E+03  0.10220767403E+04  0.14098918523E+04  0.10100000352E+00 0.  1.
       -3    1    3    3    0  502 -0.21515658721E+03 -0.94702787959E+03 -0.19806454397E+04  0.22059262295E+04  0.10100000352E+00 0. -1.
</event>
<event>
 5   0  0.2020725E-06  0.3524745E+04  0.7818609E-02  0.8107951E-01
        2   -1    0    0  501    0  0.00000000000E+00  0.00000000000E+00  0.18435650942E+04  0.18435650942E+04  0.25500000920E-02 0.  1.
       -2   -1    0    0    0  501  0.00000000000E+00  0.00000000000E+00 -0.16847559565E+04  0.16847559565E+04  0.25500000920E-02 0. -1.
    10030    2    1    2    0    0  0.00000000000E+00  0.00000000000E+00  0.15880913768E+03  0.35283210507E+04  0.35247452524E+04 0.  0.
        3    1    3    3  502    0 -0.69028734881E+02  0.17379480718E+04  0.36382094706E+03  0.17769620587E+04  0.10100000352E+00 0.  1.
       -3    1    3    3    0  502  0.69028734881E+02 -0.17379480718E+04 -0.20501180937E+03  0.17513589919E+04  0.10100000352E+00 0. -1.
</event>
<event>
 5   0  0.2001768E-06  0.3527075E+04  0.7818609E-02  0.8107403E-01
       -2   -1    0    0    0  501  0.00000000000E+00  0.00000000000E+00  0.15765669976E+04  0.15765669976E+04  0.25500000920E-02 0.  1.
        2   -1    0    0  501    0  0.00000000000E+00  0.00000000000E+00 -0.19726813776E+04  0.19726813776E+04  0.25500000920E-02 0. -1.
    10030    2    1    2    0    0  0.00000000000E+00  0.00000000000E+00 -0.39611437998E+03  0.35492483752E+04  0.35270749109E+04 0.  0.
        2    1    3    3  502    0  0.11195697819E+04 -0.12393055757E+04  0.37185078795E+03  0.17110195250E+04  0.25500000920E-02 0.  1.
       -2    1    3    3    0  502 -0.11195697819E+04  0.12393055757E+04 -0.76796516793E+03  0.18382288502E+04  0.25500000920E-02 0. -1.
</event>
<event>
 5   0  0.6630125E-07  0.3177125E+04  0.7818609E-02  0.8194885E-01
        1   -1    0    0  501    0  0.00000000000E+00  0.00000000000E+00  0.22073594646E+04  0.22073594646E+04  0.50400001928E-02 0.  1.
       -1   -1    0    0    0  501  0.00000000000E+00  0.00000000000E+00 -0.11432352411E+04  0.11432352411E+04  0.50400001928E-02 0. -1.
    10030    2    1    2    0    0  0.00000000000E+00  0.00000000000E+00  0.10641242235E+04  0.33505947056E+04  0.31771251971E+04 0.  0.
        4    1    3    3  502    0 -0.51513931606E+03 -0.32348229233E+02 -0.10523362090E+04  0.11721041048E+04  0.12699999809E+01 0. -1.
       -4    1    3    3    0  502  0.51513931606E+03  0.32348229233E+02  0.21164604325E+04  0.21784906008E+04  0.12699999809E+01 0.  1.
</event>
<event>
 5   0  0.1999883E-06  0.2727568E+04  0.7818609E-02  0.8326115E-01
       -2   -1    0    0    0  501  0.00000000000E+00  0.00000000000E+00  0.16413252452E+04  0.16413252452E+04  0.25500000920E-02 0. -1.
        2   -1    0    0  501    0  0.00000000000E+00  0.00000000000E+00 -0.11331740959E+04  0.11331740959E+04  0.25500000920E-02 0.  1.
    10030    2    1    2    0    0  0.00000000000E+00  0.00000000000E+00  0.50815114929E+03  0.27744993410E+04  0.27275683315E+04 0.  0.
        4    1    3    3  502    0 -0.12795309803E+04  0.46688879204E+03  0.32396707056E+03  0.14000503382E+04  0.12699999809E+01 0.  1.
       -4    1    3    3    0  502  0.12795309803E+04 -0.46688879204E+03  0.18418407873E+03  0.13744490029E+04  0.12699999809E+01 0. -1.
</event>
<event>
 5   0  0.2023479E-06  0.3501697E+04  0.7818609E-02  0.8113388E-01
       -2   -1    0    0    0  501  0.00000000000E+00  0.00000000000E+00  0.15824861046E+04  0.15824861046E+04  0.25500000920E-02 0. -1.
        2   -1    0    0  501    0  0.00000000000E+00  0.00000000000E+00 -0.19371232434E+04  0.19371232434E+04  0.25500000920E-02 0.  1.
    10030    2    1    2    0    0  0.00000000000E+00  0.00000000000E+00 -0.35463713875E+03  0.35196093480E+04  0.35016970832E+04 0.  0.
        5    1    3    3  502    0 -0.32105273098E+03 -0.67381049779E+03  0.14145610500E+04  0.15994062952E+04  0.46999998093E+01 0. -1.
       -5    1    3    3    0  502  0.32105273098E+03  0.67381049779E+03 -0.17691981887E+04  0.19202030528E+04  0.46999998093E+01 0.  1.
</event>
<event>
 5   0  0.6630125E-07  0.3495818E+04  0.7818609E-02  0.8114782E-01
       -1   -1    0    0    0  501  0.00000000000E+00  0.00000000000E+00  0.18130449202E+04  0.18130449202E+04  0.50400001928E-02 0. -1.
        1   -1    0    0  501    0  0.00000000000E+00  0.00000000000E+00 -0.16851133840E+04  0.16851133840E+04  0.50400001928E-02 0.  1.
    10030    2    1    2    0    0  0.00000000000E+00  0.00000000000E+00  0.12793153625E+03  0.34981583042E+04  0.34958182223E+04 0.  0.
        4    1    3    3  502    0  0.14557193526E+04  0.96699028837E+03  0.95539966897E+02  0.17502338556E+04  0.12699999809E+01 0.  1.
       -4    1    3    3    0  502 -0.14557193526E+04 -0.96699028837E+03  0.32391569357E+02  0.17479244486E+04  0.12699999809E+01 0. -1.
</event>
<event>
 5   0  0.2073287E-06  0.3580774E+04  0.7818609E-02  0.8094910E-01
       -2   -1    0    0    0  501  0.00000000000E+00  0.00000000000E+00  0.11687805318E+04  0.11687805318E+04  0.25500000920E-02 0. -1.
        2   -1    0    0  501    0  0.00000000000E+00  0.00000000000E+00 -0.27425900226E+04  0.27425900226E+04  0.25500000920E-02 0.  1.
    10030    2    1    2    0    0  0.00000000000E+00  0.00000000000E+00 -0.15738094908E+04  0.39113705544E+04  0.35807741203E+04 0.  0.
        1    1    3    3  502    0  0.55486326370E+03  0.16717274392E+04 -0.43644025758E+03  0.18146696589E+04  0.50400001928E-02 0.  1.
       -1    1    3    3    0  502 -0.55486326370E+03 -0.16717274392E+04 -0.11373692332E+04  0.20967008955E+04  0.50400001928E-02 0. -1.
</event>
<event>
 5   0  0.6630125E-07  0.3479504E+04  0.7818609E-02  0.8118664E-01
        1   -1    0    0  501    0  0.00000000000E+00  0.00000000000E+00  0.27615514908E+04  0.27615514908E+04  0.50400001928E-02 0. -1.
       -1   -1    0    0    0  501  0.00000000000E+00  0.00000000000E+00 -0.10960277576E+04  0.10960277577E+04  0.50400001928E-02 0.  1.
    10030    2    1    2    0    0  0.00000000000E+00  0.00000000000E+00  0.16655237331E+04  0.38575792484E+04  0.34795040383E+04 0.  0.
        1    1    3    3  502    0 -0.50903494162E+03 -0.11004412944E+04 -0.55046344193E+03  0.13315771158E+04  0.50400001928E-02 0.  1.
       -1    1    3    3    0  502  0.50903494162E+03  0.11004412944E+04  0.22159871750E+04  0.25260021327E+04  0.50400001928E-02 0. -1.
</event>
<event>
 5   0  0.2073287E-06  0.3479891E+04  0.7818609E-02  0.8118572E-01
        2   -1    0    0  501    0  0.00000000000E+00  0.00000000000E+00  0.23801658198E+04  0.23801658198E+04  0.25500000920E-02 0.  1.
       -2   -1    0    0    0  501  0.00000000000E+00  0.00000000000E+00 -0.12719323893E+04  0.12719323893E+04  0.25500000920E-02 0. -1.
    10030    2    1    2    0    0  0.00000000000E+00  0.00000000000E+00  0.11082334305E+04  0.36520982091E+04  0.34798908018E+04 0.  0.
        1    1    3    3  502    0 -0.51516960076E+03  0.13452149559E+04  0.15783246158E+04  0.21368461779E+04  0.50400001928E-02 0.  1.
       -1    1    3    3    0  502  0.51516960076E+03 -0.13452149559E+04 -0.47009118538E+03  0.15152520311E+04  0.50400001928E-02 0. -1.
</event>
<event>
 5   0  0.6630125E-07  0.3446008E+04  0.7818609E-02  0.8126706E-01
       -1   -1    0    0    0  501  0.00000000000E+00  0.00000000000E+00  0.13219519978E+04  0.13219519978E+04  0.50400001928E-02 0. -1.
        1   -1    0    0  501    0  0.00000000000E+00  0.00000000000E+00 -0.22457263440E+04  0.22457263440E+04  0.50400001928E-02 0.  1.
    10030    2    1    2    0    0  0.00000000000E+00  0.00000000000E+00 -0.92377434622E+03  0.35676783418E+04  0.34460077927E+04 0.  0.
        4    1    3    3  502    0  0.15330300848E+04 -0.49552874018E+02 -0.12745239654E+04  0.19942541662E+04  0.12699999809E+01 0.  1.
       -4    1    3    3    0  502 -0.15330300848E+04  0.49552874018E+02  0.35074961913E+03  0.15734241756E+04  0.12699999809E+01 0. -1.
</event>
<event>
 5   0  0.2001768E-06  0.3484712E+04  0.7818609E-02  0.8117423E-01
        2   -1    0    0  501    0  0.00000000000E+00  0.00000000000E+00  0.25010291601E+04  0.25010291601E+04  0.25500000920E-02 0. -1.
       -2   -1    0    0    0  501  0.00000000000E+00  0.00000000000E+00 -0.12138218094E+04  0.12138218095E+04  0.25500000920E-02 0.  1.
    10030    2    1    2    0    0  0.00000000000E+00  0.00000000000E+00  0.12872073506E+04  0.37148509695E+04  0.34847116039E+04 0.  0.
        2    1    3    3  502    0 -0.81923681080E+03 -0.19370977260E+03 -0.98263767261E+03  0.12939278279E+04  0.25500000920E-02 0.  1.
       -2    1    3    3    0  502  0.81923681080E+03  0.19370977260E+03  0.22698450232E+04  0.24209231416E+04  0.25500000920E-02 0. -1.
</event>
<event>
 5   0  0.2001768E-06  0.3517900E+04  0.7818609E-02  0.8109561E-01
       -2   -1    0    0    0  501  0.00000000000E+00  0.00000000000E+00  0.20782149451E+04  0.20782149451E+04  0.25500000920E-02 0. -1.
        2   -1    0    0  501    0  0.00000000000E+00  0.00000000000E+00 -0.14887322428E+04  0.14887322428E+04  0.25500000920E-02 0.  1.
    10030    2    1    2    0    0  0.00000000000E+00  0.00000000000E+00  0.58948270236E+03  0.35669471879E+04  0.35179002807E+04 0.  0.
        2    1    3    3  502    0 -0.86563291934E+02  0.13817120882E+04 -0.80541343760E+03  0.16016592346E+04  0.25500000920E-02 0.  1.
       -2    1    3    3    0  502  0.86563291934E+02 -0.13817120882E+04  0.13948961400E+04  0.19652879533E+04  0.25500000920E-02 0. -1.
</event>
<event>
 5   0  0.6630125E-07  0.3417774E+04  0.7818609E-02  0.8133558E-01
       -1   -1    0    0    0  501  0.00000000000E+00  0.00000000000E+00  0.23056532644E+04  0.23056532644E+04  0.50400001928E-02 0.  1.
        1   -1    0    0  501    0  0.00000000000E+00  0.00000000000E+00 -0.12665801723E+04  0.12665801724E+04  0.50400001928E-02 0. -1.
    10030    2    1    2    0    0  0.00000000000E+00  0.00000000000E+00  0.10390730921E+04  0.35722334368E+04  0.34177739592E+04 0.  0.
        4    1    3    3  502    0  0.98885709416E+03 -0.19085827739E+03 -0.92344612989E+03  0.13663892573E+04  0.12699999809E+01 0. -1.
       -4    1    3    3    0  502 -0.98885709416E+03  0.19085827739E+03  0.19625192219E+04  0.22058441795E+04  0.12699999809E+01 0.  1.
</event>
<event>
 5   0  0.6630125E-07  0.2731574E+04  0.7818609E-02  0.8324832E-01
        1   -1    0    0  501    0  0.00000000000E+00  0.00000000000E+00  0.28992460736E+04  0.28992460737E+04  0.50400001928E-02 0.  1.
       -1   -1    0    0    0  501  0.00000000000E+00  0.00000000000E+00 -0.64339973388E+03  0.64339973390E+03  0.50400001928E-02 0. -1.
    10030    2    1    2    0    0  0.00000000000E+00  0.00000000000E+00  0.22558463398E+04  0.35426458076E+04  0.27315740168E+04 0.  0.
        5    1    3    3  502    0 -0.61642529598E+02 -0.93940280411E+03  0.24112068169E+04  0.25884778990E+04  0.46999998093E+01 0.  1.
       -5    1    3    3    0  502  0.61642529598E+02  0.93940280411E+03 -0.15536047713E+03  0.95416790854E+03  0.46999998093E+01 0. -1.
</event>
<event>
 5   0  0.7378896E-07  0.3488640E+04  0.7818609E-02  0.8116487E-01
        1   -1    0    0  501    0  0.00000000000E+00  0.00000000000E+00  0.14833003886E+04  0.14833003886E+04  0.50400001928E-02 0. -1.
       -1   -1    0    0    0  501  0.00000000000E+00  0.00000000000E+00 -0.20512714132E+04  0.20512714133E+04  0.50400001928E-02 0.  1.
    10030    2    1    2    0    0  0.00000000000E+00  0.00000000000E+00 -0.56797102463E+03  0.35345718019E+04  0.34886396687E+04 0.  0.
        2    1    3    3  502    0 -0.75156364937E+03 -0.15740893378E+04 -0.29089601153E+03  0.17683963504E+04  0.25500000920E-02 0.  1.
       -2    1    3    3    0  502  0.75156364937E+03  0.15740893378E+04 -0.27707501310E+03  0.17661754515E+04  0.25500000920E-02 0. -1.
</event>
<event>
 5   0  0.2020725E-06  0.3605566E+04  0.7818609E-02  0.8089218E-01
       -2   -1    0    0    0  501  0.00000000000E+00  0.00000000000E+00  0.12111234208E+04  0.12111234208E+04  0.25500000920E-02 0. -1.
        2   -1    0    0  501    0  0.00000000000E+00  0.00000000000E+00 -0.26834806406E+04  0.26834806406E+04  0.25500000920E-02 0.  1.
    10030    2    1    2    0    0  0.00000000000E+00  0.00000000000E+00 -0.14723572198E+04  0.38946040615E+04  0.36055658381E+04 0.  0.
        3    1    3    3  502    0  0.51895835293E+03 -0.13445753729E+04 -0.19059650670E+04  0.23895404479E+04  0.10100000352E+00 0.  1.
       -3    1    3    3    0  502 -0.51895835293E+03  0.13445753729E+04  0.43360784721E+03  0.15050636135E+04  0.10100000352E+00 0. -1.
</event>
<event>
 5   0  0.7378896E-07  0.3500165E+04  0.7818609E-02  0.8113751E-01
        1   -1    0    0  501    0  0.00000000000E+00  0.00000000000E+00  0.14985524017E+04  0.14985524017E+04  0.50400001928E-02 0.  1.
       -1   -1    0    0    0  501  0.00000000000E+00  0.00000000000E+00 -0.20438313782E+04  0.20438313783E+04  0.50400001928E-02 0. -1.
    10030    2    1    2    0    0  0.00000000000E+00  0.00000000000E+00 -0.54527897654E+03  0.35423837800E+04  0.35001648079E+04 0.  0.
        2    1    3    3  502    0 -0.11767174013E+04  0.11273430464E+04  0.37319741600E+03  0.16717782442E+04  0.25500000920E-02 0.  1.
       -2    1    3    3    0  502  0.11767174013E+04 -0.11273430464E+04 -0.91847639254E+03  0.18706055357E+04  0.25500000920E-02 0. -1.
</event>
<event>
 5   0  0.6630125E-07  0.3500986E+04  0.7818609E-02  0.8113556E-01
       -1   -1    0    0    0  501  0.00000000000E+00  0.00000000000E+00  0.16344302663E+04  0.16344302663E+04  0.50400001928E-02 0. -1.
        1   -1    0    0  501    0  0.00000000000E+00  0.00000000000E+00 -0.18747975544E+04  0.18747975544E+04  0.50400001928E-02 0.  1.
    10030    2    1    2    0    0  0.00000000000E+00  0.00000000000E+00 -0.24036728812E+03  0.35092278207E+04  0.35009860703E+04 0.  0.
        1    1    3    3  502    0  0.12806716842E+04  0.11831439494E+04 -0.27635896785E+03  0.17653112606E+04  0.50400001928E-02 0.  1.
       -1    1    3    3    0  502 -0.12806716842E+04 -0.11831439494E+04  0.35991679731E+02  0.17439165601E+04  0.50400001928E-02 0. -1.
</event>
<event>
 5   0  0.2073287E-06  0.2275141E+04  0.7818609E-02  0.8487787E-01
        2   -1    0    0  501    0  0.00000000000E+00  0.00000000000E+00  0.18228501972E+04  0.18228501972E+04  0.25500000920E-02 0. -1.
       -2   -1    0    0    0  501  0.00000000000E+00  0.00000000000E+00 -0.70991409774E+03  0.70991409775E+03  0.25500000920E-02 0.  1.
    10030    2    1    2    0    0  0.00000000000E+00  0.00000000000E+00  0.11129360994E+04  0.25327642949E+04  0.22751413609E+04 0.  0.
        1    1    3    3  502    0 -0.52945856638E+03 -0.55680255416E+03  0.14903322842E+04  0.16767366446E+04  0.50400001928E-02 0. -1.
       -1    1    3    3    0  502  0.52945856638E+03  0.55680255416E+03 -0.37739618480E+03  0.85602765035E+03  0.50400001928E-02 0.  1.
</event>
<event>
 5   0  0.6630125E-07  0.3429808E+04  0.7818609E-02  0.8130629E-01
        1   -1    0    0  501    0  0.00000000000E+00  0.00000000000E+00  0.13255774173E+04  0.13255774173E+04  0.50400001928E-02 0.  1.
       -1   -1    0    0    0  501  0.00000000000E+00  0.00000000000E+00 -0.22185767022E+04  0.22185767022E+04  0.50400001928E-02 0. -1.
    10030    2    1    2    0    0  0.00000000000E+00  0.00000000000E+00 -0.89299928492E+03  0.35441541195E+04  0.34298076768E+04 0.  0.
        5    1    3    3  502    0 -0.68224838544E+03 -0.83054305256E+03  0.93431679698E+03  0.14241610122E+04  0.46999998093E+01 0.  1.
       -5    1    3    3    0  502  0.68224838544E+03  0.83054305256E+03 -0.18273160819E+04  0.21199931072E+04  0.46999998093E+01 0. -1.
</event>
<event>
 5   0  0.6630125E-07  0.3165192E+04  0.7818609E-02  0.8198071E-01
        1   -1    0    0  501    0  0.00000000000E+00  0.00000000000E+00  0.17456886422E+04  0.17456886422E+04  0.50400001928E-02 0.  1.
       -1   -1    0    0    0  501  0.00000000000E+00  0.00000000000E+00 -0.14347400519E+04  0.14347400519E+04  0.50400001928E-02 0. -1.
    10030    2    1    2    0    0  0.00000000000E+00  0.00000000000E+00  0.31094859027E+03  0.31804286941E+04  0.31651915665E+04 0.  0.
        5    1    3    3  502    0 -0.78127340015E+03 -0.11918112804E+04 -0.53615972686E+03  0.15225937070E+04  0.46999998093E+01 0. -1.
       -5    1    3    3    0  502  0.78127340015E+03  0.11918112804E+04  0.84710831713E+03  0.16578349872E+04  0.46999998093E+01 0.  1.
</event>
<event>
 5   0  0.2001768E-06  0.3239066E+04  0.7818609E-02  0.8178576E-01
       -2   -1    0    0    0  501  0.00000000000E+00  0.00000000000E+00  0.14289073111E+04  0.14289073111E+04  0.25500000920E-02 0. -1.
        2   -1    0    0  501    0  0.00000000000E+00  0.00000000000E+00 -0.18355890646E+04  0.18355890646E+04  0.25500000920E-02 0.  1.
    10030    2    1    2    0    0  0.00000000000E+00  0.00000000000E+00 -0.40668175356E+03  0.32644963757E+04  0.32390656891E+04 0.  0.
        2    1    3    3  502    0  0.12099252056E+04 -0.63382493811E+03  0.67368289935E+03  0.15229910388E+04  0.25500000920E-02 0. -1.
       -2    1    3    3    0  502 -0.12099252056E+04  0.63382493811E+03 -0.10803646529E+04  0.17415053369E+04  0.25500000920E-02 0.  1.
</event>
<event>
 5   0  0.2001768E-06  0.3267644E+04  0.7818609E-02  0.8171177E-01
        2   -1    0    0  501    0  0.00000000000E+00  0.00000000000E+00  0.12907284344E+04  0.12907284344E+04  0.25500000920E-02 0.  1.
       -2   -1    0    0    0  501  0.00000000000E+00  0.00000000000E+00 -0.20681148526E+04  0.20681148526E+04  0.25500000920E-02 0. -1.
    10030    2    1    2    0    0  0.00000000000E+00  0.00000000000E+00 -0.77738641815E+03  0.33588432870E+04  0.32676441948E+04 0.  0.
        2    1    3    3  502    0  0.26438390049E+03 -0.68232478913E+03 -0.18902539171E+04  0.20269498848E+04  0.25500000920E-02 0. -1.
       -2    1    3    3    0  502 -0.26438390049E+03  0.68232478913E+03  0.11128674989E+04  0.13318934022E+04  0.25500000920E-02 0.  1.
</event>
<event>
 5   0  0.6890600E-07  0.2397452E+04  0.7818609E-02  0.8440458E-01
       -1   -1    0    0    0  501  0.00000000000E+00  0.00000000000E+00  0.12150218173E+04  0.12150218174E+04  0.50400001928E-02 0.  1.
        1   -1    0    0  501    0  0.00000000000E+00  0.00000000000E+00 -0.11826491020E+04  0.11826491020E+04  0.50400001928E-02 0. -1.
    10030    2    1    2    0    0  0.00000000000E+00  0.00000000000E+00  0.32372715370E+02  0.23976709193E+04  0.23974523655E+04 0.  0.
        3    1    3    3  502    0 -0.92987670020E+03  0.50587867511E+03  0.57869699893E+03  0.12064303288E+04  0.10100000352E+00 0.  1.
       -3    1    3    3    0  502  0.92987670020E+03 -0.50587867511E+03 -0.54632428356E+03  0.11912405905E+04  0.10100000352E+00 0. -1.
</event>
<event>
 5   0  0.2023479E-06  0.3445967E+04  0.7818609E-02  0.8126716E-01
       -2   -1    0    0    0  501  0.00000000000E+00  0.00000000000E+00  0.11297572928E+04  0.11297572928E+04  0.25500000920E-02 0.  1.
        2   -1    0    0  501    0  0.00000000000E+00  0.00000000000E+00 -0.26277077257E+04  0.26277077257E+04  0.25500000920E-02 0. -1.
    10030    2    1    2    0    0  0.00000000000E+00  0.00000000000E+00 -0.14979504329E+04  0.37574650185E+04  0.34459668985E+04 0.  0.
        5    1    3    3  502    0  0.12138418557E+04 -0.12125318130E+04 -0.57655336330E+03  0.18099948395E+04  0.46999998093E+01 0.  1.
       -5    1    3    3    0  502 -0.12138418557E+04  0.12125318130E+04 -0.92139706963E+03  0.19474701790E+04  0.46999998093E+01 0. -1.
</event>
<event>
 5   0  0.6630125E-07  0.3443319E+04  0.7818609E-02  0.8127356E-01
       -1   -1    0    0    0  501  0.00000000000E+00  0.00000000000E+00  0.15044173123E+04  0.15044173123E+04  0.50400001928E-02 0.  1.
        1   -1    0    0  501    0  0.00000000000E+00  0.00000000000E+00 -0.19702720420E+04  0.19702720420E+04  0.50400001928E-02 0. -1.
    10030    2    1    2    0    0  0.00000000000E+00  0.00000000000E+00 -0.46585472967E+03  0.34746893543E+04  0.34433189628E+04 0.  0.
        4    1    3    3  502    0  0.11504472805E+04 -0.12727639349E+04 -0.87907343749E+02  0.17179017124E+04  0.12699999809E+01 0.  1.
       -4    1    3    3    0  502 -0.11504472805E+04  0.12727639349E+04 -0.37794738592E+03  0.17567876419E+04  0.12699999809E+01 0. -1.
</event>
<event>
 5   0  0.2001768E-06  0.3396233E+04  0.7818609E-02  0.8138831E-01
        2   -1    0    0  501    0  0.00000000000E+00  0.00000000000E+00  0.18477723913E+04  0.18477723913E+04  0.25500000920E-02 0. -1.
       -2   -1    0    0    0  501  0.00000000000E+00  0.00000000000E+00 -0.15605818744E+04  0.15605818744E+04  0.25500000920E-02 0.  1.
    10030    2    1    2    0    0  0.00000000000E+00  0.00000000000E+00  0.28719051686E+03  0.34083542657E+04  0.33962332676E+04 0.  0.
        2    1    3    3  502    0  0.31062279404E+03 -0.14901756872E+04  0.89893675161E+03  0.17678227803E+04  0.25500000920E-02 0. -1.
       -2    1    3    3    0  502 -0.31062279404E+03  0.14901756872E+04 -0.61174623474E+03  0.16405314854E+04  0.25500000920E-02 0.  1.
</event>
<event>
 5   0  0.6890600E-07  0.3427437E+04  0.7818609E-02  0.8131205E-01
        1   -1    0    0  501    0  0.00000000000E+00  0.00000000000E+00  0.17398480629E+04  0.17398480630E+04  0.50400001928E-02 0. -1.
       -1   -1    0    0    0  501  0.00000000000E+00  0.00000000000E+00 -0.16879816997E+04  0.16879816997E+04  0.50400001928E-02 0.  1.
    10030    2    1    2    0    0  0.00000000000E+00  0.00000000000E+00  0.51866363225E+02  0.34278297627E+04  0.34274373462E+04 0.  0.
        3    1    3    3  502    0  0.12742142649E+03  0.12909390986E+04 -0.10940484631E+04  0.16969684812E+04  0.10100000352E+00 0.  1.
       -3    1    3    3    0  502 -0.12742142649E+03 -0.12909390986E+04  0.11459148263E+04  0.17308612815E+04  0.10100000352E+00 0. -1.
</event>
<event>
 5   0  0.6630125E-07  0.3407638E+04  0.7818609E-02  0.8136034E-01
       -1   -1    0    0    0  501  0.00000000000E+00  0.00000000000E+00  0.14157002419E+04  0.14157002419E+04  0.50400001928E-02 0. -1.
        1   -1    0    0  501    0  0.00000000000E+00  0.00000000000E+00 -0.20505752187E+04  0.20505752187E+04  0.50400001928E-02 0.  1.
    10030    2    1    2    0    0  0.00000000000E+00  0.00000000000E+00 -0.63487497684E+03  0.34662754606E+04  0.34076383806E+04 0.  0.
        5    1    3    3  502    0 -0.23444250437E+03  0.11192576432E+04  0.96733904001E+03  0.14978210401E+04  0.46999998093E+01 0. -1.
       -5    1    3    3    0  502  0.23444250437E+03 -0.11192576432E+04 -0.16022140169E+04  0.19684544205E+04  0.46999998093E+01 0.  1.
</event>
<event>
 5   0  0.7378896E-07  0.2562976E+04  0.7818609E-02  0.8380887E-01
       -1   -1    0    0    0  501  0.00000000000E+00  0.00000000000E+00  0.83405873503E+03  0.83405873505E+03  0.50400001928E-02 0. -1.
        1   -1    0    0  501    0  0.00000000000E+00  0.00000000000E+00 -0.19689393943E+04  0.19689393943E+04  0.50400001928E-02 0.  1.
    10030    2    1    2    0    0  0.00000000000E+00  0.00000000000E+00 -0.11348806593E+04  0.28029981293E+04  0.25629756929E+04 0.  0.
        2    1    3    3  502    0 -0.24733740975E+03 -0.24159566852E+03  0.78208414562E+03  0.85510225829E+03  0.25500000920E-02 0. -1.
       -2    1    3    3    0  502  0.24733740975E+03  0.24159566852E+03 -0.19169648049E+04  0.19478958710E+04  0.25500000920E-02 0.  1.
</event>
<event>
 5   0  0.6630125E-07  0.3161564E+04  0.7818609E-02  0.8199042E-01
       -1   -1    0    0    0  501  0.00000000000E+00  0.00000000000E+00  0.13342676585E+04  0.13342676585E+04  0.50400001928E-02 0.  1.
        1   -1    0    0  501    0  0.00000000000E+00  0.00000000000E+00 -0.18728417142E+04  0.18728417143E+04  0.50400001928E-02 0. -1.
    10030    2    1    2    0    0  0.00000000000E+00  0.00000000000E+00 -0.53857405576E+03  0.32071093727E+04  0.31615642513E+04 0.  0.
        5    1    3    3  502    0 -0.88566430604E+03 -0.77461113480E+02  0.10566188969E+04  0.13808935768E+04  0.46999998093E+01 0.  1.
       -5    1    3    3    0  502  0.88566430604E+03  0.77461113480E+02 -0.15951929527E+04  0.18262157960E+04  0.46999998093E+01 0. -1.
</event>
<event>
 5   0  0.2001768E-06  0.3489541E+04  0.7818609E-02  0.8116273E-01
       -2   -1    0    0    0  501  0.00000000000E+00  0.00000000000E+00  0.15729842271E+04  0.15729842271E+04  0.25500000920E-02 0. -1.
        2   -1    0    0  501    0  0.00000000000E+00  0.00000000000E+00 -0.19353175310E+04  0.19353175310E+04  0.25500000920E-02 0.  1.
    10030    2    1    2    0    0  0.00000000000E+00  0.00000000000E+00 -0.36233330386E+03  0.35083017581E+04  0.34895409158E+04 0.  0.
        2    1    3    3  502    0  0.28719407701E+03 -0.89108471301E+02  0.15467366081E+04  0.15756950506E+04  0.25500000920E-02 0. -1.
       -2    1    3    3    0  502 -0.28719407701E+03  0.89108471301E+02 -0.19090699119E+04  0.19326067076E+04  0.25500000920E-02 0.  1.
</event>
<event>
 5   0  0.2001768E-06  0.3387395E+04  0.7818609E-02  0.8141007E-01
        2   -1    0    0  501    0  0.00000000000E+00  0.00000000000E+00  0.10761902355E+04  0.10761902355E+04  0.25500000920E-02 0.  1.
       -2   -1    0    0    0  501  0.00000000000E+00  0.00000000000E+00 -0.26655240223E+04  0.26655240223E+04  0.25500000920E-02 0. -1.
    10030    2    1    2    0    0  0.00000000000E+00  0.00000000000E+00 -0.15893337868E+04  0.37417142578E+04  0.33873948251E+04 0.  0.
        2    1    3    3  502    0 -0.16167073927E+04  0.50369756596E+03 -0.75709599849E+03  0.18548984830E+04  0.25500000920E-02 0.  1.
       -2    1    3    3    0  502  0.16167073927E+04 -0.50369756596E+03 -0.83223778831E+03  0.18868157747E+04  0.25500000920E-02 0. -1.
</event>
<event>
 5   0  0.6630125E-07  0.3249223E+04  0.7818609E-02  0.8175937E-01
       -1   -1    0    0    0  501  0.00000000000E+00  0.00000000000E+00  0.12930209435E+04  0.12930209435E+04  0.50400001928E-02 0.  1.
        1   -1    0    0  501    0  0.00000000000E+00  0.00000000000E+00 -0.20412371499E+04  0.20412371499E+04  0.50400001928E-02 0. -1.
    10030    2    1    2    0    0  0.00000000000E+00  0.00000000000E+00 -0.74821620640E+03  0.33342580935E+04  0.32492229136E+04 0.  0.
        4    1    3    3  502    0 -0.13581879488E+04 -0.80838892236E+03 -0.75969941615E+03  0.17536567423E+04  0.12699999809E+01 0.  1.
       -4    1    3    3    0  502  0.13581879488E+04  0.80838892236E+03  0.11483209748E+02  0.15806013511E+04  0.12699999809E+01 0. -1.
</event>
<event>
 5   0  0.1999883E-06  0.3504044E+04  0.7818609E-02  0.8112832E-01
        2   -1    0    0  501    0  0.00000000000E+00  0.00000000000E+00  0.23988659864E+04  0.23988659864E+04  0.25500000920E-02 0.  1.
       -2   -1    0    0    0  501  0.00000000000E+00  0.00000000000E+00 -0.12795969206E+04  0.12795969206E+04  0.25500000920E-02 0. -1.
    10030    2    1    2    0    0  0.00000000000E+00  0.00000000000E+00  0.11192690658E+04  0.36784629070E+04  0.35040442516E+04 0.  0.
        4    1    3    3  502    0 -0.12238967729E+04  0.24427880894E+03  0.18504687350E+04  0.22320017024E+04  0.12699999809E+01 0.  1.
       -4    1    3    3    0  502  0.12238967729E+04 -0.24427880894E+03 -0.73119966925E+03  0.14464612046E+04  0.12699999809E+01 0. -1.
</event>
<event>
 5   0  0.6630125E-07  0.3412673E+04  0.7818609E-02  0.8134803E-01
       -3   -1    0    0    0  501  0.00000000000E+00  0.00000000000E+00  0.25214147611E+04  0.25214147631E+04  0.10100000352E+00 0.  1.
        3   -1    0    0  501    0  0.00000000000E+00  0.00000000000E+00 -0.11547420204E+04  0.11547420248E+04  0.10100000352E+00 0. -1.
    10030    2    1    2    0    0  0.00000000000E+00  0.00000000000E+00  0.13666727407E+04  0.36761567880E+04  0.34126726109E+04 0.  0.
        2    1    3    3  502    0  0.37143259058E+02  0.26303057621E+03 -0.11323317106E+04  0.11630734321E+04  0.25500000920E-02 0. -1.
       -2    1    3    3    0  502 -0.37143259058E+02 -0.26303057621E+03  0.24990044513E+04  0.25130833558E+04  0.25500000920E-02 0.  1.
</event>
<event>
 5   0  0.6630125E-07  0.3145261E+04  0.7818609E-02  0.8203425E-01
        1   -1    0    0  501    0  0.00000000000E+00  0.00000000000E+00  0.16220993772E+04  0.16220993772E+04  0.50400001928E-02 0.  1.
       -1   -1    0    0    0  501  0.00000000000E+00  0.00000000000E+00 -0.15246703400E+04  0.15246703400E+04  0.50400001928E-02 0. -1.
    10030    2    1    2    0    0  0.00000000000E+00  0.00000000000E+00  0.97429037154E+02  0.31467697173E+04  0.31452610760E+04 0.  0.
        5    1    3    3  502    0  0.38159791293E+03  0.15073665537E+04  0.28414382481E+03  0.15806741275E+04  0.46999998093E+01 0.  1.
       -5    1    3    3    0  502 -0.38159791293E+03 -0.15073665537E+04 -0.18671478766E+03  0.15660955897E+04  0.46999998093E+01 0. -1.
</event>
<event>
 5   0  0.6890600E-07  0.3566408E+04  0.7818609E-02  0.8098230E-01
       -1   -1    0    0    0  501  0.00000000000E+00  0.00000000000E+00  0.30539019209E+04  0.30539019209E+04  0.50400001928E-02 0. -1.
        1   -1    0    0  501    0  0.00000000000E+00  0.00000000000E+00 -0.10412308917E+04  0.10412308917E+04  0.50400001928E-02 0.  1.
    10030    2    1    2    0    0  0.00000000000E+00  0.00000000000E+00  0.20126710292E+04  0.40951328126E+04  0.35664082886E+04 0.  0.
        3    1    3    3  502    0  0.21022432837E+03  0.89721977333E+03 -0.74662692759E+03  0.11860224994E+04  0.10100000352E+00 0.  1.
       -3    1    3    3    0  502 -0.21022432837E+03 -0.89721977333E+03  0.27592979568E+04  0.29091103132E+04  0.10100000352E+00 0. -1.
</event>
<event>
 5   0  0.2001768E-06  0.3474867E+04  0.7818609E-02  0.8119772E-01
       -2   -1    0    0    0  501  0.00000000000E+00  0.00000000000E+00  0.13318504447E+04  0.13318504447E+04  0.25500000920E-02 0. -1.
        2   -1    0    0  501    0  0.00000000000E+00  0.00000000000E+00 -0.22665276642E+04  0.22665276642E+04  0.25500000920E-02 0.  1.
    10030    2    1    2    0    0  0.00000000000E+00  0.00000000000E+00 -0.93467721949E+03  0.35983781090E+04  0.34748674090E+04 0.  0.
        2    1    3    3  502    0  0.25886528592E+03  0.11979306747E+04 -0.17426255512E+04  0.21304443079E+04  0.25500000920E-02 0. -1.
       -2    1    3    3    0  502 -0.25886528592E+03 -0.11979306747E+04  0.80794833168E+03  0.14679338010E+04  0.25500000920E-02 0.  1.
</event>
<event>
 5   0  0.6630125E-07  0.3583132E+04  0.7818609E-02  0.8094366E-01
       -1   -1    0    0    0  501  0.00000000000E+00  0.00000000000E+00  0.15889526802E+04  0.15889526802E+04  0.50400001928E-02 0. -1.
        1   -1    0    0  501    0  0.00000000000E+00  0.00000000000E+00 -0.20200153814E+04  0.20200153814E+04  0.50400001928E-02 0.  1.
    10030    2    1    2    0    0  0.00000000000E+00  0.00000000000E+00 -0.43106270128E+03  0.36089680616E+04  0.35831320681E+04 0.  0.
        1    1    3    3  502    0  0.10705395976E+03  0.68811590767E+03  0.14470508979E+04  0.16059017261E+04  0.50400001928E-02 0. -1.
       -1    1    3    3    0  502 -0.10705395976E+03 -0.68811590767E+03 -0.18781135992E+04  0.20030663355E+04  0.50400001928E-02 0.  1.
</event>
<event>
 5   0  0.2001768E-06  0.3423188E+04  0.7818609E-02  0.8132239E-01
       -2   -1    0    0    0  501  0.00000000000E+00  0.00000000000E+00  0.12124057378E+04  0.12124057378E+04  0.25500000920E-02 0. -1.
        2   -1    0    0  501    0  0.00000000000E+00  0.00000000000E+00 -0.24163143799E+04  0.24163143799E+04  0.25500000920E-02 0.  1.
    10030    2    1    2    0    0  0.00000000000E+00  0.00000000000E+00 -0.12039086421E+04  0.36287201177E+04  0.34231876481E+04 0.  0.
        2    1    3    3  502    0  0.56622679478E+03  0.15291915461E+04 -0.50616838029E+02  0.16314415810E+04  0.25500000920E-02 0. -1.
       -2    1    3    3    0  502 -0.56622679478E+03 -0.15291915461E+04 -0.11532918041E+04  0.19972785367E+04  0.25500000920E-02 0.  1.
</event>
<event>
 5   0  0.2001768E-06  0.3292938E+04  0.7818609E-02  0.8164695E-01
        2   -1    0    0  501    0  0.00000000000E+00  0.00000000000E+00  0.18952066205E+04  0.18952066205E+04  0.25500000920E-02 0.  1.
       -2   -1    0    0    0  501  0.00000000000E+00  0.00000000000E+00 -0.14303768034E+04  0.14303768035E+04  0.25500000920E-02 0. -1.
    10030    2    1    2    0    0  0.00000000000E+00  0.00000000000E+00  0.46482981706E+03  0.33255834240E+04  0.32929376476E+04 0.  0.
        2    1    3    3  502    0 -0.17897759086E+02 -0.52354879333E+02  0.18942674632E+04  0.18950753508E+04  0.25500000920E-02 0.  1.
       -2    1    3    3    0  502  0.17897759086E+02  0.52354879333E+02 -0.14294376461E+04  0.14305080731E+04  0.25500000920E-02 0. -1.
</event>
<event>
 5   0  0.6890600E-07  0.3840362E+04  0.7818609E-02  0.8037548E-01
       -1   -1    0    0    0  501  0.00000000000E+00  0.00000000000E+00  0.18111820542E+04  0.18111820542E+04  0.50400001928E-02 0. -1.
        1   -1    0    0  501    0  0.00000000000E+00  0.00000000000E+00 -0.20357398017E+04  0.20357398017E+04  0.50400001928E-02 0.  1.
    10030    2    1    2    0    0  0.00000000000E+00  0.00000000000E+00 -0.22455774745E+03  0.38469218559E+04  0.38403621683E+04 0.  0.
        3    1    3    3  502    0  0.76416179928E+03  0.80461337196E+03  0.14574809497E+04  0.18318287755E+04  0.10100000352E+00 0. -1.
       -3    1    3    3    0  502 -0.76416179928E+03 -0.80461337196E+03 -0.16820386971E+04  0.20150930804E+04  0.10100000352E+00 0.  1.
</event>
<event>
 5   0  0.6630125E-07  0.3482808E+04  0.7818609E-02  0.8117876E-01
       -1   -1    0    0    0  501  0.00000000000E+00  0.00000000000E+00  0.19324135109E+04  0.19324135109E+04  0.50400001928E-02 0.  1.
        1   -1    0    0  501    0  0.00000000000E+00  0.00000000000E+00 -0.15692748628E+04  0.15692748628E+04  0.50400001928E-02 0. -1.
    10030    2    1    2    0    0  0.00000000000E+00  0.00000000000E+00  0.36313864808E+03  0.35016883737E+04  0.34828080322E+04 0.  0.
        1    1    3    3  502    0  0.93872066296E+03 -0.95880562692E+03 -0.93439511477E+03  0.16351143519E+04  0.50400001928E-02 0.  1.
       -1    1    3    3    0  502 -0.93872066296E+03  0.95880562692E+03  0.12975337628E+04  0.18665740218E+04  0.50400001928E-02 0. -1.
</event>
<event>
 5   0  0.6890600E-07  0.3626549E+04  0.7818609E-02  0.8084437E-01
       -1   -1    0    0    0  501  0.00000000000E+00  0.00000000000E+00  0.12143357510E+04  0.12143357510E+04  0.50400001928E-02 0. -1.
        1   -1    0    0  501    0  0.00000000000E+00  0.00000000000E+00 -0.27076231549E+04  0.27076231549E+04  0.50400001928E-02 0.  1.
    10030    2    1    2    0    0  0.00000000000E+00  0.00000000000E+00 -0.14932874039E+04  0.39219589059E+04  0.36265485505E+04 0.  0.
        3    1    3    3  502    0 -0.54019665674E+03  0.12586094519E+04 -0.20317383187E+04  0.24502797363E+04  0.10100000352E+00 0.  1.
       -3    1    3    3    0  502  0.54019665674E+03 -0.12586094519E+04  0.53845091480E+03  0.14716791696E+04  0.10100000352E+00 0. -1.
</event>
<event>
 5   0  0.6630125E-07  0.3463065E+04  0.7818609E-02  0.8122599E-01
        1   -1    0    0  501    0  0.00000000000E+00  0.00000000000E+00  0.12338216701E+04  0.12338216701E+04  0.50400001928E-02 0.  1.
       -1   -1    0    0    0  501  0.00000000000E+00  0.00000000000E+00 -0.24300151794E+04  0.24300151794E+04  0.50400001928E-02 0. -1.
    10030    2    1    2    0    0  0.00000000000E+00  0.00000000000E+00 -0.11961935093E+04  0.36638368494E+04  0.34630653398E+04 0.  0.
        5    1    3    3  502    0 -0.38284761706E+03 -0.54541850701E+03 -0.22889149394E+04  0.23839478466E+04  0.46999998093E+01 0. -1.
       -5    1    3    3    0  502  0.38284761706E+03  0.54541850701E+03  0.10927214301E+04  0.12798890028E+04  0.46999998093E+01 0.  1.
</event>
<event>
 5   0  0.6630125E-07  0.3522340E+04  0.7818609E-02  0.8108516E-01
       -1   -1    0    0    0  501  0.00000000000E+00  0.00000000000E+00  0.12828227665E+04  0.12828227665E+04  0.50400001928E-02 0.  1.
        1   -1    0    0  501    0  0.00000000000E+00  0.00000000000E+00 -0.24178871079E+04  0.24178871079E+04  0.50400001928E-02 0. -1.
    10030    2    1    2    0    0  0.00000000000E+00  0.00000000000E+00 -0.11350643414E+04  0.37007098744E+04  0.35223404883E+04 0.  0.
        4    1    3    3  502    0  0.23731206976E-01  0.76060967038E+03 -0.22364265377E+04  0.23622303746E+04  0.12699999809E+01 0. -1.
       -4    1    3    3    0  502 -0.23731206976E-01 -0.76060967038E+03  0.11013621962E+04  0.13384794998E+04  0.12699999809E+01 0.  1.
</event>
<event>
 5   0  0.6630125E-07  0.3472762E+04  0.7818609E-02  0.8120275E-01
        1   -1    0    0  501    0  0.00000000000E+00  0.00000000000E+00  0.19206029973E+04  0.19206029973E+04  0.50400001928E-02 0.  1.
       -1   -1    0    0    0  501  0.00000000000E+00  0.00000000000E+00 -0.15698297824E+04  0.15698297824E+04  0.50400001928E-02 0. -1.
    10030    2    1    2    0    0  0.00000000000E+00  0.00000000000E+00  0.35077321488E+03  0.34904327797E+04  0.34727624654E+04 0.  0.
        4    1    3    3  502    0  0.47643859240E+03 -0.11697150030E+04  0.13729994587E+04  0.18655712388E+04  0.12699999809E+01 0.  1.
       -4    1    3    3    0  502 -0.47643859240E+03  0.11697150030E+04 -0.10222262438E+04  0.16248615409E+04  0.12699999809E+01 0. -1.
</event>
<event>
 5   0  0.2073287E-06  0.2908607E+04  0.7818609E-02  0.8270321E-01
       -2   -1    0    0    0  501  0.00000000000E+00  0.00000000000E+00  0.13104631867E+04  0.13104631867E+04  0.25500000920E-02 0. -1.
        2   -1    0    0  501    0  0.00000000000E+00  0.00000000000E+00 -0.16139324810E+04  0.16139324810E+04  0.25500000920E-02 0.  1.
    10030    2    1    2    0    0  0.00000000000E+00  0.00000000000E+00 -0.30346929429E+03  0.29243956677E+04  0.29086072971E+04 0.  0.
        1    1    3    3  502    0 -0.87315898111E+03 -0.62411220463E+03  0.83495693840E+03  0.13598072434E+04  0.50400001928E-02 0. -1.
       -1    1    3    3    0  502  0.87315898111E+03  0.62411220463E+03 -0.11384262327E+04  0.15645884243E+04  0.50400001928E-02 0.  1.
</event>
<event>
 5   0  0.2020725E-06  0.3356689E+04  0.7818609E-02  0.8148619E-01
        2   -1    0    0  501    0  0.00000000000E+00  0.00000000000E+00  0.15157394417E+04  0.15157394417E+04  0.25500000920E-02 0. -1.
       -2   -1    0    0    0  501  0.00000000000E+00  0.00000000000E+00 -0.18583936079E+04  0.18583936079E+04  0.25500000920E-02 0.  1.
    10030    2    1    2    0    0  0.00000000000E+00  0.00000000000E+00 -0.34265416619E+03  0.33741330497E+04  0.33566891365E+04 0.  0.
        3    1    3    3  502    0  0.33131415073E+03 -0.13997519808E+04  0.69790126491E+03  0.15987935639E+04  0.10100000352E+00 0. -1.
       -3    1    3    3    0  502 -0.33131415073E+03  0.13997519808E+04 -0.10405554311E+04  0.17753394858E+04  0.10100000352E+00 0.  1.
</event>
<event>
 5   0  0.6630125E-07  0.2274621E+04  0.7818609E-02  0.8487995E-01
        1   -1    0    0  501    0  0.00000000000E+00  0.00000000000E+00  0.82548829649E+03  0.82548829650E+03  0.50400001928E-02 0.  1.
       -1   -1    0    0    0  501  0.00000000000E+00  0.00000000000E+00 -0.15669216651E+04  0.15669216651E+04  0.50400001928E-02 0. -1.
    10030    2    1    2    0    0  0.00000000000E+00  0.00000000000E+00 -0.74143336863E+03  0.23924099616E+04  0.22746212837E+04 0.  0.
        5    1    3    3  502    0  0.48226512641E+03  0.53979781300E+02  0.71111853188E+03  0.86093270662E+03  0.46999998093E+01 0.  1.
       -5    1    3    3    0  502 -0.48226512641E+03 -0.53979781300E+02 -0.14525519005E+04  0.15314772550E+04  0.46999998093E+01 0. -1.
</event>
<event>
 5   0  0.2001768E-06  0.3277511E+04  0.7818609E-02  0.8168641E-01
       -2   -1    0    0    0  501  0.00000000000E+00  0.00000000000E+00  0.14753876509E+04  0.14753876509E+04  0.25500000920E-02 0.  1.
        2   -1    0    0  501    0  0.00000000000E+00  0.00000000000E+00 -0.18202131584E+04  0.18202131584E+04  0.25500000920E-02 0. -1.
    10030    2    1    2    0    0  0.00000000000E+00  0.00000000000E+00 -0.34482550754E+03  0.32956008093E+04  0.32775112606E+04 0.  0.
        2    1    3    3  502    0  0.59085103470E+03  0.20635220225E+03 -0.16953127514E+04  0.18071445713E+04  0.25500000920E-02 0. -1.
       -2    1    3    3    0  502 -0.59085103470E+03 -0.20635220225E+03  0.13504872438E+04  0.14884562380E+04  0.25500000920E-02 0.  1.
</event>
<event>
 5   0  0.1999883E-06  0.3468283E+04  0.7818609E-02  0.8121348E-01
       -2   -1    0    0    0  501  0.00000000000E+00  0.00000000000E+00  0.11427121791E+04  0.11427121791E+04  0.25500000920E-02 0.  1.
        2   -1    0    0  501    0  0.00000000000E+00  0.00000000000E+00 -0.26316746648E+04  0.26316746648E+04  0.25500000920E-02 0. -1.
    10030    2    1    2    0    0  0.00000000000E+00  0.00000000000E+00 -0.14889624857E+04  0.37743868439E+04  0.34682829705E+04 0.  0.
        4    1    3    3  502    0  0.16817010420E+04 -0.39391810484E+03 -0.91291606348E+03  0.19536394805E+04  0.12699999809E+01 0. -1.
       -4    1    3    3    0  502 -0.16817010420E+04  0.39391810484E+03 -0.57604642223E+03  0.18207473634E+04  0.12699999809E+01 0.  1.
</event>
<event>
 5   0  0.6630125E-07  0.3490115E+04  0.7818609E-02  0.8116136E-01
        1   -1    0    0  501    0  0.00000000000E+00  0.00000000000E+00  0.13801949358E+04  0.13801949358E+04  0.50400001928E-02 0. -1.
       -1   -1    0    0    0  501  0.00000000000E+00  0.00000000000E+00 -0.22063740023E+04  0.22063740023E+04  0.50400001928E-02 0.  1.
    10030    2    1    2    0    0  0.00000000000E+00  0.00000000000E+00 -0.82617906654E+03  0.35865689381E+04  0.34901153129E+04 0.  0.
        4    1    3    3  502    0 -0.81356591217E+02 -0.66594287579E+03  0.12423701732E+04  0.14119433660E+04  0.12699999809E+01 0. -1.
       -4    1    3    3    0  502  0.81356591217E+02  0.66594287579E+03 -0.20685492397E+04  0.21746255721E+04  0.12699999809E+01 0.  1.
</event>
<event>
 5   0  0.2023479E-06  0.2244682E+04  0.7818609E-02  0.8500057E-01
        2   -1    0    0  501    0  0.00000000000E+00  0.00000000000E+00  0.10659483350E+04  0.10659483350E+04  0.25500000920E-02 0.  1.
       -2   -1    0    0    0  501  0.00000000000E+00  0.00000000000E+00 -0.11817165962E+04  0.11817165962E+04  0.25500000920E-02 0. -1.
    10030    2    1    2    0    0  0.00000000000E+00  0.00000000000E+00 -0.11576826116E+03  0.22476649312E+04  0.22446815705E+04 0.  0.
        5    1    3    3  502    0  0.14515839003E+03 -0.11124916711E+04 -0.27544162970E+02  0.11222697748E+04  0.46999998093E+01 0.  1.
       -5    1    3    3    0  502 -0.14515839003E+03  0.11124916711E+04 -0.88224098190E+02  0.11253951564E+04  0.46999998093E+01 0. -1.
</event>
<event>
 5   0  0.2073287E-06  0.2715074E+04  0.7818609E-02  0.8330130E-01
        2   -1    0    0  501    0  0.00000000000E+00  0.00000000000E+00  0.15568580301E+04  0.15568580301E+04  0.25500000920E-02 0.  1.
       -2   -1    0    0    0  501  0.00000000000E+00  0.00000000000E+00 -0.11837350116E+04  0.11837350116E+04  0.25500000920E-02 0. -1.
    10030    2    1    2    0    0  0.00000000000E+00  0.00000000000E+00  0.37312301859E+03  0.27405930417E+04  0.27150744802E+04 0.  0.
        1    1    3    3  502    0  0.47706159240E+03  0.69925350001E+03 -0.88471655021E+03  0.12244454232E+04  0.50400001928E-02 0. -1.
       -1    1    3    3    0  502 -0.47706159240E+03 -0.69925350001E+03  0.12578395688E+04  0.15161476185E+04  0.50400001928E-02 0.  1.
</event>
<event>
 5   0  0.6630125E-07  0.3503648E+04  0.7818609E-02  0.8112926E-01
        1   -1    0    0  501    0  0.00000000000E+00  0.00000000000E+00  0.14178127712E+04  0.14178127712E+04  0.50400001928E-02 0. -1.
       -1   -1    0    0    0  501  0.00000000000E+00  0.00000000000E+00 -0.21645225566E+04  0.21645225566E+04  0.50400001928E-02 0.  1.
    10030    2    1    2    0    0  0.00000000000E+00  0.00000000000E+00 -0.74670978536E+03  0.35823353278E+04  0.35036482268E+04 0.  0.
        4    1    3    3  502    0 -0.52985582106E+03 -0.10825470899E+04 -0.16732174041E+04  0.20621138395E+04  0.12699999809E+01 0.  1.
       -4    1    3    3    0  502  0.52985582106E+03  0.10825470899E+04  0.92650761870E+03  0.15202214883E+04  0.12699999809E+01 0. -1.
</event>
<event>
 5   0  0.6890600E-07  0.3384222E+04  0.7818609E-02  0.8141790E-01
        1   -1    0    0  501    0  0.00000000000E+00  0.00000000000E+00  0.12096945439E+04  0.12096945439E+04  0.50400001928E-02 0.  1.
       -1   -1    0    0    0  501  0.00000000000E+00  0.00000000000E+00 -0.23669108853E+04  0.23669108853E+04  0.50400001928E-02 0. -1.
    10030    2    1    2    0    0  0.00000000000E+00  0.00000000000E+00 -0.11572163415E+04  0.35766054292E+04  0.33842217326E+04 0.  0.
        3    1    3    3  502    0  0.11149221774E+04  0.12637709044E+04 -0.41808280315E+03  0.17363644781E+04  0.10100000352E+00 0.  1.
       -3    1    3    3    0  502 -0.11149221774E+04 -0.12637709044E+04 -0.73913353830E+03  0.18402409511E+04  0.10100000352E+00 0. -1.
</event>
<event>
 5   0  0.1999883E-06  0.3489397E+04  0.7818609E-02  0.8116307E-01
        2   -1    0    0  501    0  0.00000000000E+00  0.00000000000E+00  0.30897360185E+04  0.30897360185E+04  0.25500000920E-02 0.  1.
       -2   -1    0    0    0  501  0.00000000000E+00  0.00000000000E+00 -0.98518846262E+03  0.98518846262E+03  0.25500000920E-02 0. -1.
    10030    2    1    2    0    0  0.00000000000E+00  0.00000000000E+00  0.21045475559E+04  0.40749244811E+04  0.34893966687E+04 0.  0.
        4    1    3    3  502    0  0.89296864631E+03 -0.28715935593E+03  0.27702201688E+04  0.29247179173E+04  0.12699999809E+01 0.  1.
       -4    1    3    3    0  502 -0.89296864631E+03  0.28715935593E+03 -0.66567261295E+03  0.11502065638E+04  0.12699999809E+01 0. -1.
</event>
<event>
 5   0  0.2020725E-06  0.3870089E+04  0.7818609E-02  0.8031279E-01
       -2   -1    0    0    0  501  0.00000000000E+00  0.00000000000E+00  0.16949570930E+04  0.16949570930E+04  0.25500000920E-02 0. -1.
        2   -1    0    0  501    0  0.00000000000E+00  0.00000000000E+00 -0.22091393825E+04  0.22091393825E+04  0.25500000920E-02 0.  1.
    10030    2    1    2    0    0  0.00000000000E+00  0.00000000000E+00 -0.51418228955E+03  0.39040964755E+04  0.38700886118E+04 0.  0.
        3    1    3    3  502    0  0.18151167561E+04 -0.56011363612E+03  0.11495905977E+03  0.19030480076E+04  0.10100000352E+00 0. -1.
       -3    1    3    3    0  502 -0.18151167561E+04  0.56011363612E+03 -0.62914134932E+03  0.20010484680E+04  0.10100000352E+00 0.  1.
</event>
<event>
 5   0  0.2001768E-06  0.3423635E+04  0.7818609E-02  0.8132130E-01
       -2   -1    0    0    0  501  0.00000000000E+00  0.00000000000E+00  0.13659753393E+04  0.13659753394E+04  0.25500000920E-02 0. -1.
        2   -1    0    0  501    0  0.00000000000E+00  0.00000000000E+00 -0.21452206391E+04  0.21452206391E+04  0.25500000920E-02 0.  1.
    10030    2    1    2    0    0  0.00000000000E+00  0.00000000000E+00 -0.77924529975E+03  0.35111959784E+04  0.34236346128E+04 0.  0.
        2    1    3    3  502    0  0.14783800152E+04 -0.48994700698E+03 -0.11181877667E+04  0.19172896027E+04  0.25500000920E-02 0.  1.
       -2    1    3    3    0  502 -0.14783800152E+04  0.48994700698E+03  0.33894246694E+03  0.15939063758E+04  0.25500000920E-02 0. -1.
</event>
<event>
 5   0  0.2001768E-06  0.3569514E+04  0.7818609E-02  0.8097511E-01
        2   -1    0    0  501    0  0.00000000000E+00  0.00000000000E+00  0.21018355961E+04  0.21018355961E+04  0.25500000920E-02 0.  1.
       -2   -1    0    0    0  501  0.00000000000E+00  0.00000000000E+00 -0.15155122240E+04  0.15155122240E+04  0.25500000920E-02 0. -1.
    10030    2    1    2    0    0  0.00000000000E+00  0.00000000000E+00  0.58632337212E+03  0.36173478201E+04  0.35695139942E+04 0.  0.
        2    1    3    3  502    0 -0.66886842037E+02  0.91708323049E+03  0.18433142762E+04  0.20599327713E+04  0.25500000920E-02 0.  1.
       -2    1    3    3    0  502  0.66886842037E+02 -0.91708323049E+03 -0.12569909041E+04  0.15574150488E+04  0.25500000920E-02 0. -1.
</event>
<event>
 5   0  0.1999883E-06  0.3490211E+04  0.7818609E-02  0.8116114E-01
        2   -1    0    0  501    0  0.00000000000E+00  0.00000000000E+00  0.19961263776E+04  0.19961263776E+04  0.25500000920E-02 0. -1.
       -2   -1    0    0    0  501  0.00000000000E+00  0.00000000000E+00 -0.15256513084E+04  0.15256513084E+04  0.25500000920E-02 0.  1.
    10030    2    1    2    0    0  0.00000000000E+00  0.00000000000E+00  0.47047506921E+03  0.35217776859E+04  0.34902107785E+04 0.  0.
        4    1    3    3  502    0 -0.39804121919E+02  0.61491545934E+03  0.18826970940E+04  0.19809733342E+04  0.12699999809E+01 0. -1.
       -4    1    3    3    0  502  0.39804121919E+02 -0.61491545934E+03 -0.14122220247E+04  0.15408043517E+04  0.12699999809E+01 0.  1.
</event>
<event>
 5   0  0.2023479E-06  0.3478738E+04  0.7818609E-02  0.8118847E-01
        2   -1    0    0  501    0  0.00000000000E+00  0.00000000000E+00  0.19332416325E+04  0.19332416325E+04  0.25500000920E-02 0. -1.
       -2   -1    0    0    0  501  0.00000000000E+00  0.00000000000E+00 -0.15649385822E+04  0.15649385822E+04  0.25500000920E-02 0.  1.
    10030    2    1    2    0    0  0.00000000000E+00  0.00000000000E+00  0.36830305032E+03  0.34981802147E+04  0.34787379433E+04 0.  0.
        5    1    3    3  502    0 -0.78112168403E+03  0.14633976806E+04 -0.34193436238E+03  0.16937015838E+04  0.46999998093E+01 0.  1.
       -5    1    3    3    0  502  0.78112168403E+03 -0.14633976806E+04  0.71023741270E+03  0.18044786309E+04  0.46999998093E+01 0. -1.
</event>
<event>
 5   0  0.2023479E-06  0.2964713E+04  0.7818609E-02  0.8253880E-01
        2   -1    0    0  501    0  0.00000000000E+00  0.00000000000E+00  0.14649899579E+04  0.14649899579E+04  0.25500000920E-02 0.  1.
       -2   -1    0    0    0  501  0.00000000000E+00  0.00000000000E+00 -0.14999292944E+04  0.14999292944E+04  0.25500000920E-02 0. -1.
    10030    2    1    2    0    0  0.00000000000E+00  0.00000000000E+00 -0.34939336536E+02  0.29649192523E+04  0.29647133782E+04 0.  0.
        5    1    3    3  502    0 -0.65245079137E+03 -0.21661463527E+03  0.12959171272E+04  0.14669823536E+04  0.46999998093E+01 0.  1.
       -5    1    3    3    0  502  0.65245079137E+03  0.21661463527E+03 -0.13308564637E+04  0.14979368986E+04  0.46999998093E+01 0. -1.
</event>
<event>
 5   0  0.2020725E-06  0.2728004E+04  0.7818609E-02  0.8325975E-01
       -2   -1    0    0    0  501  0.00000000000E+00  0.00000000000E+00  0.11639836615E+04  0.11639836615E+04  0.25500000920E-02 0. -1.
        2   -1    0    0  501    0  0.00000000000E+00  0.00000000000E+00 -0.15983914603E+04  0.15983914603E+04  0.25500000920E-02 0.  1.
    10030    2    1    2    0    0  0.00000000000E+00  0.00000000000E+00 -0.43440779887E+03  0.27623751218E+04  0.27280040648E+04 0.  0.
        3    1    3    3  502    0  0.13743320109E+03 -0.42950800233E+02 -0.15906742067E+04  0.15971778543E+04  0.10100000352E+00 0.  1.
       -3    1    3    3    0  502 -0.13743320109E+03  0.42950800233E+02  0.11562664079E+04  0.11651972675E+04  0.10100000352E+00 0. -1.
</event>
<event>
 5   0  0.6630125E-07  0.3464509E+04  0.7818609E-02  0.8122253E-01
       -1   -1    0    0    0  501  0.00000000000E+00  0.00000000000E+00  0.13910774592E+04  0.13910774593E+04  0.50400001928E-02 0.  1.
        1   -1    0    0  501    0  0.00000000000E+00  0.00000000000E+00 -0.21571090343E+04  0.21571090343E+04  0.50400001928E-02 0. -1.
    10030    2    1    2    0    0  0.00000000000E+00  0.00000000000E+00 -0.76603157505E+03  0.35481864936E+04  0.34645090589E+04 0.  0.
        1    1    3    3  502    0 -0.45511475220E+03  0.16607928792E+04 -0.57555467872E+03  0.18156612056E+04  0.50400001928E-02 0.  1.
       -1    1    3    3    0  502  0.45511475220E+03 -0.16607928792E+04 -0.19047689633E+03  0.17325252879E+04  0.50400001928E-02 0. -1.
</event>
<event>
 5   0  0.6630125E-07  0.3556758E+04  0.7818609E-02  0.8100469E-01
        1   -1    0    0  501    0  0.00000000000E+00  0.00000000000E+00  0.16156327311E+04  0.16156327311E+04  0.50400001928E-02 0. -1.
       -1   -1    0    0    0  501  0.00000000000E+00  0.00000000000E+00 -0.19575192227E+04  0.19575192227E+04  0.50400001928E-02 0.  1.
    10030    2    1    2    0    0  0.00000000000E+00  0.00000000000E+00 -0.34188649159E+03  0.35731519538E+04  0.35567581464E+04 0.  0.
        1    1    3    3  502    0 -0.15003606359E+04 -0.63756723276E+03 -0.88489329356E+03  0.18548881786E+04  0.50400001928E-02 0.  1.
       -1    1    3    3    0  502  0.15003606359E+04  0.63756723276E+03  0.54300680198E+03  0.17182637752E+04  0.50400001928E-02 0. -1.
</event>
<event>
 5   0  0.2001768E-06  0.3427264E+04  0.7818609E-02  0.8131247E-01
        2   -1    0    0  501    0  0.00000000000E+00  0.00000000000E+00  0.22719412160E+04  0.22719412160E+04  0.25500000920E-02 0. -1.
       -2   -1    0    0    0  501  0.00000000000E+00  0.00000000000E+00 -0.12925225261E+04  0.12925225261E+04  0.25500000920E-02 0.  1.
    10030    2    1    2    0    0  0.00000000000E+00  0.00000000000E+00  0.97941868990E+03  0.35644637420E+04  0.34272643315E+04 0.  0.
        2    1    3    3  502    0 -0.72838918624E+03  0.70792487601E+03  0.19251139737E+04  0.21766424255E+04  0.25500000920E-02 0. -1.
       -2    1    3    3    0  502  0.72838918624E+03 -0.70792487601E+03 -0.94569528383E+03  0.13878213165E+04  0.25500000920E-02 0.  1.
</event>
<event>
 5   0  0.1999883E-06  0.3131846E+04  0.7818609E-02  0.8207052E-01
       -2   -1    0    0    0  501  0.00000000000E+00  0.00000000000E+00  0.18113964651E+04  0.18113964651E+04  0.25500000920E-02 0.  1.
        2   -1    0    0  501    0  0.00000000000E+00  0.00000000000E+00 -0.13537150033E+04  0.13537150033E+04  0.25500000920E-02 0. -1.
    10030    2    1    2    0    0  0.00000000000E+00  0.00000000000E+00  0.45768146183E+03  0.31651114685E+04  0.31318458275E+04 0.  0.
        4    1    3    3  502    0 -0.32575973945E+02 -0.59821716242E+03  0.16909935033E+04  0.17939859556E+04  0.12699999809E+01 0.  1.
       -4    1    3    3    0  502  0.32575973945E+02  0.59821716242E+03 -0.12333120415E+04  0.13711255129E+04  0.12699999809E+01 0. -1.
</event>
<event>
 5   0  0.6630125E-07  0.3508527E+04  0.7818609E-02  0.8111772E-01
        1   -1    0    0  501    0  0.00000000000E+00  0.00000000000E+00  0.12373950096E+04  0.12373950096E+04  0.50400001928E-02 0. -1.
       -1   -1    0    0    0  501  0.00000000000E+00  0.00000000000E+00 -0.24870311175E+04  0.24870311175E+04  0.50400001928E-02 0.  1.
    10030    2    1    2    0    0  0.00000000000E+00  0.00000000000E+00 -0.12496361079E+04  0.37244261271E+04  0.35085266956E+04 0.  0.
        5    1    3    3  502    0  0.68755436590E+03  0.71666180253E+03 -0.21598597599E+04  0.23772571206E+04  0.46999998093E+01 0.  1.
       -5    1    3    3    0  502 -0.68755436590E+03 -0.71666180253E+03  0.91022365197E+03  0.13471690064E+04  0.46999998093E+01 0. -1.
</event>
<event>
 5   0  0.6630125E-07  0.3135085E+04  0.7818609E-02  0.8206175E-01
       -3   -1    0    0    0  501  0.00000000000E+00  0.00000000000E+00  0.12226658736E+04  0.12226658778E+04  0.10100000352E+00 0. -1.
        3   -1    0    0  501    0  0.00000000000E+00  0.00000000000E+00 -0.20096982497E+04  0.20096982522E+04  0.10100000352E+00 0.  1.
    10030    2    1    2    0    0  0.00000000000E+00  0.00000000000E+00 -0.78703237609E+03  0.32323641300E+04  0.31350849921E+04 0.  0.
        5    1    3    3  502    0 -0.22940614276E+03 -0.15182542233E+04 -0.68383259747E+02  0.15370170543E+04  0.46999998093E+01 0. -1.
       -5    1    3    3    0  502  0.22940614276E+03  0.15182542233E+04 -0.71864911635E+03  0.16953470758E+04  0.46999998093E+01 0.  1.
</event>
<event>
 5   0  0.1999883E-06  0.3617351E+04  0.7818609E-02  0.8086529E-01
       -2   -1    0    0    0  501  0.00000000000E+00  0.00000000000E+00  0.26047720133E+04  0.26047720133E+04  0.25500000920E-02 0. -1.
        2   -1    0    0  501    0  0.00000000000E+00  0.00000000000E+00 -0.12558903226E+04  0.12558903226E+04  0.25500000920E-02 0.  1.
    10030    2    1    2    0    0  0.00000000000E+00  0.00000000000E+00  0.13488816907E+04  0.38606623359E+04  0.36173514974E+04 0.  0.
        4    1    3    3  502    0 -0.37657388624E+03  0.17438815107E+04  0.35716454725E+03  0.18194776013E+04  0.12699999809E+01 0. -1.
       -4    1    3    3    0  502  0.37657388624E+03 -0.17438815107E+04  0.99171714347E+03  0.20411847345E+04  0.12699999809E+01 0.  1.
</event>
<event>
 5   0  0.6630125E-07  0.3591676E+04  0.7818609E-02  0.8092401E-01
       -1   -1    0    0    0  501  0.00000000000E+00  0.00000000000E+00  0.19908122322E+04  0.19908122322E+04  0.50400001928E-02 0.  1.
        1   -1    0    0  501    0  0.00000000000E+00  0.00000000000E+00 -0.16199592629E+04  0.16199592629E+04  0.50400001928E-02 0. -1.
    10030    2    1    2    0    0  0.00000000000E+00  0.00000000000E+00  0.37085296927E+03  0.36107714951E+04  0.35916763307E+04 0.  0.
        5    1    3    3  502    0 -0.14750797323E+04  0.21964413255E+03 -0.82034676471E+03  0.17020853874E+04  0.46999998093E+01 0. -1.
       -5    1    3    3    0  502  0.14750797323E+04 -0.21964413255E+03  0.11911997340E+04  0.19086861077E+04  0.46999998093E+01 0.  1.
</event>
<event>
 5   0  0.6630125E-07  0.3508636E+04  0.7818609E-02  0.8111746E-01
       -1   -1    0    0    0  501  0.00000000000E+00  0.00000000000E+00  0.16944414399E+04  0.16944414399E+04  0.50400001928E-02 0.  1.
        1   -1    0    0  501    0  0.00000000000E+00  0.00000000000E+00 -0.18163100499E+04  0.18163100499E+04  0.50400001928E-02 0. -1.
    10030    2    1    2    0    0  0.00000000000E+00  0.00000000000E+00 -0.12186860993E+03  0.35107514898E+04  0.35086356415E+04 0.  0.
        4    1    3    3  502    0 -0.10327520636E+03 -0.14916008649E+04  0.85727396659E+03  0.17235020090E+04  0.12699999809E+01 0.  1.
       -4    1    3    3    0  502  0.10327520636E+03  0.14916008649E+04 -0.97914257652E+03  0.17872494808E+04  0.12699999809E+01 0. -1.
</event>
<event>
 5   0  0.6630125E-07  0.3527915E+04  0.7818609E-02  0.8107206E-01
       -1   -1    0    0    0  501  0.00000000000E+00  0.00000000000E+00  0.12577414386E+04  0.12577414386E+04  0.50400001928E-02 0. -1.
        1   -1    0    0  501    0  0.00000000000E+00  0.00000000000E+00 -0.24739156301E+04  0.24739156301E+04  0.50400001928E-02 0.  1.
    10030    2    1    2    0    0  0.00000000000E+00  0.00000000000E+00 -0.12161741915E+04  0.37316570687E+04  0.35279150804E+04 0.  0.
        1    1    3    3  502    0 -0.97133263670E+03 -0.88429522298E+03 -0.18533983693E+04  0.22716845397E+04  0.50400001928E-02 0.  1.
       -1    1    3    3    0  502  0.97133263670E+03  0.88429522298E+03  0.63722417786E+03  0.14599725290E+04  0.50400001928E-02 0. -1.
</event>
<event>
 5   0  0.6630125E-07  0.3480030E+04  0.7818609E-02  0.8118539E-01
       -1   -1    0    0    0  501  0.00000000000E+00  0.00000000000E+00  0.17661910243E+04  0.17661910243E+04  0.50400001928E-02 0. -1.
        1   -1    0    0  501    0  0.00000000000E+00  0.00000000000E+00 -0.17142268586E+04  0.17142268586E+04  0.50400001928E-02 0.  1.
    10030    2    1    2    0    0  0.00000000000E+00  0.00000000000E+00  0.51964165698E+02  0.34804178829E+04  0.34800299374E+04 0.  0.
        1    1    3    3  502    0  0.33904121020E+03  0.45141159142E+03  0.16720485238E+04  0.17647854355E+04  0.50400001928E-02 0. -1.
       -1    1    3    3    0  502 -0.33904121020E+03 -0.45141159142E+03 -0.16200843582E+04  0.17156324474E+04  0.50400001928E-02 0.  1.
</event>
<event>
 5   0  0.6630125E-07  0.3454739E+04  0.7818609E-02  0.8124601E-01
       -1   -1    0    0    0  501  0.00000000000E+00  0.00000000000E+00  0.13417362843E+04  0.13417362844E+04  0.50400001928E-02 0.  1.
        1   -1    0    0  501    0  0.00000000000E+00  0.00000000000E+00 -0.22238386688E+04  0.22238386688E+04  0.50400001928E-02 0. -1.
    10030    2    1    2    0    0  0.00000000000E+00  0.00000000000E+00 -0.88210238445E+03  0.35655749532E+04  0.34547387933E+04 0.  0.
        1    1    3    3  502    0  0.15024438683E+04 -0.81286073223E+03 -0.17645763126E+03  0.17173285775E+04  0.50400001928E-02 0.  1.
       -1    1    3    3    0  502 -0.15024438683E+04  0.81286073223E+03 -0.70564475320E+03  0.18482463757E+04  0.50400001928E-02 0. -1.
</event>
<event>
 5   0  0.7378896E-07  0.3427055E+04  0.7818609E-02  0.8131298E-01
       -1   -1    0    0    0  501  0.00000000000E+00  0.00000000000E+00  0.12221166335E+04  0.12221166335E+04  0.50400001928E-02 0. -1.
        1   -1    0    0  501    0  0.00000000000E+00  0.00000000000E+00 -0.24025339695E+04  0.24025339695E+04  0.50400001928E-02 0.  1.
    10030    2    1    2    0    0  0.00000000000E+00  0.00000000000E+00 -0.11804173361E+04  0.36246506030E+04  0.34270551362E+04 0.  0.
        2    1    3    3  502    0  0.24552608034E+03 -0.15769669472E+04 -0.12499266566E+04  0.20271715407E+04  0.25500000920E-02 0.  1.
       -2    1    3    3    0  502 -0.24552608034E+03  0.15769669472E+04  0.69509320479E+02  0.15974790623E+04  0.25500000920E-02 0. -1.
</event>
<event>
 5   0  0.6630125E-07  0.3509142E+04  0.7818609E-02  0.8111627E-01
       -1   -1    0    0    0  501  0.00000000000E+00  0.00000000000E+00  0.13806755089E+04  0.13806755089E+04  0.50400001928E-02 0. -1.
        1   -1    0    0  501    0  0.00000000000E+00  0.00000000000E+00 -0.22297202163E+04  0.22297202163E+04  0.50400001928E-02 0.  1.
    10030    2    1    2    0    0  0.00000000000E+00  0.00000000000E+00 -0.84904470737E+03  0.36103957252E+04  0.35091423991E+04 0.  0.
        5    1    3    3  502    0  0.34798743331E+03 -0.90133746723E+03 -0.19313611959E+04  0.21595561217E+04  0.46999998093E+01 0.  1.
       -5    1    3    3    0  502 -0.34798743331E+03  0.90133746723E+03  0.10823164886E+04  0.14508396035E+04  0.46999998093E+01 0. -1.
</event>
<event>
 5   0  0.2020725E-06  0.3406364E+04  0.7818609E-02  0.8136346E-01
       -2   -1    0    0    0  501  0.00000000000E+00  0.00000000000E+00  0.13211426244E+04  0.13211426244E+04  0.25500000920E-02 0. -1.
        2   -1    0    0  501    0  0.00000000000E+00  0.00000000000E+00 -0.21956969426E+04  0.21956969426E+04  0.25500000920E-02 0.  1.
    10030    2    1    2    0    0  0.00000000000E+00  0.00000000000E+00 -0.87455431816E+03  0.35168395670E+04  0.34063639390E+04 0.  0.
        3    1    3    3  502    0  0.48569424493E+02  0.23078586686E+03 -0.21787571884E+04  0.21914844288E+04  0.10100000352E+00 0.  1.
       -3    1    3    3    0  502 -0.48569424493E+02 -0.23078586686E+03  0.13042028703E+04  0.13253551382E+04  0.10100000352E+00 0. -1.
</event>
<event>
 5   0  0.6890600E-07  0.3522014E+04  0.7818609E-02  0.8108593E-01
        1   -1    0    0  501    0  0.00000000000E+00  0.00000000000E+00  0.20264454394E+04  0.20264454394E+04  0.50400001928E-02 0.  1.
       -1   -1    0    0    0  501  0.00000000000E+00  0.00000000000E+00 -0.15303377931E+04  0.15303377931E+04  0.50400001928E-02 0. -1.
    10030    2    1    2    0    0  0.00000000000E+00  0.00000000000E+00  0.49610764628E+03  0.35567832326E+04  0.35220142201E+04 0.  0.
        3    1    3    3  502    0  0.48500549795E+03 -0.20370155610E+02  0.19575437912E+04  0.20168348918E+04  0.10100000352E+00 0.  1.
       -3    1    3    3    0  502 -0.48500549795E+03  0.20370155610E+02 -0.14614361449E+04  0.15399483407E+04  0.10100000352E+00 0. -1.
</event>
<event>
 5   0  0.7378896E-07  0.3513004E+04  0.7818609E-02  0.8110715E-01
       -1   -1    0    0    0  501  0.00000000000E+00  0.00000000000E+00  0.16395417435E+04  0.16395417435E+04  0.50400001928E-02 0.  1.
        1   -1    0    0  501    0  0.00000000000E+00  0.00000000000E+00 -0.18818059451E+04  0.18818059452E+04  0.50400001928E-02 0. -1.
    10030    2    1    2    0    0  0.00000000000E+00  0.00000000000E+00 -0.24226420164E+03  0.35213476887E+04  0.35130040707E+04 0.  0.
        2    1    3    3  502    0  0.97511963898E+03 -0.39949510057E+03 -0.15297614592E+04  0.18575857363E+04  0.25500000920E-02 0. -1.
       -2    1    3    3    0  502 -0.97511963898E+03  0.39949510057E+03  0.12874972576E+04  0.16637619523E+04  0.25500000920E-02 0.  1.
</event>
<event>
 5   0  0.2023479E-06  0.3211589E+04  0.7818609E-02  0.8185763E-01
       -2   -1    0    0    0  501  0.00000000000E+00  0.00000000000E+00  0.15123253256E+04  0.15123253256E+04  0.25500000920E-02 0.  1.
        2   -1    0    0  501    0  0.00000000000E+00  0.00000000000E+00 -0.17050402382E+04  0.17050402382E+04  0.25500000920E-02 0. -1.
    10030    2    1    2    0    0  0.00000000000E+00  0.00000000000E+00 -0.19271491265E+03  0.32173655638E+04  0.32115887242E+04 0.  0.
        5    1    3    3  502    0  0.68652134321E+02 -0.18857337406E+03  0.14997064766E+04  0.15130811739E+04  0.46999998093E+01 0.  1.
       -5    1    3    3    0  502 -0.68652134321E+02  0.18857337406E+03 -0.16924213892E+04  0.17042843899E+04  0.46999998093E+01 0. -1.
</event>
<event>
 5   0  0.2020725E-06  0.3646794E+04  0.7818609E-02  0.8079856E-01
       -2   -1    0    0    0  501  0.00000000000E+00  0.00000000000E+00  0.12036710937E+04  0.12036710937E+04  0.25500000920E-02 0.  1.
        2   -1    0    0  501    0  0.00000000000E+00  0.00000000000E+00 -0.27621971987E+04  0.27621971987E+04  0.25500000920E-02 0. -1.
    10030    2    1    2    0    0  0.00000000000E+00  0.00000000000E+00 -0.15585261049E+04  0.39658682924E+04  0.36467941665E+04 0.  0.
        3    1    3    3  502    0  0.18337665164E+03 -0.14189144208E+04 -0.20085800276E+04  0.24660370774E+04  0.10100000352E+00 0. -1.
       -3    1    3    3    0  502 -0.18337665164E+03  0.14189144208E+04  0.45005392263E+03  0.14998312150E+04  0.10100000352E+00 0.  1.
</event>
<event>
 5   0  0.6630125E-07  0.3229941E+04  0.7818609E-02  0.8180954E-01
       -1   -1    0    0    0  501  0.00000000000E+00  0.00000000000E+00  0.10724386348E+04  0.10724386348E+04  0.50400001928E-02 0. -1.
        1   -1    0    0  501    0  0.00000000000E+00  0.00000000000E+00 -0.24319620557E+04  0.24319620557E+04  0.50400001928E-02 0.  1.
    10030    2    1    2    0    0  0.00000000000E+00  0.00000000000E+00 -0.13595234209E+04  0.35044006905E+04  0.32299412174E+04 0.  0.
        1    1    3    3  502    0 -0.94290881985E+02 -0.10833978867E+04  0.61562957061E+03  0.12496565606E+04  0.50400001928E-02 0. -1.
       -1    1    3    3    0  502  0.94290881985E+02  0.10833978867E+04 -0.19751529915E+04  0.22547441299E+04  0.50400001928E-02 0.  1.
</event>
<event>
 5   0  0.1999883E-06  0.3269010E+04  0.7818609E-02  0.8170826E-01
       -2   -1    0    0    0  501  0.00000000000E+00  0.00000000000E+00  0.14204162110E+04  0.14204162110E+04  0.25500000920E-02 0. -1.
        2   -1    0    0  501    0  0.00000000000E+00  0.00000000000E+00 -0.18808621082E+04  0.18808621082E+04  0.25500000920E-02 0.  1.
    10030    2    1    2    0    0  0.00000000000E+00  0.00000000000E+00 -0.46044589723E+03  0.33012783192E+04  0.32690102656E+04 0.  0.
        4    1    3    3  502    0  0.57750915228E+02  0.87060686088E+03  0.11655610909E+04  0.14559621369E+04  0.12699999809E+01 0. -1.
       -4    1    3    3    0  502 -0.57750915228E+02 -0.87060686088E+03 -0.16260069882E+04  0.18453161824E+04  0.12699999809E+01 0.  1.
</event>
<event>
 5   0  0.2073287E-06  0.3487596E+04  0.7818609E-02  0.8116736E-01
       -2   -1    0    0    0  501  0.00000000000E+00  0.00000000000E+00  0.10735761894E+04  0.10735761894E+04  0.25500000920E-02 0. -1.
        2   -1    0    0  501    0  0.00000000000E+00  0.00000000000E+00 -0.28324314436E+04  0.28324314436E+04  0.25500000920E-02 0.  1.
    10030    2    1    2    0    0  0.00000000000E+00  0.00000000000E+00 -0.17588552541E+04  0.39060076330E+04  0.34875957082E+04 0.  0.
        1    1    3    3  502    0 -0.57697194801E+03 -0.46953618744E+03  0.88695948471E+03  0.11576087369E+04  0.50400001928E-02 0. -1.
       -1    1    3    3    0  502  0.57697194801E+03  0.46953618744E+03 -0.26458147388E+04  0.27483988961E+04  0.50400001928E-02 0.  1.
</event>
<event>
 5   0  0.2020725E-06  0.3682072E+04  0.7818609E-02  0.8071947E-01
       -2   -1    0    0    0  501  0.00000000000E+00  0.00000000000E+00  0.12434818366E+04  0.12434818366E+04  0.25500000920E-02 0. -1.
        2   -1    0    0  501    0  0.00000000000E+00  0.00000000000E+00 -0.27257442941E+04  0.27257442941E+04  0.25500000920E-02 0.  1.
    10030    2    1    2    0    0  0.00000000000E+00  0.00000000000E+00 -0.14822624575E+04  0.39692261307E+04  0.36820719824E+04 0.  0.
        3    1    3    3  502    0 -0.39179913678E+03  0.15261369114E+04 -0.17676631386E+04  0.23679597584E+04  0.10100000352E+00 0.  1.
       -3    1    3    3    0  502  0.39179913678E+03 -0.15261369114E+04  0.28540068114E+03  0.16012663722E+04  0.10100000352E+00 0. -1.
</event>
<event>
 5   0  0.6630125E-07  0.3406126E+04  0.7818609E-02  0.8136404E-01
       -1   -1    0    0    0  501  0.00000000000E+00  0.00000000000E+00  0.17843795607E+04  0.17843795607E+04  0.50400001928E-02 0. -1.
        1   -1    0    0  501    0  0.00000000000E+00  0.00000000000E+00 -0.16254520744E+04  0.16254520744E+04  0.50400001928E-02 0.  1.
    10030    2    1    2    0    0  0.00000000000E+00  0.00000000000E+00  0.15892748630E+03  0.34098316351E+04  0.34061259274E+04 0.  0.
        5    1    3    3  502    0 -0.16557563773E+03 -0.16791511766E+04 -0.15195306838E+03  0.16941298034E+04  0.46999998093E+01 0.  1.
       -5    1    3    3    0  502  0.16557563773E+03  0.16791511766E+04  0.31088055468E+03  0.17157018316E+04  0.46999998093E+01 0. -1.
</event>
<event>
 5   0  0.7378896E-07  0.3384909E+04  0.7818609E-02  0.8141620E-01
        1   -1    0    0  501    0  0.00000000000E+00  0.00000000000E+00  0.15915613133E+04  0.15915613133E+04  0.50400001928E-02 0. -1.
       -1   -1    0    0    0  501  0.00000000000E+00  0.00000000000E+00 -0.17997438114E+04  0.17997438114E+04  0.50400001928E-02 0.  1.
    10030    2    1    2    0    0  0.00000000000E+00  0.00000000000E+00 -0.20818249812E+03  0.33913051247E+04  0.33849092302E+04 0.  0.
        2    1    3    3  502    0  0.16693793014E+04  0.53102897128E+01  0.17490786468E+03  0.16785256067E+04  0.25500000920E-02 0. -1.
       -2    1    3    3    0  502 -0.16693793014E+04 -0.53102897128E+01 -0.38309036280E+03  0.17127795180E+04  0.25500000920E-02 0.  1.
</event>
<event>
 5   0  0.6630125E-07  0.3446766E+04  0.7818609E-02  0.8126523E-01
        1   -1    0    0  501    0  0.00000000000E+00  0.00000000000E+00  0.12236325998E+04  0.12236325998E+04  0.50400001928E-02 0.  1.
       -1   -1    0    0    0  501  0.00000000000E+00  0.00000000000E+00 -0.24272391436E+04  0.24272391436E+04  0.50400001928E-02 0. -1.
    10030    2    1    2    0    0  0.00000000000E+00  0.00000000000E+00 -0.12036065438E+04  0.36508717434E+04  0.34467659878E+04 0.  0.
        1    1    3    3  502    0  0.27759183718E+02 -0.17130459289E+04 -0.79926129540E+03  0.18905331378E+04  0.50400001928E-02 0.  1.
       -1    1    3    3    0  502 -0.27759183718E+02  0.17130459289E+04 -0.40434524843E+03  0.17603386057E+04  0.50400001928E-02 0. -1.
</event>
<event>
 5   0  0.2001768E-06  0.2438525E+04  0.7818609E-02  0.8425220E-01
        2   -1    0    0  501    0  0.00000000000E+00  0.00000000000E+00  0.22250061361E+04  0.22250061361E+04  0.25500000920E-02 0. -1.
       -2   -1    0    0    0  501  0.00000000000E+00  0.00000000000E+00 -0.66813352258E+03  0.66813352258E+03  0.25500000920E-02 0.  1.
    10030    2    1    2    0    0  0.00000000000E+00  0.00000000000E+00  0.15568726135E+04  0.28931396587E+04  0.24385251177E+04 0.  0.
        2    1    3    3  502    0  0.55755490095E+03 -0.83793633699E+03 -0.38045229906E+02  0.10072001846E+04  0.25500000920E-02 0.  1.
       -2    1    3    3    0  502 -0.55755490095E+03  0.83793633699E+03  0.15949178434E+04  0.18859394740E+04  0.25500000920E-02 0. -1.
</event>
<event>
 5   0  0.1999883E-06  0.3550282E+04  0.7818609E-02  0.8101976E-01
        2   -1    0    0  501    0  0.00000000000E+00  0.00000000000E+00  0.13605828481E+04  0.13605828481E+04  0.25500000920E-02 0. -1.
       -2   -1    0    0    0  501  0.00000000000E+00  0.00000000000E+00 -0.23160120813E+04  0.23160120813E+04  0.25500000920E-02 0.  1.
    10030    2    1    2    0    0  0.00000000000E+00  0.00000000000E+00 -0.95542923321E+03  0.36765949294E+04  0.35502824191E+04 0.  0.
        4    1    3    3  502    0  0.17079568281E+04 -0.48374368376E+03 -0.47722591048E+03  0.18381704656E+04  0.12699999809E+01 0. -1.
       -4    1    3    3    0  502 -0.17079568281E+04  0.48374368376E+03 -0.47820332272E+03  0.18384244638E+04  0.12699999809E+01 0.  1.
</event>
<event>
 5   0  0.7378896E-07  0.3213514E+04  0.7818609E-02  0.8185257E-01
        1   -1    0    0  501    0  0.00000000000E+00  0.00000000000E+00  0.20926239663E+04  0.20926239663E+04  0.50400001928E-02 0.  1.
       -1   -1    0    0    0  501  0.00000000000E+00  0.00000000000E+00 -0.12336989616E+04  0.12336989616E+04  0.50400001928E-02 0. -1.
    10030    2    1    2    0    0  0.00000000000E+00  0.00000000000E+00  0.85892500474E+03  0.33263229279E+04  0.32135139734E+04 0.  0.
        2    1    3    3  502    0 -0.13748956205E+04 -0.69319849455E+03  0.90471629526E+03  0.17858817696E+04  0.25500000920E-02 0. -1.
       -2    1    3    3    0  502  0.13748956205E+04  0.69319849455E+03 -0.45791290521E+02  0.15404411583E+04  0.25500000920E-02 0.  1.
</event>
<event>
 5   0  0.6630125E-07  0.3716268E+04  0.7818609E-02  0.8064366E-01
        1   -1    0    0  501    0  0.00000000000E+00  0.00000000000E+00  0.23666393539E+04  0.23666393539E+04  0.50400001928E-02 0.  1.
       -1   -1    0    0    0  501  0.00000000000E+00  0.00000000000E+00 -0.14588882300E+04  0.14588882300E+04  0.50400001928E-02 0. -1.
    10030    2    1    2    0    0  0.00000000000E+00  0.00000000000E+00  0.90775112382E+03  0.38255275839E+04  0.37162681809E+04 0.  0.
        5    1    3    3  502    0  0.18128037371E+04 -0.61960548733E+02  0.38855229393E+02  0.18142845195E+04  0.46999998093E+01 0. -1.
       -5    1    3    3    0  502 -0.18128037371E+04  0.61960548733E+02  0.86889589443E+03  0.20112430644E+04  0.46999998093E+01 0.  1.
</event>
<event>
 5   0  0.7378896E-07  0.2543436E+04  0.7818609E-02  0.8387673E-01
        1   -1    0    0  501    0  0.00000000000E+00  0.00000000000E+00  0.16605491226E+04  0.16605491226E+04  0.50400001928E-02 0. -1.
       -1   -1    0    0    0  501  0.00000000000E+00  0.00000000000E+00 -0.97393457837E+03  0.97393457838E+03  0.50400001928E-02 0.  1.
    10030    2    1    2    0    0  0.00000000000E+00  0.00000000000E+00  0.68661454426E+03  0.26344837010E+04  0.25434356368E+04 0.  0.
        2    1    3    3  502    0  0.53860394039E+03  0.64777473820E+03 -0.64345471701E+03  0.10600661719E+04  0.25500000920E-02 0.  1.
       -2    1    3    3    0  502 -0.53860394039E+03 -0.64777473820E+03  0.13300692613E+04  0.15744175291E+04  0.25500000920E-02 0. -1.
</event>
<event>
 5   0  0.6630125E-07  0.2883326E+04  0.7818609E-02  0.8277856E-01
       -3   -1    0    0    0  501  0.00000000000E+00  0.00000000000E+00  0.20149083008E+04  0.20149083033E+04  0.10100000352E+00 0. -1.
        3   -1    0    0  501    0  0.00000000000E+00  0.00000000000E+00 -0.10315070526E+04  0.10315070576E+04  0.10100000352E+00 0.  1.
    10030    2    1    2    0    0  0.00000000000E+00  0.00000000000E+00  0.98340124815E+03  0.30464153609E+04  0.28833259504E+04 0.  0.
        3    1    3    3  502    0 -0.82450387651E+02 -0.90717384477E+03 -0.68892499108E+03  0.11420946128E+04  0.10100000352E+00 0.  1.
       -3    1    3    3    0  502  0.82450387651E+02  0.90717384477E+03  0.16723262392E+04  0.19043207481E+04  0.10100000352E+00 0. -1.
</event>
<event>
 5   0  0.2001768E-06  0.2614778E+04  0.7818609E-02  0.8363199E-01
        2   -1    0    0  501    0  0.00000000000E+00  0.00000000000E+00  0.18140090853E+04  0.18140090853E+04  0.25500000920E-02 0. -1.
       -2   -1    0    0    0  501  0.00000000000E+00  0.00000000000E+00 -0.94225870117E+03  0.94225870118E+03  0.25500000920E-02 0.  1.
    10030    2    1    2    0    0  0.00000000000E+00  0.00000000000E+00  0.87175038410E+03  0.27562677864E+04  0.26147778832E+04 0.  0.
        2    1    3    3  502    0 -0.12088978319E+04  0.15470163927E+03  0.93465969818E+03  0.15358890964E+04  0.25500000920E-02 0. -1.
       -2    1    3    3    0  502  0.12088978319E+04 -0.15470163927E+03 -0.62909314080E+02  0.12203786900E+04  0.25500000920E-02 0.  1.
</event>
<event>
 5   0  0.2020725E-06  0.3438886E+04  0.7818609E-02  0.8128428E-01
       -2   -1    0    0    0  501  0.00000000000E+00  0.00000000000E+00  0.13825352799E+04  0.13825352799E+04  0.25500000920E-02 0. -1.
        2   -1    0    0  501    0  0.00000000000E+00  0.00000000000E+00 -0.21384510241E+04  0.21384510241E+04  0.25500000920E-02 0.  1.
    10030    2    1    2    0    0  0.00000000000E+00  0.00000000000E+00 -0.75591574416E+03  0.35209863041E+04  0.34388858575E+04 0.  0.
        3    1    3    3  502    0  0.16066661572E+04  0.23599993941E+03  0.20070030645E+03  0.16362618174E+04  0.10100000352E+00 0. -1.
       -3    1    3    3    0  502 -0.16066661572E+04 -0.23599993941E+03 -0.95661605061E+03  0.18847244866E+04  0.10100000352E+00 0.  1.
</event>
<event>
 5   0  0.2001768E-06  0.3514607E+04  0.7818609E-02  0.8110337E-01
        2   -1    0    0  501    0  0.00000000000E+00  0.00000000000E+00  0.14608657241E+04  0.14608657241E+04  0.25500000920E-02 0. -1.
       -2   -1    0    0    0  501  0.00000000000E+00  0.00000000000E+00 -0.21138936485E+04  0.21138936485E+04  0.25500000920E-02 0.  1.
    10030    2    1    2    0    0  0.00000000000E+00  0.00000000000E+00 -0.65302792448E+03  0.35747593726E+04  0.35146065359E+04 0.  0.
        2    1    3    3  502    0  0.10168514199E+04  0.35746194170E+03 -0.17381982426E+04  0.20452625700E+04  0.25500000920E-02 0.  1.
       -2    1    3    3    0  502 -0.10168514199E+04 -0.35746194170E+03  0.10851703181E+04  0.15294968026E+04  0.25500000920E-02 0. -1.
</event>
<event>
 5   0  0.6890600E-07  0.3208159E+04  0.7818609E-02  0.8186666E-01
        1   -1    0    0  501    0  0.00000000000E+00  0.00000000000E+00  0.25138154708E+04  0.25138154708E+04  0.50400001928E-02 0. -1.
       -1   -1    0    0    0  501  0.00000000000E+00  0.00000000000E+00 -0.10235719340E+04  0.10235719340E+04  0.50400001928E-02 0.  1.
    10030    2    1    2    0    0  0.00000000000E+00  0.00000000000E+00  0.14902435369E+04  0.35373874048E+04  0.32081589506E+04 0.  0.
        3    1    3    3  502    0  0.14039809449E+03  0.15413012814E+03 -0.10085687393E+04  0.10298925349E+04  0.10100000352E+00 0.  1.
       -3    1    3    3    0  502 -0.14039809449E+03 -0.15413012814E+03  0.24988122761E+04  0.25074948699E+04  0.10100000352E+00 0. -1.
</event>
<event>
 5   0  0.6630125E-07  0.3487083E+04  0.7818609E-02  0.8116858E-01
       -1   -1    0    0    0  501  0.00000000000E+00  0.00000000000E+00  0.15232839632E+04  0.15232839633E+04  0.50400001928E-02 0. -1.
        1   -1    0    0  501    0  0.00000000000E+00  0.00000000000E+00 -0.19956474497E+04  0.19956474497E+04  0.50400001928E-02 0.  1.
    10030    2    1    2    0    0  0.00000000000E+00  0.00000000000E+00 -0.47236348645E+03  0.35189314130E+04  0.34870834555E+04 0.  0.
        5    1    3    3  502    0  0.44748129364E+03 -0.13493821265E+04 -0.12547785593E+04  0.18961969714E+04  0.46999998093E+01 0. -1.
       -5    1    3    3    0  502 -0.44748129364E+03  0.13493821265E+04  0.78241507286E+03  0.16227344415E+04  0.46999998093E+01 0.  1.
</event>
<event>
 5   0  0.2020725E-06  0.3480787E+04  0.7818609E-02  0.8118358E-01
        2   -1    0    0  501    0  0.00000000000E+00  0.00000000000E+00  0.26255496725E+04  0.26255496725E+04  0.25500000920E-02 0.  1.
       -2   -1    0    0    0  501  0.00000000000E+00  0.00000000000E+00 -0.11536516126E+04  0.11536516126E+04  0.25500000920E-02 0. -1.
    10030    2    1    2    0    0  0.00000000000E+00  0.00000000000E+00  0.14718980599E+04  0.37792012851E+04  0.34807870453E+04 0.  0.
        3    1    3    3  502    0 -0.50340781033E+03  0.43743450530E+02  0.25441527422E+04  0.25938477401E+04  0.10100000352E+00 0.  1.
       -3    1    3    3    0  502  0.50340781033E+03 -0.43743450530E+02 -0.10722546823E+04  0.11853535451E+04  0.10100000352E+00 0. -1.
</event>
<event>
 5   0  0.6630125E-07  0.3501686E+04  0.7818609E-02  0.8113391E-01
       -1   -1    0    0    0  501  0.00000000000E+00  0.00000000000E+00  0.21833762703E+04  0.21833762703E+04  0.50400001928E-02 0.  1.
        1   -1    0    0  501    0  0.00000000000E+00  0.00000000000E+00 -0.14039958164E+04  0.14039958164E+04  0.50400001928E-02 0. -1.
    10030    2    1    2    0    0  0.00000000000E+00  0.00000000000E+00  0.77938045388E+03  0.35873720866E+04  0.35016859648E+04 0.  0.
        5    1    3    3  502    0 -0.31545552108E+03 -0.54473543238E+02 -0.13737524801E+04  0.14105663824E+04  0.46999998093E+01 0. -1.
       -5    1    3    3    0  502  0.31545552108E+03  0.54473543238E+02  0.21531329339E+04  0.21768057042E+04  0.46999998093E+01 0.  1.
</event>
<event>
 5   0  0.7378896E-07  0.3535802E+04  0.7818609E-02  0.8105357E-01
        1   -1    0    0  501    0  0.00000000000E+00  0.00000000000E+00  0.23678442380E+04  0.23678442380E+04  0.50400001928E-02 0.  1.
       -1   -1    0    0    0  501  0.00000000000E+00  0.00000000000E+00 -0.13199657075E+04  0.13199657075E+04  0.50400001928E-02 0. -1.
    10030    2    1    2    0    0  0.00000000000E+00  0.00000000000E+00  0.10478785305E+04  0.36878099455E+04  0.35358015753E+04 0.  0.
        2    1    3    3  502    0 -0.76221847024E+03 -0.13488908745E+04 -0.36412937974E+03  0.15915633173E+04  0.25500000920E-02 0. -1.
       -2    1    3    3    0  502  0.76221847024E+03  0.13488908745E+04  0.14120079102E+04  0.20962466282E+04  0.25500000920E-02 0.  1.
</event>
<event>
 5   0  0.2023479E-06  0.3328594E+04  0.7818609E-02  0.8155657E-01
       -2   -1    0    0    0  501  0.00000000000E+00  0.00000000000E+00  0.14331092031E+04  0.14331092031E+04  0.25500000920E-02 0. -1.
        2   -1    0    0  501    0  0.00000000000E+00  0.00000000000E+00 -0.19327800881E+04  0.19327800881E+04  0.25500000920E-02 0.  1.
    10030    2    1    2    0    0  0.00000000000E+00  0.00000000000E+00 -0.49967088498E+03  0.33658892912E+04  0.33285942569E+04 0.  0.
        5    1    3    3  502    0  0.34911604839E+03  0.51341924451E+03  0.13116100924E+04  0.14511459128E+04  0.46999998093E+01 0. -1.
       -5    1    3    3    0  502 -0.34911604839E+03 -0.51341924451E+03 -0.18112809774E+04  0.19147433783E+04  0.46999998093E+01 0.  1.
</event>
<event>
 5   0  0.6630125E-07  0.3237606E+04  0.7818609E-02  0.8178955E-01
       -1   -1    0    0    0  501  0.00000000000E+00  0.00000000000E+00  0.15094889283E+04  0.15094889283E+04  0.50400001928E-02 0. -1.
        1   -1    0    0  501    0  0.00000000000E+00  0.00000000000E+00 -0.17360337844E+04  0.17360337844E+04  0.50400001928E-02 0.  1.
    10030    2    1    2    0    0  0.00000000000E+00  0.00000000000E+00 -0.22654485608E+03  0.32455227127E+04  0.32376063855E+04 0.  0.
        1    1    3    3  502    0 -0.15786380568E+03 -0.53441220894E+03 -0.16368592061E+04  0.17291111736E+04  0.50400001928E-02 0.  1.
       -1    1    3    3    0  502  0.15786380568E+03  0.53441220894E+03  0.14103143500E+04  0.15164115391E+04  0.50400001928E-02 0. -1.
</event>
<event>
 5   0  0.2020725E-06  0.3513453E+04  0.7818609E-02  0.8110609E-01
        2   -1    0    0  501    0  0.00000000000E+00  0.00000000000E+00  0.16146074868E+04  0.16146074868E+04  0.25500000920E-02 0.  1.
       -2   -1    0    0    0  501  0.00000000000E+00  0.00000000000E+00 -0.19113545387E+04  0.19113545388E+04  0.25500000920E-02 0. -1.
    10030    2    1    2    0    0  0.00000000000E+00  0.00000000000E+00 -0.29674705195E+03  0.35259620256E+04  0.35134526314E+04 0.  0.
        3    1    3    3  502    0  0.37312840079E+03 -0.71685203125E+03 -0.17137301887E+04  0.18947223564E+04  0.10100000352E+00 0. -1.
       -3    1    3    3    0  502 -0.37312840079E+03  0.71685203125E+03  0.14169831367E+04  0.16312396691E+04  0.10100000352E+00 0.  1.
</event>
<event>
 5   0  0.1999883E-06  0.3053470E+04  0.7818609E-02  0.8228625E-01
       -2   -1    0    0    0  501  0.00000000000E+00  0.00000000000E+00  0.13732298342E+04  0.13732298342E+04  0.25500000920E-02 0. -1.
        2   -1    0    0  501    0  0.00000000000E+00  0.00000000000E+00 -0.16973991361E+04  0.16973991361E+04  0.25500000920E-02 0.  1.
    10030    2    1    2    0    0  0.00000000000E+00  0.00000000000E+00 -0.32416930195E+03  0.30706289703E+04  0.30534695900E+04 0.  0.
        4    1    3    3  502    0 -0.14812693966E+04 -0.85814955320E+02  0.19965098832E+03  0.14971257001E+04  0.12699999809E+01 0.  1.
       -4    1    3    3    0  502  0.14812693966E+04  0.85814955320E+02 -0.52382029027E+03  0.15735032702E+04  0.12699999809E+01 0. -1.
</event>
<event>
 5   0  0.2020725E-06  0.3483898E+04  0.7818609E-02  0.8117617E-01
        2   -1    0    0  501    0  0.00000000000E+00  0.00000000000E+00  0.20202749435E+04  0.20202749435E+04  0.25500000920E-02 0. -1.
       -2   -1    0    0    0  501  0.00000000000E+00  0.00000000000E+00 -0.15019667696E+04  0.15019667696E+04  0.25500000920E-02 0.  1.
    10030    2    1    2    0    0  0.00000000000E+00  0.00000000000E+00  0.51830817392E+03  0.35222417131E+04  0.34838977198E+04 0.  0.
        3    1    3    3  502    0 -0.11774732832E+04 -0.12423714537E+04  0.58590720892E+03  0.18092035345E+04  0.10100000352E+00 0. -1.
       -3    1    3    3    0  502  0.11774732832E+04  0.12423714537E+04 -0.67599034998E+02  0.17130381786E+04  0.10100000352E+00 0.  1.
</event>
<event>
 5   0  0.7378896E-07  0.2199922E+04  0.7818609E-02  0.8518461E-01
       -1   -1    0    0    0  501  0.00000000000E+00  0.00000000000E+00  0.10583933132E+04  0.10583933132E+04  0.50400001928E-02 0.  1.
        1   -1    0    0  501    0  0.00000000000E+00  0.00000000000E+00 -0.11431608742E+04  0.11431608742E+04  0.50400001928E-02 0. -1.
    10030    2    1    2    0    0  0.00000000000E+00  0.00000000000E+00 -0.84767560976E+02  0.22015541874E+04  0.21999216579E+04 0.  0.
        2    1    3    3  502    0 -0.41117296825E+03 -0.10197769605E+04 -0.12268822082E+02  0.10996175622E+04  0.25500000920E-02 0. -1.
       -2    1    3    3    0  502  0.41117296825E+03  0.10197769605E+04 -0.72498738893E+02  0.11019366253E+04  0.25500000920E-02 0.  1.
</event>
<event>
 5   0  0.1999883E-06  0.3463691E+04  0.7818609E-02  0.8122449E-01
        2   -1    0    0  501    0  0.00000000000E+00  0.00000000000E+00  0.16406798756E+04  0.16406798756E+04  0.25500000920E-02 0.  1.
       -2   -1    0    0    0  501  0.00000000000E+00  0.00000000000E+00 -0.18280765647E+04  0.18280765647E+04  0.25500000920E-02 0. -1.
    10030    2    1    2    0    0  0.00000000000E+00  0.00000000000E+00 -0.18739668916E+03  0.34687564403E+04  0.34636907661E+04 0.  0.
        4    1    3    3  502    0 -0.48032365590E+03  0.90340878258E+03  0.13056385107E+04  0.16587802074E+04  0.12699999809E+01 0.  1.
       -4    1    3    3    0  502  0.48032365590E+03 -0.90340878258E+03 -0.14930351999E+04  0.18099762329E+04  0.12699999809E+01 0. -1.
</event>
<event>
 5   0  0.6630125E-07  0.2651587E+04  0.7818609E-02  0.8350887E-01
        1   -1    0    0  501    0  0.00000000000E+00  0.00000000000E+00  0.26319040647E+04  0.26319040647E+04  0.50400001928E-02 0.  1.
       -1   -1    0    0    0  501  0.00000000000E+00  0.00000000000E+00 -0.66785413222E+03  0.66785413224E+03  0.50400001928E-02 0. -1.
    10030    2    1    2    0    0  0.00000000000E+00  0.00000000000E+00  0.19640499325E+04  0.32997581970E+04  0.26515866988E+04 0.  0.
        5    1    3    3  502    0  0.11362295261E+03 -0.11130653940E+04  0.96908253609E+02  0.11230485503E+04  0.46999998093E+01 0. -1.
       -5    1    3    3    0  502 -0.11362295261E+03  0.11130653940E+04  0.18671416789E+04  0.21767096466E+04  0.46999998093E+01 0.  1.
</event>
<event>
 5   0  0.2023479E-06  0.3353870E+04  0.7818609E-02  0.8149322E-01
        2   -1    0    0  501    0  0.00000000000E+00  0.00000000000E+00  0.22208308184E+04  0.22208308184E+04  0.25500000920E-02 0. -1.
       -2   -1    0    0    0  501  0.00000000000E+00  0.00000000000E+00 -0.12662425174E+04  0.12662425174E+04  0.25500000920E-02 0.  1.
    10030    2    1    2    0    0  0.00000000000E+00  0.00000000000E+00  0.95458830095E+03  0.34870733358E+04  0.33538696493E+04 0.  0.
        5    1    3    3  502    0 -0.84340677617E+03  0.12158372304E+02  0.19842035808E+04  0.21560539780E+04  0.46999998093E+01 0. -1.
       -5    1    3    3    0  502  0.84340677617E+03 -0.12158372304E+02 -0.10296152799E+04  0.13310193577E+04  0.46999998093E+01 0.  1.
</event>
<event>
 5   0  0.6630125E-07  0.3421523E+04  0.7818609E-02  0.8132644E-01
        3   -1    0    0  501    0  0.00000000000E+00  0.00000000000E+00  0.13146517612E+04  0.13146517651E+04  0.10100000352E+00 0.  1.
       -3   -1    0    0    0  501  0.00000000000E+00  0.00000000000E+00 -0.22262205373E+04  0.22262205396E+04  0.10100000352E+00 0. -1.
    10030    2    1    2    0    0  0.00000000000E+00  0.00000000000E+00 -0.91156877605E+03  0.35408723046E+04  0.34215229130E+04 0.  0.
        1    1    3    3  502    0  0.75009831498E+03  0.54452442001E+03 -0.19438389939E+04  0.21535237079E+04  0.50400001928E-02 0. -1.
       -1    1    3    3    0  502 -0.75009831498E+03 -0.54452442001E+03  0.10322702179E+04  0.13873485967E+04  0.50400001928E-02 0.  1.
</event>
<event>
 5   0  0.7378896E-07  0.3476169E+04  0.7818609E-02  0.8119461E-01
        1   -1    0    0  501    0  0.00000000000E+00  0.00000000000E+00  0.14536208808E+04  0.14536208808E+04  0.50400001928E-02 0.  1.
       -1   -1    0    0    0  501  0.00000000000E+00  0.00000000000E+00 -0.20782153795E+04  0.20782153795E+04  0.50400001928E-02 0. -1.
    10030    2    1    2    0    0  0.00000000000E+00  0.00000000000E+00 -0.62459449874E+03  0.35318362603E+04  0.34761687361E+04 0.  0.
        2    1    3    3  502    0 -0.12548106926E+03  0.12428997390E+04 -0.15401164933E+04  0.19830542284E+04  0.25500000920E-02 0. -1.
       -2    1    3    3    0  502  0.12548106926E+03 -0.12428997390E+04  0.91552199456E+03  0.15487820319E+04  0.25500000920E-02 0.  1.
</event>
<event>
 5   0  0.6890600E-07  0.2342198E+04  0.7818609E-02  0.8461466E-01
       -1   -1    0    0    0  501  0.00000000000E+00  0.00000000000E+00  0.54826353993E+03  0.54826353995E+03  0.50400001928E-02 0.  1.
        1   -1    0    0  501    0  0.00000000000E+00  0.00000000000E+00 -0.25014849974E+04  0.25014849974E+04  0.50400001928E-02 0. -1.
    10030    2    1    2    0    0  0.00000000000E+00  0.00000000000E+00 -0.19532214574E+04  0.30497485373E+04  0.23421981298E+04 0.  0.
        3    1    3    3  502    0 -0.11360200087E+04 -0.26594360261E+03 -0.11081509609E+04  0.16091196419E+04  0.10100000352E+00 0. -1.
       -3    1    3    3    0  502  0.11360200087E+04  0.26594360261E+03 -0.84507049658E+03  0.14406288954E+04  0.10100000352E+00 0.  1.
</event>
<event>
 5   0  0.6630125E-07  0.3637778E+04  0.7818609E-02  0.8081893E-01
       -1   -1    0    0    0  501  0.00000000000E+00  0.00000000000E+00  0.11721615457E+04  0.11721615457E+04  0.50400001928E-02 0.  1.
        1   -1    0    0  501    0  0.00000000000E+00  0.00000000000E+00 -0.28224409730E+04  0.28224409730E+04  0.50400001928E-02 0. -1.
    10030    2    1    2    0    0  0.00000000000E+00  0.00000000000E+00 -0.16502794273E+04  0.39946025187E+04  0.36377777687E+04 0.  0.
        5    1    3    3  502    0 -0.17111072663E+03  0.17852741047E+04 -0.11579388012E+04  0.21347896540E+04  0.46999998093E+01 0. -1.
       -5    1    3    3    0  502  0.17111072663E+03 -0.17852741047E+04 -0.49234062610E+03  0.18598128647E+04  0.46999998093E+01 0.  1.
</event>
<event>
 5   0  0.2023479E-06  0.3491963E+04  0.7818609E-02  0.8115697E-01
       -2   -1    0    0    0  501  0.00000000000E+00  0.00000000000E+00  0.11715911275E+04  0.11715911275E+04  0.25500000920E-02 0. -1.
        2   -1    0    0  501    0  0.00000000000E+00  0.00000000000E+00 -0.26019758726E+04  0.26019758726E+04  0.25500000920E-02 0.  1.
    10030    2    1    2    0    0  0.00000000000E+00  0.00000000000E+00 -0.14303847451E+04  0.37735670002E+04  0.34919632567E+04 0.  0.
        5    1    3    3  502    0 -0.54578513119E+02  0.56845420427E+03  0.10678072446E+04  0.12109307982E+04  0.46999998093E+01 0. -1.
       -5    1    3    3    0  502  0.54578513119E+02 -0.56845420427E+03 -0.24981919897E+04  0.25626362020E+04  0.46999998093E+01 0.  1.
</event>
<event>
 5   0  0.6630125E-07  0.3476720E+04  0.7818609E-02  0.8119329E-01
        1   -1    0    0  501    0  0.00000000000E+00  0.00000000000E+00  0.17035882598E+04  0.17035882598E+04  0.50400001928E-02 0. -1.
       -1   -1    0    0    0  501  0.00000000000E+00  0.00000000000E+00 -0.17738416955E+04  0.17738416955E+04  0.50400001928E-02 0.  1.
    10030    2    1    2    0    0  0.00000000000E+00  0.00000000000E+00 -0.70253435751E+02  0.34774299553E+04  0.34767202288E+04 0.  0.
        1    1    3    3  502    0  0.43021247765E+03 -0.14101095416E+04  0.88614990096E+03  0.17201027127E+04  0.50400001928E-02 0. -1.
       -1    1    3    3    0  502 -0.43021247765E+03  0.14101095416E+04 -0.95640333671E+03  0.17573272426E+04  0.50400001928E-02 0.  1.
</event>
<event>
 5   0  0.6630125E-07  0.2364253E+04  0.7818609E-02  0.8453009E-01
        1   -1    0    0  501    0  0.00000000000E+00  0.00000000000E+00  0.13670128045E+04  0.13670128045E+04  0.50400001928E-02 0.  1.
       -1   -1    0    0    0  501  0.00000000000E+00  0.00000000000E+00 -0.10222460347E+04  0.10222460347E+04  0.50400001928E-02 0. -1.
    10030    2    1    2    0    0  0.00000000000E+00  0.00000000000E+00  0.34476676974E+03  0.23892588392E+04  0.23642533018E+04 0.  0.
        5    1    3    3  502    0 -0.42148285678E+03 -0.68544412178E+03 -0.70275479690E+03  0.10683481816E+04  0.46999998093E+01 0. -1.
       -5    1    3    3    0  502  0.42148285678E+03  0.68544412178E+03  0.10475215666E+04  0.13209106575E+04  0.46999998093E+01 0.  1.
</event>
<event>
 5   0  0.6630125E-07  0.3466934E+04  0.7818609E-02  0.8121671E-01
       -1   -1    0    0    0  501  0.00000000000E+00  0.00000000000E+00  0.30678709804E+04  0.30678709804E+04  0.50400001928E-02 0. -1.
        1   -1    0    0  501    0  0.00000000000E+00  0.00000000000E+00 -0.97947675365E+03  0.97947675366E+03  0.50400001928E-02 0.  1.
    10030    2    1    2    0    0  0.00000000000E+00  0.00000000000E+00  0.20883942268E+04  0.40473477341E+04  0.34669342702E+04 0.  0.
        4    1    3    3  502    0 -0.27765431541E+03  0.73431499484E+03 -0.76005110694E+03  0.10926983704E+04  0.12699999809E+01 0.  1.
       -4    1    3    3    0  502  0.27765431541E+03 -0.73431499484E+03  0.28484453337E+04  0.29546493637E+04  0.12699999809E+01 0. -1.
</event>
<event>
 5   0  0.7378896E-07  0.3547318E+04  0.7818609E-02  0.8102667E-01
        1   -1    0    0  501    0  0.00000000000E+00  0.00000000000E+00  0.19642109008E+04  0.19642109008E+04  0.50400001928E-02 0. -1.
       -1   -1    0    0    0  501  0.00000000000E+00  0.00000000000E+00 -0.16015924764E+04  0.16015924764E+04  0.50400001928E-02 0.  1.
    10030    2    1    2    0    0  0.00000000000E+00  0.00000000000E+00  0.36261842444E+03  0.35658033772E+04  0.35473175222E+04 0.  0.
        2    1    3    3  502    0 -0.45406566004E+03  0.12713262400E+04 -0.97508543050E+03  0.16653040650E+04  0.25500000920E-02 0.  1.
       -2    1    3    3    0  502  0.45406566004E+03 -0.12713262400E+04  0.13377038549E+04  0.19004993122E+04  0.25500000920E-02 0. -1.
</event>
<event>
 5   0  0.2001768E-06  0.3510443E+04  0.7818609E-02  0.8111319E-01
        2   -1    0    0  501    0  0.00000000000E+00  0.00000000000E+00  0.25122906356E+04  0.25122906356E+04  0.25500000920E-02 0.  1.
       -2   -1    0    0    0  501  0.00000000000E+00  0.00000000000E+00 -0.12262924794E+04  0.12262924794E+04  0.25500000920E-02 0. -1.
    10030    2    1    2    0    0  0.00000000000E+00  0.00000000000E+00  0.12859981562E+04  0.37385831150E+04  0.35104433410E+04 0.  0.
        2    1    3    3  502    0 -0.70356471642E+02  0.17309378034E+04  0.34232610331E+03  0.17658660406E+04  0.25500000920E-02 0.  1.
       -2    1    3    3    0  502  0.70356471642E+02 -0.17309378034E+04  0.94367205294E+03  0.19727170744E+04  0.25500000920E-02 0. -1.
</event>
<event>
 5   0  0.2020725E-06  0.3435354E+04  0.7818609E-02  0.8129283E-01
       -2   -1    0    0    0  501  0.00000000000E+00  0.00000000000E+00  0.15920267200E+04  0.15920267200E+04  0.25500000920E-02 0.  1.
        2   -1    0    0  501    0  0.00000000000E+00  0.00000000000E+00 -0.18532444622E+04  0.18532444622E+04  0.25500000920E-02 0. -1.
    10030    2    1    2    0    0  0.00000000000E+00  0.00000000000E+00 -0.26121774217E+03  0.34452711822E+04  0.34353542481E+04 0.  0.
        3    1    3    3  502    0  0.46627331354E+03  0.12543875634E+04 -0.12105254448E+04  0.18045140135E+04  0.10100000352E+00 0. -1.
       -3    1    3    3    0  502 -0.46627331354E+03 -0.12543875634E+04  0.94930770259E+03  0.16407571687E+04  0.10100000352E+00 0.  1.
</event>
<event>
 5   0  0.1999883E-06  0.3521052E+04  0.7818609E-02  0.8108819E-01
        2   -1    0    0  501    0  0.00000000000E+00  0.00000000000E+00  0.13793254031E+04  0.13793254031E+04  0.25500000920E-02 0. -1.
       -2   -1    0    0    0  501  0.00000000000E+00  0.00000000000E+00 -0.22470786345E+04  0.22470786345E+04  0.25500000920E-02 0.  1.
    10030    2    1    2    0    0  0.00000000000E+00  0.00000000000E+00 -0.86775323146E+03  0.36264040376E+04  0.35210524809E+04 0.  0.
        4    1    3    3  502    0  0.81660107892E+03 -0.56255111321E+03  0.10643479404E+04  0.14546955792E+04  0.12699999809E+01 0. -1.
       -4    1    3    3    0  502 -0.81660107892E+03  0.56255111321E+03 -0.19321011719E+04  0.21717084584E+04  0.12699999809E+01 0.  1.
</event>
<event>
 5   0  0.6630125E-07  0.3005377E+04  0.7818609E-02  0.8242197E-01
        1   -1    0    0  501    0  0.00000000000E+00  0.00000000000E+00  0.26587501191E+04  0.26587501191E+04  0.50400001928E-02 0.  1.
       -1   -1    0    0    0  501  0.00000000000E+00  0.00000000000E+00 -0.84929847764E+03  0.84929847765E+03  0.50400001928E-02 0. -1.
    10030    2    1    2    0    0  0.00000000000E+00  0.00000000000E+00  0.18094516415E+04  0.35080485968E+04  0.30053768007E+04 0.  0.
        5    1    3    3  502    0 -0.11902235975E+04  0.77582973394E+03  0.14759744723E+04  0.20486743814E+04  0.46999998093E+01 0.  1.
       -5    1    3    3    0  502  0.11902235975E+04 -0.77582973394E+03  0.33347716920E+03  0.14593742154E+04  0.46999998093E+01 0. -1.
</event>
<event>
 5   0  0.2073287E-06  0.3461858E+04  0.7818609E-02  0.8122889E-01
       -2   -1    0    0    0  501  0.00000000000E+00  0.00000000000E+00  0.21012042251E+04  0.21012042251E+04  0.25500000920E-02 0. -1.
        2   -1    0    0  501    0  0.00000000000E+00  0.00000000000E+00 -0.14259041243E+04  0.14259041243E+04  0.25500000920E-02 0.  1.
    10030    2    1    2    0    0  0.00000000000E+00  0.00000000000E+00  0.67530010074E+03  0.35271083494E+04  0.34618583279E+04 0.  0.
        1    1    3    3  502    0 -0.90389756082E+03 -0.58141260799E+03 -0.10447751285E+04  0.14988750750E+04  0.50400001928E-02 0.  1.
       -1    1    3    3    0  502  0.90389756082E+03  0.58141260799E+03  0.17200752292E+04  0.20282332744E+04  0.50400001928E-02 0. -1.
</event>
<event>
 5   0  0.2023479E-06  0.3550009E+04  0.7818609E-02  0.8102040E-01
       -2   -1    0    0    0  501  0.00000000000E+00  0.00000000000E+00  0.16301284357E+04  0.16301284357E+04  0.25500000920E-02 0.  1.
        2   -1    0    0  501    0  0.00000000000E+00  0.00000000000E+00 -0.19327559067E+04  0.19327559067E+04  0.25500000920E-02 0. -1.
    10030    2    1    2    0    0  0.00000000000E+00  0.00000000000E+00 -0.30262747097E+03  0.35628843424E+04  0.35500086551E+04 0.  0.
        5    1    3    3  502    0  0.13052010098E+04  0.60643555284E+03  0.89135009909E+03  0.16928794538E+04  0.46999998093E+01 0.  1.
       -5    1    3    3    0  502 -0.13052010098E+04 -0.60643555284E+03 -0.11939775701E+04  0.18700048887E+04  0.46999998093E+01 0. -1.
</event>
<event>
 5   0  0.6630125E-07  0.3452966E+04  0.7818609E-02  0.8125028E-01
        1   -1    0    0  501    0  0.00000000000E+00  0.00000000000E+00  0.22807138176E+04  0.22807138177E+04  0.50400001928E-02 0.  1.
       -1   -1    0    0    0  501  0.00000000000E+00  0.00000000000E+00 -0.13069346241E+04  0.13069346241E+04  0.50400001928E-02 0. -1.
    10030    2    1    2    0    0  0.00000000000E+00  0.00000000000E+00  0.97377919358E+03  0.35876484417E+04  0.34529661776E+04 0.  0.
        4    1    3    3  502    0 -0.93027084528E+01 -0.12094693617E+04  0.17669500772E+04  0.21412652488E+04  0.12699999809E+01 0.  1.
       -4    1    3    3    0  502  0.93027084528E+01  0.12094693617E+04 -0.79317088364E+03  0.14463831930E+04  0.12699999809E+01 0. -1.
</event>
<event>
 5   0  0.7378896E-07  0.2986902E+04  0.7818609E-02  0.8247481E-01
        1   -1    0    0  501    0  0.00000000000E+00  0.00000000000E+00  0.16470946673E+04  0.16470946673E+04  0.50400001928E-02 0.  1.
       -1   -1    0    0    0  501  0.00000000000E+00  0.00000000000E+00 -0.13541390514E+04  0.13541390514E+04  0.50400001928E-02 0. -1.
    10030    2    1    2    0    0  0.00000000000E+00  0.00000000000E+00  0.29295561589E+03  0.30012337187E+04  0.29869015453E+04 0.  0.
        2    1    3    3  502    0  0.79151873763E+03 -0.55567700233E+03  0.12899702684E+04  0.16122351368E+04  0.25500000920E-02 0.  1.
       -2    1    3    3    0  502 -0.79151873763E+03  0.55567700233E+03 -0.99701465255E+03  0.13889985818E+04  0.25500000920E-02 0. -1.
</event>
<event>
 5   0  0.7378896E-07  0.3014155E+04  0.7818609E-02  0.8239700E-01
        1   -1    0    0  501    0  0.00000000000E+00  0.00000000000E+00  0.20488324397E+04  0.20488324397E+04  0.50400001928E-02 0. -1.
       -1   -1    0    0    0  501  0.00000000000E+00  0.00000000000E+00 -0.11085739596E+04  0.11085739596E+04  0.50400001928E-02 0.  1.
    10030    2    1    2    0    0  0.00000000000E+00  0.00000000000E+00  0.94025848003E+03  0.31574063993E+04  0.30141548004E+04 0.  0.
        2    1    3    3  502    0 -0.95736745411E+03 -0.29973581564E+03  0.16482532792E+04  0.19295421409E+04  0.25500000920E-02 0. -1.
       -2    1    3    3    0  502  0.95736745411E+03  0.29973581564E+03 -0.70799479913E+03  0.12278642584E+04  0.25500000920E-02 0.  1.
</event>
<event>
 5   0  0.6890600E-07  0.3713278E+04  0.7818609E-02  0.8065026E-01
        1   -1    0    0  501    0  0.00000000000E+00  0.00000000000E+00  0.16056295970E+04  0.16056295970E+04  0.50400001928E-02 0. -1.
       -1   -1    0    0    0  501  0.00000000000E+00  0.00000000000E+00 -0.21468894645E+04  0.21468894646E+04  0.50400001928E-02 0.  1.
    10030    2    1    2    0    0  0.00000000000E+00  0.00000000000E+00 -0.54125986756E+03  0.37525190616E+04  0.37132784791E+04 0.  0.
        3    1    3    3  502    0 -0.16534268889E+04  0.69449962158E+03  0.21503067797E+03  0.18062082948E+04  0.10100000352E+00 0. -1.
       -3    1    3    3    0  502  0.16534268889E+04 -0.69449962158E+03 -0.75629054553E+03  0.19463107668E+04  0.10100000352E+00 0.  1.
</event>
<event>
 5   0  0.7378896E-07  0.3541380E+04  0.7818609E-02  0.8104053E-01
       -1   -1    0    0    0  501  0.00000000000E+00  0.00000000000E+00  0.30776672982E+04  0.30776672982E+04  0.50400001928E-02 0. -1.
        1   -1    0    0  501    0  0.00000000000E+00  0.00000000000E+00 -0.10187401012E+04  0.10187401012E+04  0.50400001928E-02 0.  1.
    10030    2    1    2    0    0  0.00000000000E+00  0.00000000000E+00  0.20589271970E+04  0.40964073994E+04  0.35413800105E+04 0.  0.
        2    1    3    3  502    0 -0.56113969740E+03 -0.10419268398E+04  0.25530323288E+04  0.28139764341E+04  0.25500000920E-02 0. -1.
       -2    1    3    3    0  502  0.56113969740E+03  0.10419268398E+04 -0.49410513182E+03  0.12824309653E+04  0.25500000920E-02 0.  1.
</event>
<event>
 5   0  0.2001768E-06  0.3389215E+04  0.7818609E-02  0.8140558E-01
       -2   -1    0    0    0  501  0.00000000000E+00  0.00000000000E+00  0.15769543587E+04  0.15769543587E+04  0.25500000920E-02 0.  1.
        2   -1    0    0  501    0  0.00000000000E+00  0.00000000000E+00 -0.18210383136E+04  0.18210383136E+04  0.25500000920E-02 0. -1.
    10030    2    1    2    0    0  0.00000000000E+00  0.00000000000E+00 -0.24408395484E+03  0.33979926723E+04  0.33892148388E+04 0.  0.
        2    1    3    3  502    0 -0.44988285474E+03  0.13178544587E+04  0.84615022101E+03  0.16294493407E+04  0.25500000920E-02 0.  1.
       -2    1    3    3    0  502  0.44988285474E+03 -0.13178544587E+04 -0.10902341758E+04  0.17685433316E+04  0.25500000920E-02 0. -1.
</event>
<event>
 5   0  0.2001768E-06  0.3508886E+04  0.7818609E-02  0.8111687E-01
       -2   -1    0    0    0  501  0.00000000000E+00  0.00000000000E+00  0.28066358924E+04  0.28066358924E+04  0.25500000920E-02 0. -1.
        2   -1    0    0  501    0  0.00000000000E+00  0.00000000000E+00 -0.10967116216E+04  0.10967116216E+04  0.25500000920E-02 0.  1.
    10030    2    1    2    0    0  0.00000000000E+00  0.00000000000E+00  0.17099242709E+04  0.39033475140E+04  0.35088859775E+04 0.  0.
        2    1    3    3  502    0 -0.76553038282E+03  0.15328612772E+04  0.43522556844E+03  0.17678013909E+04  0.25500000920E-02 0. -1.
       -2    1    3    3    0  502  0.76553038282E+03 -0.15328612772E+04  0.12746987024E+04  0.21355461232E+04  0.25500000920E-02 0.  1.
</event>
<event>
 5   0  0.2020725E-06  0.2697409E+04  0.7818609E-02  0.8335846E-01
        2   -1    0    0  501    0  0.00000000000E+00  0.00000000000E+00  0.24019126588E+04  0.24019126588E+04  0.25500000920E-02 0. -1.
       -2   -1    0    0    0  501  0.00000000000E+00  0.00000000000E+00 -0.75731480899E+03  0.75731480899E+03  0.25500000920E-02 0.  1.
    10030    2    1    2    0    0  0.00000000000E+00  0.00000000000E+00  0.16445978498E+04  0.31592274677E+04  0.26974091468E+04 0.  0.
        3    1    3    3  502    0  0.39249045276E+03  0.12902161089E+04  0.80209251204E+03  0.15690948892E+04  0.10100000352E+00 0. -1.
       -3    1    3    3    0  502 -0.39249045276E+03 -0.12902161089E+04  0.84250533772E+03  0.15901325786E+04  0.10100000352E+00 0.  1.
</event>
<event>
 5   0  0.6630125E-07  0.3430772E+04  0.7818609E-02  0.8130395E-01
       -1   -1    0    0    0  501  0.00000000000E+00  0.00000000000E+00  0.16276207825E+04  0.16276207825E+04  0.50400001928E-02 0.  1.
        1   -1    0    0  501    0  0.00000000000E+00  0.00000000000E+00 -0.18078836289E+04  0.18078836289E+04  0.50400001928E-02 0. -1.
    10030    2    1    2    0    0  0.00000000000E+00  0.00000000000E+00 -0.18026284643E+03  0.34355044114E+04  0.34307719054E+04 0.  0.
        1    1    3    3  502    0 -0.14305948163E+02  0.19486148346E+03  0.16164416307E+04  0.16282073588E+04  0.50400001928E-02 0.  1.
       -1    1    3    3    0  502  0.14305948163E+02 -0.19486148346E+03 -0.17967044771E+04  0.18072970525E+04  0.50400001928E-02 0. -1.
</event>
<event>
 5   0  0.7378896E-07  0.3475863E+04  0.7818609E-02  0.8119534E-01
       -1   -1    0    0    0  501  0.00000000000E+00  0.00000000000E+00  0.19129608170E+04  0.19129608170E+04  0.50400001928E-02 0. -1.
        1   -1    0    0  501    0  0.00000000000E+00  0.00000000000E+00 -0.15789163207E+04  0.15789163207E+04  0.50400001928E-02 0.  1.
    10030    2    1    2    0    0  0.00000000000E+00  0.00000000000E+00  0.33404449629E+03  0.34918771378E+04  0.34758625145E+04 0.  0.
        2    1    3    3  502    0 -0.12502341531E+04 -0.63831099643E+03  0.11963790174E+04  0.18444102361E+04  0.25500000920E-02 0. -1.
       -2    1    3    3    0  502  0.12502341531E+04  0.63831099643E+03 -0.86233452115E+03  0.16474669017E+04  0.25500000920E-02 0.  1.
</event>
<event>
 5   0  0.7378896E-07  0.2876953E+04  0.7818609E-02  0.8279768E-01
        1   -1    0    0  501    0  0.00000000000E+00  0.00000000000E+00  0.15371768657E+04  0.15371768657E+04  0.50400001928E-02 0. -1.
       -1   -1    0    0    0  501  0.00000000000E+00  0.00000000000E+00 -0.13461134746E+04  0.13461134746E+04  0.50400001928E-02 0.  1.
    10030    2    1    2    0    0  0.00000000000E+00  0.00000000000E+00  0.19106339107E+03  0.28832903403E+04  0.28769528962E+04 0.  0.
        2    1    3    3  502    0  0.59070333628E+03  0.52598833282E+03  0.12996859404E+04  0.15214393519E+04  0.25500000920E-02 0. -1.
       -2    1    3    3    0  502 -0.59070333628E+03 -0.52598833282E+03 -0.11086225493E+04  0.13618509884E+04  0.25500000920E-02 0.  1.
</event>
<event>
 5   0  0.2020725E-06  0.3407926E+04  0.7818609E-02  0.8135964E-01
       -2   -1    0    0    0  501  0.00000000000E+00  0.00000000000E+00  0.14327083076E+04  0.14327083076E+04  0.25500000920E-02 0.  1.
        2   -1    0    0  501    0  0.00000000000E+00  0.00000000000E+00 -0.20265745339E+04  0.20265745339E+04  0.25500000920E-02 0. -1.
    10030    2    1    2    0    0  0.00000000000E+00  0.00000000000E+00 -0.59386622621E+03  0.34592828415E+04  0.34079261557E+04 0.  0.
        3    1    3    3  502    0  0.46126741619E+03  0.48026032596E+03 -0.18890313249E+04  0.20029620482E+04  0.10100000352E+00 0. -1.
       -3    1    3    3    0  502 -0.46126741619E+03 -0.48026032596E+03  0.12951650987E+04  0.14563207933E+04  0.10100000352E+00 0.  1.
</event>
<event>
 5   0  0.2001768E-06  0.3463045E+04  0.7818609E-02  0.8122604E-01
       -2   -1    0    0    0  501  0.00000000000E+00  0.00000000000E+00  0.19780312460E+04  0.19780312460E+04  0.25500000920E-02 0.  1.
        2   -1    0    0  501    0  0.00000000000E+00  0.00000000000E+00 -0.15157349110E+04  0.15157349110E+04  0.25500000920E-02 0. -1.
    10030    2    1    2    0    0  0.00000000000E+00  0.00000000000E+00  0.46229633500E+03  0.34937661569E+04  0.34630454888E+04 0.  0.
        2    1    3    3  502    0 -0.90877179666E+03 -0.84208378678E+03  0.14515067052E+04  0.19083613383E+04  0.25500000920E-02 0.  1.
       -2    1    3    3    0  502  0.90877179666E+03  0.84208378678E+03 -0.98921037019E+03  0.15854048186E+04  0.25500000920E-02 0. -1.
</event>
<event>
 5   0  0.2001768E-06  0.3425010E+04  0.7818609E-02  0.8131795E-01
        2   -1    0    0  501    0  0.00000000000E+00  0.00000000000E+00  0.22085753657E+04  0.22085753657E+04  0.25500000920E-02 0. -1.
       -2   -1    0    0    0  501  0.00000000000E+00  0.00000000000E+00 -0.13278572408E+04  0.13278572408E+04  0.25500000920E-02 0.  1.
    10030    2    1    2    0    0  0.00000000000E+00  0.00000000000E+00  0.88071812487E+03  0.35364326065E+04  0.34250096591E+04 0.  0.
        2    1    3    3  502    0  0.14216910025E+04  0.65660798471E+03  0.11559667484E+04  0.19464322427E+04  0.25500000920E-02 0. -1.
       -2    1    3    3    0  502 -0.14216910025E+04 -0.65660798471E+03 -0.27524862348E+03  0.15900003638E+04  0.25500000920E-02 0.  1.
</event>
<event>
 5   0  0.6630125E-07  0.3537811E+04  0.7818609E-02  0.8104887E-01
        1   -1    0    0  501    0  0.00000000000E+00  0.00000000000E+00  0.13495224693E+04  0.13495224693E+04  0.50400001928E-02 0.  1.
       -1   -1    0    0    0  501  0.00000000000E+00  0.00000000000E+00 -0.23186181599E+04  0.23186181599E+04  0.50400001928E-02 0. -1.
    10030    2    1    2    0    0  0.00000000000E+00  0.00000000000E+00 -0.96909569065E+03  0.36681406292E+04  0.35378113598E+04 0.  0.
        4    1    3    3  502    0 -0.45551351131E+03  0.17092223884E+04 -0.47460503005E+03  0.18314434962E+04  0.12699999809E+01 0.  1.
       -4    1    3    3    0  502  0.45551351131E+03 -0.17092223884E+04 -0.49449066060E+03  0.18366971330E+04  0.12699999809E+01 0. -1.
</event>
<event>
 5   0  0.6630125E-07  0.2585902E+04  0.7818609E-02  0.8373006E-01
        1   -1    0    0  501    0  0.00000000000E+00  0.00000000000E+00  0.10029876217E+04  0.10029876217E+04  0.50400001928E-02 0.  1.
       -1   -1    0    0    0  501  0.00000000000E+00  0.00000000000E+00 -0.16667431694E+04  0.16667431694E+04  0.50400001928E-02 0. -1.
    10030    2    1    2    0    0  0.00000000000E+00  0.00000000000E+00 -0.66375554763E+03  0.26697307911E+04  0.25859023705E+04 0.  0.
        5    1    3    3  502    0  0.12513596231E+04 -0.27957243143E+03 -0.16023848009E+03  0.12921919793E+04  0.46999998093E+01 0.  1.
       -5    1    3    3    0  502 -0.12513596231E+04  0.27957243143E+03 -0.50351706754E+03  0.13775388118E+04  0.46999998093E+01 0. -1.
</event>
<event>
 5   0  0.2073287E-06  0.3503829E+04  0.7818609E-02  0.8112883E-01
       -2   -1    0    0    0  501  0.00000000000E+00  0.00000000000E+00  0.19113605246E+04  0.19113605246E+04  0.25500000920E-02 0. -1.
        2   -1    0    0  501    0  0.00000000000E+00  0.00000000000E+00 -0.16057694885E+04  0.16057694885E+04  0.25500000920E-02 0.  1.
    10030    2    1    2    0    0  0.00000000000E+00  0.00000000000E+00  0.30559103611E+03  0.35171300131E+04  0.35038289981E+04 0.  0.
        1    1    3    3  502    0  0.68168761021E+03  0.93668290150E+03  0.14719881883E+04  0.18731850102E+04  0.50400001928E-02 0. -1.
       -1    1    3    3    0  502 -0.68168761021E+03 -0.93668290150E+03 -0.11663971522E+04  0.16439450029E+04  0.50400001928E-02 0.  1.
</event>
<event>
 5   0  0.2020725E-06  0.3562818E+04  0.7818609E-02  0.8099062E-01
       -2   -1    0    0    0  501  0.00000000000E+00  0.00000000000E+00  0.17065535530E+04  0.17065535530E+04  0.25500000920E-02 0. -1.
        2   -1    0    0  501    0  0.00000000000E+00  0.00000000000E+00 -0.18595473962E+04  0.18595473962E+04  0.25500000920E-02 0.  1.
    10030    2    1    2    0    0  0.00000000000E+00  0.00000000000E+00 -0.15299384317E+03  0.35661009492E+04  0.35628175457E+04 0.  0.
        3    1    3    3  502    0  0.63566678806E+03  0.68847406104E+03  0.14399400301E+04  0.17179918797E+04  0.10100000352E+00 0. -1.
       -3    1    3    3    0  502 -0.63566678806E+03 -0.68847406104E+03 -0.15929338732E+04  0.18481090695E+04  0.10100000352E+00 0.  1.
</event>
<event>
 5   0  0.7378896E-07  0.3358625E+04  0.7818609E-02  0.8148137E-01
       -1   -1    0    0    0  501  0.00000000000E+00  0.00000000000E+00  0.11066071083E+04  0.11066071083E+04  0.50400001928E-02 0. -1.
        1   -1    0    0  501    0  0.00000000000E+00  0.00000000000E+00 -0.25484110513E+04  0.25484110513E+04  0.50400001928E-02 0.  1.
    10030    2    1    2    0    0  0.00000000000E+00  0.00000000000E+00 -0.14418039430E+04  0.36550181596E+04  0.33586245901E+04 0.  0.
        2    1    3    3  502    0  0.10434567666E+04 -0.29963622883E+03  0.67337578371E+03  0.12775049273E+04  0.25500000920E-02 0. -1.
       -2    1    3    3    0  502 -0.10434567666E+04  0.29963622883E+03 -0.21151797267E+04  0.23775132323E+04  0.25500000920E-02 0.  1.
</event>
<event>
 5   0  0.2020725E-06  0.2441344E+04  0.7818609E-02  0.8424185E-01
       -2   -1    0    0    0  501  0.00000000000E+00  0.00000000000E+00  0.10229074505E+04  0.10229074505E+04  0.25500000920E-02 0. -1.
        2   -1    0    0  501    0  0.00000000000E+00  0.00000000000E+00 -0.14566719272E+04  0.14566719272E+04  0.25500000920E-02 0.  1.
    10030    2    1    2    0    0  0.00000000000E+00  0.00000000000E+00 -0.43376447668E+03  0.24795793777E+04  0.24413443570E+04 0.  0.
        3    1    3    3  502    0  0.47986105986E+03 -0.11220052919E+04 -0.24697814426E+03  0.12450545072E+04  0.10100000352E+00 0. -1.
       -3    1    3    3    0  502 -0.47986105986E+03  0.11220052919E+04 -0.18678633242E+03  0.12345248706E+04  0.10100000352E+00 0.  1.
</event>
<event>
 5   0  0.2001768E-06  0.3442855E+04  0.7818609E-02  0.8127468E-01
       -2   -1    0    0    0  501  0.00000000000E+00  0.00000000000E+00  0.21020045025E+04  0.21020045025E+04  0.25500000920E-02 0. -1.
        2   -1    0    0  501    0  0.00000000000E+00  0.00000000000E+00 -0.14097553285E+04  0.14097553285E+04  0.25500000920E-02 0.  1.
    10030    2    1    2    0    0  0.00000000000E+00  0.00000000000E+00  0.69224917401E+03  0.35117598309E+04  0.34428546573E+04 0.  0.
        2    1    3    3  502    0 -0.13868488285E+04 -0.81945087793E+03 -0.27303534479E+03  0.16338291569E+04  0.25500000920E-02 0.  1.
       -2    1    3    3    0  502  0.13868488285E+04  0.81945087793E+03  0.96528451880E+03  0.18779306741E+04  0.25500000920E-02 0. -1.
</event>
<event>
 5   0  0.2020725E-06  0.3416618E+04  0.7818609E-02  0.8133840E-01
       -2   -1    0    0    0  501  0.00000000000E+00  0.00000000000E+00  0.34142189348E+04  0.34142189348E+04  0.25500000920E-02 0.  1.
        2   -1    0    0  501    0  0.00000000000E+00  0.00000000000E+00 -0.85475476056E+03  0.85475476056E+03  0.25500000920E-02 0. -1.
    10030    2    1    2    0    0  0.00000000000E+00  0.00000000000E+00  0.25594641743E+04  0.42689736954E+04  0.34166181456E+04 0.  0.
        3    1    3    3  502    0  0.10826251830E+04  0.97254152602E+03  0.23975783703E+04  0.28046918474E+04  0.10100000352E+00 0.  1.
       -3    1    3    3    0  502 -0.10826251830E+04 -0.97254152602E+03  0.16188580397E+03  0.14642818480E+04  0.10100000352E+00 0. -1.
</event>
<event>
 5   0  0.6630125E-07  0.3347199E+04  0.7818609E-02  0.8150988E-01
       -1   -1    0    0    0  501  0.00000000000E+00  0.00000000000E+00  0.19899906433E+04  0.19899906433E+04  0.50400001928E-02 0.  1.
        1   -1    0    0  501    0  0.00000000000E+00  0.00000000000E+00 -0.14075118905E+04  0.14075118905E+04  0.50400001928E-02 0. -1.
    10030    2    1    2    0    0  0.00000000000E+00  0.00000000000E+00  0.58247875279E+03  0.33975025337E+04  0.33471991231E+04 0.  0.
        5    1    3    3  502    0 -0.50925381364E+03  0.46810070460E+03 -0.12556240038E+04  0.14335520379E+04  0.46999998093E+01 0. -1.
       -5    1    3    3    0  502  0.50925381364E+03 -0.46810070460E+03  0.18381027566E+04  0.19639504959E+04  0.46999998093E+01 0.  1.
</event>
<event>
 5   0  0.6630125E-07  0.3493607E+04  0.7818609E-02  0.8115307E-01
        1   -1    0    0  501    0  0.00000000000E+00  0.00000000000E+00  0.21501978427E+04  0.21501978427E+04  0.50400001928E-02 0. -1.
       -1   -1    0    0    0  501  0.00000000000E+00  0.00000000000E+00 -0.14190890214E+04  0.14190890214E+04  0.50400001928E-02 0.  1.
    10030    2    1    2    0    0  0.00000000000E+00  0.00000000000E+00  0.73110882125E+03  0.35692868641E+04  0.34936068195E+04 0.  0.
        5    1    3    3  502    0 -0.81039589858E+03 -0.11709501508E+04 -0.66800967460E+03  0.15729350856E+04  0.46999998093E+01 0.  1.
       -5    1    3    3    0  502  0.81039589858E+03  0.11709501508E+04  0.13991184958E+04  0.19963517785E+04  0.46999998093E+01 0. -1.
</event>
<event>
 5   0  0.2073287E-06  0.3993976E+04  0.7818609E-02  0.8005763E-01
       -2   -1    0    0    0  501  0.00000000000E+00  0.00000000000E+00  0.34904970498E+04  0.34904970498E+04  0.25500000920E-02 0.  1.
        2   -1    0    0  501    0  0.00000000000E+00  0.00000000000E+00 -0.11425193964E+04  0.11425193964E+04  0.25500000920E-02 0. -1.
    10030    2    1    2    0    0  0.00000000000E+00  0.00000000000E+00  0.23479776535E+04  0.46330164462E+04  0.39939757548E+04 0.  0.
        1    1    3    3  502    0  0.85740428059E+03  0.45874939146E+03 -0.84932967407E+03  0.12911057276E+04  0.50400001928E-02 0. -1.
       -1    1    3    3    0  502 -0.85740428059E+03 -0.45874939146E+03  0.31973073275E+04  0.33419107186E+04  0.50400001928E-02 0.  1.
</event>
<event>
 5   0  0.6630125E-07  0.3500084E+04  0.7818609E-02  0.8113770E-01
        1   -1    0    0  501    0  0.00000000000E+00  0.00000000000E+00  0.22243800262E+04  0.22243800262E+04  0.50400001928E-02 0. -1.
       -1   -1    0    0    0  501  0.00000000000E+00  0.00000000000E+00 -0.13768541297E+04  0.13768541297E+04  0.50400001928E-02 0.  1.
    10030    2    1    2    0    0  0.00000000000E+00  0.00000000000E+00  0.84752589643E+03  0.36012341559E+04  0.35000838991E+04 0.  0.
        4    1    3    3  502    0 -0.40512964088E+03  0.15114856142E+04 -0.38241528693E+03  0.16108885288E+04  0.12699999809E+01 0.  1.
       -4    1    3    3    0  502  0.40512964088E+03 -0.15114856142E+04  0.12299411834E+04  0.19903456271E+04  0.12699999809E+01 0. -1.
</event>
<event>
 5   0  0.2001768E-06  0.2905647E+04  0.7818609E-02  0.8271199E-01
        2   -1    0    0  501    0  0.00000000000E+00  0.00000000000E+00  0.17406135588E+04  0.17406135588E+04  0.25500000920E-02 0. -1.
       -2   -1    0    0    0  501  0.00000000000E+00  0.00000000000E+00 -0.12126161577E+04  0.12126161577E+04  0.25500000920E-02 0.  1.
    10030    2    1    2    0    0  0.00000000000E+00  0.00000000000E+00  0.52799740107E+03  0.29532297165E+04  0.29056470024E+04 0.  0.
        2    1    3    3  502    0  0.57832581493E+03 -0.39155929304E+03  0.15587981078E+04  0.17081074232E+04  0.25500000920E-02 0. -1.
       -2    1    3    3    0  502 -0.57832581493E+03  0.39155929304E+03 -0.10308007067E+04  0.12451222933E+04  0.25500000920E-02 0.  1.
</event>
<event>
 5   0  0.6630125E-07  0.3551790E+04  0.7818609E-02  0.8101625E-01
        1   -1    0    0  501    0  0.00000000000E+00  0.00000000000E+00  0.19360347714E+04  0.19360347714E+04  0.50400001928E-02 0.  1.
       -1   -1    0    0    0  501  0.00000000000E+00  0.00000000000E+00 -0.16290011902E+04  0.16290011902E+04  0.50400001928E-02 0. -1.
    10030    2    1    2    0    0  0.00000000000E+00  0.00000000000E+00  0.30703358125E+03  0.35650359616E+04  0.35517899413E+04 0.  0.
        1    1    3    3  502    0  0.16406508897E+04  0.62871973667E+03  0.41289704687E+03  0.18048567313E+04  0.50400001928E-02 0.  1.
       -1    1    3    3    0  502 -0.16406508897E+04 -0.62871973667E+03 -0.10586346562E+03  0.17601792303E+04  0.50400001928E-02 0. -1.
</event>
<event>
 5   0  0.1999883E-06  0.3393005E+04  0.7818609E-02  0.8139625E-01
        2   -1    0    0  501    0  0.00000000000E+00  0.00000000000E+00  0.21265194240E+04  0.21265194240E+04  0.25500000920E-02 0.  1.
       -2   -1    0    0    0  501  0.00000000000E+00  0.00000000000E+00 -0.13534422745E+04  0.13534422745E+04  0.25500000920E-02 0. -1.
    10030    2    1    2    0    0  0.00000000000E+00  0.00000000000E+00  0.77307714945E+03  0.34799616985E+04  0.33930053262E+04 0.  0.
        4    1    3    3  502    0 -0.68597477290E+03 -0.99638554038E+03  0.16064645508E+04  0.20109886872E+04  0.12699999809E+01 0.  1.
       -4    1    3    3    0  502  0.68597477290E+03  0.99638554038E+03 -0.83338740137E+03  0.14689730113E+04  0.12699999809E+01 0. -1.
</event>
<event>
 5   0  0.6630125E-07  0.2527033E+04  0.7818609E-02  0.8393418E-01
       -1   -1    0    0    0  501  0.00000000000E+00  0.00000000000E+00  0.11285775180E+04  0.11285775181E+04  0.50400001928E-02 0.  1.
        1   -1    0    0  501    0  0.00000000000E+00  0.00000000000E+00 -0.14145898700E+04  0.14145898700E+04  0.50400001928E-02 0. -1.
    10030    2    1    2    0    0  0.00000000000E+00  0.00000000000E+00 -0.28601235195E+03  0.25431673880E+04  0.25270332998E+04 0.  0.
        4    1    3    3  502    0 -0.21161253183E+03 -0.86723963420E+02 -0.13935870712E+04  0.14122278313E+04  0.12699999809E+01 0. -1.
       -4    1    3    3    0  502  0.21161253183E+03  0.86723963420E+02  0.11075747193E+04  0.11309395568E+04  0.12699999809E+01 0.  1.
</event>
<event>
 5   0  0.2023479E-06  0.3448998E+04  0.7818609E-02  0.8125984E-01
       -2   -1    0    0    0  501  0.00000000000E+00  0.00000000000E+00  0.17579754898E+04  0.17579754898E+04  0.25500000920E-02 0.  1.
        2   -1    0    0  501    0  0.00000000000E+00  0.00000000000E+00 -0.16916598376E+04  0.16916598376E+04  0.25500000920E-02 0. -1.
    10030    2    1    2    0    0  0.00000000000E+00  0.00000000000E+00  0.66315652150E+02  0.34496353274E+04  0.34489978438E+04 0.  0.
        5    1    3    3  502    0 -0.11731839305E+04 -0.28414686959E+02  0.12969999089E+04  0.17491137136E+04  0.46999998093E+01 0.  1.
       -5    1    3    3    0  502  0.11731839305E+04  0.28414686959E+02 -0.12306842568E+04  0.17005216139E+04  0.46999998093E+01 0. -1.
</event>
<event>
 5   0  0.6630125E-07  0.2306883E+04  0.7818609E-02  0.8475212E-01
       -1   -1    0    0    0  501  0.00000000000E+00  0.00000000000E+00  0.71892489490E+03  0.71892489492E+03  0.50400001928E-02 0. -1.
        1   -1    0    0  501    0  0.00000000000E+00  0.00000000000E+00 -0.18505795096E+04  0.18505795096E+04  0.50400001928E-02 0.  1.
    10030    2    1    2    0    0  0.00000000000E+00  0.00000000000E+00 -0.11316546147E+04  0.25695044045E+04  0.23068833343E+04 0.  0.
        4    1    3    3  502    0  0.49679463811E+03  0.39924538782E+03 -0.16366373125E+04  0.17563556296E+04  0.12699999809E+01 0.  1.
       -4    1    3    3    0  502 -0.49679463811E+03 -0.39924538782E+03  0.50498269779E+03  0.81314877491E+03  0.12699999809E+01 0. -1.
</event>
<event>
 5   0  0.6630125E-07  0.3237618E+04  0.7818609E-02  0.8178953E-01
        1   -1    0    0  501    0  0.00000000000E+00  0.00000000000E+00  0.14881615676E+04  0.14881615676E+04  0.50400001928E-02 0.  1.
       -1   -1    0    0    0  501  0.00000000000E+00  0.00000000000E+00 -0.17609256215E+04  0.17609256215E+04  0.50400001928E-02 0. -1.
    10030    2    1    2    0    0  0.00000000000E+00  0.00000000000E+00 -0.27276405386E+03  0.32490871891E+04  0.32376175397E+04 0.  0.
        5    1    3    3  502    0  0.13956312690E+04  0.25636377074E+03 -0.91825104176E+03  0.16901822646E+04  0.46999998093E+01 0. -1.
       -5    1    3    3    0  502 -0.13956312690E+04 -0.25636377074E+03  0.64548698790E+03  0.15589049245E+04  0.46999998093E+01 0.  1.
</event>
<event>
 5   0  0.2073287E-06  0.3494646E+04  0.7818609E-02  0.8115060E-01
       -2   -1    0    0    0  501  0.00000000000E+00  0.00000000000E+00  0.14921513506E+04  0.14921513506E+04  0.25500000920E-02 0. -1.
        2   -1    0    0  501    0  0.00000000000E+00  0.00000000000E+00 -0.20461313672E+04  0.20461313672E+04  0.25500000920E-02 0.  1.
    10030    2    1    2    0    0  0.00000000000E+00  0.00000000000E+00 -0.55398001659E+03  0.35382827178E+04  0.34946460096E+04 0.  0.
        1    1    3    3  502    0 -0.12112562031E+04 -0.53561206587E+03  0.87702982969E+03  0.15884593784E+04  0.50400001928E-02 0. -1.
       -1    1    3    3    0  502  0.12112562031E+04  0.53561206587E+03 -0.14310098463E+04  0.19498233394E+04  0.50400001928E-02 0.  1.
</event>
<event>
 5   0  0.6890600E-07  0.3495079E+04  0.7818609E-02  0.8114957E-01
        1   -1    0    0  501    0  0.00000000000E+00  0.00000000000E+00  0.18531900530E+04  0.18531900530E+04  0.50400001928E-02 0. -1.
       -1   -1    0    0    0  501  0.00000000000E+00  0.00000000000E+00 -0.16479124900E+04  0.16479124900E+04  0.50400001928E-02 0.  1.
    10030    2    1    2    0    0  0.00000000000E+00  0.00000000000E+00  0.20527756299E+03  0.35011025429E+04  0.34950794180E+04 0.  0.
        3    1    3    3  502    0  0.11609911166E+04  0.32729990566E+02 -0.12053385520E+04  0.16738616012E+04  0.10100000352E+00 0.  1.
       -3    1    3    3    0  502 -0.11609911166E+04 -0.32729990566E+02  0.14106161150E+04  0.18272409417E+04  0.10100000352E+00 0. -1.
</event>
<event>
 5   0  0.2073287E-06  0.3495310E+04  0.7818609E-02  0.8114902E-01
       -2   -1    0    0    0  501  0.00000000000E+00  0.00000000000E+00  0.11714432980E+04  0.11714432980E+04  0.25500000920E-02 0. -1.
        2   -1    0    0  501    0  0.00000000000E+00  0.00000000000E+00 -0.26072943466E+04  0.26072943466E+04  0.25500000920E-02 0.  1.
    10030    2    1    2    0    0  0.00000000000E+00  0.00000000000E+00 -0.14358510487E+04  0.37787376446E+04  0.34953097077E+04 0.  0.
        1    1    3    3  502    0 -0.91157395316E+03  0.31069449508E+03 -0.22945357396E+04  0.24884518081E+04  0.50400001928E-02 0.  1.
       -1    1    3    3    0  502  0.91157395316E+03 -0.31069449508E+03  0.85868469089E+03  0.12902858365E+04  0.50400001928E-02 0. -1.
</event>
<event>
 5   0  0.6890600E-07  0.3409287E+04  0.7818609E-02  0.8135631E-01
       -1   -1    0    0    0  501  0.00000000000E+00  0.00000000000E+00  0.23603108763E+04  0.23603108763E+04  0.50400001928E-02 0.  1.
        1   -1    0    0  501    0  0.00000000000E+00  0.00000000000E+00 -0.12311127821E+04  0.12311127821E+04  0.50400001928E-02 0. -1.
    10030    2    1    2    0    0  0.00000000000E+00  0.00000000000E+00  0.11291980942E+04  0.35914236584E+04  0.34092866642E+04 0.  0.
        3    1    3    3  502    0 -0.33199119208E+02 -0.86388781050E+03  0.21122376126E+04  0.22823128779E+04  0.10100000352E+00 0.  1.
       -3    1    3    3    0  502  0.33199119208E+02  0.86388781050E+03 -0.98303951842E+03  0.13091107805E+04  0.10100000352E+00 0. -1.
</event>
<event>
 5   0  0.6630125E-07  0.3453696E+04  0.7818609E-02  0.8124852E-01
        1   -1    0    0  501    0  0.00000000000E+00  0.00000000000E+00  0.11538151929E+04  0.11538151929E+04  0.50400001928E-02 0.  1.
       -1   -1    0    0    0  501  0.00000000000E+00  0.00000000000E+00 -0.25844723548E+04  0.25844723548E+04  0.50400001928E-02 0. -1.
    10030    2    1    2    0    0  0.00000000000E+00  0.00000000000E+00 -0.14306571619E+04  0.37382875477E+04  0.34536956835E+04 0.  0.
        5    1    3    3  502    0 -0.39562023001E+02  0.17186385280E+04 -0.53846978735E+03  0.18014592267E+04  0.46999998093E+01 0. -1.
       -5    1    3    3    0  502  0.39562023001E+02 -0.17186385280E+04 -0.89218737451E+03  0.19368283210E+04  0.46999998093E+01 0.  1.
</event>
<event>
 5   0  0.1999883E-06  0.3505999E+04  0.7818609E-02  0.8112370E-01
        2   -1    0    0  501    0  0.00000000000E+00  0.00000000000E+00  0.19846068825E+04  0.19846068825E+04  0.25500000920E-02 0. -1.
       -2   -1    0    0    0  501  0.00000000000E+00  0.00000000000E+00 -0.15484211588E+04  0.15484211588E+04  0.25500000920E-02 0.  1.
    10030    2    1    2    0    0  0.00000000000E+00  0.00000000000E+00  0.43618572363E+03  0.35330280413E+04  0.35059990238E+04 0.  0.
        4    1    3    3  502    0 -0.44624236212E+03 -0.39769152016E+03  0.18787400708E+04  0.19715366234E+04  0.12699999809E+01 0. -1.
       -4    1    3    3    0  502  0.44624236212E+03  0.39769152016E+03 -0.14425543471E+04  0.15614914179E+04  0.12699999809E+01 0.  1.
</event>
<event>
 5   0  0.2001768E-06  0.3313356E+04  0.7818609E-02  0.8159505E-01
       -2   -1    0    0    0  501  0.00000000000E+00  0.00000000000E+00  0.21127750064E+04  0.21127750064E+04  0.25500000920E-02 0.  1.
        2   -1    0    0  501    0  0.00000000000E+00  0.00000000000E+00 -0.12990411624E+04  0.12990411624E+04  0.25500000920E-02 0. -1.
    10030    2    1    2    0    0  0.00000000000E+00  0.00000000000E+00  0.81373384397E+03  0.34118161688E+04  0.33133558216E+04 0.  0.
        2    1    3    3  502    0  0.57460546373E+03 -0.13688777798E+04 -0.35022583836E+03  0.15253379799E+04  0.25500000920E-02 0. -1.
       -2    1    3    3    0  502 -0.57460546373E+03  0.13688777798E+04  0.11639596823E+04  0.18864781889E+04  0.25500000920E-02 0.  1.
</event>
<event>
 5   0  0.6630125E-07  0.2423659E+04  0.7818609E-02  0.8430699E-01
       -1   -1    0    0    0  501  0.00000000000E+00  0.00000000000E+00  0.11455178441E+04  0.11455178442E+04  0.50400001928E-02 0.  1.
        1   -1    0    0  501    0  0.00000000000E+00  0.00000000000E+00 -0.12819793901E+04  0.12819793901E+04  0.50400001928E-02 0. -1.
    10030    2    1    2    0    0  0.00000000000E+00  0.00000000000E+00 -0.13646154598E+03  0.24274972343E+04  0.24236586123E+04 0.  0.
        4    1    3    3  502    0  0.16445587958E+03  0.62295325554E+03 -0.10962150227E+04  0.12715366624E+04  0.12699999809E+01 0. -1.
       -4    1    3    3    0  502 -0.16445587958E+03 -0.62295325554E+03  0.95975347669E+03  0.11559605719E+04  0.12699999809E+01 0.  1.
</event>
<event>
 5   0  0.2023479E-06  0.3487544E+04  0.7818609E-02  0.8116748E-01
       -2   -1    0    0    0  501  0.00000000000E+00  0.00000000000E+00  0.98258437171E+03  0.98258437172E+03  0.25500000920E-02 0. -1.
        2   -1    0    0  501    0  0.00000000000E+00  0.00000000000E+00 -0.30946363735E+04  0.30946363735E+04  0.25500000920E-02 0.  1.
    10030    2    1    2    0    0  0.00000000000E+00  0.00000000000E+00 -0.21120520018E+04  0.40772207453E+04  0.34875443147E+04 0.  0.
        5    1    3    3  502    0  0.13274860877E+04  0.11078901906E+04 -0.79180533283E+03  0.19017407191E+04  0.46999998093E+01 0. -1.
       -5    1    3    3    0  502 -0.13274860877E+04 -0.11078901906E+04 -0.13202466690E+04  0.21754800262E+04  0.46999998093E+01 0.  1.
</event>
<event>
 5   0  0.6630125E-07  0.3596174E+04  0.7818609E-02  0.8091369E-01
        1   -1    0    0  501    0  0.00000000000E+00  0.00000000000E+00  0.10928121906E+04  0.10928121906E+04  0.50400001928E-02 0. -1.
       -1   -1    0    0    0  501  0.00000000000E+00  0.00000000000E+00 -0.29585292905E+04  0.29585292905E+04  0.50400001928E-02 0.  1.
    10030    2    1    2    0    0  0.00000000000E+00  0.00000000000E+00 -0.18657170999E+04  0.40513414811E+04  0.35961740085E+04 0.  0.
        1    1    3    3  502    0  0.12157432045E+04 -0.63987952479E+03 -0.22396988572E+04  0.26274946844E+04  0.50400001928E-02 0.  1.
       -1    1    3    3    0  502 -0.12157432045E+04  0.63987952479E+03  0.37398175733E+03  0.14238467967E+04  0.50400001928E-02 0. -1.
</event>
<event>
 5   0  0.1999883E-06  0.3444395E+04  0.7818609E-02  0.8127095E-01
       -2   -1    0    0    0  501  0.00000000000E+00  0.00000000000E+00  0.15151016029E+04  0.15151016029E+04  0.25500000920E-02 0.  1.
        2   -1    0    0  501    0  0.00000000000E+00  0.00000000000E+00 -0.19576011334E+04  0.19576011334E+04  0.25500000920E-02 0. -1.
    10030    2    1    2    0    0  0.00000000000E+00  0.00000000000E+00 -0.44249953050E+03  0.34727027363E+04  0.34443952242E+04 0.  0.
        4    1    3    3  502    0 -0.10255359593E+04  0.10188571495E+04 -0.11649815865E+04  0.18566037824E+04  0.12699999809E+01 0. -1.
       -4    1    3    3    0  502  0.10255359593E+04 -0.10188571495E+04  0.72248205597E+03  0.16160989540E+04  0.12699999809E+01 0.  1.
</event>
<event>
 5   0  0.7378896E-07  0.2825671E+04  0.7818609E-02  0.8295343E-01
       -1   -1    0    0    0  501  0.00000000000E+00  0.00000000000E+00  0.15901965736E+04  0.15901965736E+04  0.50400001928E-02 0.  1.
        1   -1    0    0  501    0  0.00000000000E+00  0.00000000000E+00 -0.12552562573E+04  0.12552562573E+04  0.50400001928E-02 0. -1.
    10030    2    1    2    0    0  0.00000000000E+00  0.00000000000E+00  0.33494031634E+03  0.28454528309E+04  0.28256710349E+04 0.  0.
        2    1    3    3  502    0  0.49324103980E+02 -0.29800819851E+03 -0.12223595824E+04  0.12591285488E+04  0.25500000920E-02 0. -1.
       -2    1    3    3    0  502 -0.49324103980E+02  0.29800819851E+03  0.15572998987E+04  0.15863242822E+04  0.25500000920E-02 0.  1.
</event>
<event>
 5   0  0.7378896E-07  0.3214143E+04  0.7818609E-02  0.8185092E-01
        1   -1    0    0  501    0  0.00000000000E+00  0.00000000000E+00  0.15887131247E+04  0.15887131247E+04  0.50400001928E-02 0.  1.
       -1   -1    0    0    0  501  0.00000000000E+00  0.00000000000E+00 -0.16256421239E+04  0.16256421240E+04  0.50400001928E-02 0. -1.
    10030    2    1    2    0    0  0.00000000000E+00  0.00000000000E+00 -0.36928999239E+02  0.32143552487E+04  0.32141431072E+04 0.  0.
        2    1    3    3  502    0  0.46349452204E+03  0.96190749717E+03 -0.12196206960E+04  0.16209774357E+04  0.25500000920E-02 0. -1.
       -2    1    3    3    0  502 -0.46349452204E+03 -0.96190749717E+03  0.11826916968E+04  0.15933778129E+04  0.25500000920E-02 0.  1.
</event>
<event>
 5   0  0.2001768E-06  0.3648758E+04  0.7818609E-02  0.8079413E-01
        2   -1    0    0  501    0  0.00000000000E+00  0.00000000000E+00  0.26427952735E+04  0.26427952735E+04  0.25500000920E-02 0.  1.
       -2   -1    0    0    0  501  0.00000000000E+00  0.00000000000E+00 -0.12594085909E+04  0.12594085909E+04  0.25500000920E-02 0. -1.
    10030    2    1    2    0    0  0.00000000000E+00  0.00000000000E+00  0.13833866825E+04  0.39022038644E+04  0.36487581841E+04 0.  0.
        2    1    3    3  502    0 -0.11274681102E+04  0.13388218074E+04  0.14143429567E+03  0.17560272867E+04  0.25500000920E-02 0. -1.
       -2    1    3    3    0  502  0.11274681102E+04 -0.13388218074E+04  0.12419523869E+04  0.21461765777E+04  0.25500000920E-02 0.  1.
</event>
<event>
 5   0  0.6630125E-07  0.3527406E+04  0.7818609E-02  0.8107326E-01
       -1   -1    0    0    0  501  0.00000000000E+00  0.00000000000E+00  0.22448944138E+04  0.22448944138E+04  0.50400001928E-02 0. -1.
        1   -1    0    0  501    0  0.00000000000E+00  0.00000000000E+00 -0.13856547001E+04  0.13856547001E+04  0.50400001928E-02 0.  1.
    10030    2    1    2    0    0  0.00000000000E+00  0.00000000000E+00  0.85923971378E+03  0.36305491139E+04  0.35274061267E+04 0.  0.
        5    1    3    3  502    0 -0.10208405074E+04  0.13224379743E+04  0.10115448673E+04  0.19529983733E+04  0.46999998093E+01 0. -1.
       -5    1    3    3    0  502  0.10208405074E+04 -0.13224379743E+04 -0.15230515353E+03  0.16775507406E+04  0.46999998093E+01 0.  1.
</event>
<event>
 5   0  0.6630125E-07  0.3294158E+04  0.7818609E-02  0.8164383E-01
       -1   -1    0    0    0  501  0.00000000000E+00  0.00000000000E+00  0.13995357618E+04  0.13995357619E+04  0.50400001928E-02 0.  1.
        1   -1    0    0  501    0  0.00000000000E+00  0.00000000000E+00 -0.19384065783E+04  0.19384065783E+04  0.50400001928E-02 0. -1.
    10030    2    1    2    0    0  0.00000000000E+00  0.00000000000E+00 -0.53887081644E+03  0.33379423401E+04  0.32941580577E+04 0.  0.
        4    1    3    3  502    0 -0.41370778682E+03 -0.65304129447E+03  0.12042857393E+04  0.14310565397E+04  0.12699999809E+01 0.  1.
       -4    1    3    3    0  502  0.41370778682E+03  0.65304129447E+03 -0.17431565557E+04  0.19068858004E+04  0.12699999809E+01 0. -1.
</event>
<event>
 5   0  0.6630125E-07  0.2387118E+04  0.7818609E-02  0.8444342E-01
        1   -1    0    0  501    0  0.00000000000E+00  0.00000000000E+00  0.13595644715E+04  0.13595644715E+04  0.50400001928E-02 0.  1.
       -1   -1    0    0    0  501  0.00000000000E+00  0.00000000000E+00 -0.10478234697E+04  0.10478234697E+04  0.50400001928E-02 0. -1.
    10030    2    1    2    0    0  0.00000000000E+00  0.00000000000E+00  0.31174100178E+03  0.24073879412E+04  0.23871183983E+04 0.  0.
        5    1    3    3  502    0  0.94937525032E+02 -0.40268528460E+02 -0.10433128256E+04  0.10484075686E+04  0.46999998093E+01 0. -1.
       -5    1    3    3    0  502 -0.94937525032E+02  0.40268528460E+02  0.13550538273E+04  0.13589803726E+04  0.46999998093E+01 0.  1.
</event>
<event>
 5   0  0.2001768E-06  0.3471783E+04  0.7818609E-02  0.8120510E-01
        2   -1    0    0  501    0  0.00000000000E+00  0.00000000000E+00  0.24727413384E+04  0.24727413384E+04  0.25500000920E-02 0.  1.
       -2   -1    0    0    0  501  0.00000000000E+00  0.00000000000E+00 -0.12186144993E+04  0.12186144993E+04  0.25500000920E-02 0. -1.
    10030    2    1    2    0    0  0.00000000000E+00  0.00000000000E+00  0.12541268392E+04  0.36913558377E+04  0.34717825093E+04 0.  0.
        2    1    3    3  502    0 -0.12345329111E+04  0.11490300240E+04  0.10641295229E+04  0.19941697887E+04  0.25500000920E-02 0.  1.
       -2    1    3    3    0  502  0.12345329111E+04 -0.11490300240E+04  0.18999731624E+03  0.16971860490E+04  0.25500000920E-02 0. -1.
</event>
<event>
 5   0  0.2001768E-06  0.3448066E+04  0.7818609E-02  0.8126209E-01
       -2   -1    0    0    0  501  0.00000000000E+00  0.00000000000E+00  0.12601351577E+04  0.12601351577E+04  0.25500000920E-02 0.  1.
        2   -1    0    0  501    0  0.00000000000E+00  0.00000000000E+00 -0.23587066985E+04  0.23587066985E+04  0.25500000920E-02 0. -1.
    10030    2    1    2    0    0  0.00000000000E+00  0.00000000000E+00 -0.10985715408E+04  0.36188418562E+04  0.34480656824E+04 0.  0.
        2    1    3    3  502    0 -0.41904288975E+03 -0.56768627510E+03  0.11016538337E+04  0.13082453209E+04  0.25500000920E-02 0.  1.
       -2    1    3    3    0  502  0.41904288975E+03  0.56768627510E+03 -0.22002253745E+04  0.23105965353E+04  0.25500000920E-02 0. -1.
</event>
<event>
 5   0  0.6630125E-07  0.3504696E+04  0.7818609E-02  0.8112678E-01
       -1   -1    0    0    0  501  0.00000000000E+00  0.00000000000E+00  0.10417811609E+04  0.10417811609E+04  0.50400001928E-02 0.  1.
        1   -1    0    0  501    0  0.00000000000E+00  0.00000000000E+00 -0.29475706712E+04  0.29475706712E+04  0.50400001928E-02 0. -1.
    10030    2    1    2    0    0  0.00000000000E+00  0.00000000000E+00 -0.19057895103E+04  0.39893518321E+04  0.35046960471E+04 0.  0.
        1    1    3    3  502    0 -0.29549190934E+03 -0.15316321327E+04 -0.44037101072E+02  0.15604972684E+04  0.50400001928E-02 0.  1.
       -1    1    3    3    0  502  0.29549190934E+03  0.15316321327E+04 -0.18617524092E+04  0.24288545637E+04  0.50400001928E-02 0. -1.
</event>
<event>
 5   0  0.2020725E-06  0.3454275E+04  0.7818609E-02  0.8124713E-01
       -2   -1    0    0    0  501  0.00000000000E+00  0.00000000000E+00  0.16876854773E+04  0.16876854773E+04  0.25500000920E-02 0.  1.
        2   -1    0    0  501    0  0.00000000000E+00  0.00000000000E+00 -0.17675114554E+04  0.17675114554E+04  0.25500000920E-02 0. -1.
    10030    2    1    2    0    0  0.00000000000E+00  0.00000000000E+00 -0.79825978125E+02  0.34551969327E+04  0.34542746933E+04 0.  0.
        3    1    3    3  502    0  0.52218369652E+03  0.70437169273E+03 -0.15283250883E+04  0.17619854938E+04  0.10100000352E+00 0. -1.
       -3    1    3    3    0  502 -0.52218369652E+03 -0.70437169273E+03  0.14484991102E+04  0.16932114389E+04  0.10100000352E+00 0.  1.
</event>
<event>
 5   0  0.2020725E-06  0.2850174E+04  0.7818609E-02  0.8287859E-01
        2   -1    0    0  501    0  0.00000000000E+00  0.00000000000E+00  0.10190537677E+04  0.10190537677E+04  0.25500000920E-02 0.  1.
       -2   -1    0    0    0  501  0.00000000000E+00  0.00000000000E+00 -0.19929002515E+04  0.19929002515E+04  0.25500000920E-02 0. -1.
    10030    2    1    2    0    0  0.00000000000E+00  0.00000000000E+00 -0.97384648384E+03  0.30119540192E+04  0.28501736858E+04 0.  0.
        3    1    3    3  502    0 -0.97093724581E+03 -0.10277773318E+04 -0.29839531729E+03  0.14450208146E+04  0.10100000352E+00 0. -1.
       -3    1    3    3    0  502  0.97093724581E+03  0.10277773318E+04 -0.67545116655E+03  0.15669332046E+04  0.10100000352E+00 0.  1.
</event>
<event>
 5   0  0.1999883E-06  0.3279901E+04  0.7818609E-02  0.8168028E-01
        2   -1    0    0  501    0  0.00000000000E+00  0.00000000000E+00  0.12676821580E+04  0.12676821580E+04  0.25500000920E-02 0. -1.
       -2   -1    0    0    0  501  0.00000000000E+00  0.00000000000E+00 -0.21215396304E+04  0.21215396304E+04  0.25500000920E-02 0.  1.
    10030    2    1    2    0    0  0.00000000000E+00  0.00000000000E+00 -0.85385747241E+03  0.33892217884E+04  0.32799011796E+04 0.  0.
        4    1    3    3  502    0  0.13478360029E+04 -0.93059592641E+03 -0.51192388884E+03  0.17160239945E+04  0.12699999809E+01 0.  1.
       -4    1    3    3    0  502 -0.13478360029E+04  0.93059592641E+03 -0.34193358357E+03  0.16731977939E+04  0.12699999809E+01 0. -1.
</event>
<event>
 5   0  0.6630125E-07  0.3481086E+04  0.7818609E-02  0.8118287E-01
       -1   -1    0    0    0  501  0.00000000000E+00  0.00000000000E+00  0.14315736529E+04  0.14315736529E+04  0.50400001928E-02 0.  1.
        1   -1    0    0  501    0  0.00000000000E+00  0.00000000000E+00 -0.21161955203E+04  0.21161955203E+04  0.50400001928E-02 0. -1.
    10030    2    1    2    0    0  0.00000000000E+00  0.00000000000E+00 -0.68462186741E+03  0.35477691731E+04  0.34810858945E+04 0.  0.
        4    1    3    3  502    0  0.37941095983E+03 -0.16043124797E+04  0.22670026135E+03  0.16640810768E+04  0.12699999809E+01 0. -1.
       -4    1    3    3    0  502 -0.37941095983E+03  0.16043124797E+04 -0.91132212876E+03  0.18836880963E+04  0.12699999809E+01 0.  1.
</event>
<event>
 5   0  0.6630125E-07  0.3140302E+04  0.7818609E-02  0.8204764E-01
       -1   -1    0    0    0  501  0.00000000000E+00  0.00000000000E+00  0.12961630316E+04  0.12961630316E+04  0.50400001928E-02 0. -1.
        1   -1    0    0  501    0  0.00000000000E+00  0.00000000000E+00 -0.19020555452E+04  0.19020555452E+04  0.50400001928E-02 0.  1.
    10030    2    1    2    0    0  0.00000000000E+00  0.00000000000E+00 -0.60589251366E+03  0.31982185768E+04  0.31403019483E+04 0.  0.
        4    1    3    3  502    0  0.47305073375E+03  0.11158373437E+04 -0.13196067045E+04  0.17917124327E+04  0.12699999809E+01 0.  1.
       -4    1    3    3    0  502 -0.47305073375E+03 -0.11158373437E+04  0.71371419080E+03  0.14065061441E+04  0.12699999809E+01 0. -1.
</event>
<event>
 5   0  0.2020725E-06  0.3457139E+04  0.7818609E-02  0.8124023E-01
        2   -1    0    0  501    0  0.00000000000E+00  0.00000000000E+00  0.19015953649E+04  0.19015953649E+04  0.25500000920E-02 0.  1.
       -2   -1    0    0    0  501  0.00000000000E+00  0.00000000000E+00 -0.15712876573E+04  0.15712876573E+04  0.25500000920E-02 0. -1.
    10030    2    1    2    0    0  0.00000000000E+00  0.00000000000E+00  0.33030770763E+03  0.34728830223E+04  0.34571394685E+04 0.  0.
        3    1    3    3  502    0  0.80553312296E+03  0.26709761966E+03  0.16779095266E+04  0.18803204887E+04  0.10100000352E+00 0.  1.
       -3    1    3    3    0  502 -0.80553312296E+03 -0.26709761966E+03 -0.13476018190E+04  0.15925625336E+04  0.10100000352E+00 0. -1.
</event>
<event>
 5   0  0.6630125E-07  0.3617770E+04  0.7818609E-02  0.8086433E-01
       -1   -1    0    0    0  501  0.00000000000E+00  0.00000000000E+00  0.14631006287E+04  0.14631006287E+04  0.50400001928E-02 0.  1.
        1   -1    0    0  501    0  0.00000000000E+00  0.00000000000E+00 -0.22363912689E+04  0.22363912689E+04  0.50400001928E-02 0. -1.
    10030    2    1    2    0    0  0.00000000000E+00  0.00000000000E+00 -0.77329064018E+03  0.36994918977E+04  0.36177702921E+04 0.  0.
        4    1    3    3  502    0  0.41558652341E+01 -0.20205164844E+03 -0.22248102330E+04  0.22339705293E+04  0.12699999809E+01 0. -1.
       -4    1    3    3    0  502 -0.41558652341E+01  0.20205164844E+03  0.14515195928E+04  0.14655213684E+04  0.12699999809E+01 0.  1.
</event>
<event>
 5   0  0.2020725E-06  0.3486368E+04  0.7818609E-02  0.8117028E-01
        2   -1    0    0  501    0  0.00000000000E+00  0.00000000000E+00  0.18336397178E+04  0.18336397178E+04  0.25500000920E-02 0.  1.
       -2   -1    0    0    0  501  0.00000000000E+00  0.00000000000E+00 -0.16571906903E+04  0.16571906903E+04  0.25500000920E-02 0. -1.
    10030    2    1    2    0    0  0.00000000000E+00  0.00000000000E+00  0.17644902744E+03  0.34908304081E+04  0.34863681215E+04 0.  0.
        3    1    3    3  502    0 -0.12246319101E+04 -0.12336534264E+04  0.21903079575E+03  0.17520269951E+04  0.10100000352E+00 0. -1.
       -3    1    3    3    0  502  0.12246319101E+04  0.12336534264E+04 -0.42581768309E+02  0.17388034130E+04  0.10100000352E+00 0.  1.
</event>
<event>
 5   0  0.2020725E-06  0.3432765E+04  0.7818609E-02  0.8129911E-01
        2   -1    0    0  501    0  0.00000000000E+00  0.00000000000E+00  0.16905731227E+04  0.16905731227E+04  0.25500000920E-02 0.  1.
       -2   -1    0    0    0  501  0.00000000000E+00  0.00000000000E+00 -0.17425862761E+04  0.17425862761E+04  0.25500000920E-02 0. -1.
    10030    2    1    2    0    0  0.00000000000E+00  0.00000000000E+00 -0.52013153429E+02  0.34331593988E+04  0.34327653706E+04 0.  0.
        3    1    3    3  502    0 -0.13852260871E+04 -0.48695440789E+03 -0.91492444288E+03  0.17300470092E+04  0.10100000352E+00 0. -1.
       -3    1    3    3    0  502  0.13852260871E+04  0.48695440789E+03  0.86291128946E+03  0.17031123895E+04  0.10100000352E+00 0.  1.
</event>
<event>
 5   0  0.6630125E-07  0.3548590E+04  0.7818609E-02  0.8102370E-01
        1   -1    0    0  501    0  0.00000000000E+00  0.00000000000E+00  0.19637157891E+04  0.19637157891E+04  0.50400001928E-02 0.  1.
       -1   -1    0    0    0  501  0.00000000000E+00  0.00000000000E+00 -0.16031458672E+04  0.16031458672E+04  0.50400001928E-02 0. -1.
    10030    2    1    2    0    0  0.00000000000E+00  0.00000000000E+00  0.36056992189E+03  0.35668616564E+04  0.35485900590E+04 0.  0.
        4    1    3    3  502    0  0.17099542879E+04 -0.46865848477E+03  0.11258240073E+03  0.17765868546E+04  0.12699999809E+01 0. -1.
       -4    1    3    3    0  502 -0.17099542879E+04  0.46865848477E+03  0.24798752116E+03  0.17902748017E+04  0.12699999809E+01 0.  1.
</event>
<event>
 5   0  0.6890600E-07  0.3481512E+04  0.7818609E-02  0.8118185E-01
        1   -1    0    0  501    0  0.00000000000E+00  0.00000000000E+00  0.10125790108E+04  0.10125790108E+04  0.50400001928E-02 0.  1.
       -1   -1    0    0    0  501  0.00000000000E+00  0.00000000000E+00 -0.29925882868E+04  0.29925882868E+04  0.50400001928E-02 0. -1.
    10030    2    1    2    0    0  0.00000000000E+00  0.00000000000E+00 -0.19800092761E+04  0.40051672976E+04  0.34815123651E+04 0.  0.
        3    1    3    3  502    0  0.15932228316E+04 -0.44089578749E+03 -0.36254684329E+03  0.16923912994E+04  0.10100000352E+00 0.  1.
       -3    1    3    3    0  502 -0.15932228316E+04  0.44089578749E+03 -0.16174624328E+04  0.23127759982E+04  0.10100000352E+00 0. -1.
</event>
<event>
 5   0  0.6630125E-07  0.3449213E+04  0.7818609E-02  0.8125932E-01
       -1   -1    0    0    0  501  0.00000000000E+00  0.00000000000E+00  0.13570383611E+04  0.13570383611E+04  0.50400001928E-02 0. -1.
        1   -1    0    0  501    0  0.00000000000E+00  0.00000000000E+00 -0.21917347356E+04  0.21917347356E+04  0.50400001928E-02 0.  1.
    10030    2    1    2    0    0  0.00000000000E+00  0.00000000000E+00 -0.83469637451E+03  0.35487730967E+04  0.34492133095E+04 0.  0.
        4    1    3    3  502    0 -0.16698145369E+04 -0.11589622210E+03 -0.84473455734E+03  0.18749108264E+04  0.12699999809E+01 0.  1.
       -4    1    3    3    0  502  0.16698145369E+04  0.11589622210E+03  0.10038182834E+02  0.16738622703E+04  0.12699999809E+01 0. -1.
</event>
<event>
 5   0  0.2023479E-06  0.3416286E+04  0.7818609E-02  0.8133921E-01
        2   -1    0    0  501    0  0.00000000000E+00  0.00000000000E+00  0.11429207586E+04  0.11429207586E+04  0.25500000920E-02 0. -1.
       -2   -1    0    0    0  501  0.00000000000E+00  0.00000000000E+00 -0.25528909571E+04  0.25528909571E+04  0.25500000920E-02 0.  1.
    10030    2    1    2    0    0  0.00000000000E+00  0.00000000000E+00 -0.14099701986E+04  0.36958117157E+04  0.34162857429E+04 0.  0.
        5    1    3    3  502    0 -0.43228033535E+03  0.13292820761E+04 -0.17670853802E+04  0.22531022962E+04  0.46999998093E+01 0.  1.
       -5    1    3    3    0  502  0.43228033535E+03 -0.13292820761E+04  0.35711518165E+03  0.14427094195E+04  0.46999998093E+01 0. -1.
</event>
<event>
 5   0  0.6630125E-07  0.3611977E+04  0.7818609E-02  0.8087754E-01
        1   -1    0    0  501    0  0.00000000000E+00  0.00000000000E+00  0.10422978025E+04  0.10422978025E+04  0.50400001928E-02 0. -1.
       -1   -1    0    0    0  501  0.00000000000E+00  0.00000000000E+00 -0.31292340956E+04  0.31292340956E+04  0.50400001928E-02 0.  1.
    10030    2    1    2    0    0  0.00000000000E+00  0.00000000000E+00 -0.20869362932E+04  0.41715318981E+04  0.36119766452E+04 0.  0.
        4    1    3    3  502    0 -0.11126112041E+04  0.25738819105E+03  0.57235880023E+03  0.12773991473E+04  0.12699999809E+01 0. -1.
       -4    1    3    3    0  502  0.11126112041E+04 -0.25738819105E+03 -0.26592950934E+04  0.28941327508E+04  0.12699999809E+01 0.  1.
</event>
<event>
 5   0  0.6630125E-07  0.2327119E+04  0.7818609E-02  0.8467305E-01
        3   -1    0    0  501    0  0.00000000000E+00  0.00000000000E+00  0.15137791768E+04  0.15137791802E+04  0.10100000352E+00 0.  1.
       -3   -1    0    0    0  501  0.00000000000E+00  0.00000000000E+00 -0.89436465759E+03  0.89436466329E+03  0.10100000352E+00 0. -1.
    10030    2    1    2    0    0  0.00000000000E+00  0.00000000000E+00  0.61941451925E+03  0.24081438435E+04  0.23271189107E+04 0.  0.
        5    1    3    3  502    0  0.15023527779E+03  0.11514552673E+04  0.23346257726E+03  0.11844605254E+04  0.46999998093E+01 0. -1.
       -5    1    3    3    0  502 -0.15023527779E+03 -0.11514552673E+04  0.38595194199E+03  0.12236833181E+04  0.46999998093E+01 0.  1.
</event>
<event>
 5   0  0.7378896E-07  0.3574480E+04  0.7818609E-02  0.8096362E-01
       -1   -1    0    0    0  501  0.00000000000E+00  0.00000000000E+00  0.14217094490E+04  0.14217094490E+04  0.50400001928E-02 0. -1.
        1   -1    0    0  501    0  0.00000000000E+00  0.00000000000E+00 -0.22467513989E+04  0.22467513989E+04  0.50400001928E-02 0.  1.
    10030    2    1    2    0    0  0.00000000000E+00  0.00000000000E+00 -0.82504194989E+03  0.36684608479E+04  0.35744804900E+04 0.  0.
        2    1    3    3  502    0 -0.16345297857E+04 -0.26893846355E+03  0.27609893532E+03  0.16793588478E+04  0.25500000920E-02 0. -1.
       -2    1    3    3    0  502  0.16345297857E+04  0.26893846355E+03 -0.11011408852E+04  0.19891020001E+04  0.25500000920E-02 0.  1.
</event>
<event>
 5   0  0.6630125E-07  0.2923417E+04  0.7818609E-02  0.8265944E-01
        1   -1    0    0  501    0  0.00000000000E+00  0.00000000000E+00  0.15828997940E+04  0.15828997940E+04  0.50400001928E-02 0.  1.
       -1   -1    0    0    0  501  0.00000000000E+00  0.00000000000E+00 -0.13497960416E+04  0.13497960416E+04  0.50400001928E-02 0. -1.
    10030    2    1    2    0    0  0.00000000000E+00  0.00000000000E+00  0.23310375244E+03  0.29326958356E+04  0.29234170939E+04 0.  0.
        5    1    3    3  502    0 -0.64066153714E+03 -0.73560297840E+03  0.12085889985E+04  0.15531479016E+04  0.46999998093E+01 0.  1.
       -5    1    3    3    0  502  0.64066153714E+03  0.73560297840E+03 -0.97548524606E+03  0.13795479340E+04  0.46999998093E+01 0. -1.
</event>
<event>
 5   0  0.2001768E-06  0.3501711E+04  0.7818609E-02  0.8113385E-01
       -2   -1    0    0    0  501  0.00000000000E+00  0.00000000000E+00  0.10159232246E+04  0.10159232246E+04  0.25500000920E-02 0. -1.
        2   -1    0    0  501    0  0.00000000000E+00  0.00000000000E+00 -0.30174468265E+04  0.30174468265E+04  0.25500000920E-02 0.  1.
    10030    2    1    2    0    0  0.00000000000E+00  0.00000000000E+00 -0.20015236018E+04  0.40333700511E+04  0.35017106164E+04 0.  0.
        2    1    3    3  502    0  0.25245483921E+03  0.15796401154E+04 -0.18205028269E+04  0.24234741349E+04  0.25500000920E-02 0. -1.
       -2    1    3    3    0  502 -0.25245483921E+03 -0.15796401154E+04 -0.18102077496E+03  0.16098959162E+04  0.25500000920E-02 0.  1.
</event>
<event>
 5   0  0.1999883E-06  0.3501069E+04  0.7818609E-02  0.8113537E-01
       -2   -1    0    0    0  501  0.00000000000E+00  0.00000000000E+00  0.12740867712E+04  0.12740867712E+04  0.25500000920E-02 0.  1.
        2   -1    0    0  501    0  0.00000000000E+00  0.00000000000E+00 -0.24051510813E+04  0.24051510813E+04  0.25500000920E-02 0. -1.
    10030    2    1    2    0    0  0.00000000000E+00  0.00000000000E+00 -0.11310643101E+04  0.36792378525E+04  0.35010690798E+04 0.  0.
        4    1    3    3  502    0 -0.64046807885E+03 -0.11347292066E+04  0.66295751780E+03  0.14619589651E+04  0.12699999809E+01 0.  1.
       -4    1    3    3    0  502  0.64046807885E+03  0.11347292066E+04 -0.17940218279E+04  0.22172788873E+04  0.12699999809E+01 0. -1.
</event>
<event>
 5   0  0.2020725E-06  0.3527193E+04  0.7818609E-02  0.8107376E-01
       -2   -1    0    0    0  501  0.00000000000E+00  0.00000000000E+00  0.11455220008E+04  0.11455220008E+04  0.25500000920E-02 0. -1.
        2   -1    0    0  501    0  0.00000000000E+00  0.00000000000E+00 -0.27151575753E+04  0.27151575753E+04  0.25500000920E-02 0.  1.
    10030    2    1    2    0    0  0.00000000000E+00  0.00000000000E+00 -0.15696355745E+04  0.38606795761E+04  0.35271930700E+04 0.  0.
        3    1    3    3  502    0 -0.98101125778E+02 -0.31205065716E+03 -0.26816632583E+04  0.27015397988E+04  0.10100000352E+00 0.  1.
       -3    1    3    3    0  502  0.98101125778E+02  0.31205065716E+03  0.11120276838E+04  0.11591397773E+04  0.10100000352E+00 0. -1.
</event>
<event>
 5   0  0.6630125E-07  0.3450845E+04  0.7818609E-02  0.8125539E-01
        1   -1    0    0  501    0  0.00000000000E+00  0.00000000000E+00  0.19839994903E+04  0.19839994903E+04  0.50400001928E-02 0.  1.
       -1   -1    0    0    0  501  0.00000000000E+00  0.00000000000E+00 -0.15005461637E+04  0.15005461637E+04  0.50400001928E-02 0. -1.
    10030    2    1    2    0    0  0.00000000000E+00  0.00000000000E+00  0.48345332663E+03  0.34845456541E+04  0.34508450119E+04 0.  0.
        4    1    3    3  502    0  0.10199088796E+04  0.13051850620E+04  0.72951680816E+03  0.18099498764E+04  0.12699999809E+01 0.  1.
       -4    1    3    3    0  502 -0.10199088796E+04 -0.13051850620E+04 -0.24606348153E+03  0.16745957777E+04  0.12699999809E+01 0. -1.
</event>
<event>
 5   0  0.6890600E-07  0.2551969E+04  0.7818609E-02  0.8384702E-01
       -1   -1    0    0    0  501  0.00000000000E+00  0.00000000000E+00  0.11859165932E+04  0.11859165932E+04  0.50400001928E-02 0. -1.
        1   -1    0    0  501    0  0.00000000000E+00  0.00000000000E+00 -0.13728931379E+04  0.13728931380E+04  0.50400001928E-02 0.  1.
    10030    2    1    2    0    0  0.00000000000E+00  0.00000000000E+00 -0.18697654478E+03  0.25588097311E+04  0.25519692419E+04 0.  0.
        3    1    3    3  502    0  0.19543001895E+03  0.12141005631E+04 -0.43484711527E+03  0.13043485322E+04  0.10100000352E+00 0. -1.
       -3    1    3    3    0  502 -0.19543001895E+03 -0.12141005631E+04  0.24787057049E+03  0.12544611989E+04  0.10100000352E+00 0.  1.
</event>
<event>
 5   0  0.6630125E-07  0.3493538E+04  0.7818609E-02  0.8115323E-01
       -1   -1    0    0    0  501  0.00000000000E+00  0.00000000000E+00  0.14601561408E+04  0.14601561408E+04  0.50400001928E-02 0.  1.
        1   -1    0    0  501    0  0.00000000000E+00  0.00000000000E+00 -0.20896411717E+04  0.20896411718E+04  0.50400001928E-02 0. -1.
    10030    2    1    2    0    0  0.00000000000E+00  0.00000000000E+00 -0.62948503093E+03  0.35497973126E+04  0.34935382574E+04 0.  0.
        5    1    3    3  502    0  0.15407966570E+04 -0.14966853167E+03  0.50743881635E+03  0.16291013627E+04  0.46999998093E+01 0.  1.
       -5    1    3    3    0  502 -0.15407966570E+04  0.14966853167E+03 -0.11369238473E+04  0.19206959499E+04  0.46999998093E+01 0. -1.
</event>
<event>
 5   0  0.6630125E-07  0.3596737E+04  0.7818609E-02  0.8091240E-01
       -1   -1    0    0    0  501  0.00000000000E+00  0.00000000000E+00  0.14891015802E+04  0.14891015802E+04  0.50400001928E-02 0.  1.
        1   -1    0    0  501    0  0.00000000000E+00  0.00000000000E+00 -0.21718656575E+04  0.21718656575E+04  0.50400001928E-02 0. -1.
    10030    2    1    2    0    0  0.00000000000E+00  0.00000000000E+00 -0.68276407734E+03  0.36609672377E+04  0.35967366223E+04 0.  0.
        5    1    3    3  502    0  0.74473015461E+03  0.28245708349E+03  0.12997704912E+04  0.15244115018E+04  0.46999998093E+01 0.  1.
       -5    1    3    3    0  502 -0.74473015461E+03 -0.28245708349E+03 -0.19825345685E+04  0.21365557359E+04  0.46999998093E+01 0. -1.
</event>
<event>
 5   0  0.2001768E-06  0.3518729E+04  0.7818609E-02  0.8109366E-01
       -2   -1    0    0    0  501  0.00000000000E+00  0.00000000000E+00  0.21907829141E+04  0.21907829141E+04  0.25500000920E-02 0. -1.
        2   -1    0    0  501    0  0.00000000000E+00  0.00000000000E+00 -0.14129029898E+04  0.14129029898E+04  0.25500000920E-02 0.  1.
    10030    2    1    2    0    0  0.00000000000E+00  0.00000000000E+00  0.77787992429E+03  0.36036859039E+04  0.35187291622E+04 0.  0.
        2    1    3    3  502    0  0.48792435988E+03  0.16857961686E+04  0.51597028113E+03  0.18292633036E+04  0.25500000920E-02 0. -1.
       -2    1    3    3    0  502 -0.48792435988E+03 -0.16857961686E+04  0.26190964316E+03  0.17744226002E+04  0.25500000920E-02 0.  1.
</event>
<event>
 5   0  0.2001768E-06  0.3502060E+04  0.7818609E-02  0.8113302E-01
       -2   -1    0    0    0  501  0.00000000000E+00  0.00000000000E+00  0.10775616205E+04  0.10775616205E+04  0.25500000920E-02 0. -1.
        2   -1    0    0  501    0  0.00000000000E+00  0.00000000000E+00 -0.28454110893E+04  0.28454110893E+04  0.25500000920E-02 0.  1.
    10030    2    1    2    0    0  0.00000000000E+00  0.00000000000E+00 -0.17678494688E+04  0.39229727098E+04  0.35020598420E+04 0.  0.
        2    1    3    3  502    0  0.92713329900E+03 -0.45578086751E+03  0.69978534514E+03  0.12478028220E+04  0.25500000920E-02 0. -1.
       -2    1    3    3    0  502 -0.92713329900E+03  0.45578086751E+03 -0.24676348140E+04  0.26751698878E+04  0.25500000920E-02 0.  1.
</event>
<event>
 5   0  0.6890600E-07  0.3496051E+04  0.7818609E-02  0.8114727E-01
        1   -1    0    0  501    0  0.00000000000E+00  0.00000000000E+00  0.23068517556E+04  0.23068517556E+04  0.50400001928E-02 0.  1.
       -1   -1    0    0    0  501  0.00000000000E+00  0.00000000000E+00 -0.13245725827E+04  0.13245725827E+04  0.50400001928E-02 0. -1.
    10030    2    1    2    0    0  0.00000000000E+00  0.00000000000E+00  0.98227917284E+03  0.36314243383E+04  0.34960506792E+04 0.  0.
        3    1    3    3  502    0 -0.13466095530E+04  0.48198318967E+03  0.15350046871E+04  0.20980716106E+04  0.10100000352E+00 0.  1.
       -3    1    3    3    0  502  0.13466095530E+04 -0.48198318967E+03 -0.55272551426E+03  0.15333527278E+04  0.10100000352E+00 0. -1.
</event>
<event>
 5   0  0.6630125E-07  0.3430602E+04  0.7818609E-02  0.8130436E-01
        1   -1    0    0  501    0  0.00000000000E+00  0.00000000000E+00  0.15591948193E+04  0.15591948193E+04  0.50400001928E-02 0.  1.
       -1   -1    0    0    0  501  0.00000000000E+00  0.00000000000E+00 -0.18870362914E+04  0.18870362914E+04  0.50400001928E-02 0. -1.
    10030    2    1    2    0    0  0.00000000000E+00  0.00000000000E+00 -0.32784147206E+03  0.34462311107E+04  0.34306018186E+04 0.  0.
        1    1    3    3  502    0 -0.32218550180E+03 -0.33210986545E+02 -0.18560385502E+04  0.18840874627E+04  0.50400001928E-02 0. -1.
       -1    1    3    3    0  502  0.32218550180E+03  0.33210986545E+02  0.15281970782E+04  0.15621436480E+04  0.50400001928E-02 0.  1.
</event>
<event>
 5   0  0.2073287E-06  0.2521878E+04  0.7818609E-02  0.8395233E-01
       -2   -1    0    0    0  501  0.00000000000E+00  0.00000000000E+00  0.11750881036E+04  0.11750881036E+04  0.25500000920E-02 0.  1.
        2   -1    0    0  501    0  0.00000000000E+00  0.00000000000E+00 -0.13530620451E+04  0.13530620451E+04  0.25500000920E-02 0. -1.
    10030    2    1    2    0    0  0.00000000000E+00  0.00000000000E+00 -0.17797394154E+03  0.25281501487E+04  0.25218779611E+04 0.  0.
        1    1    3    3  502    0  0.69194419073E+03 -0.46645217571E+03 -0.10366436708E+04  0.13307871714E+04  0.50400001928E-02 0. -1.
       -1    1    3    3    0  502 -0.69194419073E+03  0.46645217571E+03  0.85866972930E+03  0.11973629773E+04  0.50400001928E-02 0.  1.
</event>
<event>
 5   0  0.2023479E-06  0.3560129E+04  0.7818609E-02  0.8099686E-01
       -2   -1    0    0    0  501  0.00000000000E+00  0.00000000000E+00  0.14163010331E+04  0.14163010331E+04  0.25500000920E-02 0. -1.
        2   -1    0    0  501    0  0.00000000000E+00  0.00000000000E+00 -0.22372573990E+04  0.22372573990E+04  0.25500000920E-02 0.  1.
    10030    2    1    2    0    0  0.00000000000E+00  0.00000000000E+00 -0.82095636593E+03  0.36535584320E+04  0.35601291917E+04 0.  0.
        5    1    3    3  502    0  0.58521229195E+03 -0.16341056431E+04 -0.53613504981E+01  0.17357492657E+04  0.46999998093E+01 0.  1.
       -5    1    3    3    0  502 -0.58521229195E+03  0.16341056431E+04 -0.81559501543E+03  0.19178091663E+04  0.46999998093E+01 0. -1.
</event>
<event>
 5   0  0.7378896E-07  0.3942721E+04  0.7818609E-02  0.8016202E-01
        1   -1    0    0  501    0  0.00000000000E+00  0.00000000000E+00  0.24702320915E+04  0.24702320915E+04  0.50400001928E-02 0.  1.
       -1   -1    0    0    0  501  0.00000000000E+00  0.00000000000E+00 -0.15732379933E+04  0.15732379933E+04  0.50400001928E-02 0. -1.
    10030    2    1    2    0    0  0.00000000000E+00  0.00000000000E+00  0.89699409812E+03  0.40434700848E+04  0.39427213844E+04 0.  0.
        2    1    3    3  502    0  0.15327524467E+04  0.66983583917E+02  0.17180498042E+04  0.23033697039E+04  0.25500000920E-02 0.  1.
       -2    1    3    3    0  502 -0.15327524467E+04 -0.66983583917E+02 -0.82105570604E+03  0.17401003809E+04  0.25500000920E-02 0. -1.
</event>
<event>
 5   0  0.7378896E-07  0.3688815E+04  0.7818609E-02  0.8070445E-01
       -1   -1    0    0    0  501  0.00000000000E+00  0.00000000000E+00  0.32331159958E+04  0.32331159958E+04  0.50400001928E-02 0.  1.
        1   -1    0    0  501    0  0.00000000000E+00  0.00000000000E+00 -0.10521858723E+04  0.10521858723E+04  0.50400001928E-02 0. -1.
    10030    2    1    2    0    0  0.00000000000E+00  0.00000000000E+00  0.21809301235E+04  0.42853018681E+04  0.36888149720E+04 0.  0.
        2    1    3    3  502    0  0.88364107435E+03 -0.12538473126E+04  0.22802222834E+04  0.27481572541E+04  0.25500000920E-02 0.  1.
       -2    1    3    3    0  502 -0.88364107435E+03  0.12538473126E+04 -0.99292159871E+02  0.15371446141E+04  0.25500000920E-02 0. -1.
</event>
<event>
 5   0  0.6890600E-07  0.3493141E+04  0.7818609E-02  0.8115417E-01
        1   -1    0    0  501    0  0.00000000000E+00  0.00000000000E+00  0.17874443920E+04  0.17874443921E+04  0.50400001928E-02 0. -1.
       -1   -1    0    0    0  501  0.00000000000E+00  0.00000000000E+00 -0.17066315986E+04  0.17066315987E+04  0.50400001928E-02 0.  1.
    10030    2    1    2    0    0  0.00000000000E+00  0.00000000000E+00  0.80812793401E+02  0.34940759907E+04  0.34931413257E+04 0.  0.
        3    1    3    3  502    0 -0.36485875832E+03  0.16686942101E+04 -0.32417266355E+03  0.17386058226E+04  0.10100000352E+00 0.  1.
       -3    1    3    3    0  502  0.36485875832E+03 -0.16686942101E+04  0.40498545695E+03  0.17554701681E+04  0.10100000352E+00 0. -1.
</event>
<event>
 5   0  0.2020725E-06  0.3543278E+04  0.7818609E-02  0.8103609E-01
       -2   -1    0    0    0  501  0.00000000000E+00  0.00000000000E+00  0.18194021443E+04  0.18194021443E+04  0.25500000920E-02 0.  1.
        2   -1    0    0  501    0  0.00000000000E+00  0.00000000000E+00 -0.17251301204E+04  0.17251301204E+04  0.25500000920E-02 0. -1.
    10030    2    1    2    0    0  0.00000000000E+00  0.00000000000E+00  0.94272023837E+02  0.35445322647E+04  0.35432783917E+04 0.  0.
        3    1    3    3  502    0 -0.12494647841E+03 -0.10513548969E+04 -0.13738407634E+04  0.17344731751E+04  0.10100000352E+00 0. -1.
       -3    1    3    3    0  502  0.12494647841E+03  0.10513548969E+04  0.14681127872E+04  0.18100590896E+04  0.10100000352E+00 0.  1.
</event>
<event>
 5   0  0.6630125E-07  0.3531547E+04  0.7818609E-02  0.8106354E-01
        1   -1    0    0  501    0  0.00000000000E+00  0.00000000000E+00  0.24610495625E+04  0.24610495625E+04  0.50400001928E-02 0.  1.
       -1   -1    0    0    0  501  0.00000000000E+00  0.00000000000E+00 -0.12669210656E+04  0.12669210656E+04  0.50400001928E-02 0. -1.
    10030    2    1    2    0    0  0.00000000000E+00  0.00000000000E+00  0.11941284969E+04  0.37279706281E+04  0.35315467061E+04 0.  0.
        5    1    3    3  502    0  0.16363655404E+04  0.66346203442E+03  0.60519945603E+03  0.18665911509E+04  0.46999998093E+01 0. -1.
       -5    1    3    3    0  502 -0.16363655404E+04 -0.66346203442E+03  0.58892904086E+03  0.18613794772E+04  0.46999998093E+01 0.  1.
</event>
<event>
 5   0  0.7378896E-07  0.3257662E+04  0.7818609E-02  0.8173753E-01
       -1   -1    0    0    0  501  0.00000000000E+00  0.00000000000E+00  0.20609272098E+04  0.20609272098E+04  0.50400001928E-02 0. -1.
        1   -1    0    0  501    0  0.00000000000E+00  0.00000000000E+00 -0.12873282045E+04  0.12873282045E+04  0.50400001928E-02 0.  1.
    10030    2    1    2    0    0  0.00000000000E+00  0.00000000000E+00  0.77359900532E+03  0.33482554143E+04  0.32576615691E+04 0.  0.
        2    1    3    3  502    0 -0.91762764883E+02  0.13497460823E+04 -0.54554030496E+03  0.14587148851E+04  0.25500000920E-02 0.  1.
       -2    1    3    3    0  502  0.91762764883E+02 -0.13497460823E+04  0.13191393103E+04  0.18895405292E+04  0.25500000920E-02 0. -1.
</event>
<event>
 5   0  0.2073287E-06  0.3466769E+04  0.7818609E-02  0.8121711E-01
        2   -1    0    0  501    0  0.00000000000E+00  0.00000000000E+00  0.26040795303E+04  0.26040795303E+04  0.25500000920E-02 0.  1.
       -2   -1    0    0    0  501  0.00000000000E+00  0.00000000000E+00 -0.11538130854E+04  0.11538130854E+04  0.25500000920E-02 0. -1.
    10030    2    1    2    0    0  0.00000000000E+00  0.00000000000E+00  0.14502664449E+04  0.37578926157E+04  0.34667685458E+04 0.  0.
        1    1    3    3  502    0 -0.91398601445E+03  0.66895886894E+03 -0.69720829577E+03  0.13300284999E+04  0.50400001928E-02 0. -1.
       -1    1    3    3    0  502  0.91398601445E+03 -0.66895886894E+03  0.21474747406E+04  0.24278641158E+04  0.50400001928E-02 0.  1.
</event>
<event>
 5   0  0.2023479E-06  0.3482078E+04  0.7818609E-02  0.8118050E-01
       -2   -1    0    0    0  501  0.00000000000E+00  0.00000000000E+00  0.11913310869E+04  0.11913310869E+04  0.25500000920E-02 0. -1.
        2   -1    0    0  501    0  0.00000000000E+00  0.00000000000E+00 -0.25443953483E+04  0.25443953483E+04  0.25500000920E-02 0.  1.
    10030    2    1    2    0    0  0.00000000000E+00  0.00000000000E+00 -0.13530642614E+04  0.37357264352E+04  0.34820782736E+04 0.  0.
        5    1    3    3  502    0  0.11786104904E+04 -0.12706749881E+04 -0.49875839244E+03  0.18034743241E+04  0.46999998093E+01 0.  1.
       -5    1    3    3    0  502 -0.11786104904E+04  0.12706749881E+04 -0.85430586892E+03  0.19322521112E+04  0.46999998093E+01 0. -1.
</event>
<event>
 5   0  0.2023479E-06  0.3606798E+04  0.7818609E-02  0.8088936E-01
       -2   -1    0    0    0  501  0.00000000000E+00  0.00000000000E+00  0.14916681509E+04  0.14916681509E+04  0.25500000920E-02 0.  1.
        2   -1    0    0  501    0  0.00000000000E+00  0.00000000000E+00 -0.21802757745E+04  0.21802757745E+04  0.25500000920E-02 0. -1.
    10030    2    1    2    0    0  0.00000000000E+00  0.00000000000E+00 -0.68860762353E+03  0.36719439254E+04  0.36067979888E+04 0.  0.
        5    1    3    3  502    0  0.17704998648E+04 -0.26563188368E+03 -0.12360315482E+03  0.17945834889E+04  0.46999998093E+01 0. -1.
       -5    1    3    3    0  502 -0.17704998648E+04  0.26563188368E+03 -0.56500446872E+03  0.18773604365E+04  0.46999998093E+01 0.  1.
</event>
<event>
 5   0  0.2023479E-06  0.3443027E+04  0.7818609E-02  0.8127426E-01
        2   -1    0    0  501    0  0.00000000000E+00  0.00000000000E+00  0.23259816909E+04  0.23259816909E+04  0.25500000920E-02 0. -1.
       -2   -1    0    0    0  501  0.00000000000E+00  0.00000000000E+00 -0.12741326327E+04  0.12741326327E+04  0.25500000920E-02 0.  1.
    10030    2    1    2    0    0  0.00000000000E+00  0.00000000000E+00  0.10518490582E+04  0.36001143236E+04  0.34430272584E+04 0.  0.
        5    1    3    3  502    0 -0.38349016687E+03  0.14557830514E+04  0.13990168187E+04  0.20551494228E+04  0.46999998093E+01 0. -1.
       -5    1    3    3    0  502  0.38349016687E+03 -0.14557830514E+04 -0.34716776053E+03  0.15449649008E+04  0.46999998093E+01 0.  1.
</event>
<event>
 5   0  0.2001768E-06  0.3508202E+04  0.7818609E-02  0.8111849E-01
        2   -1    0    0  501    0  0.00000000000E+00  0.00000000000E+00  0.23308124125E+04  0.23308124125E+04  0.25500000920E-02 0. -1.
       -2   -1    0    0    0  501  0.00000000000E+00  0.00000000000E+00 -0.13200846771E+04  0.13200846771E+04  0.25500000920E-02 0.  1.
    10030    2    1    2    0    0  0.00000000000E+00  0.00000000000E+00  0.10107277354E+04  0.36508970896E+04  0.35082016766E+04 0.  0.
        2    1    3    3  502    0 -0.84980998884E+03  0.71471477779E+02 -0.10898193779E+04  0.13838321668E+04  0.25500000920E-02 0.  1.
       -2    1    3    3    0  502  0.84980998884E+03 -0.71471477779E+02  0.21005471133E+04  0.22670649229E+04  0.25500000920E-02 0. -1.
</event>
<event>
 5   0  0.1999883E-06  0.3499104E+04  0.7818609E-02  0.8114002E-01
        2   -1    0    0  501    0  0.00000000000E+00  0.00000000000E+00  0.20937016191E+04  0.20937016191E+04  0.25500000920E-02 0.  1.
       -2   -1    0    0    0  501  0.00000000000E+00  0.00000000000E+00 -0.14619716521E+04  0.14619716522E+04  0.25500000920E-02 0. -1.
    10030    2    1    2    0    0  0.00000000000E+00  0.00000000000E+00  0.63172996699E+03  0.35556732713E+04  0.34991041226E+04 0.  0.
        4    1    3    3  502    0  0.11166336147E+04  0.35503284221E+03  0.16361044986E+04  0.20124011757E+04  0.12699999809E+01 0.  1.
       -4    1    3    3    0  502 -0.11166336147E+04 -0.35503284221E+03 -0.10043745316E+04  0.15432720956E+04  0.12699999809E+01 0. -1.
</event>
<event>
 5   0  0.2020725E-06  0.2620394E+04  0.7818609E-02  0.8361307E-01
       -2   -1    0    0    0  501  0.00000000000E+00  0.00000000000E+00  0.14182043300E+04  0.14182043300E+04  0.25500000920E-02 0. -1.
        2   -1    0    0  501    0  0.00000000000E+00  0.00000000000E+00 -0.12104149572E+04  0.12104149572E+04  0.25500000920E-02 0.  1.
    10030    2    1    2    0    0  0.00000000000E+00  0.00000000000E+00  0.20778937276E+03  0.26286192873E+04  0.26203936601E+04 0.  0.
        3    1    3    3  502    0  0.15978872954E+03  0.44720904659E+03  0.13288286984E+04  0.14111392877E+04  0.10100000352E+00 0. -1.
       -3    1    3    3    0  502 -0.15978872954E+03 -0.44720904659E+03 -0.11210393256E+04  0.12174799995E+04  0.10100000352E+00 0.  1.
</event>
<event>
 5   0  0.2023479E-06  0.3504135E+04  0.7818609E-02  0.8112811E-01
       -2   -1    0    0    0  501  0.00000000000E+00  0.00000000000E+00  0.11550872183E+04  0.11550872184E+04  0.25500000920E-02 0. -1.
        2   -1    0    0  501    0  0.00000000000E+00  0.00000000000E+00 -0.26575834137E+04  0.26575834137E+04  0.25500000920E-02 0.  1.
    10030    2    1    2    0    0  0.00000000000E+00  0.00000000000E+00 -0.15024961953E+04  0.38126706320E+04  0.35041350618E+04 0.  0.
        5    1    3    3  502    0  0.10572408052E+04 -0.85429452587E+02  0.76604870231E+03  0.13083994099E+04  0.46999998093E+01 0. -1.
       -5    1    3    3    0  502 -0.10572408052E+04  0.85429452587E+02 -0.22685448977E+04  0.25042712222E+04  0.46999998093E+01 0.  1.
</event>
<event>
 5   0  0.1999883E-06  0.2354801E+04  0.7818609E-02  0.8456622E-01
        2   -1    0    0  501    0  0.00000000000E+00  0.00000000000E+00  0.14969589333E+04  0.14969589333E+04  0.25500000920E-02 0.  1.
       -2   -1    0    0    0  501  0.00000000000E+00  0.00000000000E+00 -0.92605894073E+03  0.92605894073E+03  0.25500000920E-02 0. -1.
    10030    2    1    2    0    0  0.00000000000E+00  0.00000000000E+00  0.57089999258E+03  0.24230178740E+04  0.23548012265E+04 0.  0.
        4    1    3    3  502    0 -0.96149312338E+03 -0.30759697145E+03  0.90896258349E+03  0.13584180190E+04  0.12699999809E+01 0.  1.
       -4    1    3    3    0  502  0.96149312338E+03  0.30759697145E+03 -0.33806259091E+03  0.10645998551E+04  0.12699999809E+01 0. -1.
</event>
<event>
 5   0  0.6630125E-07  0.3614082E+04  0.7818609E-02  0.8087274E-01
        3   -1    0    0  501    0  0.00000000000E+00  0.00000000000E+00  0.27545010779E+04  0.27545010798E+04  0.10100000352E+00 0. -1.
       -3   -1    0    0    0  501  0.00000000000E+00  0.00000000000E+00 -0.11854764919E+04  0.11854764962E+04  0.10100000352E+00 0.  1.
    10030    2    1    2    0    0  0.00000000000E+00  0.00000000000E+00  0.15690245860E+04  0.39399775760E+04  0.36140815081E+04 0.  0.
        4    1    3    3  502    0 -0.16715730689E+03  0.37819701834E+03 -0.11332088019E+04  0.12062911554E+04  0.12699999809E+01 0.  1.
       -4    1    3    3    0  502  0.16715730689E+03 -0.37819701834E+03  0.27022333880E+04  0.27336864206E+04  0.12699999809E+01 0. -1.
</event>
<event>
 5   0  0.2073287E-06  0.2372311E+04  0.7818609E-02  0.8449943E-01
       -2   -1    0    0    0  501  0.00000000000E+00  0.00000000000E+00  0.12939248972E+04  0.12939248972E+04  0.25500000920E-02 0. -1.
        2   -1    0    0  501    0  0.00000000000E+00  0.00000000000E+00 -0.10873617267E+04  0.10873617267E+04  0.25500000920E-02 0.  1.
    10030    2    1    2    0    0  0.00000000000E+00  0.00000000000E+00  0.20656317044E+03  0.23812866239E+04  0.23723106124E+04 0.  0.
        1    1    3    3  502    0  0.99901758941E+03 -0.34284914420E+03  0.64512278640E+03  0.12376449770E+04  0.50400001928E-02 0. -1.
       -1    1    3    3    0  502 -0.99901758941E+03  0.34284914420E+03 -0.43855961597E+03  0.11436416469E+04  0.50400001928E-02 0.  1.
</event>
<event>
 5   0  0.7378896E-07  0.3425280E+04  0.7818609E-02  0.8131729E-01
       -1   -1    0    0    0  501  0.00000000000E+00  0.00000000000E+00  0.16311225693E+04  0.16311225693E+04  0.50400001928E-02 0.  1.
        1   -1    0    0  501    0  0.00000000000E+00  0.00000000000E+00 -0.17982318607E+04  0.17982318607E+04  0.50400001928E-02 0. -1.
    10030    2    1    2    0    0  0.00000000000E+00  0.00000000000E+00 -0.16710929137E+03  0.34293544300E+04  0.34252804690E+04 0.  0.
        2    1    3    3  502    0  0.44212726518E+03 -0.15862077300E+04 -0.55486404552E+03  0.17376436891E+04  0.25500000920E-02 0. -1.
       -2    1    3    3    0  502 -0.44212726518E+03  0.15862077300E+04  0.38775475415E+03  0.16917107409E+04  0.25500000920E-02 0.  1.
</event>
<event>
 5   0  0.2020725E-06  0.3464137E+04  0.7818609E-02  0.8122342E-01
        2   -1    0    0  501    0  0.00000000000E+00  0.00000000000E+00  0.24785813997E+04  0.24785813997E+04  0.25500000920E-02 0. -1.
       -2   -1    0    0    0  501  0.00000000000E+00  0.00000000000E+00 -0.12103944954E+04  0.12103944954E+04  0.25500000920E-02 0.  1.
    10030    2    1    2    0    0  0.00000000000E+00  0.00000000000E+00  0.12681869043E+04  0.36889758951E+04  0.34641369965E+04 0.  0.
        3    1    3    3  502    0 -0.80802821476E+03  0.10654170154E+04 -0.53828795752E+03  0.14414495995E+04  0.10100000352E+00 0.  1.
       -3    1    3    3    0  502  0.80802821476E+03 -0.10654170154E+04  0.18064748618E+04  0.22475262955E+04  0.10100000352E+00 0. -1.
</event>
<event>
 5   0  0.6630125E-07  0.3518395E+04  0.7818609E-02  0.8109444E-01
       -1   -1    0    0    0  501  0.00000000000E+00  0.00000000000E+00  0.13864955146E+04  0.13864955146E+04  0.50400001928E-02 0.  1.
        1   -1    0    0  501    0  0.00000000000E+00  0.00000000000E+00 -0.22320851393E+04  0.22320851393E+04  0.50400001928E-02 0. -1.
    10030    2    1    2    0    0  0.00000000000E+00  0.00000000000E+00 -0.84558962470E+03  0.36185806540E+04  0.35183951080E+04 0.  0.
        4    1    3    3  502    0 -0.11820572635E+04 -0.15870378177E+03  0.90721363640E+03  0.14984940639E+04  0.12699999809E+01 0.  1.
       -4    1    3    3    0  502  0.11820572635E+04  0.15870378177E+03 -0.17528032611E+04  0.21200865901E+04  0.12699999809E+01 0. -1.
</event>
<event>
 5   0  0.6630125E-07  0.2970587E+04  0.7818609E-02  0.8252180E-01
       -1   -1    0    0    0  501  0.00000000000E+00  0.00000000000E+00  0.14582841771E+04  0.14582841771E+04  0.50400001928E-02 0. -1.
        1   -1    0    0  501    0  0.00000000000E+00  0.00000000000E+00 -0.15128032285E+04  0.15128032285E+04  0.50400001928E-02 0.  1.
    10030    2    1    2    0    0  0.00000000000E+00  0.00000000000E+00 -0.54519051367E+02  0.29710874056E+04  0.29705871549E+04 0.  0.
        1    1    3    3  502    0  0.92448962643E+02 -0.56300931797E+03 -0.13988294812E+04  0.15107118257E+04  0.50400001928E-02 0.  1.
       -1    1    3    3    0  502 -0.92448962643E+02  0.56300931797E+03  0.13443104298E+04  0.14603755799E+04  0.50400001928E-02 0. -1.
</event>
<event>
 5   0  0.6630125E-07  0.3505059E+04  0.7818609E-02  0.8112592E-01
       -1   -1    0    0    0  501  0.00000000000E+00  0.00000000000E+00  0.19217375299E+04  0.19217375299E+04  0.50400001928E-02 0.  1.
        1   -1    0    0  501    0  0.00000000000E+00  0.00000000000E+00 -0.15982204299E+04  0.15982204299E+04  0.50400001928E-02 0. -1.
    10030    2    1    2    0    0  0.00000000000E+00  0.00000000000E+00  0.32351710002E+03  0.35199579599E+04  0.35050593041E+04 0.  0.
        5    1    3    3  502    0  0.13793718228E+03 -0.28038242710E+03 -0.15700124878E+04  0.16008130040E+04  0.46999998093E+01 0. -1.
       -5    1    3    3    0  502 -0.13793718228E+03  0.28038242710E+03  0.18935295879E+04  0.19191449559E+04  0.46999998093E+01 0.  1.
</event>
<event>
 5   0  0.1999883E-06  0.3506455E+04  0.7818609E-02  0.8112262E-01
       -2   -1    0    0    0  501  0.00000000000E+00  0.00000000000E+00  0.10746977899E+04  0.10746977899E+04  0.25500000920E-02 0.  1.
        2   -1    0    0  501    0  0.00000000000E+00  0.00000000000E+00 -0.28601594778E+04  0.28601594778E+04  0.25500000920E-02 0. -1.
    10030    2    1    2    0    0  0.00000000000E+00  0.00000000000E+00 -0.17854616879E+04  0.39348572677E+04  0.35064552298E+04 0.  0.
        4    1    3    3  502    0 -0.14309335357E+03  0.57218337653E+03 -0.27454880346E+04  0.28081267217E+04  0.12699999809E+01 0. -1.
       -4    1    3    3    0  502  0.14309335357E+03 -0.57218337653E+03  0.96002634666E+03  0.11267305460E+04  0.12699999809E+01 0.  1.
</event>
<event>
 5   0  0.7378896E-07  0.3328034E+04  0.7818609E-02  0.8155799E-01
       -1   -1    0    0    0  501  0.00000000000E+00  0.00000000000E+00  0.12593295710E+04  0.12593295710E+04  0.50400001928E-02 0. -1.
        1   -1    0    0  501    0  0.00000000000E+00  0.00000000000E+00 -0.21987513178E+04  0.21987513178E+04  0.50400001928E-02 0.  1.
    10030    2    1    2    0    0  0.00000000000E+00  0.00000000000E+00 -0.93942174675E+03  0.34580808888E+04  0.33280339865E+04 0.  0.
        2    1    3    3  502    0 -0.77568516544E+02  0.72915866312E+03  0.10824002393E+04  0.13073941673E+04  0.25500000920E-02 0. -1.
       -2    1    3    3    0  502  0.77568516544E+02 -0.72915866312E+03 -0.20218219860E+04  0.21506867215E+04  0.25500000920E-02 0.  1.
</event>
<event>
 5   0  0.2001768E-06  0.2163649E+04  0.7818609E-02  0.8533712E-01
       -2   -1    0    0    0  501  0.00000000000E+00  0.00000000000E+00  0.13725294597E+04  0.13725294597E+04  0.25500000920E-02 0.  1.
        2   -1    0    0  501    0  0.00000000000E+00  0.00000000000E+00 -0.85269180452E+03  0.85269180453E+03  0.25500000920E-02 0. -1.
    10030    2    1    2    0    0  0.00000000000E+00  0.00000000000E+00  0.51983765518E+03  0.22252212642E+04  0.21636493448E+04 0.  0.
        2    1    3    3  502    0 -0.10806806755E+04  0.97536806297E+01  0.20975829989E+03  0.11008925475E+04  0.25500000920E-02 0. -1.
       -2    1    3    3    0  502  0.10806806755E+04 -0.97536806297E+01  0.31007935529E+03  0.11243287168E+04  0.25500000920E-02 0.  1.
</event>
<event>
 5   0  0.2073287E-06  0.3837338E+04  0.7818609E-02  0.8038189E-01
       -2   -1    0    0    0  501  0.00000000000E+00  0.00000000000E+00  0.22036495021E+04  0.22036495021E+04  0.25500000920E-02 0.  1.
        2   -1    0    0  501    0  0.00000000000E+00  0.00000000000E+00 -0.16705426327E+04  0.16705426327E+04  0.25500000920E-02 0. -1.
    10030    2    1    2    0    0  0.00000000000E+00  0.00000000000E+00  0.53310686941E+03  0.38741921347E+04  0.38373378484E+04 0.  0.
        1    1    3    3  502    0 -0.61736487458E+03 -0.14237754619E+04 -0.87256214245E+03  0.17803484622E+04  0.50400001928E-02 0. -1.
       -1    1    3    3    0  502  0.61736487458E+03  0.14237754619E+04  0.14056690119E+04  0.20938436726E+04  0.50400001928E-02 0.  1.
</event>
<event>
 5   0  0.2023479E-06  0.3509913E+04  0.7818609E-02  0.8111445E-01
        2   -1    0    0  501    0  0.00000000000E+00  0.00000000000E+00  0.24480647277E+04  0.24480647277E+04  0.25500000920E-02 0. -1.
       -2   -1    0    0    0  501  0.00000000000E+00  0.00000000000E+00 -0.12580843756E+04  0.12580843756E+04  0.25500000920E-02 0.  1.
    10030    2    1    2    0    0  0.00000000000E+00  0.00000000000E+00  0.11899803521E+04  0.37061491033E+04  0.35099128105E+04 0.  0.
        5    1    3    3  502    0 -0.24594711377E+02 -0.17744717712E+03  0.24383782063E+04  0.24449545533E+04  0.46999998093E+01 0. -1.
       -5    1    3    3    0  502  0.24594711377E+02  0.17744717712E+03 -0.12483978542E+04  0.12611945500E+04  0.46999998093E+01 0.  1.
</event>
<event>
 5   0  0.7378896E-07  0.3490805E+04  0.7818609E-02  0.8115973E-01
       -1   -1    0    0    0  501  0.00000000000E+00  0.00000000000E+00  0.23286961445E+04  0.23286961445E+04  0.50400001928E-02 0. -1.
        1   -1    0    0  501    0  0.00000000000E+00  0.00000000000E+00 -0.13082126852E+04  0.13082126853E+04  0.50400001928E-02 0.  1.
    10030    2    1    2    0    0  0.00000000000E+00  0.00000000000E+00  0.10204834593E+04  0.36369088298E+04  0.34908049710E+04 0.  0.
        2    1    3    3  502    0 -0.14071964624E+04  0.79071478898E+03  0.12021128062E+04  0.20125871311E+04  0.25500000920E-02 0. -1.
       -2    1    3    3    0  502  0.14071964624E+04 -0.79071478898E+03 -0.18162934691E+03  0.16243216987E+04  0.25500000920E-02 0.  1.
</event>
<event>
 5   0  0.6630125E-07  0.3587842E+04  0.7818609E-02  0.8093282E-01
       -1   -1    0    0    0  501  0.00000000000E+00  0.00000000000E+00  0.29399169176E+04  0.29399169176E+04  0.50400001928E-02 0.  1.
        1   -1    0    0  501    0  0.00000000000E+00  0.00000000000E+00 -0.10946403467E+04  0.10946403467E+04  0.50400001928E-02 0. -1.
    10030    2    1    2    0    0  0.00000000000E+00  0.00000000000E+00  0.18452765709E+04  0.40345572643E+04  0.35878415093E+04 0.  0.
        4    1    3    3  502    0 -0.29031555839E+03  0.62710290131E+03  0.27842374049E+04  0.28687141217E+04  0.12699999809E+01 0.  1.
       -4    1    3    3    0  502  0.29031555839E+03 -0.62710290131E+03 -0.93896083406E+03  0.11658431426E+04  0.12699999809E+01 0. -1.
</event>
<event>
 5   0  0.1999883E-06  0.3444613E+04  0.7818609E-02  0.8127043E-01
        2   -1    0    0  501    0  0.00000000000E+00  0.00000000000E+00  0.17449807715E+04  0.17449807715E+04  0.25500000920E-02 0.  1.
       -2   -1    0    0    0  501  0.00000000000E+00  0.00000000000E+00 -0.16999273184E+04  0.16999273184E+04  0.25500000920E-02 0. -1.
    10030    2    1    2    0    0  0.00000000000E+00  0.00000000000E+00  0.45053453059E+02  0.34449080899E+04  0.34446134666E+04 0.  0.
        4    1    3    3  502    0 -0.15188536381E+04  0.76657384530E+03  0.29048067226E+03  0.17259584202E+04  0.12699999809E+01 0.  1.
       -4    1    3    3    0  502  0.15188536381E+04 -0.76657384530E+03 -0.24542721920E+03  0.17189496697E+04  0.12699999809E+01 0. -1.
</event>
<event>
 5   0  0.2020725E-06  0.3356408E+04  0.7818609E-02  0.8148689E-01
        2   -1    0    0  501    0  0.00000000000E+00  0.00000000000E+00  0.26087137856E+04  0.26087137856E+04  0.25500000920E-02 0.  1.
       -2   -1    0    0    0  501  0.00000000000E+00  0.00000000000E+00 -0.10796002835E+04  0.10796002835E+04  0.25500000920E-02 0. -1.
    10030    2    1    2    0    0  0.00000000000E+00  0.00000000000E+00  0.15291135021E+04  0.36883140691E+04  0.33564076882E+04 0.  0.
        3    1    3    3  502    0  0.10952713529E+03 -0.16142017515E+04  0.27468877199E+03  0.16410659401E+04  0.10100000352E+00 0. -1.
       -3    1    3    3    0  502 -0.10952713529E+03  0.16142017515E+04  0.12544247301E+04  0.20472481290E+04  0.10100000352E+00 0.  1.
</event>
<event>
 5   0  0.6630125E-07  0.3453385E+04  0.7818609E-02  0.8124927E-01
        1   -1    0    0  501    0  0.00000000000E+00  0.00000000000E+00  0.24535048568E+04  0.24535048568E+04  0.50400001928E-02 0. -1.
       -1   -1    0    0    0  501  0.00000000000E+00  0.00000000000E+00 -0.12151869143E+04  0.12151869143E+04  0.50400001928E-02 0.  1.
    10030    2    1    2    0    0  0.00000000000E+00  0.00000000000E+00  0.12383179425E+04  0.36686917711E+04  0.34533850038E+04 0.  0.
        1    1    3    3  502    0  0.25553041208E+03  0.11133294812E+04  0.19947516368E+04  0.22986588302E+04  0.50400001928E-02 0. -1.
       -1    1    3    3    0  502 -0.25553041208E+03 -0.11133294812E+04 -0.75643369432E+03  0.13700329409E+04  0.50400001928E-02 0.  1.
</event>
<event>
 5   0  0.6630125E-07  0.3469244E+04  0.7818609E-02  0.8121118E-01
        1   -1    0    0  501    0  0.00000000000E+00  0.00000000000E+00  0.21061437037E+04  0.21061437037E+04  0.50400001928E-02 0.  1.
       -1   -1    0    0    0  501  0.00000000000E+00  0.00000000000E+00 -0.14286362309E+04  0.14286362309E+04  0.50400001928E-02 0. -1.
    10030    2    1    2    0    0  0.00000000000E+00  0.00000000000E+00  0.67750747275E+03  0.35347799346E+04  0.34692438385E+04 0.  0.
        1    1    3    3  502    0  0.37309410722E+03 -0.14438211807E+04 -0.56403990555E+03  0.15943524798E+04  0.50400001928E-02 0. -1.
       -1    1    3    3    0  502 -0.37309410722E+03  0.14438211807E+04  0.12415473783E+04  0.19404274548E+04  0.50400001928E-02 0.  1.
</event>
<event>
 5   0  0.7378896E-07  0.3376577E+04  0.7818609E-02  0.8143679E-01
       -1   -1    0    0    0  501  0.00000000000E+00  0.00000000000E+00  0.34987110285E+04  0.34987110285E+04  0.50400001928E-02 0. -1.
        1   -1    0    0  501    0  0.00000000000E+00  0.00000000000E+00 -0.81467651437E+03  0.81467651439E+03  0.50400001928E-02 0.  1.
    10030    2    1    2    0    0  0.00000000000E+00  0.00000000000E+00  0.26840345141E+04  0.43133875429E+04  0.33765767905E+04 0.  0.
        2    1    3    3  502    0  0.97994857591E+03  0.33972120009E+03  0.30437567050E+04  0.32156126297E+04  0.25500000920E-02 0. -1.
       -2    1    3    3    0  502 -0.97994857591E+03 -0.33972120009E+03 -0.35972219092E+03  0.10977749131E+04  0.25500000920E-02 0.  1.
</event>
<event>
 5   0  0.7378896E-07  0.2167070E+04  0.7818609E-02  0.8532260E-01
       -1   -1    0    0    0  501  0.00000000000E+00  0.00000000000E+00  0.42822064039E+03  0.42822064042E+03  0.50400001928E-02 0. -1.
        1   -1    0    0  501    0  0.00000000000E+00  0.00000000000E+00 -0.27416907943E+04  0.27416907943E+04  0.50400001928E-02 0.  1.
    10030    2    1    2    0    0  0.00000000000E+00  0.00000000000E+00 -0.23134701539E+04  0.31699114347E+04  0.21670704536E+04 0.  0.
        2    1    3    3  502    0 -0.89146116809E+03  0.52890362223E+03 -0.16183905697E+04  0.19218819141E+04  0.25500000920E-02 0. -1.
       -2    1    3    3    0  502  0.89146116809E+03 -0.52890362223E+03 -0.69507958419E+03  0.12480295206E+04  0.25500000920E-02 0.  1.
</event>
<event>
 5   0  0.2023479E-06  0.3763142E+04  0.7818609E-02  0.8054111E-01
       -2   -1    0    0    0  501  0.00000000000E+00  0.00000000000E+00  0.19598813964E+04  0.19598813964E+04  0.25500000920E-02 0. -1.
        2   -1    0    0  501    0  0.00000000000E+00  0.00000000000E+00 -0.18063892847E+04  0.18063892847E+04  0.25500000920E-02 0.  1.
    10030    2    1    2    0    0  0.00000000000E+00  0.00000000000E+00  0.15349211166E+03  0.37662706811E+04  0.37631416416E+04 0.  0.
        5    1    3    3  502    0  0.53214397329E+02 -0.79684328605E+03  0.17818338854E+04  0.19526251764E+04  0.46999998093E+01 0. -1.
       -5    1    3    3    0  502 -0.53214397329E+02  0.79684328605E+03 -0.16283417737E+04  0.18136455047E+04  0.46999998093E+01 0.  1.
</event>
<event>
 5   0  0.6630125E-07  0.3267913E+04  0.7818609E-02  0.8171108E-01
       -1   -1    0    0    0  501  0.00000000000E+00  0.00000000000E+00  0.29372230989E+04  0.29372230989E+04  0.50400001928E-02 0.  1.
        1   -1    0    0  501    0  0.00000000000E+00  0.00000000000E+00 -0.90895861905E+03  0.90895861906E+03  0.50400001928E-02 0. -1.
    10030    2    1    2    0    0  0.00000000000E+00  0.00000000000E+00  0.20282644798E+04  0.38461817179E+04  0.32679132496E+04 0.  0.
        5    1    3    3  502    0 -0.72439354007E+03  0.78268295529E+03  0.24711100589E+04  0.26914207442E+04  0.46999998093E+01 0.  1.
       -5    1    3    3    0  502  0.72439354007E+03 -0.78268295529E+03 -0.44284557909E+03  0.11547609737E+04  0.46999998093E+01 0. -1.
</event>
<event>
 5   0  0.6890600E-07  0.2859401E+04  0.7818609E-02  0.8285060E-01
       -1   -1    0    0    0  501  0.00000000000E+00  0.00000000000E+00  0.14402916994E+04  0.14402916994E+04  0.50400001928E-02 0. -1.
        1   -1    0    0  501    0  0.00000000000E+00  0.00000000000E+00 -0.14191868018E+04  0.14191868018E+04  0.50400001928E-02 0.  1.
    10030    2    1    2    0    0  0.00000000000E+00  0.00000000000E+00  0.21104897603E+02  0.28594785013E+04  0.28594006160E+04 0.  0.
        3    1    3    3  502    0 -0.12898892179E+04  0.45288192825E+03  0.42904529884E+03  0.14328280127E+04  0.10100000352E+00 0. -1.
       -3    1    3    3    0  502  0.12898892179E+04 -0.45288192825E+03 -0.40794040124E+03  0.14266504886E+04  0.10100000352E+00 0.  1.
</event>
<event>
 5   0  0.6630125E-07  0.3510353E+04  0.7818609E-02  0.8111341E-01
       -1   -1    0    0    0  501  0.00000000000E+00  0.00000000000E+00  0.14148584194E+04  0.14148584194E+04  0.50400001928E-02 0.  1.
        1   -1    0    0  501    0  0.00000000000E+00  0.00000000000E+00 -0.21773523915E+04  0.21773523915E+04  0.50400001928E-02 0. -1.
    10030    2    1    2    0    0  0.00000000000E+00  0.00000000000E+00 -0.76249397206E+03  0.35922108109E+04  0.35103534654E+04 0.  0.
        5    1    3    3  502    0 -0.20908694153E+03  0.15037064333E+04  0.52007147233E+03  0.16047887128E+04  0.46999998093E+01 0. -1.
       -5    1    3    3    0  502  0.20908694153E+03 -0.15037064333E+04 -0.12825654444E+04  0.19874220980E+04  0.46999998093E+01 0.  1.
</event>
<event>
 5   0  0.6630125E-07  0.3385456E+04  0.7818609E-02  0.8141485E-01
        1   -1    0    0  501    0  0.00000000000E+00  0.00000000000E+00  0.15892689056E+04  0.15892689056E+04  0.50400001928E-02 0. -1.
       -1   -1    0    0    0  501  0.00000000000E+00  0.00000000000E+00 -0.18029225627E+04  0.18029225627E+04  0.50400001928E-02 0.  1.
    10030    2    1    2    0    0  0.00000000000E+00  0.00000000000E+00 -0.21365365708E+03  0.33921914683E+04  0.33854564054E+04 0.  0.
        1    1    3    3  502    0 -0.16063766153E+04  0.19779819379E+03  0.38990007367E+03  0.16648099060E+04  0.50400001928E-02 0.  1.
       -1    1    3    3    0  502  0.16063766153E+04 -0.19779819379E+03 -0.60355373074E+03  0.17273815623E+04  0.50400001928E-02 0. -1.
</event>
<event>
 5   0  0.2001768E-06  0.2153952E+04  0.7818609E-02  0.8537842E-01
        2   -1    0    0  501    0  0.00000000000E+00  0.00000000000E+00  0.76582028011E+03  0.76582028011E+03  0.25500000920E-02 0.  1.
       -2   -1    0    0    0  501  0.00000000000E+00  0.00000000000E+00 -0.15145558361E+04  0.15145558361E+04  0.25500000920E-02 0. -1.
    10030    2    1    2    0    0  0.00000000000E+00  0.00000000000E+00 -0.74873555600E+03  0.22803761162E+04  0.21539522508E+04 0.  0.
        2    1    3    3  502    0 -0.26154160713E+02  0.74906345425E+03  0.44439180668E+03  0.87135766277E+03  0.25500000920E-02 0.  1.
       -2    1    3    3    0  502  0.26154160713E+02 -0.74906345425E+03 -0.11931273627E+04  0.14090184535E+04  0.25500000920E-02 0. -1.
</event>
<event>
 5   0  0.2073287E-06  0.3512094E+04  0.7818609E-02  0.8110930E-01
       -2   -1    0    0    0  501  0.00000000000E+00  0.00000000000E+00  0.15399075210E+04  0.15399075210E+04  0.25500000920E-02 0. -1.
        2   -1    0    0  501    0  0.00000000000E+00  0.00000000000E+00 -0.20025237109E+04  0.20025237109E+04  0.25500000920E-02 0.  1.
    10030    2    1    2    0    0  0.00000000000E+00  0.00000000000E+00 -0.46261618982E+03  0.35424312319E+04  0.35120941465E+04 0.  0.
        1    1    3    3  502    0  0.84715488269E+03  0.12222198472E+04 -0.11732962775E+04  0.18942325372E+04  0.50400001928E-02 0.  1.
       -1    1    3    3    0  502 -0.84715488269E+03 -0.12222198472E+04  0.71068008769E+03  0.16481986947E+04  0.50400001928E-02 0. -1.
</event>
<event>
 5   0  0.6630125E-07  0.3563406E+04  0.7818609E-02  0.8098926E-01
        1   -1    0    0  501    0  0.00000000000E+00  0.00000000000E+00  0.22429491645E+04  0.22429491645E+04  0.50400001928E-02 0.  1.
       -1   -1    0    0    0  501  0.00000000000E+00  0.00000000000E+00 -0.14153084217E+04  0.14153084217E+04  0.50400001928E-02 0. -1.
    10030    2    1    2    0    0  0.00000000000E+00  0.00000000000E+00  0.82764074285E+03  0.36582575862E+04  0.35634055857E+04 0.  0.
        5    1    3    3  502    0  0.18148763513E+03 -0.14838425405E+04 -0.58137284410E+03  0.16039772195E+04  0.46999998093E+01 0. -1.
       -5    1    3    3    0  502 -0.18148763513E+03  0.14838425405E+04  0.14090135870E+04  0.20542803667E+04  0.46999998093E+01 0.  1.
</event>
<event>
 5   0  0.7378896E-07  0.3462644E+04  0.7818609E-02  0.8122700E-01
       -1   -1    0    0    0  501  0.00000000000E+00  0.00000000000E+00  0.12381816071E+04  0.12381816071E+04  0.50400001928E-02 0.  1.
        1   -1    0    0  501    0  0.00000000000E+00  0.00000000000E+00 -0.24208697425E+04  0.24208697425E+04  0.50400001928E-02 0. -1.
    10030    2    1    2    0    0  0.00000000000E+00  0.00000000000E+00 -0.11826881353E+04  0.36590513496E+04  0.34626443008E+04 0.  0.
        2    1    3    3  502    0 -0.47112530964E+03  0.15515211942E+04  0.49955694219E+02  0.16222430906E+04  0.25500000920E-02 0. -1.
       -2    1    3    3    0  502  0.47112530964E+03 -0.15515211942E+04 -0.12326438295E+04  0.20368082590E+04  0.25500000920E-02 0.  1.
</event>
<event>
 5   0  0.6890600E-07  0.2553227E+04  0.7818609E-02  0.8384265E-01
       -1   -1    0    0    0  501  0.00000000000E+00  0.00000000000E+00  0.14978275825E+04  0.14978275825E+04  0.50400001928E-02 0.  1.
        1   -1    0    0  501    0  0.00000000000E+00  0.00000000000E+00 -0.10880702132E+04  0.10880702133E+04  0.50400001928E-02 0. -1.
    10030    2    1    2    0    0  0.00000000000E+00  0.00000000000E+00  0.40975736921E+03  0.25858977957E+04  0.25532266465E+04 0.  0.
        3    1    3    3  502    0  0.96264380151E+03 -0.77993653905E+03 -0.10688729580E+03  0.12435469423E+04  0.10100000352E+00 0. -1.
       -3    1    3    3    0  502 -0.96264380151E+03  0.77993653905E+03  0.51664466502E+03  0.13423508534E+04  0.10100000352E+00 0.  1.
</event>
<event>
 5   0  0.2001768E-06  0.2245353E+04  0.7818609E-02  0.8499785E-01
        2   -1    0    0  501    0  0.00000000000E+00  0.00000000000E+00  0.19521953673E+04  0.19521953673E+04  0.25500000920E-02 0. -1.
       -2   -1    0    0    0  501  0.00000000000E+00  0.00000000000E+00 -0.64563312016E+03  0.64563312016E+03  0.25500000920E-02 0.  1.
    10030    2    1    2    0    0  0.00000000000E+00  0.00000000000E+00  0.13065622472E+04  0.25978284875E+04  0.22453525212E+04 0.  0.
        2    1    3    3  502    0 -0.31617611986E+03  0.92466908441E+03  0.12926859460E+04  0.16204990619E+04  0.25500000920E-02 0. -1.
       -2    1    3    3    0  502  0.31617611986E+03 -0.92466908441E+03  0.13876301122E+02  0.97732942561E+03  0.25500000920E-02 0.  1.
</event>
<event>
 5   0  0.2073287E-06  0.3533185E+04  0.7818609E-02  0.8105970E-01
        2   -1    0    0  501    0  0.00000000000E+00  0.00000000000E+00  0.21668813064E+04  0.21668813064E+04  0.25500000920E-02 0.  1.
       -2   -1    0    0    0  501  0.00000000000E+00  0.00000000000E+00 -0.14402495949E+04  0.14402495949E+04  0.25500000920E-02 0. -1.
    10030    2    1    2    0    0  0.00000000000E+00  0.00000000000E+00  0.72663171157E+03  0.36071309013E+04  0.35331854883E+04 0.  0.
        1    1    3    3  502    0 -0.15455219353E+04  0.81004980214E+02  0.12329950574E+04  0.19787563445E+04  0.50400001928E-02 0.  1.
       -1    1    3    3    0  502  0.15455219353E+04 -0.81004980214E+02 -0.50636334586E+03  0.16283745568E+04  0.50400001928E-02 0. -1.
</event>
<event>
 5   0  0.6630125E-07  0.3419517E+04  0.7818609E-02  0.8133133E-01
       -1   -1    0    0    0  501  0.00000000000E+00  0.00000000000E+00  0.13574972696E+04  0.13574972696E+04  0.50400001928E-02 0. -1.
        1   -1    0    0  501    0  0.00000000000E+00  0.00000000000E+00 -0.21534287064E+04  0.21534287064E+04  0.50400001928E-02 0.  1.
    10030    2    1    2    0    0  0.00000000000E+00  0.00000000000E+00 -0.79593143679E+03  0.35109259759E+04  0.34195166846E+04 0.  0.
        1    1    3    3  502    0  0.20537861401E+02 -0.93046770809E+02  0.13547689702E+04  0.13581157785E+04  0.50400001928E-02 0. -1.
       -1    1    3    3    0  502 -0.20537861401E+02  0.93046770809E+02 -0.21507004070E+04  0.21528101974E+04  0.50400001928E-02 0.  1.
</event>
<event>
 5   0  0.2001768E-06  0.3026441E+04  0.7818609E-02  0.8236221E-01
       -2   -1    0    0    0  501  0.00000000000E+00  0.00000000000E+00  0.10992012579E+04  0.10992012579E+04  0.25500000920E-02 0. -1.
        2   -1    0    0  501    0  0.00000000000E+00  0.00000000000E+00 -0.20831819603E+04  0.20831819603E+04  0.25500000920E-02 0.  1.
    10030    2    1    2    0    0  0.00000000000E+00  0.00000000000E+00 -0.98398070240E+03  0.31823832183E+04  0.30264409668E+04 0.  0.
        2    1    3    3  502    0  0.32702851079E+03  0.14478984016E+04 -0.18276499144E+03  0.14955803122E+04  0.25500000920E-02 0. -1.
       -2    1    3    3    0  502 -0.32702851079E+03 -0.14478984016E+04 -0.80121571096E+03  0.16868029060E+04  0.25500000920E-02 0.  1.
</event>
<event>
 5   0  0.6630125E-07  0.3473224E+04  0.7818609E-02  0.8120165E-01
       -1   -1    0    0    0  501  0.00000000000E+00  0.00000000000E+00  0.13191683524E+04  0.13191683524E+04  0.50400001928E-02 0.  1.
        1   -1    0    0  501    0  0.00000000000E+00  0.00000000000E+00 -0.22861527884E+04  0.22861527885E+04  0.50400001928E-02 0. -1.
    10030    2    1    2    0    0  0.00000000000E+00  0.00000000000E+00 -0.96698443602E+03  0.36053211409E+04  0.34732235214E+04 0.  0.
        4    1    3    3  502    0 -0.11129882952E+04 -0.24473501848E+02 -0.18670299368E+04  0.21737397028E+04  0.12699999809E+01 0. -1.
       -4    1    3    3    0  502  0.11129882952E+04  0.24473501848E+02  0.90004550081E+03  0.14315814381E+04  0.12699999809E+01 0.  1.
</event>
<event>
 5   0  0.6890600E-07  0.3555915E+04  0.7818609E-02  0.8100665E-01
        1   -1    0    0  501    0  0.00000000000E+00  0.00000000000E+00  0.27467807582E+04  0.27467807582E+04  0.50400001928E-02 0.  1.
       -1   -1    0    0    0  501  0.00000000000E+00  0.00000000000E+00 -0.11508500979E+04  0.11508500980E+04  0.50400001928E-02 0. -1.
    10030    2    1    2    0    0  0.00000000000E+00  0.00000000000E+00  0.15959306603E+04  0.38976308562E+04  0.35559150185E+04 0.  0.
        3    1    3    3  502    0  0.15904377370E+04  0.12017865934E+03 -0.63150379262E+02  0.15962215029E+04  0.10100000352E+00 0. -1.
       -3    1    3    3    0  502 -0.15904377370E+04 -0.12017865934E+03  0.16590810395E+04  0.23014093533E+04  0.10100000352E+00 0.  1.
</event>
<event>
 5   0  0.2023479E-06  0.3538368E+04  0.7818609E-02  0.8104757E-01
        2   -1    0    0  501    0  0.00000000000E+00  0.00000000000E+00  0.20519792137E+04  0.20519792137E+04  0.25500000920E-02 0.  1.
       -2   -1    0    0    0  501  0.00000000000E+00  0.00000000000E+00 -0.15253624505E+04  0.15253624505E+04  0.25500000920E-02 0. -1.
    10030    2    1    2    0    0  0.00000000000E+00  0.00000000000E+00  0.52661676319E+03  0.35773416642E+04  0.35383680090E+04 0.  0.
        5    1    3    3  502    0 -0.97981310866E+03  0.14090417540E+04  0.69764189378E+03  0.18526086188E+04  0.46999998093E+01 0.  1.
       -5    1    3    3    0  502  0.97981310866E+03 -0.14090417540E+04 -0.17102513059E+03  0.17247330454E+04  0.46999998093E+01 0. -1.
</event>
<event>
 5   0  0.2001768E-06  0.3486784E+04  0.7818609E-02  0.8116929E-01
        2   -1    0    0  501    0  0.00000000000E+00  0.00000000000E+00  0.19093997231E+04  0.19093997231E+04  0.25500000920E-02 0.  1.
       -2   -1    0    0    0  501  0.00000000000E+00  0.00000000000E+00 -0.15918176775E+04  0.15918176775E+04  0.25500000920E-02 0. -1.
    10030    2    1    2    0    0  0.00000000000E+00  0.00000000000E+00  0.31758204553E+03  0.35012174006E+04  0.34867843252E+04 0.  0.
        2    1    3    3  502    0 -0.12562020725E+04  0.11886308863E+04  0.37999634295E+03  0.17706733892E+04  0.25500000920E-02 0. -1.
       -2    1    3    3    0  502  0.12562020725E+04 -0.11886308863E+04 -0.62414297427E+02  0.17305440113E+04  0.25500000920E-02 0.  1.
</event>
<event>
 5   0  0.6630125E-07  0.3495015E+04  0.7818609E-02  0.8114972E-01
       -3   -1    0    0    0  501  0.00000000000E+00  0.00000000000E+00  0.18836266498E+04  0.18836266525E+04  0.10100000352E+00 0. -1.
        3   -1    0    0  501    0  0.00000000000E+00  0.00000000000E+00 -0.16212251995E+04  0.16212252026E+04  0.10100000352E+00 0.  1.
    10030    2    1    2    0    0  0.00000000000E+00  0.00000000000E+00  0.26240145036E+03  0.35048518552E+04  0.34950153083E+04 0.  0.
        2    1    3    3  502    0 -0.52108926527E+03  0.97123995956E+03 -0.12286918102E+04  0.16506134150E+04  0.25500000920E-02 0.  1.
       -2    1    3    3    0  502  0.52108926527E+03 -0.97123995956E+03  0.14910932605E+04  0.18542384402E+04  0.25500000920E-02 0. -1.
</event>
<event>
 5   0  0.6630125E-07  0.3427710E+04  0.7818609E-02  0.8131139E-01
       -1   -1    0    0    0  501  0.00000000000E+00  0.00000000000E+00  0.13627668324E+04  0.13627668324E+04  0.50400001928E-02 0. -1.
        1   -1    0    0  501    0  0.00000000000E+00  0.00000000000E+00 -0.21553934457E+04  0.21553934457E+04  0.50400001928E-02 0.  1.
    10030    2    1    2    0    0  0.00000000000E+00  0.00000000000E+00 -0.79262661329E+03  0.35181602781E+04  0.34277098469E+04 0.  0.
        5    1    3    3  502    0 -0.15989278961E+04 -0.61560298762E+03 -0.43911692767E+03  0.17687236136E+04  0.46999998093E+01 0. -1.
       -5    1    3    3    0  502  0.15989278961E+04  0.61560298762E+03 -0.35350968562E+03  0.17494366645E+04  0.46999998093E+01 0.  1.
</event>
<event>
 5   0  0.7378896E-07  0.3494134E+04  0.7818609E-02  0.8115182E-01
       -1   -1    0    0    0  501  0.00000000000E+00  0.00000000000E+00  0.33152979626E+04  0.33152979626E+04  0.50400001928E-02 0. -1.
        1   -1    0    0  501    0  0.00000000000E+00  0.00000000000E+00 -0.92065408368E+03  0.92065408369E+03  0.50400001928E-02 0.  1.
    10030    2    1    2    0    0  0.00000000000E+00  0.00000000000E+00  0.23946438789E+04  0.42359520463E+04  0.34941337169E+04 0.  0.
        2    1    3    3  502    0  0.10805489344E+04  0.26166928534E+02 -0.46666044532E+03  0.11773031381E+04  0.25500000920E-02 0.  1.
       -2    1    3    3    0  502 -0.10805489344E+04 -0.26166928534E+02  0.28613043242E+04  0.30586489082E+04  0.25500000920E-02 0. -1.
</event>
<event>
 5   0  0.6630125E-07  0.3483234E+04  0.7818609E-02  0.8117775E-01
       -1   -1    0    0    0  501  0.00000000000E+00  0.00000000000E+00  0.15087287275E+04  0.15087287275E+04  0.50400001928E-02 0. -1.
        1   -1    0    0  501    0  0.00000000000E+00  0.00000000000E+00 -0.20104546153E+04  0.20104546153E+04  0.50400001928E-02 0.  1.
    10030    2    1    2    0    0  0.00000000000E+00  0.00000000000E+00 -0.50172588778E+03  0.35191833429E+04  0.34832344931E+04 0.  0.
        1    1    3    3  502    0 -0.14146278600E+04 -0.39504389121E+03  0.69474471274E+03  0.16247774845E+04  0.50400001928E-02 0. -1.
       -1    1    3    3    0  502  0.14146278600E+04  0.39504389121E+03 -0.11964706005E+04  0.18944058584E+04  0.50400001928E-02 0.  1.
</event>
<event>
 5   0  0.2001768E-06  0.3249461E+04  0.7818609E-02  0.8175875E-01
       -2   -1    0    0    0  501  0.00000000000E+00  0.00000000000E+00  0.26989632904E+04  0.26989632904E+04  0.25500000920E-02 0.  1.
        2   -1    0    0  501    0  0.00000000000E+00  0.00000000000E+00 -0.97806050043E+03  0.97806050043E+03  0.25500000920E-02 0. -1.
    10030    2    1    2    0    0  0.00000000000E+00  0.00000000000E+00  0.17209027900E+04  0.36770237908E+04  0.32494611162E+04 0.  0.
        2    1    3    3  502    0  0.17165741015E+03 -0.81391473079E+03  0.24397351458E+04  0.25776405950E+04  0.25500000920E-02 0.  1.
       -2    1    3    3    0  502 -0.17165741015E+03  0.81391473079E+03 -0.71883235582E+03  0.10993831958E+04  0.25500000920E-02 0. -1.
</event>
<event>
 5   0  0.6630125E-07  0.2687197E+04  0.7818609E-02  0.8339171E-01
       -1   -1    0    0    0  501  0.00000000000E+00  0.00000000000E+00  0.76619172109E+03  0.76619172110E+03  0.50400001928E-02 0.  1.
        1   -1    0    0  501    0  0.00000000000E+00  0.00000000000E+00 -0.23561422773E+04  0.23561422773E+04  0.50400001928E-02 0. -1.
    10030    2    1    2    0    0  0.00000000000E+00  0.00000000000E+00 -0.15899505562E+04  0.31223339984E+04  0.26871968343E+04 0.  0.
        1    1    3    3  502    0  0.19421006430E+03  0.12055232728E+04 -0.14463328322E+04  0.18928503829E+04  0.50400001928E-02 0. -1.
       -1    1    3    3    0  502 -0.19421006430E+03 -0.12055232728E+04 -0.14361772396E+03  0.12294836155E+04  0.50400001928E-02 0.  1.
</event>
<event>
 5   0  0.2023479E-06  0.3244847E+04  0.7818609E-02  0.8177073E-01
        2   -1    0    0  501    0  0.00000000000E+00  0.00000000000E+00  0.33301167610E+04  0.33301167610E+04  0.25500000920E-02 0. -1.
       -2   -1    0    0    0  501  0.00000000000E+00  0.00000000000E+00 -0.79043993091E+03  0.79043993091E+03  0.25500000920E-02 0.  1.
    10030    2    1    2    0    0  0.00000000000E+00  0.00000000000E+00  0.25396768301E+04  0.41205566919E+04  0.32448465372E+04 0.  0.
        5    1    3    3  502    0 -0.65849431560E+03 -0.63824064848E+03 -0.42974377349E+03  0.10127525314E+04  0.46999998093E+01 0.  1.
       -5    1    3    3    0  502  0.65849431560E+03  0.63824064848E+03  0.29694206036E+04  0.31078041605E+04  0.46999998093E+01 0. -1.
</event>
<event>
 5   0  0.6890600E-07  0.3445652E+04  0.7818609E-02  0.8126792E-01
       -1   -1    0    0    0  501  0.00000000000E+00  0.00000000000E+00  0.19888315957E+04  0.19888315957E+04  0.50400001928E-02 0.  1.
        1   -1    0    0  501    0  0.00000000000E+00  0.00000000000E+00 -0.14923985317E+04  0.14923985317E+04  0.50400001928E-02 0. -1.
    10030    2    1    2    0    0  0.00000000000E+00  0.00000000000E+00  0.49643306397E+03  0.34812301274E+04  0.34456519576E+04 0.  0.
        3    1    3    3  502    0 -0.13213355557E+04  0.75243915718E+03 -0.57010785728E+03  0.16239197379E+04  0.10100000352E+00 0. -1.
       -3    1    3    3    0  502  0.13213355557E+04 -0.75243915718E+03  0.10665409212E+04  0.18573103895E+04  0.10100000352E+00 0.  1.
</event>
<event>
 5   0  0.6630125E-07  0.3387473E+04  0.7818609E-02  0.8140988E-01
       -1   -1    0    0    0  501  0.00000000000E+00  0.00000000000E+00  0.13654167322E+04  0.13654167322E+04  0.50400001928E-02 0. -1.
        1   -1    0    0  501    0  0.00000000000E+00  0.00000000000E+00 -0.21010025248E+04  0.21010025248E+04  0.50400001928E-02 0.  1.
    10030    2    1    2    0    0  0.00000000000E+00  0.00000000000E+00 -0.73558579267E+03  0.34664192570E+04  0.33874733957E+04 0.  0.
        5    1    3    3  502    0 -0.18652823286E+03  0.10127554756E+03 -0.20873331603E+04  0.20981018398E+04  0.46999998093E+01 0.  1.
       -5    1    3    3    0  502  0.18652823286E+03 -0.10127554756E+03  0.13517473676E+04  0.13683174172E+04  0.46999998093E+01 0. -1.
</event>
<event>
 5   0  0.6630125E-07  0.3169509E+04  0.7818609E-02  0.8196916E-01
        1   -1    0    0  501    0  0.00000000000E+00  0.00000000000E+00  0.19068082449E+04  0.19068082449E+04  0.50400001928E-02 0. -1.
       -1   -1    0    0    0  501  0.00000000000E+00  0.00000000000E+00 -0.13170947782E+04  0.13170947782E+04  0.50400001928E-02 0.  1.
    10030    2    1    2    0    0  0.00000000000E+00  0.00000000000E+00  0.58971346668E+03  0.32239030231E+04  0.31695092253E+04 0.  0.
        5    1    3    3  502    0 -0.12464923870E+04  0.94895962028E+03  0.51677540973E+02  0.15674693905E+04  0.46999998093E+01 0.  1.
       -5    1    3    3    0  502  0.12464923870E+04 -0.94895962028E+03  0.53803592571E+03  0.16564336326E+04  0.46999998093E+01 0. -1.
</event>
<event>
 5   0  0.2001768E-06  0.3399564E+04  0.7818609E-02  0.8138013E-01
        2   -1    0    0  501    0  0.00000000000E+00  0.00000000000E+00  0.16148219598E+04  0.16148219598E+04  0.25500000920E-02 0.  1.
       -2   -1    0    0    0  501  0.00000000000E+00  0.00000000000E+00 -0.17892116749E+04  0.17892116749E+04  0.25500000920E-02 0. -1.
    10030    2    1    2    0    0  0.00000000000E+00  0.00000000000E+00 -0.17438971515E+03  0.34040336347E+04  0.33995636799E+04 0.  0.
        2    1    3    3  502    0 -0.15674727850E+04 -0.42764237294E+02  0.56976124636E+03  0.16683607492E+04  0.25500000920E-02 0. -1.
       -2    1    3    3    0  502  0.15674727850E+04  0.42764237294E+02 -0.74415096150E+03  0.17356728854E+04  0.25500000920E-02 0.  1.
</event>
<event>
 5   0  0.6630125E-07  0.3633694E+04  0.7818609E-02  0.8082817E-01
        3   -1    0    0  501    0  0.00000000000E+00  0.00000000000E+00  0.12538843306E+04  0.12538843346E+04  0.10100000352E+00 0.  1.
       -3   -1    0    0    0  501  0.00000000000E+00  0.00000000000E+00 -0.26325663210E+04  0.26325663230E+04  0.10100000352E+00 0. -1.
    10030    2    1    2    0    0  0.00000000000E+00  0.00000000000E+00 -0.13786819905E+04  0.38864506576E+04  0.36336943574E+04 0.  0.
        2    1    3    3  502    0 -0.12222794514E+04 -0.70834312843E+03  0.53258825898E+03  0.15097573641E+04  0.25500000920E-02 0.  1.
       -2    1    3    3    0  502  0.12222794514E+04  0.70834312843E+03 -0.19112702494E+04  0.23766932935E+04  0.25500000920E-02 0. -1.
</event>
<event>
 5   0  0.6630125E-07  0.3681299E+04  0.7818609E-02  0.8072119E-01
        1   -1    0    0  501    0  0.00000000000E+00  0.00000000000E+00  0.12582469383E+04  0.12582469383E+04  0.50400001928E-02 0. -1.
       -1   -1    0    0    0  501  0.00000000000E+00  0.00000000000E+00 -0.26926283046E+04  0.26926283046E+04  0.50400001928E-02 0.  1.
    10030    2    1    2    0    0  0.00000000000E+00  0.00000000000E+00 -0.14343813663E+04  0.39508752428E+04  0.36812994011E+04 0.  0.
        1    1    3    3  502    0 -0.34255861499E+03 -0.15334198857E+04  0.31180448278E+03  0.16018567308E+04  0.50400001928E-02 0. -1.
       -1    1    3    3    0  502  0.34255861499E+03  0.15334198857E+04 -0.17461858491E+04  0.23490185121E+04  0.50400001928E-02 0.  1.
</event>
<event>
 5   0  0.2001768E-06  0.3492322E+04  0.7818609E-02  0.8115612E-01
        2   -1    0    0  501    0  0.00000000000E+00  0.00000000000E+00  0.19188053834E+04  0.19188053834E+04  0.25500000920E-02 0.  1.
       -2   -1    0    0    0  501  0.00000000000E+00  0.00000000000E+00 -0.15890505054E+04  0.15890505054E+04  0.25500000920E-02 0. -1.
    10030    2    1    2    0    0  0.00000000000E+00  0.00000000000E+00  0.32975487802E+03  0.35078558888E+04  0.34923222441E+04 0.  0.
        2    1    3    3  502    0 -0.34752964555E+03 -0.82293712262E+02 -0.15519734395E+04  0.15925359232E+04  0.25500000920E-02 0. -1.
       -2    1    3    3    0  502  0.34752964555E+03  0.82293712262E+02  0.18817283175E+04  0.19153199656E+04  0.25500000920E-02 0.  1.
</event>
<event>
 5   0  0.7378896E-07  0.3279818E+04  0.7818609E-02  0.8168050E-01
       -1   -1    0    0    0  501  0.00000000000E+00  0.00000000000E+00  0.15303564147E+04  0.15303564148E+04  0.50400001928E-02 0.  1.
        1   -1    0    0  501    0  0.00000000000E+00  0.00000000000E+00 -0.17573039380E+04  0.17573039381E+04  0.50400001928E-02 0. -1.
    10030    2    1    2    0    0  0.00000000000E+00  0.00000000000E+00 -0.22694752330E+03  0.32876603528E+04  0.32798178939E+04 0.  0.
        2    1    3    3  502    0  0.95545124129E+03  0.14514764244E+02 -0.14494034047E+04  0.17360495334E+04  0.25500000920E-02 0. -1.
       -2    1    3    3    0  502 -0.95545124129E+03 -0.14514764244E+02  0.12224558814E+04  0.15516108194E+04  0.25500000920E-02 0.  1.
</event>
<event>
 5   0  0.7378896E-07  0.3369941E+04  0.7818609E-02  0.8145323E-01
        1   -1    0    0  501    0  0.00000000000E+00  0.00000000000E+00  0.27141661098E+04  0.27141661098E+04  0.50400001928E-02 0.  1.
       -1   -1    0    0    0  501  0.00000000000E+00  0.00000000000E+00 -0.10460398046E+04  0.10460398046E+04  0.50400001928E-02 0. -1.
    10030    2    1    2    0    0  0.00000000000E+00  0.00000000000E+00  0.16681263052E+04  0.37602059144E+04  0.33699411195E+04 0.  0.
        2    1    3    3  502    0  0.44824795377E+03 -0.81070592463E+03  0.24045223999E+04  0.25768000109E+04  0.25500000920E-02 0.  1.
       -2    1    3    3    0  502 -0.44824795377E+03  0.81070592463E+03 -0.73639609469E+03  0.11834059036E+04  0.25500000920E-02 0. -1.
</event>
<event>
 5   0  0.6630125E-07  0.2303072E+04  0.7818609E-02  0.8476711E-01
        1   -1    0    0  501    0  0.00000000000E+00  0.00000000000E+00  0.15185809417E+04  0.15185809417E+04  0.50400001928E-02 0. -1.
       -1   -1    0    0    0  501  0.00000000000E+00  0.00000000000E+00 -0.87320660108E+03  0.87320660109E+03  0.50400001928E-02 0.  1.
    10030    2    1    2    0    0  0.00000000000E+00  0.00000000000E+00  0.64537434061E+03  0.23917875428E+04  0.23030717771E+04 0.  0.
        4    1    3    3  502    0 -0.10424307297E+04 -0.35166345802E+03 -0.30569060318E+02  0.11005748926E+04  0.12699999809E+01 0.  1.
       -4    1    3    3    0  502  0.10424307297E+04  0.35166345802E+03  0.67594340093E+03  0.12912126502E+04  0.12699999809E+01 0. -1.
</event>
<event>
 5   0  0.6630125E-07  0.3513266E+04  0.7818609E-02  0.8110653E-01
       -1   -1    0    0    0  501  0.00000000000E+00  0.00000000000E+00  0.14340394681E+04  0.14340394681E+04  0.50400001928E-02 0. -1.
        1   -1    0    0  501    0  0.00000000000E+00  0.00000000000E+00 -0.21517950754E+04  0.21517950754E+04  0.50400001928E-02 0.  1.
    10030    2    1    2    0    0  0.00000000000E+00  0.00000000000E+00 -0.71775560722E+03  0.35858345435E+04  0.35132657545E+04 0.  0.
        4    1    3    3  502    0 -0.92293405954E+03  0.77770697415E+03  0.94385711243E+03  0.15321564142E+04  0.12699999809E+01 0. -1.
       -4    1    3    3    0  502  0.92293405954E+03 -0.77770697415E+03 -0.16616127197E+04  0.20536781293E+04  0.12699999809E+01 0.  1.
</event>
<event>
 5   0  0.6630125E-07  0.2549639E+04  0.7818609E-02  0.8385512E-01
        1   -1    0    0  501    0  0.00000000000E+00  0.00000000000E+00  0.15918782044E+04  0.15918782044E+04  0.50400001928E-02 0. -1.
       -1   -1    0    0    0  501  0.00000000000E+00  0.00000000000E+00 -0.10209099735E+04  0.10209099736E+04  0.50400001928E-02 0.  1.
    10030    2    1    2    0    0  0.00000000000E+00  0.00000000000E+00  0.57096823086E+03  0.26127881780E+04  0.25496386690E+04 0.  0.
        5    1    3    3  502    0 -0.94095745316E+01  0.39807618609E+03  0.15265069857E+04  0.15775927413E+04  0.46999998093E+01 0. -1.
       -5    1    3    3    0  502  0.94095745316E+01 -0.39807618609E+03 -0.95553875485E+03  0.10351954366E+04  0.46999998093E+01 0.  1.
</event>
<event>
 5   0  0.6890600E-07  0.3557276E+04  0.7818609E-02  0.8100349E-01
        1   -1    0    0  501    0  0.00000000000E+00  0.00000000000E+00  0.10712796389E+04  0.10712796389E+04  0.50400001928E-02 0. -1.
       -1   -1    0    0    0  501  0.00000000000E+00  0.00000000000E+00 -0.29530609088E+04  0.29530609088E+04  0.50400001928E-02 0.  1.
    10030    2    1    2    0    0  0.00000000000E+00  0.00000000000E+00 -0.18817812699E+04  0.40243405476E+04  0.35572764997E+04 0.  0.
        3    1    3    3  502    0 -0.12745359401E+04 -0.71018379701E+03  0.20989665041E+03  0.14740622450E+04  0.10100000352E+00 0. -1.
       -3    1    3    3    0  502  0.12745359401E+04  0.71018379701E+03 -0.20916779203E+04  0.25502783026E+04  0.10100000352E+00 0.  1.
</event>
<event>
 5   0  0.2023479E-06  0.3478371E+04  0.7818609E-02  0.8118935E-01
       -2   -1    0    0    0  501  0.00000000000E+00  0.00000000000E+00  0.16166175219E+04  0.16166175219E+04  0.25500000920E-02 0. -1.
        2   -1    0    0  501    0  0.00000000000E+00  0.00000000000E+00 -0.18710462807E+04  0.18710462807E+04  0.25500000920E-02 0.  1.
    10030    2    1    2    0    0  0.00000000000E+00  0.00000000000E+00 -0.25442875886E+03  0.34876638026E+04  0.34783709990E+04 0.  0.
        5    1    3    3  502    0  0.48935070184E+03 -0.95732868861E+03 -0.14979078138E+04  0.18438254354E+04  0.46999998093E+01 0.  1.
       -5    1    3    3    0  502 -0.48935070184E+03  0.95732868861E+03  0.12434790550E+04  0.16438383672E+04  0.46999998093E+01 0. -1.
</event>
<event>
 5   0  0.6630125E-07  0.2291150E+04  0.7818609E-02  0.8481419E-01
        1   -1    0    0  501    0  0.00000000000E+00  0.00000000000E+00  0.12967958576E+04  0.12967958576E+04  0.50400001928E-02 0.  1.
       -1   -1    0    0    0  501  0.00000000000E+00  0.00000000000E+00 -0.10119878810E+04  0.10119878810E+04  0.50400001928E-02 0. -1.
    10030    2    1    2    0    0  0.00000000000E+00  0.00000000000E+00  0.28480797660E+03  0.23087837386E+04  0.22911496608E+04 0.  0.
        5    1    3    3  502    0 -0.90763346804E+03 -0.58382696875E+03 -0.24482847403E+03  0.11066234741E+04  0.46999998093E+01 0. -1.
       -5    1    3    3    0  502  0.90763346804E+03  0.58382696875E+03  0.52963645064E+03  0.12021602645E+04  0.46999998093E+01 0.  1.
</event>
<event>
 5   0  0.2073287E-06  0.3442757E+04  0.7818609E-02  0.8127491E-01
       -2   -1    0    0    0  501  0.00000000000E+00  0.00000000000E+00  0.21475077074E+04  0.21475077074E+04  0.25500000920E-02 0. -1.
        2   -1    0    0  501    0  0.00000000000E+00  0.00000000000E+00 -0.13798056839E+04  0.13798056839E+04  0.25500000920E-02 0.  1.
    10030    2    1    2    0    0  0.00000000000E+00  0.00000000000E+00  0.76770202357E+03  0.35273133913E+04  0.34427566518E+04 0.  0.
        1    1    3    3  502    0  0.38110826379E+03 -0.16205822546E+03  0.20957068612E+04  0.21362335137E+04  0.50400001928E-02 0. -1.
       -1    1    3    3    0  502 -0.38110826379E+03  0.16205822546E+03 -0.13280048376E+04  0.13910798776E+04  0.50400001928E-02 0.  1.
</event>
<event>
 5   0  0.6890600E-07  0.3571865E+04  0.7818609E-02  0.8096967E-01
        1   -1    0    0  501    0  0.00000000000E+00  0.00000000000E+00  0.21061977939E+04  0.21061977939E+04  0.50400001928E-02 0. -1.
       -1   -1    0    0    0  501  0.00000000000E+00  0.00000000000E+00 -0.15143666650E+04  0.15143666650E+04  0.50400001928E-02 0.  1.
    10030    2    1    2    0    0  0.00000000000E+00  0.00000000000E+00  0.59183112892E+03  0.36205644589E+04  0.35718654672E+04 0.  0.
        3    1    3    3  502    0 -0.78472347829E+03  0.10426323051E+04  0.15318354745E+04  0.20123103618E+04  0.10100000352E+00 0. -1.
       -3    1    3    3    0  502  0.78472347829E+03 -0.10426323051E+04 -0.94000434560E+03  0.16082540971E+04  0.10100000352E+00 0.  1.
</event>
<event>
 5   0  0.6630125E-07  0.2441252E+04  0.7818609E-02  0.8424219E-01
       -1   -1    0    0    0  501  0.00000000000E+00  0.00000000000E+00  0.58893640497E+03  0.58893640499E+03  0.50400001928E-02 0.  1.
        1   -1    0    0  501    0  0.00000000000E+00  0.00000000000E+00 -0.25298610979E+04  0.25298610979E+04  0.50400001928E-02 0. -1.
    10030    2    1    2    0    0  0.00000000000E+00  0.00000000000E+00 -0.19409246929E+04  0.31187975029E+04  0.24412515643E+04 0.  0.
        4    1    3    3  502    0 -0.18581656176E+03  0.43640452423E+03 -0.24073114074E+04  0.24535946137E+04  0.12699999809E+01 0. -1.
       -4    1    3    3    0  502  0.18581656176E+03 -0.43640452423E+03  0.46638671448E+03  0.66520288916E+03  0.12699999809E+01 0.  1.
</event>
<event>
 5   0  0.2073287E-06  0.3494078E+04  0.7818609E-02  0.8115195E-01
       -2   -1    0    0    0  501  0.00000000000E+00  0.00000000000E+00  0.19624536710E+04  0.19624536710E+04  0.25500000920E-02 0. -1.
        2   -1    0    0  501    0  0.00000000000E+00  0.00000000000E+00 -0.15552697701E+04  0.15552697701E+04  0.25500000920E-02 0.  1.
    10030    2    1    2    0    0  0.00000000000E+00  0.00000000000E+00  0.40718390089E+03  0.35177234411E+04  0.34940777723E+04 0.  0.
        1    1    3    3  502    0 -0.21084556581E+03  0.10986670693E+04 -0.11473606840E+04  0.16024861064E+04  0.50400001928E-02 0.  1.
       -1    1    3    3    0  502  0.21084556581E+03 -0.10986670693E+04  0.15545445849E+04  0.19152373347E+04  0.50400001928E-02 0. -1.
</event>
<event>
 5   0  0.2020725E-06  0.3494013E+04  0.7818609E-02  0.8115210E-01
        2   -1    0    0  501    0  0.00000000000E+00  0.00000000000E+00  0.23502539422E+04  0.23502539422E+04  0.25500000920E-02 0.  1.
       -2   -1    0    0    0  501  0.00000000000E+00  0.00000000000E+00 -0.12985966675E+04  0.12985966675E+04  0.25500000920E-02 0. -1.
    10030    2    1    2    0    0  0.00000000000E+00  0.00000000000E+00  0.10516572747E+04  0.36488506097E+04  0.34940131294E+04 0.  0.
        3    1    3    3  502    0 -0.73547451351E+03 -0.51142538612E+03 -0.10404884598E+04  0.13729875931E+04  0.10100000352E+00 0. -1.
       -3    1    3    3    0  502  0.73547451351E+03  0.51142538612E+03  0.20921457345E+04  0.22758630166E+04  0.10100000352E+00 0.  1.
</event>
<event>
 5   0  0.2073287E-06  0.3477338E+04  0.7818609E-02  0.8119182E-01
        2   -1    0    0  501    0  0.00000000000E+00  0.00000000000E+00  0.20893740144E+04  0.20893740144E+04  0.25500000920E-02 0. -1.
       -2   -1    0    0    0  501  0.00000000000E+00  0.00000000000E+00 -0.14468303766E+04  0.14468303766E+04  0.25500000920E-02 0.  1.
    10030    2    1    2    0    0  0.00000000000E+00  0.00000000000E+00  0.64254363780E+03  0.35362043910E+04  0.34773379428E+04 0.  0.
        1    1    3    3  502    0 -0.52974779250E+03 -0.16153229667E+04 -0.49689434418E+02  0.17006969308E+04  0.50400001928E-02 0.  1.
       -1    1    3    3    0  502  0.52974779250E+03  0.16153229667E+04  0.69223307222E+03  0.18355074603E+04  0.50400001928E-02 0. -1.
</event>
<event>
 5   0  0.2020725E-06  0.3475898E+04  0.7818609E-02  0.8119526E-01
        2   -1    0    0  501    0  0.00000000000E+00  0.00000000000E+00  0.23787262797E+04  0.23787262797E+04  0.25500000920E-02 0.  1.
       -2   -1    0    0    0  501  0.00000000000E+00  0.00000000000E+00 -0.12697832247E+04  0.12697832247E+04  0.25500000920E-02 0. -1.
    10030    2    1    2    0    0  0.00000000000E+00  0.00000000000E+00  0.11089430550E+04  0.36485095045E+04  0.34758979998E+04 0.  0.
        3    1    3    3  502    0  0.15769043780E+01 -0.33329030885E+03 -0.12359233110E+04  0.12800747468E+04  0.10100000352E+00 0. -1.
       -3    1    3    3    0  502 -0.15769043780E+01  0.33329030885E+03  0.23448663660E+04  0.23684347576E+04  0.10100000352E+00 0.  1.
</event>
<event>
 5   0  0.2001768E-06  0.3535835E+04  0.7818609E-02  0.8105350E-01
       -2   -1    0    0    0  501  0.00000000000E+00  0.00000000000E+00  0.22505684616E+04  0.22505684616E+04  0.25500000920E-02 0.  1.
        2   -1    0    0  501    0  0.00000000000E+00  0.00000000000E+00 -0.13887744802E+04  0.13887744802E+04  0.25500000920E-02 0. -1.
    10030    2    1    2    0    0  0.00000000000E+00  0.00000000000E+00  0.86179398138E+03  0.36393429418E+04  0.35358348634E+04 0.  0.
        2    1    3    3  502    0  0.34780174788E+03  0.87352410418E+03 -0.11101024288E+04  0.14547638361E+04  0.25500000920E-02 0. -1.
       -2    1    3    3    0  502 -0.34780174788E+03 -0.87352410418E+03  0.19718964102E+04  0.21845791057E+04  0.25500000920E-02 0.  1.
</event>
<event>
 5   0  0.2073287E-06  0.2435609E+04  0.7818609E-02  0.8426291E-01
       -2   -1    0    0    0  501  0.00000000000E+00  0.00000000000E+00  0.11775776098E+04  0.11775776098E+04  0.25500000920E-02 0. -1.
        2   -1    0    0  501    0  0.00000000000E+00  0.00000000000E+00 -0.12594051662E+04  0.12594051662E+04  0.25500000920E-02 0.  1.
    10030    2    1    2    0    0  0.00000000000E+00  0.00000000000E+00 -0.81827556362E+02  0.24369827760E+04  0.24356086101E+04 0.  0.
        1    1    3    3  502    0  0.11227439053E+03 -0.13674867229E+03 -0.12464759662E+04  0.12589710372E+04  0.50400001928E-02 0.  1.
       -1    1    3    3    0  502 -0.11227439053E+03  0.13674867229E+03  0.11646484099E+04  0.11780117388E+04  0.50400001928E-02 0. -1.
</event>
<event>
 5   0  0.6630125E-07  0.3524716E+04  0.7818609E-02  0.8107957E-01
       -1   -1    0    0    0  501  0.00000000000E+00  0.00000000000E+00  0.12556598130E+04  0.12556598131E+04  0.50400001928E-02 0. -1.
        1   -1    0    0  501    0  0.00000000000E+00  0.00000000000E+00 -0.24735245475E+04  0.24735245475E+04  0.50400001928E-02 0.  1.
    10030    2    1    2    0    0  0.00000000000E+00  0.00000000000E+00 -0.12178647344E+04  0.37291843605E+04  0.35247158018E+04 0.  0.
        5    1    3    3  502    0  0.33782262576E+03  0.44057854500E+03  0.11607137028E+04  0.12866670007E+04  0.46999998093E+01 0. -1.
       -5    1    3    3    0  502 -0.33782262576E+03 -0.44057854500E+03 -0.23785784373E+04  0.24425173598E+04  0.46999998093E+01 0.  1.
</event>
<event>
 5   0  0.6630125E-07  0.3063328E+04  0.7818609E-02  0.8225875E-01
        1   -1    0    0  501    0  0.00000000000E+00  0.00000000000E+00  0.26425044642E+04  0.26425044642E+04  0.50400001928E-02 0. -1.
       -1   -1    0    0    0  501  0.00000000000E+00  0.00000000000E+00 -0.88779236294E+03  0.88779236295E+03  0.50400001928E-02 0.  1.
    10030    2    1    2    0    0  0.00000000000E+00  0.00000000000E+00  0.17547121013E+04  0.35302968272E+04  0.30633284397E+04 0.  0.
        5    1    3    3  502    0 -0.20743752901E+03  0.79141022145E+03  0.23695801122E+04  0.25068491110E+04  0.46999998093E+01 0. -1.
       -5    1    3    3    0  502  0.20743752901E+03 -0.79141022145E+03 -0.61486801089E+03  0.10234477162E+04  0.46999998093E+01 0.  1.
</event>
<event>
 5   0  0.2001768E-06  0.3478880E+04  0.7818609E-02  0.8118813E-01
        2   -1    0    0  501    0  0.00000000000E+00  0.00000000000E+00  0.13456340111E+04  0.13456340111E+04  0.25500000920E-02 0.  1.
       -2   -1    0    0    0  501  0.00000000000E+00  0.00000000000E+00 -0.22484947408E+04  0.22484947408E+04  0.25500000920E-02 0. -1.
    10030    2    1    2    0    0  0.00000000000E+00  0.00000000000E+00 -0.90286072971E+03  0.35941287519E+04  0.34788797030E+04 0.  0.
        2    1    3    3  502    0 -0.92312892604E+03  0.14285616541E+04 -0.75088568534E+02  0.17025256846E+04  0.25500000920E-02 0. -1.
       -2    1    3    3    0  502  0.92312892604E+03 -0.14285616541E+04 -0.82777216117E+03  0.18916030673E+04  0.25500000920E-02 0.  1.
</event>
<event>
 5   0  0.6890600E-07  0.3404429E+04  0.7818609E-02  0.8136820E-01
       -1   -1    0    0    0  501  0.00000000000E+00  0.00000000000E+00  0.16758025854E+04  0.16758025854E+04  0.50400001928E-02 0.  1.
        1   -1    0    0  501    0  0.00000000000E+00  0.00000000000E+00 -0.17290423398E+04  0.17290423399E+04  0.50400001928E-02 0. -1.
    10030    2    1    2    0    0  0.00000000000E+00  0.00000000000E+00 -0.53239754417E+02  0.34048449253E+04  0.34044286589E+04 0.  0.
        3    1    3    3  502    0  0.28217091690E+02 -0.79945249852E+03  0.14760994017E+04  0.16789252382E+04  0.10100000352E+00 0.  1.
       -3    1    3    3    0  502 -0.28217091690E+02  0.79945249852E+03 -0.15293391561E+04  0.17259196871E+04  0.10100000352E+00 0. -1.
</event>
<event>
 5   0  0.6630125E-07  0.2217756E+04  0.7818609E-02  0.8511074E-01
       -1   -1    0    0    0  501  0.00000000000E+00  0.00000000000E+00  0.13649093095E+04  0.13649093095E+04  0.50400001928E-02 0. -1.
        1   -1    0    0  501    0  0.00000000000E+00  0.00000000000E+00 -0.90087337481E+03  0.90087337482E+03  0.50400001928E-02 0.  1.
    10030    2    1    2    0    0  0.00000000000E+00  0.00000000000E+00  0.46403593466E+03  0.22657826843E+04  0.22177560334E+04 0.  0.
        5    1    3    3  502    0 -0.40470647965E+03 -0.10266371733E+04  0.12095717235E+03  0.11101459129E+04  0.46999998093E+01 0. -1.
       -5    1    3    3    0  502  0.40470647965E+03  0.10266371733E+04  0.34307876231E+03  0.11556367714E+04  0.46999998093E+01 0.  1.
</event>
<event>
 5   0  0.2023479E-06  0.3030770E+04  0.7818609E-02  0.8234999E-01
        2   -1    0    0  501    0  0.00000000000E+00  0.00000000000E+00  0.22897282953E+04  0.22897282953E+04  0.25500000920E-02 0.  1.
       -2   -1    0    0    0  501  0.00000000000E+00  0.00000000000E+00 -0.10029098118E+04  0.10029098118E+04  0.25500000920E-02 0. -1.
    10030    2    1    2    0    0  0.00000000000E+00  0.00000000000E+00  0.12868184835E+04  0.32926381071E+04  0.30307695219E+04 0.  0.
        5    1    3    3  502    0 -0.98648439622E+03 -0.83000987530E+01  0.18930793678E+04  0.21347112072E+04  0.46999998093E+01 0.  1.
       -5    1    3    3    0  502  0.98648439622E+03  0.83000987530E+01 -0.60626088429E+03  0.11579268999E+04  0.46999998093E+01 0. -1.
</event>
<event>
 5   0  0.2020725E-06  0.3443377E+04  0.7818609E-02  0.8127342E-01
       -2   -1    0    0    0  501  0.00000000000E+00  0.00000000000E+00  0.91887498842E+03  0.91887498842E+03  0.25500000920E-02 0.  1.
        2   -1    0    0  501    0  0.00000000000E+00  0.00000000000E+00 -0.32259135164E+04  0.32259135164E+04  0.25500000920E-02 0. -1.
    10030    2    1    2    0    0  0.00000000000E+00  0.00000000000E+00 -0.23070385279E+04  0.41447885048E+04  0.34433769732E+04 0.  0.
        3    1    3    3  502    0  0.63078945467E+03  0.10785114421E+04  0.27230696416E+03  0.12787624329E+04  0.10100000352E+00 0.  1.
       -3    1    3    3    0  502 -0.63078945467E+03 -0.10785114421E+04 -0.25793454921E+04  0.28660260719E+04  0.10100000352E+00 0. -1.
</event>
<event>
 5   0  0.6630125E-07  0.3415112E+04  0.7818609E-02  0.8134207E-01
        1   -1    0    0  501    0  0.00000000000E+00  0.00000000000E+00  0.19977620751E+04  0.19977620751E+04  0.50400001928E-02 0.  1.
       -1   -1    0    0    0  501  0.00000000000E+00  0.00000000000E+00 -0.14595065285E+04  0.14595065285E+04  0.50400001928E-02 0. -1.
    10030    2    1    2    0    0  0.00000000000E+00  0.00000000000E+00  0.53825554663E+03  0.34572686036E+04  0.34151115888E+04 0.  0.
        5    1    3    3  502    0  0.69878740739E+03 -0.27570633272E+03 -0.12832310539E+04  0.14869505205E+04  0.46999998093E+01 0. -1.
       -5    1    3    3    0  502 -0.69878740739E+03  0.27570633272E+03  0.18214866006E+04  0.19703180831E+04  0.46999998093E+01 0.  1.
</event>
<event>
 5   0  0.2001768E-06  0.3532486E+04  0.7818609E-02  0.8106134E-01
        2   -1    0    0  501    0  0.00000000000E+00  0.00000000000E+00  0.25735255305E+04  0.25735255305E+04  0.25500000920E-02 0. -1.
       -2   -1    0    0    0  501  0.00000000000E+00  0.00000000000E+00 -0.12121945205E+04  0.12121945205E+04  0.25500000920E-02 0.  1.
    10030    2    1    2    0    0  0.00000000000E+00  0.00000000000E+00  0.13613310101E+04  0.37857200510E+04  0.35324855535E+04 0.  0.
        2    1    3    3  502    0  0.14161265547E+03  0.12935570518E+04  0.19605444864E+04  0.23530998010E+04  0.25500000920E-02 0. -1.
       -2    1    3    3    0  502 -0.14161265547E+03 -0.12935570518E+04 -0.59921347633E+03  0.14326202500E+04  0.25500000920E-02 0.  1.
</event>
<event>
 5   0  0.6630125E-07  0.3578104E+04  0.7818609E-02  0.8095526E-01
       -1   -1    0    0    0  501  0.00000000000E+00  0.00000000000E+00  0.23431667609E+04  0.23431667609E+04  0.50400001928E-02 0.  1.
        1   -1    0    0  501    0  0.00000000000E+00  0.00000000000E+00 -0.13659745790E+04  0.13659745790E+04  0.50400001928E-02 0. -1.
    10030    2    1    2    0    0  0.00000000000E+00  0.00000000000E+00  0.97719218189E+03  0.37091413399E+04  0.35781035367E+04 0.  0.
        1    1    3    3  502    0 -0.11669614022E+04  0.29963181191E+03 -0.88238443870E+03  0.14933788651E+04  0.50400001928E-02 0. -1.
       -1    1    3    3    0  502  0.11669614022E+04 -0.29963181191E+03  0.18595766206E+04  0.22157624748E+04  0.50400001928E-02 0.  1.
</event>
<event>
 5   0  0.6630125E-07  0.3314902E+04  0.7818609E-02  0.8159114E-01
        3   -1    0    0  501    0  0.00000000000E+00  0.00000000000E+00  0.26549104881E+04  0.26549104900E+04  0.10100000352E+00 0.  1.
       -3   -1    0    0    0  501  0.00000000000E+00  0.00000000000E+00 -0.10347405732E+04  0.10347405781E+04  0.10100000352E+00 0. -1.
    10030    2    1    2    0    0  0.00000000000E+00  0.00000000000E+00  0.16201699149E+04  0.36896510682E+04  0.33149018766E+04 0.  0.
        5    1    3    3  502    0  0.13233126806E+04  0.82064382261E+03  0.17798553104E+03  0.15672631156E+04  0.46999998093E+01 0. -1.
       -5    1    3    3    0  502 -0.13233126806E+04 -0.82064382261E+03  0.14421843839E+04  0.21223879526E+04  0.46999998093E+01 0.  1.
</event>
<event>
 5   0  0.2073287E-06  0.3380495E+04  0.7818609E-02  0.8142710E-01
       -2   -1    0    0    0  501  0.00000000000E+00  0.00000000000E+00  0.13979689557E+04  0.13979689557E+04  0.25500000920E-02 0. -1.
        2   -1    0    0  501    0  0.00000000000E+00  0.00000000000E+00 -0.20436338721E+04  0.20436338721E+04  0.25500000920E-02 0.  1.
    10030    2    1    2    0    0  0.00000000000E+00  0.00000000000E+00 -0.64566491633E+03  0.34416028278E+04  0.33804950584E+04 0.  0.
        1    1    3    3  502    0  0.70450401437E+03  0.80309554623E+03  0.10106723397E+04  0.14706280770E+04  0.50400001928E-02 0. -1.
       -1    1    3    3    0  502 -0.70450401437E+03 -0.80309554623E+03 -0.16563372560E+04  0.19709747508E+04  0.50400001928E-02 0.  1.
</event>
<event>
 5   0  0.7378896E-07  0.3561795E+04  0.7818609E-02  0.8099299E-01
        1   -1    0    0  501    0  0.00000000000E+00  0.00000000000E+00  0.21892533485E+04  0.21892533485E+04  0.50400001928E-02 0.  1.
       -1   -1    0    0    0  501  0.00000000000E+00  0.00000000000E+00 -0.14487113553E+04  0.14487113553E+04  0.50400001928E-02 0. -1.
    10030    2    1    2    0    0  0.00000000000E+00  0.00000000000E+00  0.74054199317E+03  0.36379647038E+04  0.35617951573E+04 0.  0.
        2    1    3    3  502    0  0.89578894438E+03 -0.13307425240E+04 -0.41975750593E+03  0.16581646064E+04  0.25500000920E-02 0. -1.
       -2    1    3    3    0  502 -0.89578894438E+03  0.13307425240E+04  0.11602994991E+04  0.19798000974E+04  0.25500000920E-02 0.  1.
</event>
<event>
 5   0  0.6890600E-07  0.3341226E+04  0.7818609E-02  0.8152484E-01
       -1   -1    0    0    0  501  0.00000000000E+00  0.00000000000E+00  0.16110459512E+04  0.16110459512E+04  0.50400001928E-02 0.  1.
        1   -1    0    0  501    0  0.00000000000E+00  0.00000000000E+00 -0.17323819843E+04  0.17323819843E+04  0.50400001928E-02 0. -1.
    10030    2    1    2    0    0  0.00000000000E+00  0.00000000000E+00 -0.12133603308E+03  0.33434279356E+04  0.33412255128E+04 0.  0.
        3    1    3    3  502    0  0.12896123778E+04 -0.43253717862E+03 -0.10312344063E+04  0.17069367026E+04  0.10100000352E+00 0. -1.
       -3    1    3    3    0  502 -0.12896123778E+04  0.43253717862E+03  0.90989837319E+03  0.16364912330E+04  0.10100000352E+00 0.  1.
</event>
<event>
 5   0  0.6630125E-07  0.3504609E+04  0.7818609E-02  0.8112698E-01
       -1   -1    0    0    0  501  0.00000000000E+00  0.00000000000E+00  0.13816285378E+04  0.13816285378E+04  0.50400001928E-02 0.  1.
        1   -1    0    0  501    0  0.00000000000E+00  0.00000000000E+00 -0.22224290283E+04  0.22224290283E+04  0.50400001928E-02 0. -1.
    10030    2    1    2    0    0  0.00000000000E+00  0.00000000000E+00 -0.84080049057E+03  0.36040575661E+04  0.35046091757E+04 0.  0.
        5    1    3    3  502    0 -0.46430609327E+02  0.17142252576E+04 -0.49863145136E+02  0.17155851650E+04  0.46999998093E+01 0. -1.
       -5    1    3    3    0  502  0.46430609327E+02 -0.17142252576E+04 -0.79093734543E+03  0.18884724011E+04  0.46999998093E+01 0.  1.
</event>
<event>
 5   0  0.7378896E-07  0.3497760E+04  0.7818609E-02  0.8114321E-01
        1   -1    0    0  501    0  0.00000000000E+00  0.00000000000E+00  0.15273557433E+04  0.15273557433E+04  0.50400001928E-02 0. -1.
       -1   -1    0    0    0  501  0.00000000000E+00  0.00000000000E+00 -0.20025341125E+04  0.20025341125E+04  0.50400001928E-02 0.  1.
    10030    2    1    2    0    0  0.00000000000E+00  0.00000000000E+00 -0.47517836918E+03  0.35298898558E+04  0.34977604137E+04 0.  0.
        2    1    3    3  502    0  0.97136245016E+03 -0.56191023559E+03 -0.15912882976E+04  0.19471739954E+04  0.25500000920E-02 0.  1.
       -2    1    3    3    0  502 -0.97136245016E+03  0.56191023559E+03  0.11161099284E+04  0.15827158604E+04  0.25500000920E-02 0. -1.
</event>
<event>
 5   0  0.1999883E-06  0.3145838E+04  0.7818609E-02  0.8203269E-01
       -2   -1    0    0    0  501  0.00000000000E+00  0.00000000000E+00  0.21198766243E+04  0.21198766243E+04  0.25500000920E-02 0.  1.
        2   -1    0    0  501    0  0.00000000000E+00  0.00000000000E+00 -0.11670841203E+04  0.11670841203E+04  0.25500000920E-02 0. -1.
    10030    2    1    2    0    0  0.00000000000E+00  0.00000000000E+00  0.95279250399E+03  0.32869607445E+04  0.31458381046E+04 0.  0.
        4    1    3    3  502    0 -0.61751734817E+03  0.56026927853E+02  0.19867906157E+04  0.20812989347E+04  0.12699999809E+01 0.  1.
       -4    1    3    3    0  502  0.61751734817E+03 -0.56026927853E+02 -0.10339981117E+04  0.12056618099E+04  0.12699999809E+01 0. -1.
</event>
<event>
 5   0  0.6630125E-07  0.3570474E+04  0.7818609E-02  0.8097289E-01
        1   -1    0    0  501    0  0.00000000000E+00  0.00000000000E+00  0.14461537860E+04  0.14461537860E+04  0.50400001928E-02 0.  1.
       -1   -1    0    0    0  501  0.00000000000E+00  0.00000000000E+00 -0.22038255956E+04  0.22038255956E+04  0.50400001928E-02 0. -1.
    10030    2    1    2    0    0  0.00000000000E+00  0.00000000000E+00 -0.75767180963E+03  0.36499793816E+04  0.35704737661E+04 0.  0.
        4    1    3    3  502    0  0.47722023979E+03  0.29069120023E+03 -0.21121231530E+04  0.21847897742E+04  0.12699999809E+01 0. -1.
       -4    1    3    3    0  502 -0.47722023979E+03 -0.29069120023E+03  0.13544513433E+04  0.14651896074E+04  0.12699999809E+01 0.  1.
</event>
<event>
 5   0  0.6630125E-07  0.2366226E+04  0.7818609E-02  0.8452257E-01
        1   -1    0    0  501    0  0.00000000000E+00  0.00000000000E+00  0.21464799013E+04  0.21464799013E+04  0.50400001928E-02 0. -1.
       -1   -1    0    0    0  501  0.00000000000E+00  0.00000000000E+00 -0.65211712236E+03  0.65211712238E+03  0.50400001928E-02 0.  1.
    10030    2    1    2    0    0  0.00000000000E+00  0.00000000000E+00  0.14943627790E+04  0.27985970237E+04  0.23662259372E+04 0.  0.
        5    1    3    3  502    0  0.26838855653E+03 -0.69674000314E+03  0.18326218267E+04  0.19788895621E+04  0.46999998093E+01 0. -1.
       -5    1    3    3    0  502 -0.26838855653E+03  0.69674000314E+03 -0.33825904775E+03  0.81970746161E+03  0.46999998093E+01 0.  1.
</event>
<event>
 5   0  0.2023479E-06  0.3513633E+04  0.7818609E-02  0.8110567E-01
        2   -1    0    0  501    0  0.00000000000E+00  0.00000000000E+00  0.21263842949E+04  0.21263842949E+04  0.25500000920E-02 0.  1.
       -2   -1    0    0    0  501  0.00000000000E+00  0.00000000000E+00 -0.14514798842E+04  0.14514798842E+04  0.25500000920E-02 0. -1.
    10030    2    1    2    0    0  0.00000000000E+00  0.00000000000E+00  0.67490441071E+03  0.35778641791E+04  0.35136328949E+04 0.  0.
        5    1    3    3  502    0  0.42755441014E+03  0.74118977079E+02 -0.13960446813E+04  0.14619368107E+04  0.46999998093E+01 0. -1.
       -5    1    3    3    0  502 -0.42755441014E+03 -0.74118977079E+02  0.20709490920E+04  0.21159273683E+04  0.46999998093E+01 0.  1.
</event>
<event>
 5   0  0.2073287E-06  0.3634857E+04  0.7818609E-02  0.8082554E-01
       -2   -1    0    0    0  501  0.00000000000E+00  0.00000000000E+00  0.28852522262E+04  0.28852522262E+04  0.25500000920E-02 0.  1.
        2   -1    0    0  501    0  0.00000000000E+00  0.00000000000E+00 -0.11448031937E+04  0.11448031937E+04  0.25500000920E-02 0. -1.
    10030    2    1    2    0    0  0.00000000000E+00  0.00000000000E+00  0.17404490325E+04  0.40300554198E+04  0.36348567857E+04 0.  0.
        1    1    3    3  502    0 -0.10274258063E+04  0.55957726121E+03  0.24122351412E+04  0.26809716290E+04  0.50400001928E-02 0.  1.
       -1    1    3    3    0  502  0.10274258063E+04 -0.55957726121E+03 -0.67178610873E+03  0.13490837908E+04  0.50400001928E-02 0. -1.
</event>
<event>
 5   0  0.2020725E-06  0.3470054E+04  0.7818609E-02  0.8120924E-01
       -2   -1    0    0    0  501  0.00000000000E+00  0.00000000000E+00  0.18278085880E+04  0.18278085880E+04  0.25500000920E-02 0. -1.
        2   -1    0    0  501    0  0.00000000000E+00  0.00000000000E+00 -0.16469548990E+04  0.16469548990E+04  0.25500000920E-02 0.  1.
    10030    2    1    2    0    0  0.00000000000E+00  0.00000000000E+00  0.18085368894E+03  0.34747634870E+04  0.34700537797E+04 0.  0.
        3    1    3    3  502    0 -0.57851167764E+03  0.83981994085E+03  0.14960217751E+04  0.18105398244E+04  0.10100000352E+00 0. -1.
       -3    1    3    3    0  502  0.57851167764E+03 -0.83981994085E+03 -0.13151680861E+04  0.16642236626E+04  0.10100000352E+00 0.  1.
</event>
<event>
 5   0  0.2020725E-06  0.3447647E+04  0.7818609E-02  0.8126310E-01
       -2   -1    0    0    0  501  0.00000000000E+00  0.00000000000E+00  0.16287047682E+04  0.16287047682E+04  0.25500000920E-02 0. -1.
        2   -1    0    0  501    0  0.00000000000E+00  0.00000000000E+00 -0.18244968180E+04  0.18244968180E+04  0.25500000920E-02 0.  1.
    10030    2    1    2    0    0  0.00000000000E+00  0.00000000000E+00 -0.19579204976E+03  0.34532015862E+04  0.34476465405E+04 0.  0.
        3    1    3    3  502    0  0.11905173117E+04 -0.10647283925E+04  0.55167697525E+03  0.16897708468E+04  0.10100000352E+00 0. -1.
       -3    1    3    3    0  502 -0.11905173117E+04  0.10647283925E+04 -0.74746902501E+03  0.17634307395E+04  0.10100000352E+00 0.  1.
</event>
<event>
 5   0  0.6630125E-07  0.3236430E+04  0.7818609E-02  0.8179262E-01
       -1   -1    0    0    0  501  0.00000000000E+00  0.00000000000E+00  0.14086067742E+04  0.14086067742E+04  0.50400001928E-02 0.  1.
        1   -1    0    0  501    0  0.00000000000E+00  0.00000000000E+00 -0.18590143846E+04  0.18590143847E+04  0.50400001928E-02 0. -1.
    10030    2    1    2    0    0  0.00000000000E+00  0.00000000000E+00 -0.45040761047E+03  0.32676211588E+04  0.32364302900E+04 0.  0.
        4    1    3    3  502    0 -0.63570973669E+03 -0.14563408332E+04 -0.53403265348E+03  0.16763794259E+04  0.12699999809E+01 0.  1.
       -4    1    3    3    0  502  0.63570973669E+03  0.14563408332E+04  0.83625043007E+02  0.15912417329E+04  0.12699999809E+01 0. -1.
</event>
<event>
 5   0  0.2073287E-06  0.2859839E+04  0.7818609E-02  0.8284928E-01
        2   -1    0    0  501    0  0.00000000000E+00  0.00000000000E+00  0.13799501410E+04  0.13799501410E+04  0.25500000920E-02 0. -1.
       -2   -1    0    0    0  501  0.00000000000E+00  0.00000000000E+00 -0.14816979212E+04  0.14816979212E+04  0.25500000920E-02 0.  1.
    10030    2    1    2    0    0  0.00000000000E+00  0.00000000000E+00 -0.10174778027E+03  0.28616480622E+04  0.28598386355E+04 0.  0.
        1    1    3    3  502    0 -0.13148956563E+04 -0.22012258597E+03  0.46642971570E+03  0.14124309609E+04  0.50400001928E-02 0. -1.
       -1    1    3    3    0  502  0.13148956563E+04  0.22012258597E+03 -0.56817749596E+03  0.14492171013E+04  0.50400001928E-02 0.  1.
</event>
<event>
 5   0  0.7378896E-07  0.2931001E+04  0.7818609E-02  0.8263713E-01
       -1   -1    0    0    0  501  0.00000000000E+00  0.00000000000E+00  0.10488518495E+04  0.10488518495E+04  0.50400001928E-02 0. -1.
        1   -1    0    0  501    0  0.00000000000E+00  0.00000000000E+00 -0.20476592582E+04  0.20476592582E+04  0.50400001928E-02 0.  1.
    10030    2    1    2    0    0  0.00000000000E+00  0.00000000000E+00 -0.99880740869E+03  0.30965111078E+04  0.29310006484E+04 0.  0.
        2    1    3    3  502    0 -0.18278657742E+03  0.24751138169E+03  0.10143427776E+04  0.10599830600E+04  0.25500000920E-02 0. -1.
       -2    1    3    3    0  502  0.18278657742E+03 -0.24751138169E+03 -0.20131501863E+04  0.20365280478E+04  0.25500000920E-02 0.  1.
</event>
<event>
 5   0  0.6630125E-07  0.3507294E+04  0.7818609E-02  0.8112063E-01
        1   -1    0    0  501    0  0.00000000000E+00  0.00000000000E+00  0.22285207374E+04  0.22285207374E+04  0.50400001928E-02 0.  1.
       -1   -1    0    0    0  501  0.00000000000E+00  0.00000000000E+00 -0.13799639287E+04  0.13799639287E+04  0.50400001928E-02 0. -1.
    10030    2    1    2    0    0  0.00000000000E+00  0.00000000000E+00  0.84855680872E+03  0.36084846661E+04  0.35072942459E+04 0.  0.
        1    1    3    3  502    0 -0.98751734670E+03 -0.14412222855E+04  0.26836057786E+03  0.17675773211E+04  0.50400001928E-02 0. -1.
       -1    1    3    3    0  502  0.98751734670E+03  0.14412222855E+04  0.58019623086E+03  0.18409073450E+04  0.50400001928E-02 0.  1.
</event>
<event>
 5   0  0.6630125E-07  0.2770346E+04  0.7818609E-02  0.8312534E-01
        1   -1    0    0  501    0  0.00000000000E+00  0.00000000000E+00  0.21248799007E+04  0.21248799007E+04  0.50400001928E-02 0. -1.
       -1   -1    0    0    0  501  0.00000000000E+00  0.00000000000E+00 -0.90297035981E+03  0.90297035982E+03  0.50400001928E-02 0.  1.
    10030    2    1    2    0    0  0.00000000000E+00  0.00000000000E+00  0.12219095409E+04  0.30278502605E+04  0.27703455153E+04 0.  0.
        5    1    3    3  502    0 -0.11422002867E+03  0.87058684179E+03  0.17818479088E+04  0.19864470101E+04  0.46999998093E+01 0. -1.
       -5    1    3    3    0  502  0.11422002867E+03 -0.87058684179E+03 -0.55993836790E+03  0.10414032504E+04  0.46999998093E+01 0.  1.
</event>
<event>
 5   0  0.2001768E-06  0.3500560E+04  0.7818609E-02  0.8113657E-01
       -2   -1    0    0    0  501  0.00000000000E+00  0.00000000000E+00  0.15866698602E+04  0.15866698602E+04  0.25500000920E-02 0. -1.
        2   -1    0    0  501    0  0.00000000000E+00  0.00000000000E+00 -0.19307603250E+04  0.19307603250E+04  0.25500000920E-02 0.  1.
    10030    2    1    2    0    0  0.00000000000E+00  0.00000000000E+00 -0.34409046480E+03  0.35174301852E+04  0.35005595066E+04 0.  0.
        2    1    3    3  502    0  0.14867268125E+04 -0.19008777051E+03  0.73618549251E+03  0.16698679753E+04  0.25500000920E-02 0. -1.
       -2    1    3    3    0  502 -0.14867268125E+04  0.19008777051E+03 -0.10802759573E+04  0.18475622099E+04  0.25500000920E-02 0.  1.
</event>
<event>
 5   0  0.1999883E-06  0.3473605E+04  0.7818609E-02  0.8120074E-01
       -2   -1    0    0    0  501  0.00000000000E+00  0.00000000000E+00  0.15340645395E+04  0.15340645395E+04  0.25500000920E-02 0. -1.
        2   -1    0    0  501    0  0.00000000000E+00  0.00000000000E+00 -0.19663342289E+04  0.19663342289E+04  0.25500000920E-02 0.  1.
    10030    2    1    2    0    0  0.00000000000E+00  0.00000000000E+00 -0.43226968932E+03  0.35003987684E+04  0.34736053969E+04 0.  0.
        4    1    3    3  502    0 -0.59564645115E+03  0.29179102935E+03 -0.18336782106E+04  0.19499523308E+04  0.12699999809E+01 0.  1.
       -4    1    3    3    0  502  0.59564645115E+03 -0.29179102935E+03  0.14014085212E+04  0.15504464376E+04  0.12699999809E+01 0. -1.
</event>
<event>
 5   0  0.2020725E-06  0.3206951E+04  0.7818609E-02  0.8186984E-01
       -2   -1    0    0    0  501  0.00000000000E+00  0.00000000000E+00  0.19990326500E+04  0.19990326500E+04  0.25500000920E-02 0. -1.
        2   -1    0    0  501    0  0.00000000000E+00  0.00000000000E+00 -0.12861887304E+04  0.12861887304E+04  0.25500000920E-02 0.  1.
    10030    2    1    2    0    0  0.00000000000E+00  0.00000000000E+00  0.71284391969E+03  0.32852213804E+04  0.32069507424E+04 0.  0.
        3    1    3    3  502    0  0.77074280685E+03 -0.77737509886E+03  0.15566735963E+04  0.19030473494E+04  0.10100000352E+00 0. -1.
       -3    1    3    3    0  502 -0.77074280685E+03  0.77737509886E+03 -0.84382967658E+03  0.13821740310E+04  0.10100000352E+00 0.  1.
</event>
<event>
 5   0  0.6630125E-07  0.3516544E+04  0.7818609E-02  0.8109880E-01
        3   -1    0    0  501    0  0.00000000000E+00  0.00000000000E+00  0.22961092716E+04  0.22961092738E+04  0.10100000352E+00 0. -1.
       -3   -1    0    0    0  501  0.00000000000E+00  0.00000000000E+00 -0.13464170722E+04  0.13464170760E+04  0.10100000352E+00 0.  1.
    10030    2    1    2    0    0  0.00000000000E+00  0.00000000000E+00  0.94969219937E+03  0.36425263498E+04  0.35165441751E+04 0.  0.
        4    1    3    3  502    0 -0.36405067238E+03  0.13377085403E+04 -0.64534170264E+03  0.15292038964E+04  0.12699999809E+01 0.  1.
       -4    1    3    3    0  502  0.36405067238E+03 -0.13377085403E+04  0.15950339020E+04  0.21133224534E+04  0.12699999809E+01 0. -1.
</event>
<event>
 5   0  0.2023479E-06  0.3519233E+04  0.7818609E-02  0.8109247E-01
       -2   -1    0    0    0  501  0.00000000000E+00  0.00000000000E+00  0.16473239627E+04  0.16473239627E+04  0.25500000920E-02 0.  1.
        2   -1    0    0  501    0  0.00000000000E+00  0.00000000000E+00 -0.18795631693E+04  0.18795631693E+04  0.25500000920E-02 0. -1.
    10030    2    1    2    0    0  0.00000000000E+00  0.00000000000E+00 -0.23223920653E+03  0.35268871320E+04  0.35192325573E+04 0.  0.
        5    1    3    3  502    0 -0.46880748306E+03  0.15849815743E+04 -0.72098876619E+03  0.18032731180E+04  0.46999998093E+01 0. -1.
       -5    1    3    3    0  502  0.46880748306E+03 -0.15849815743E+04  0.48874955966E+03  0.17236140140E+04  0.46999998093E+01 0.  1.
</event>
<event>
 5   0  0.1999883E-06  0.3461155E+04  0.7818609E-02  0.8123058E-01
        2   -1    0    0  501    0  0.00000000000E+00  0.00000000000E+00  0.20884576983E+04  0.20884576983E+04  0.25500000920E-02 0.  1.
       -2   -1    0    0    0  501  0.00000000000E+00  0.00000000000E+00 -0.14340241690E+04  0.14340241690E+04  0.25500000920E-02 0. -1.
    10030    2    1    2    0    0  0.00000000000E+00  0.00000000000E+00  0.65443352925E+03  0.35224818673E+04  0.34611551917E+04 0.  0.
        4    1    3    3  502    0 -0.38501532758E+03  0.13945805662E+04 -0.63924376021E+03  0.15816845311E+04  0.12699999809E+01 0.  1.
       -4    1    3    3    0  502  0.38501532758E+03 -0.13945805662E+04  0.12936772895E+04  0.19407973362E+04  0.12699999809E+01 0. -1.
</event>
<event>
 5   0  0.2073287E-06  0.3478470E+04  0.7818609E-02  0.8118911E-01
        2   -1    0    0  501    0  0.00000000000E+00  0.00000000000E+00  0.20830286469E+04  0.20830286469E+04  0.25500000920E-02 0. -1.
       -2   -1    0    0    0  501  0.00000000000E+00  0.00000000000E+00 -0.14521831091E+04  0.14521831091E+04  0.25500000920E-02 0.  1.
    10030    2    1    2    0    0  0.00000000000E+00  0.00000000000E+00  0.63084553775E+03  0.35352117560E+04  0.34784703631E+04 0.  0.
        1    1    3    3  502    0  0.20883799029E+03 -0.31687444671E+02  0.20699442576E+04  0.20806937857E+04  0.50400001928E-02 0. -1.
       -1    1    3    3    0  502 -0.20883799029E+03  0.31687444671E+02 -0.14390987198E+04  0.14545179703E+04  0.50400001928E-02 0.  1.
</event>
<event>
 5   0  0.6630125E-07  0.2665474E+04  0.7818609E-02  0.8346295E-01
        1   -1    0    0  501    0  0.00000000000E+00  0.00000000000E+00  0.19360580831E+04  0.19360580831E+04  0.50400001928E-02 0.  1.
       -1   -1    0    0    0  501  0.00000000000E+00  0.00000000000E+00 -0.91742478686E+03  0.91742478687E+03  0.50400001928E-02 0. -1.
    10030    2    1    2    0    0  0.00000000000E+00  0.00000000000E+00  0.10186332962E+04  0.28534828700E+04  0.26654738222E+04 0.  0.
        1    1    3    3  502    0  0.95625917189E+03 -0.63750317194E+03 -0.21307298401E+03  0.11688635483E+04  0.50400001928E-02 0. -1.
       -1    1    3    3    0  502 -0.95625917189E+03  0.63750317194E+03  0.12317062802E+04  0.16846193216E+04  0.50400001928E-02 0.  1.
</event>
<event>
 5   0  0.6630125E-07  0.3479940E+04  0.7818609E-02  0.8118561E-01
        1   -1    0    0  501    0  0.00000000000E+00  0.00000000000E+00  0.22702777859E+04  0.22702777859E+04  0.50400001928E-02 0.  1.
       -1   -1    0    0    0  501  0.00000000000E+00  0.00000000000E+00 -0.13335349392E+04  0.13335349392E+04  0.50400001928E-02 0. -1.
    10030    2    1    2    0    0  0.00000000000E+00  0.00000000000E+00  0.93674284663E+03  0.36038127251E+04  0.34799395105E+04 0.  0.
        5    1    3    3  502    0 -0.67668120286E+03  0.12888091626E+04  0.14554779331E+04  0.20584859998E+04  0.46999998093E+01 0.  1.
       -5    1    3    3    0  502  0.67668120286E+03 -0.12888091626E+04 -0.51873508645E+03  0.15453267252E+04  0.46999998093E+01 0. -1.
</event>
<event>
 5   0  0.2023479E-06  0.3454785E+04  0.7818609E-02  0.8124590E-01
       -2   -1    0    0    0  501  0.00000000000E+00  0.00000000000E+00  0.11173886142E+04  0.11173886142E+04  0.25500000920E-02 0.  1.
        2   -1    0    0  501    0  0.00000000000E+00  0.00000000000E+00 -0.26704098523E+04  0.26704098523E+04  0.25500000920E-02 0. -1.
    10030    2    1    2    0    0  0.00000000000E+00  0.00000000000E+00 -0.15530212381E+04  0.37877984665E+04  0.34547854141E+04 0.  0.
        5    1    3    3  502    0 -0.37419060360E+03  0.75918768794E+02 -0.26235586774E+04  0.26512005754E+04  0.46999998093E+01 0. -1.
       -5    1    3    3    0  502  0.37419060360E+03 -0.75918768794E+02  0.10705374393E+04  0.11365978912E+04  0.46999998093E+01 0.  1.
</event>
<event>
 5   0  0.2023479E-06  0.2308836E+04  0.7818609E-02  0.8474445E-01
        2   -1    0    0  501    0  0.00000000000E+00  0.00000000000E+00  0.12459260637E+04  0.12459260637E+04  0.25500000920E-02 0. -1.
       -2   -1    0    0    0  501  0.00000000000E+00  0.00000000000E+00 -0.10696308189E+04  0.10696308189E+04  0.25500000920E-02 0.  1.
    10030    2    1    2    0    0  0.00000000000E+00  0.00000000000E+00  0.17629524474E+03  0.23155568826E+04  0.23088359975E+04 0.  0.
        5    1    3    3  502    0  0.76429777960E+03 -0.71381265197E+02 -0.77657591939E+03  0.10919425944E+04  0.46999998093E+01 0.  1.
       -5    1    3    3    0  502 -0.76429777960E+03  0.71381265197E+02  0.95287116413E+03  0.12236142882E+04  0.46999998093E+01 0. -1.
</event>
<event>
 5   0  0.2023479E-06  0.3493780E+04  0.7818609E-02  0.8115266E-01
       -2   -1    0    0    0  501  0.00000000000E+00  0.00000000000E+00  0.13820944239E+04  0.13820944239E+04  0.25500000920E-02 0.  1.
        2   -1    0    0  501    0  0.00000000000E+00  0.00000000000E+00 -0.22079712536E+04  0.22079712536E+04  0.25500000920E-02 0. -1.
    10030    2    1    2    0    0  0.00000000000E+00  0.00000000000E+00 -0.82587682969E+03  0.35900656775E+04  0.34937800490E+04 0.  0.
        5    1    3    3  502    0  0.64965587103E+03 -0.82616811864E+03 -0.18467410703E+04  0.21248720389E+04  0.46999998093E+01 0. -1.
       -5    1    3    3    0  502 -0.64965587103E+03  0.82616811864E+03  0.10208642406E+04  0.14651936386E+04  0.46999998093E+01 0.  1.
</event>
<event>
 5   0  0.1999883E-06  0.3495589E+04  0.7818609E-02  0.8114836E-01
       -2   -1    0    0    0  501  0.00000000000E+00  0.00000000000E+00  0.19241940277E+04  0.19241940277E+04  0.25500000920E-02 0.  1.
        2   -1    0    0  501    0  0.00000000000E+00  0.00000000000E+00 -0.15875665146E+04  0.15875665146E+04  0.25500000920E-02 0. -1.
    10030    2    1    2    0    0  0.00000000000E+00  0.00000000000E+00  0.33662751306E+03  0.35117605423E+04  0.34955892241E+04 0.  0.
        4    1    3    3  502    0  0.13650307262E+04 -0.10790467829E+04  0.28290700361E+01  0.17400173734E+04  0.12699999809E+01 0. -1.
       -4    1    3    3    0  502 -0.13650307262E+04  0.10790467829E+04  0.33379844302E+03  0.17717431689E+04  0.12699999809E+01 0.  1.
</event>
<event>
 5   0  0.1999883E-06  0.3524346E+04  0.7818609E-02  0.8108044E-01
        2   -1    0    0  501    0  0.00000000000E+00  0.00000000000E+00  0.22711518487E+04  0.22711518487E+04  0.25500000920E-02 0.  1.
       -2   -1    0    0    0  501  0.00000000000E+00  0.00000000000E+00 -0.13672594576E+04  0.13672594576E+04  0.25500000920E-02 0. -1.
    10030    2    1    2    0    0  0.00000000000E+00  0.00000000000E+00  0.90389239110E+03  0.36384113063E+04  0.35243460924E+04 0.  0.
        4    1    3    3  502    0  0.73963638992E+03 -0.15954535721E+04  0.33552150997E+03  0.17902822086E+04  0.12699999809E+01 0.  1.
       -4    1    3    3    0  502 -0.73963638992E+03  0.15954535721E+04  0.56837088113E+03  0.18481290976E+04  0.12699999809E+01 0. -1.
</event>
<event>
 5   0  0.6630125E-07  0.2626518E+04  0.7818609E-02  0.8359249E-01
       -1   -1    0    0    0  501  0.00000000000E+00  0.00000000000E+00  0.14232145753E+04  0.14232145753E+04  0.50400001928E-02 0. -1.
        1   -1    0    0  501    0  0.00000000000E+00  0.00000000000E+00 -0.12117985624E+04  0.12117985624E+04  0.50400001928E-02 0.  1.
    10030    2    1    2    0    0  0.00000000000E+00  0.00000000000E+00  0.21141601286E+03  0.26350131377E+04  0.26265181334E+04 0.  0.
        5    1    3    3  502    0 -0.20845163673E+03  0.10789499623E+04  0.82709011757E+03  0.13753854946E+04  0.46999998093E+01 0. -1.
       -5    1    3    3    0  502  0.20845163673E+03 -0.10789499623E+04 -0.61567410471E+03  0.12596276431E+04  0.46999998093E+01 0.  1.
</event>
<event>
 5   0  0.2020725E-06  0.3509484E+04  0.7818609E-02  0.8111546E-01
       -2   -1    0    0    0  501  0.00000000000E+00  0.00000000000E+00  0.16406454037E+04  0.16406454037E+04  0.25500000920E-02 0. -1.
        2   -1    0    0  501    0  0.00000000000E+00  0.00000000000E+00 -0.18767735033E+04  0.18767735033E+04  0.25500000920E-02 0.  1.
    10030    2    1    2    0    0  0.00000000000E+00  0.00000000000E+00 -0.23612809952E+03  0.35174189070E+04  0.35094841912E+04 0.  0.
        3    1    3    3  502    0 -0.40025975990E+03  0.12944339736E+04 -0.12356423509E+04  0.18337336821E+04  0.10100000352E+00 0.  1.
       -3    1    3    3    0  502  0.40025975990E+03 -0.12944339736E+04  0.99951425138E+03  0.16836852249E+04  0.10100000352E+00 0. -1.
</event>
<event>
 5   0  0.2001768E-06  0.3424286E+04  0.7818609E-02  0.8131971E-01
        2   -1    0    0  501    0  0.00000000000E+00  0.00000000000E+00  0.11779076128E+04  0.11779076128E+04  0.25500000920E-02 0.  1.
       -2   -1    0    0    0  501  0.00000000000E+00  0.00000000000E+00 -0.24886784441E+04  0.24886784441E+04  0.25500000920E-02 0. -1.
    10030    2    1    2    0    0  0.00000000000E+00  0.00000000000E+00 -0.13107708313E+04  0.36665860570E+04  0.34242857855E+04 0.  0.
        2    1    3    3  502    0 -0.93316556852E+03  0.11766626558E+04  0.22504987949E+03  0.15185454988E+04  0.25500000920E-02 0.  1.
       -2    1    3    3    0  502  0.93316556852E+03 -0.11766626558E+04 -0.15358207108E+04  0.21480405581E+04  0.25500000920E-02 0. -1.
</event>
<event>
 5   0  0.6890600E-07  0.3433932E+04  0.7818609E-02  0.8129628E-01
        1   -1    0    0  501    0  0.00000000000E+00  0.00000000000E+00  0.22791709936E+04  0.22791709936E+04  0.50400001928E-02 0. -1.
       -1   -1    0    0    0  501  0.00000000000E+00  0.00000000000E+00 -0.12934402676E+04  0.12934402676E+04  0.50400001928E-02 0.  1.
    10030    2    1    2    0    0  0.00000000000E+00  0.00000000000E+00  0.98573072608E+03  0.35726112612E+04  0.34339315892E+04 0.  0.
        3    1    3    3  502    0 -0.75263888970E+03  0.12883366457E+04  0.13766998583E+04  0.20301672643E+04  0.10100000352E+00 0. -1.
       -3    1    3    3    0  502  0.75263888970E+03 -0.12883366457E+04 -0.39096913227E+03  0.15424439969E+04  0.10100000352E+00 0.  1.
</event>
<event>
 5   0  0.2023479E-06  0.2877628E+04  0.7818609E-02  0.8279565E-01
        2   -1    0    0  501    0  0.00000000000E+00  0.00000000000E+00  0.12112632615E+04  0.12112632615E+04  0.25500000920E-02 0.  1.
       -2   -1    0    0    0  501  0.00000000000E+00  0.00000000000E+00 -0.17091127722E+04  0.17091127722E+04  0.25500000920E-02 0. -1.
    10030    2    1    2    0    0  0.00000000000E+00  0.00000000000E+00 -0.49784951076E+03  0.29203760337E+04  0.28776278500E+04 0.  0.
        5    1    3    3  502    0 -0.11144816077E+03 -0.80217961358E+03 -0.14558137663E+04  0.16659317624E+04  0.46999998093E+01 0. -1.
       -5    1    3    3    0  502  0.11144816077E+03  0.80217961358E+03  0.95796425551E+03  0.12544442713E+04  0.46999998093E+01 0.  1.
</event>
<event>
 5   0  0.2001768E-06  0.3468556E+04  0.7818609E-02  0.8121282E-01
        2   -1    0    0  501    0  0.00000000000E+00  0.00000000000E+00  0.13727199748E+04  0.13727199748E+04  0.25500000920E-02 0.  1.
       -2   -1    0    0    0  501  0.00000000000E+00  0.00000000000E+00 -0.21910661950E+04  0.21910661950E+04  0.25500000920E-02 0. -1.
    10030    2    1    2    0    0  0.00000000000E+00  0.00000000000E+00 -0.81834622022E+03  0.35637861698E+04  0.34685560869E+04 0.  0.
        2    1    3    3  502    0  0.18014236986E+03  0.11857132471E+04 -0.16963056178E+04  0.20774551564E+04  0.25500000920E-02 0. -1.
       -2    1    3    3    0  502 -0.18014236986E+03 -0.11857132471E+04  0.87795939755E+03  0.14863310134E+04  0.25500000920E-02 0.  1.
</event>
<event>
 5   0  0.6630125E-07  0.3496270E+04  0.7818609E-02  0.8114674E-01
        1   -1    0    0  501    0  0.00000000000E+00  0.00000000000E+00  0.23298657622E+04  0.23298657622E+04  0.50400001928E-02 0. -1.
       -1   -1    0    0    0  501  0.00000000000E+00  0.00000000000E+00 -0.13116535013E+04  0.13116535013E+04  0.50400001928E-02 0.  1.
    10030    2    1    2    0    0  0.00000000000E+00  0.00000000000E+00  0.10182122609E+04  0.36415192635E+04  0.34962703469E+04 0.  0.
        1    1    3    3  502    0 -0.13385069067E+03 -0.33049568178E+03 -0.12733749257E+04  0.13223566480E+04  0.50400001928E-02 0.  1.
       -1    1    3    3    0  502  0.13385069067E+03  0.33049568178E+03  0.22915871867E+04  0.23191626155E+04  0.50400001928E-02 0. -1.
</event>
<event>
 5   0  0.2023479E-06  0.3564064E+04  0.7818609E-02  0.8098773E-01
        2   -1    0    0  501    0  0.00000000000E+00  0.00000000000E+00  0.21945052177E+04  0.21945052177E+04  0.25500000920E-02 0.  1.
       -2   -1    0    0    0  501  0.00000000000E+00  0.00000000000E+00 -0.14470862243E+04  0.14470862243E+04  0.25500000920E-02 0. -1.
    10030    2    1    2    0    0  0.00000000000E+00  0.00000000000E+00  0.74741899345E+03  0.36415914420E+04  0.35640641239E+04 0.  0.
        5    1    3    3  502    0 -0.70131194988E+03  0.89722927448E+03 -0.10267838752E+04  0.15333512443E+04  0.46999998093E+01 0. -1.
       -5    1    3    3    0  502  0.70131194988E+03 -0.89722927448E+03  0.17742028687E+04  0.21082401977E+04  0.46999998093E+01 0.  1.
</event>
<event>
 5   0  0.2023479E-06  0.3481383E+04  0.7818609E-02  0.8118216E-01
       -2   -1    0    0    0  501  0.00000000000E+00  0.00000000000E+00  0.12364912855E+04  0.12364912855E+04  0.25500000920E-02 0. -1.
        2   -1    0    0  501    0  0.00000000000E+00  0.00000000000E+00 -0.24504880254E+04  0.24504880254E+04  0.25500000920E-02 0.  1.
    10030    2    1    2    0    0  0.00000000000E+00  0.00000000000E+00 -0.12139967399E+04  0.36869793109E+04  0.34813831094E+04 0.  0.
        5    1    3    3  502    0 -0.46469641955E+03  0.13499628200E+04  0.44762277573E+03  0.14962388236E+04  0.46999998093E+01 0. -1.
       -5    1    3    3    0  502  0.46469641955E+03 -0.13499628200E+04 -0.16616195157E+04  0.21907404873E+04  0.46999998093E+01 0.  1.
</event>
<event>
 5   0  0.2020725E-06  0.3235975E+04  0.7818609E-02  0.8179380E-01
       -2   -1    0    0    0  501  0.00000000000E+00  0.00000000000E+00  0.10133616320E+04  0.10133616320E+04  0.25500000920E-02 0.  1.
        2   -1    0    0  501    0  0.00000000000E+00  0.00000000000E+00 -0.25833650170E+04  0.25833650170E+04  0.25500000920E-02 0. -1.
    10030    2    1    2    0    0  0.00000000000E+00  0.00000000000E+00 -0.15700033850E+04  0.35967266490E+04  0.32359746536E+04 0.  0.
        3    1    3    3  502    0  0.10142183235E+04 -0.12290841011E+04 -0.10966062282E+04  0.19343814942E+04  0.10100000352E+00 0. -1.
       -3    1    3    3    0  502 -0.10142183235E+04  0.12290841011E+04 -0.47339715682E+03  0.16623451548E+04  0.10100000352E+00 0.  1.
</event>
<event>
 5   0  0.7378896E-07  0.3504412E+04  0.7818609E-02  0.8112745E-01
        1   -1    0    0  501    0  0.00000000000E+00  0.00000000000E+00  0.16223066827E+04  0.16223066827E+04  0.50400001928E-02 0.  1.
       -1   -1    0    0    0  501  0.00000000000E+00  0.00000000000E+00 -0.18925062644E+04  0.18925062644E+04  0.50400001928E-02 0. -1.
    10030    2    1    2    0    0  0.00000000000E+00  0.00000000000E+00 -0.27019958171E+03  0.35148129471E+04  0.35044118250E+04 0.  0.
        2    1    3    3  502    0 -0.10297801185E+04 -0.58015291637E+03 -0.14324617097E+04  0.18571405570E+04  0.25500000920E-02 0. -1.
       -2    1    3    3    0  502  0.10297801185E+04  0.58015291637E+03  0.11622621280E+04  0.16576723901E+04  0.25500000920E-02 0.  1.
</event>
<event>
 5   0  0.6630125E-07  0.3173264E+04  0.7818609E-02  0.8195914E-01
        1   -1    0    0  501    0  0.00000000000E+00  0.00000000000E+00  0.17856346722E+04  0.17856346722E+04  0.50400001928E-02 0.  1.
       -1   -1    0    0    0  501  0.00000000000E+00  0.00000000000E+00 -0.14098076482E+04  0.14098076482E+04  0.50400001928E-02 0. -1.
    10030    2    1    2    0    0  0.00000000000E+00  0.00000000000E+00  0.37582702407E+03  0.31954423204E+04  0.31732641981E+04 0.  0.
        5    1    3    3  502    0 -0.23959101992E+03  0.13892421124E+04 -0.54517301600E+03  0.15115003180E+04  0.46999998093E+01 0. -1.
       -5    1    3    3    0  502  0.23959101992E+03 -0.13892421124E+04  0.92100004007E+03  0.16839420025E+04  0.46999998093E+01 0.  1.
</event>
<event>
 5   0  0.2001768E-06  0.2898146E+04  0.7818609E-02  0.8273429E-01
        2   -1    0    0  501    0  0.00000000000E+00  0.00000000000E+00  0.15899468293E+04  0.15899468293E+04  0.25500000920E-02 0.  1.
       -2   -1    0    0    0  501  0.00000000000E+00  0.00000000000E+00 -0.13206813358E+04  0.13206813358E+04  0.25500000920E-02 0. -1.
    10030    2    1    2    0    0  0.00000000000E+00  0.00000000000E+00  0.26926549354E+03  0.29106281651E+04  0.28981463748E+04 0.  0.
        2    1    3    3  502    0 -0.51138214042E+03  0.13542854328E+04  0.69450407771E+02  0.14492839909E+04  0.25500000920E-02 0. -1.
       -2    1    3    3    0  502  0.51138214042E+03 -0.13542854328E+04  0.19981508577E+03  0.14613441742E+04  0.25500000920E-02 0.  1.
</event>
<event>
 5   0  0.2073287E-06  0.3384864E+04  0.7818609E-02  0.8141631E-01
       -2   -1    0    0    0  501  0.00000000000E+00  0.00000000000E+00  0.18769645936E+04  0.18769645937E+04  0.25500000920E-02 0.  1.
        2   -1    0    0  501    0  0.00000000000E+00  0.00000000000E+00 -0.15260420437E+04  0.15260420437E+04  0.25500000920E-02 0. -1.
    10030    2    1    2    0    0  0.00000000000E+00  0.00000000000E+00  0.35092254996E+03  0.34030066373E+04  0.33848644785E+04 0.  0.
        1    1    3    3  502    0 -0.86411840998E+03 -0.14724652938E+03  0.16309586369E+04  0.18515961337E+04  0.50400001928E-02 0.  1.
       -1    1    3    3    0  502  0.86411840998E+03  0.14724652938E+03 -0.12800360870E+04  0.15514105037E+04  0.50400001928E-02 0. -1.
</event>
<event>
 5   0  0.7378896E-07  0.3463214E+04  0.7818609E-02  0.8122564E-01
       -1   -1    0    0    0  501  0.00000000000E+00  0.00000000000E+00  0.17450499497E+04  0.17450499497E+04  0.50400001928E-02 0. -1.
        1   -1    0    0  501    0  0.00000000000E+00  0.00000000000E+00 -0.17182674751E+04  0.17182674751E+04  0.50400001928E-02 0.  1.
    10030    2    1    2    0    0  0.00000000000E+00  0.00000000000E+00  0.26782474538E+02  0.34633174248E+04  0.34632138663E+04 0.  0.
        2    1    3    3  502    0 -0.11084155278E+03  0.16700352217E+04 -0.43064802962E+03  0.17282248746E+04  0.25500000920E-02 0.  1.
       -2    1    3    3    0  502  0.11084155278E+03 -0.16700352217E+04  0.45743050416E+03  0.17350925502E+04  0.25500000920E-02 0. -1.
</event>
<event>
 5   0  0.6890600E-07  0.3534239E+04  0.7818609E-02  0.8105723E-01
       -1   -1    0    0    0  501  0.00000000000E+00  0.00000000000E+00  0.28149721092E+04  0.28149721092E+04  0.50400001928E-02 0.  1.
        1   -1    0    0  501    0  0.00000000000E+00  0.00000000000E+00 -0.11093220584E+04  0.11093220584E+04  0.50400001928E-02 0. -1.
    10030    2    1    2    0    0  0.00000000000E+00  0.00000000000E+00  0.17056500508E+04  0.39242941676E+04  0.35342386194E+04 0.  0.
        3    1    3    3  502    0 -0.13475643885E+02 -0.25089087436E+03 -0.10893876924E+04  0.11179863051E+04  0.10100000352E+00 0. -1.
       -3    1    3    3    0  502  0.13475643885E+02  0.25089087436E+03  0.27950377431E+04  0.28063078626E+04  0.10100000352E+00 0.  1.
</event>
<event>
 5   0  0.2001768E-06  0.3545223E+04  0.7818609E-02  0.8103156E-01
       -2   -1    0    0    0  501  0.00000000000E+00  0.00000000000E+00  0.12861595508E+04  0.12861595508E+04  0.25500000920E-02 0.  1.
        2   -1    0    0  501    0  0.00000000000E+00  0.00000000000E+00 -0.24430494843E+04  0.24430494843E+04  0.25500000920E-02 0. -1.
    10030    2    1    2    0    0  0.00000000000E+00  0.00000000000E+00 -0.11568899335E+04  0.37292090351E+04  0.35452229421E+04 0.  0.
        2    1    3    3  502    0  0.97116405352E+03  0.90890541959E+03 -0.18109534021E+04  0.22469581449E+04  0.25500000920E-02 0. -1.
       -2    1    3    3    0  502 -0.97116405352E+03 -0.90890541959E+03  0.65406346854E+03  0.14822508902E+04  0.25500000920E-02 0.  1.
</event>
<event>
 5   0  0.6630125E-07  0.2280743E+04  0.7818609E-02  0.8485553E-01
        1   -1    0    0  501    0  0.00000000000E+00  0.00000000000E+00  0.80648647305E+03  0.80648647307E+03  0.50400001928E-02 0.  1.
       -1   -1    0    0    0  501  0.00000000000E+00  0.00000000000E+00 -0.16124853424E+04  0.16124853424E+04  0.50400001928E-02 0. -1.
    10030    2    1    2    0    0  0.00000000000E+00  0.00000000000E+00 -0.80599886935E+03  0.24189718155E+04  0.22807434022E+04 0.  0.
        1    1    3    3  502    0  0.45123660107E+03  0.78878977652E+03 -0.11336980817E+04  0.14529539298E+04  0.50400001928E-02 0. -1.
       -1    1    3    3    0  502 -0.45123660107E+03 -0.78878977652E+03  0.32769921233E+03  0.96601788569E+03  0.50400001928E-02 0.  1.
</event>
<event>
 5   0  0.6630125E-07  0.3220846E+04  0.7818609E-02  0.8183333E-01
        1   -1    0    0  501    0  0.00000000000E+00  0.00000000000E+00  0.19859955058E+04  0.19859955058E+04  0.50400001928E-02 0. -1.
       -1   -1    0    0    0  501  0.00000000000E+00  0.00000000000E+00 -0.13058754078E+04  0.13058754078E+04  0.50400001928E-02 0.  1.
    10030    2    1    2    0    0  0.00000000000E+00  0.00000000000E+00  0.68012009804E+03  0.32918709137E+04  0.32208462808E+04 0.  0.
        1    1    3    3  502    0 -0.90504155342E+03 -0.14081954466E+03  0.16938568596E+04  0.19256379250E+04  0.50400001928E-02 0. -1.
       -1    1    3    3    0  502  0.90504155342E+03  0.14081954466E+03 -0.10137367615E+04  0.13662329886E+04  0.50400001928E-02 0.  1.
</event>
<event>
 5   0  0.7378896E-07  0.3507723E+04  0.7818609E-02  0.8111962E-01
       -1   -1    0    0    0  501  0.00000000000E+00  0.00000000000E+00  0.14242975245E+04  0.14242975245E+04  0.50400001928E-02 0. -1.
        1   -1    0    0  501    0  0.00000000000E+00  0.00000000000E+00 -0.21596823988E+04  0.21596823988E+04  0.50400001928E-02 0.  1.
    10030    2    1    2    0    0  0.00000000000E+00  0.00000000000E+00 -0.73538487437E+03  0.35839799233E+04  0.35077230759E+04 0.  0.
        2    1    3    3  502    0 -0.11693789557E+04  0.12737133303E+04 -0.66773879437E+03  0.18535554719E+04  0.25500000920E-02 0.  1.
       -2    1    3    3    0  502  0.11693789557E+04 -0.12737133303E+04 -0.67646079994E+02  0.17304244514E+04  0.25500000920E-02 0. -1.
</event>
<event>
 5   0  0.1999883E-06  0.3520801E+04  0.7818609E-02  0.8108878E-01
        2   -1    0    0  501    0  0.00000000000E+00  0.00000000000E+00  0.11237498822E+04  0.11237498822E+04  0.25500000920E-02 0. -1.
       -2   -1    0    0    0  501  0.00000000000E+00  0.00000000000E+00 -0.27577399052E+04  0.27577399052E+04  0.25500000920E-02 0.  1.
    10030    2    1    2    0    0  0.00000000000E+00  0.00000000000E+00 -0.16339900230E+04  0.38814897874E+04  0.35208009848E+04 0.  0.
        4    1    3    3  502    0  0.42454876938E+03 -0.38836831054E+03 -0.26511458391E+04  0.27128670213E+04  0.12699999809E+01 0.  1.
       -4    1    3    3    0  502 -0.42454876938E+03  0.38836831054E+03  0.10171558162E+04  0.11686227661E+04  0.12699999809E+01 0. -1.
</event>
<event>
 5   0  0.2023479E-06  0.3493339E+04  0.7818609E-02  0.8115370E-01
       -2   -1    0    0    0  501  0.00000000000E+00  0.00000000000E+00  0.25032664049E+04  0.25032664049E+04  0.25500000920E-02 0. -1.
        2   -1    0    0  501    0  0.00000000000E+00  0.00000000000E+00 -0.12187496449E+04  0.12187496449E+04  0.25500000920E-02 0.  1.
    10030    2    1    2    0    0  0.00000000000E+00  0.00000000000E+00  0.12845167600E+04  0.37220160498E+04  0.34933394007E+04 0.  0.
        5    1    3    3  502    0 -0.16824906069E+04 -0.94783865966E+02  0.11317611654E+04  0.20299418832E+04  0.46999998093E+01 0. -1.
       -5    1    3    3    0  502  0.16824906069E+04  0.94783865966E+02  0.15275559459E+03  0.16920741666E+04  0.46999998093E+01 0.  1.
</event>
<event>
 5   0  0.1999883E-06  0.3524022E+04  0.7818609E-02  0.8108121E-01
       -2   -1    0    0    0  501  0.00000000000E+00  0.00000000000E+00  0.14128015337E+04  0.14128015337E+04  0.25500000920E-02 0.  1.
        2   -1    0    0  501    0  0.00000000000E+00  0.00000000000E+00 -0.21975363383E+04  0.21975363383E+04  0.25500000920E-02 0. -1.
    10030    2    1    2    0    0  0.00000000000E+00  0.00000000000E+00 -0.78473480456E+03  0.36103378720E+04  0.35240219688E+04 0.  0.
        4    1    3    3  502    0 -0.13243493557E+04  0.25561658131E+02  0.79804232729E+03  0.15464241926E+04  0.12699999809E+01 0.  1.
       -4    1    3    3    0  502  0.13243493557E+04 -0.25561658131E+02 -0.15827771318E+04  0.20639136795E+04  0.12699999809E+01 0. -1.
</event>
<event>
 5   0  0.2073287E-06  0.3099614E+04  0.7818609E-02  0.8215844E-01
        2   -1    0    0  501    0  0.00000000000E+00  0.00000000000E+00  0.19814389470E+04  0.19814389470E+04  0.25500000920E-02 0. -1.
       -2   -1    0    0    0  501  0.00000000000E+00  0.00000000000E+00 -0.12122009192E+04  0.12122009192E+04  0.25500000920E-02 0.  1.
    10030    2    1    2    0    0  0.00000000000E+00  0.00000000000E+00  0.76923802781E+03  0.31936398662E+04  0.30996142423E+04 0.  0.
        1    1    3    3  502    0 -0.15359831183E+04  0.20394774400E+03  0.41821630984E+03  0.16049123664E+04  0.50400001928E-02 0.  1.
       -1    1    3    3    0  502  0.15359831183E+04 -0.20394774400E+03  0.35102171796E+03  0.15887274998E+04  0.50400001928E-02 0. -1.
</event>
<event>
 5   0  0.2023479E-06  0.3396929E+04  0.7818609E-02  0.8138661E-01
        2   -1    0    0  501    0  0.00000000000E+00  0.00000000000E+00  0.27016591338E+04  0.27016591338E+04  0.25500000920E-02 0. -1.
       -2   -1    0    0    0  501  0.00000000000E+00  0.00000000000E+00 -0.10677813122E+04  0.10677813122E+04  0.25500000920E-02 0.  1.
    10030    2    1    2    0    0  0.00000000000E+00  0.00000000000E+00  0.16338778216E+04  0.37694404460E+04  0.33969286923E+04 0.  0.
        5    1    3    3  502    0  0.26967896922E+03  0.15544086109E+04  0.15150968467E+04  0.21873393475E+04  0.46999998093E+01 0.  1.
       -5    1    3    3    0  502 -0.26967896922E+03 -0.15544086109E+04  0.11878097493E+03  0.15821010986E+04  0.46999998093E+01 0. -1.
</event>
<event>
 5   0  0.2020725E-06  0.3528858E+04  0.7818609E-02  0.8106985E-01
       -2   -1    0    0    0  501  0.00000000000E+00  0.00000000000E+00  0.15489379624E+04  0.15489379624E+04  0.25500000920E-02 0.  1.
        2   -1    0    0  501    0  0.00000000000E+00  0.00000000000E+00 -0.20098997762E+04  0.20098997762E+04  0.25500000920E-02 0. -1.
    10030    2    1    2    0    0  0.00000000000E+00  0.00000000000E+00 -0.46096181385E+03  0.35588377386E+04  0.35288582086E+04 0.  0.
        3    1    3    3  502    0  0.17622950124E+02  0.15794047801E+04 -0.10235329812E+04  0.18821396870E+04  0.10100000352E+00 0.  1.
       -3    1    3    3    0  502 -0.17622950124E+02 -0.15794047801E+04  0.56257116739E+03  0.16766980516E+04  0.10100000352E+00 0. -1.
</event>
<event>
 5   0  0.1999883E-06  0.3495281E+04  0.7818609E-02  0.8114909E-01
        2   -1    0    0  501    0  0.00000000000E+00  0.00000000000E+00  0.15403673884E+04  0.15403673884E+04  0.25500000920E-02 0.  1.
       -2   -1    0    0    0  501  0.00000000000E+00  0.00000000000E+00 -0.19828049448E+04  0.19828049448E+04  0.25500000920E-02 0. -1.
    10030    2    1    2    0    0  0.00000000000E+00  0.00000000000E+00 -0.44243755639E+03  0.35231723332E+04  0.34952814333E+04 0.  0.
        4    1    3    3  502    0  0.29849651442E+03 -0.93411915502E+03 -0.16793328298E+04  0.19446951255E+04  0.12699999809E+01 0. -1.
       -4    1    3    3    0  502 -0.29849651442E+03  0.93411915502E+03  0.12368952734E+04  0.15784772077E+04  0.12699999809E+01 0.  1.
</event>
<event>
 5   0  0.6890600E-07  0.3221060E+04  0.7818609E-02  0.8183277E-01
        1   -1    0    0  501    0  0.00000000000E+00  0.00000000000E+00  0.18117498581E+04  0.18117498581E+04  0.50400001928E-02 0. -1.
       -1   -1    0    0    0  501  0.00000000000E+00  0.00000000000E+00 -0.14316588245E+04  0.14316588245E+04  0.50400001928E-02 0.  1.
    10030    2    1    2    0    0  0.00000000000E+00  0.00000000000E+00  0.38009103358E+03  0.32434086826E+04  0.32210604913E+04 0.  0.
        3    1    3    3  502    0 -0.10022840630E+04 -0.35387633169E+03 -0.10283104702E+04  0.14789267170E+04  0.10100000352E+00 0.  1.
       -3    1    3    3    0  502  0.10022840630E+04  0.35387633169E+03  0.14084015037E+04  0.17644819656E+04  0.10100000352E+00 0. -1.
</event>
<event>
 5   0  0.7378896E-07  0.3475045E+04  0.7818609E-02  0.8119729E-01
        1   -1    0    0  501    0  0.00000000000E+00  0.00000000000E+00  0.14829761120E+04  0.14829761120E+04  0.50400001928E-02 0. -1.
       -1   -1    0    0    0  501  0.00000000000E+00  0.00000000000E+00 -0.20357610372E+04  0.20357610372E+04  0.50400001928E-02 0.  1.
    10030    2    1    2    0    0  0.00000000000E+00  0.00000000000E+00 -0.55278492527E+03  0.35187371492E+04  0.34750453165E+04 0.  0.
        2    1    3    3  502    0 -0.15988217323E+03 -0.13059586587E+04 -0.14255154832E+04  0.19398929662E+04  0.25500000920E-02 0.  1.
       -2    1    3    3    0  502  0.15988217323E+03  0.13059586587E+04  0.87273055793E+03  0.15788441830E+04  0.25500000920E-02 0. -1.
</event>
<event>
 5   0  0.6630125E-07  0.3589757E+04  0.7818609E-02  0.8092842E-01
        1   -1    0    0  501    0  0.00000000000E+00  0.00000000000E+00  0.12178430230E+04  0.12178430230E+04  0.50400001928E-02 0. -1.
       -1   -1    0    0    0  501  0.00000000000E+00  0.00000000000E+00 -0.26453238722E+04  0.26453238722E+04  0.50400001928E-02 0.  1.
    10030    2    1    2    0    0  0.00000000000E+00  0.00000000000E+00 -0.14274808492E+04  0.38631668952E+04  0.35897572181E+04 0.  0.
        5    1    3    3  502    0  0.14495271865E+04  0.10403006500E+04 -0.50337138412E+03  0.18538498718E+04  0.46999998093E+01 0. -1.
       -5    1    3    3    0  502 -0.14495271865E+04 -0.10403006500E+04 -0.92410946508E+03  0.20093170234E+04  0.46999998093E+01 0.  1.
</event>
<event>
 5   0  0.1999883E-06  0.2637106E+04  0.7818609E-02  0.8355705E-01
       -2   -1    0    0    0  501  0.00000000000E+00  0.00000000000E+00  0.77837914913E+03  0.77837914913E+03  0.25500000920E-02 0.  1.
        2   -1    0    0  501    0  0.00000000000E+00  0.00000000000E+00 -0.22335924527E+04  0.22335924527E+04  0.25500000920E-02 0. -1.
    10030    2    1    2    0    0  0.00000000000E+00  0.00000000000E+00 -0.14552133036E+04  0.30119716019E+04  0.26371058324E+04 0.  0.
        4    1    3    3  502    0  0.21279631250E+02 -0.70677540580E+03  0.54351796563E+03  0.89185070993E+03  0.12699999809E+01 0.  1.
       -4    1    3    3    0  502 -0.21279631250E+02  0.70677540580E+03 -0.19987312692E+04  0.21201208919E+04  0.12699999809E+01 0. -1.
</event>
<event>
 5   0  0.6630125E-07  0.3436051E+04  0.7818609E-02  0.8129114E-01
       -1   -1    0    0    0  501  0.00000000000E+00  0.00000000000E+00  0.24891657770E+04  0.24891657770E+04  0.50400001928E-02 0. -1.
        1   -1    0    0  501    0  0.00000000000E+00  0.00000000000E+00 -0.11857836670E+04  0.11857836670E+04  0.50400001928E-02 0.  1.
    10030    2    1    2    0    0  0.00000000000E+00  0.00000000000E+00  0.13033821100E+04  0.36749494440E+04  0.34360512935E+04 0.  0.
        1    1    3    3  502    0  0.11004729802E+04  0.46940316980E+03 -0.66701094993E+03  0.13697750631E+04  0.50400001928E-02 0.  1.
       -1    1    3    3    0  502 -0.11004729802E+04 -0.46940316980E+03  0.19703930599E+04  0.23051743810E+04  0.50400001928E-02 0. -1.
</event>
<event>
 5   0  0.6630125E-07  0.3486926E+04  0.7818609E-02  0.8116895E-01
        1   -1    0    0  501    0  0.00000000000E+00  0.00000000000E+00  0.19073480481E+04  0.19073480481E+04  0.50400001928E-02 0.  1.
       -1   -1    0    0    0  501  0.00000000000E+00  0.00000000000E+00 -0.15936594952E+04  0.15936594953E+04  0.50400001928E-02 0. -1.
    10030    2    1    2    0    0  0.00000000000E+00  0.00000000000E+00  0.31368855282E+03  0.35010075433E+04  0.34869260546E+04 0.  0.
        5    1    3    3  502    0 -0.11628384775E+04 -0.31803342740E+03  0.14214156141E+04  0.18638087411E+04  0.46999998093E+01 0.  1.
       -5    1    3    3    0  502  0.11628384775E+04  0.31803342740E+03 -0.11077270612E+04  0.16371988022E+04  0.46999998093E+01 0. -1.
</event>
<event>
 5   0  0.6630125E-07  0.2492933E+04  0.7818609E-02  0.8405508E-01
        1   -1    0    0  501    0  0.00000000000E+00  0.00000000000E+00  0.72763226946E+03  0.72763226948E+03  0.50400001928E-02 0.  1.
       -1   -1    0    0    0  501  0.00000000000E+00  0.00000000000E+00 -0.21352518066E+04  0.21352518066E+04  0.50400001928E-02 0. -1.
    10030    2    1    2    0    0  0.00000000000E+00  0.00000000000E+00 -0.14076195371E+04  0.28628840761E+04  0.24929325044E+04 0.  0.
        1    1    3    3  502    0 -0.12079662567E+04 -0.28333191127E+03 -0.56687216913E+03  0.13641127173E+04  0.50400001928E-02 0.  1.
       -1    1    3    3    0  502  0.12079662567E+04  0.28333191127E+03 -0.84074736798E+03  0.14987713588E+04  0.50400001928E-02 0. -1.
</event>
<event>
 5   0  0.7378896E-07  0.3510364E+04  0.7818609E-02  0.8111338E-01
       -1   -1    0    0    0  501  0.00000000000E+00  0.00000000000E+00  0.18058674989E+04  0.18058674990E+04  0.50400001928E-02 0.  1.
        1   -1    0    0  501    0  0.00000000000E+00  0.00000000000E+00 -0.17059192413E+04  0.17059192414E+04  0.50400001928E-02 0. -1.
    10030    2    1    2    0    0  0.00000000000E+00  0.00000000000E+00  0.99948257602E+02  0.35117867403E+04  0.35103641485E+04 0.  0.
        2    1    3    3  502    0  0.82835796227E+03 -0.14811040453E+04  0.49828295649E+03  0.17686525977E+04  0.25500000920E-02 0. -1.
       -2    1    3    3    0  502 -0.82835796227E+03  0.14811040453E+04 -0.39833469889E+03  0.17431341426E+04  0.25500000920E-02 0.  1.
</event>
<event>
 5   0  0.2023479E-06  0.2309012E+04  0.7818609E-02  0.8474376E-01
       -2   -1    0    0    0  501  0.00000000000E+00  0.00000000000E+00  0.11453856432E+04  0.11453856432E+04  0.25500000920E-02 0.  1.
        2   -1    0    0  501    0  0.00000000000E+00  0.00000000000E+00 -0.11636994047E+04  0.11636994047E+04  0.25500000920E-02 0. -1.
    10030    2    1    2    0    0  0.00000000000E+00  0.00000000000E+00 -0.18313761497E+02  0.23090850480E+04  0.23090124220E+04 0.  0.
        5    1    3    3  502    0 -0.31938205745E+03 -0.14787489167E+03  0.10904187982E+04  0.11458215950E+04  0.46999998093E+01 0.  1.
       -5    1    3    3    0  502  0.31938205745E+03  0.14787489167E+03 -0.11087325597E+04  0.11632634530E+04  0.46999998093E+01 0. -1.
</event>
<event>
 5   0  0.1999883E-06  0.3483451E+04  0.7818609E-02  0.8117723E-01
       -2   -1    0    0    0  501  0.00000000000E+00  0.00000000000E+00  0.11305071964E+04  0.11305071964E+04  0.25500000920E-02 0. -1.
        2   -1    0    0  501    0  0.00000000000E+00  0.00000000000E+00 -0.26834046107E+04  0.26834046107E+04  0.25500000920E-02 0.  1.
    10030    2    1    2    0    0  0.00000000000E+00  0.00000000000E+00 -0.15528974143E+04  0.38139118071E+04  0.34834512904E+04 0.  0.
        4    1    3    3  502    0 -0.13462597772E+04 -0.23192374876E+03  0.40651448473E+03  0.14252928304E+04  0.12699999809E+01 0. -1.
       -4    1    3    3    0  502  0.13462597772E+04  0.23192374876E+03 -0.19594118990E+04  0.23886189767E+04  0.12699999809E+01 0.  1.
</event>
<event>
 5   0  0.6890600E-07  0.3547466E+04  0.7818609E-02  0.8102632E-01
       -1   -1    0    0    0  501  0.00000000000E+00  0.00000000000E+00  0.15662087633E+04  0.15662087633E+04  0.50400001928E-02 0.  1.
        1   -1    0    0  501    0  0.00000000000E+00  0.00000000000E+00 -0.20087540170E+04  0.20087540170E+04  0.50400001928E-02 0. -1.
    10030    2    1    2    0    0  0.00000000000E+00  0.00000000000E+00 -0.44254525369E+03  0.35749627802E+04  0.35474656557E+04 0.  0.
        3    1    3    3  502    0 -0.12654297074E+04  0.99543813432E+02 -0.14697892608E+04  0.19420354777E+04  0.10100000352E+00 0. -1.
       -3    1    3    3    0  502  0.12654297074E+04 -0.99543813432E+02  0.10272440071E+04  0.16329273026E+04  0.10100000352E+00 0.  1.
</event>
<event>
 5   0  0.7378896E-07  0.2407941E+04  0.7818609E-02  0.8436537E-01
       -1   -1    0    0    0  501  0.00000000000E+00  0.00000000000E+00  0.14643854929E+04  0.14643854929E+04  0.50400001928E-02 0.  1.
        1   -1    0    0  501    0  0.00000000000E+00  0.00000000000E+00 -0.98986570407E+03  0.98986570408E+03  0.50400001928E-02 0. -1.
    10030    2    1    2    0    0  0.00000000000E+00  0.00000000000E+00  0.47451978882E+03  0.24542511970E+04  0.24079410101E+04 0.  0.
        2    1    3    3  502    0  0.30260476717E+03  0.11312671153E+04 -0.47779205567E+02  0.11720144128E+04  0.25500000920E-02 0. -1.
       -2    1    3    3    0  502 -0.30260476717E+03 -0.11312671153E+04  0.52229899439E+03  0.12822367842E+04  0.25500000920E-02 0.  1.
</event>
<event>
 5   0  0.1999883E-06  0.3184983E+04  0.7818609E-02  0.8192794E-01
        2   -1    0    0  501    0  0.00000000000E+00  0.00000000000E+00  0.17281104993E+04  0.17281104993E+04  0.25500000920E-02 0. -1.
       -2   -1    0    0    0  501  0.00000000000E+00  0.00000000000E+00 -0.14675159795E+04  0.14675159795E+04  0.25500000920E-02 0.  1.
    10030    2    1    2    0    0  0.00000000000E+00  0.00000000000E+00  0.26059451975E+03  0.31956264788E+04  0.31849833733E+04 0.  0.
        4    1    3    3  502    0 -0.78965930568E+02  0.15468687340E+04  0.50165521910E+03  0.16280964561E+04  0.12699999809E+01 0. -1.
       -4    1    3    3    0  502  0.78965930568E+02 -0.15468687340E+04 -0.24106069935E+03  0.15675300227E+04  0.12699999809E+01 0.  1.
</event>
<event>
 5   0  0.6630125E-07  0.3422353E+04  0.7818609E-02  0.8132442E-01
       -1   -1    0    0    0  501  0.00000000000E+00  0.00000000000E+00  0.12401526755E+04  0.12401526755E+04  0.50400001928E-02 0.  1.
        1   -1    0    0  501    0  0.00000000000E+00  0.00000000000E+00 -0.23611010326E+04  0.23611010326E+04  0.50400001928E-02 0. -1.
    10030    2    1    2    0    0  0.00000000000E+00  0.00000000000E+00 -0.11209483571E+04  0.36012537081E+04  0.34223534374E+04 0.  0.
        1    1    3    3  502    0  0.81173121818E+03  0.48892457197E+03 -0.20597970467E+04  0.22673153026E+04  0.50400001928E-02 0. -1.
       -1    1    3    3    0  502 -0.81173121818E+03 -0.48892457197E+03  0.93884868960E+03  0.13339384055E+04  0.50400001928E-02 0.  1.
</event>
<event>
 5   0  0.1999883E-06  0.2682876E+04  0.7818609E-02  0.8340583E-01
        2   -1    0    0  501    0  0.00000000000E+00  0.00000000000E+00  0.17526193479E+04  0.17526193479E+04  0.25500000920E-02 0. -1.
       -2   -1    0    0    0  501  0.00000000000E+00  0.00000000000E+00 -0.10267234578E+04  0.10267234578E+04  0.25500000920E-02 0.  1.
    10030    2    1    2    0    0  0.00000000000E+00  0.00000000000E+00  0.72589589012E+03  0.27793428056E+04  0.26828756192E+04 0.  0.
        4    1    3    3  502    0 -0.11272713369E+04 -0.71018722006E+03  0.20130142778E+03  0.13474533136E+04  0.12699999809E+01 0.  1.
       -4    1    3    3    0  502  0.11272713369E+04  0.71018722006E+03  0.52459446234E+03  0.14318894920E+04  0.12699999809E+01 0. -1.
</event>
<event>
 5   0  0.6630125E-07  0.3514930E+04  0.7818609E-02  0.8110261E-01
        1   -1    0    0  501    0  0.00000000000E+00  0.00000000000E+00  0.19868127666E+04  0.19868127666E+04  0.50400001928E-02 0.  1.
       -1   -1    0    0    0  501  0.00000000000E+00  0.00000000000E+00 -0.15545919631E+04  0.15545919631E+04  0.50400001928E-02 0. -1.
    10030    2    1    2    0    0  0.00000000000E+00  0.00000000000E+00  0.43222080350E+03  0.35414047298E+04  0.35149299619E+04 0.  0.
        1    1    3    3  502    0  0.97957125097E+02  0.11585951141E+04  0.15438927971E+04  0.19327553404E+04  0.50400001928E-02 0.  1.
       -1    1    3    3    0  502 -0.97957125097E+02 -0.11585951141E+04 -0.11116719936E+04  0.16086493894E+04  0.50400001928E-02 0. -1.
</event>
<event>
 5   0  0.6630125E-07  0.2712830E+04  0.7818609E-02  0.8330854E-01
        1   -1    0    0  501    0  0.00000000000E+00  0.00000000000E+00  0.20058395911E+04  0.20058395911E+04  0.50400001928E-02 0. -1.
       -1   -1    0    0    0  501  0.00000000000E+00  0.00000000000E+00 -0.91725293699E+03  0.91725293700E+03  0.50400001928E-02 0.  1.
    10030    2    1    2    0    0  0.00000000000E+00  0.00000000000E+00  0.10885866541E+04  0.29230925281E+04  0.27128304452E+04 0.  0.
        1    1    3    3  502    0  0.10256803277E+04 -0.86296937516E+03  0.32052975016E+03  0.13782146414E+04  0.50400001928E-02 0. -1.
       -1    1    3    3    0  502 -0.10256803277E+04  0.86296937516E+03  0.76805690398E+03  0.15448778867E+04  0.50400001928E-02 0.  1.
</event>
<event>
 5   0  0.2020725E-06  0.3444533E+04  0.7818609E-02  0.8127062E-01
       -2   -1    0    0    0  501  0.00000000000E+00  0.00000000000E+00  0.16039993813E+04  0.16039993813E+04  0.25500000920E-02 0. -1.
        2   -1    0    0  501    0  0.00000000000E+00  0.00000000000E+00 -0.18492540071E+04  0.18492540071E+04  0.25500000920E-02 0.  1.
    10030    2    1    2    0    0  0.00000000000E+00  0.00000000000E+00 -0.24525462584E+03  0.34532533884E+04  0.34445332242E+04 0.  0.
        3    1    3    3  502    0  0.16042994547E+04  0.59939303881E+03  0.59914717233E+02  0.17136623176E+04  0.10100000352E+00 0.  1.
       -3    1    3    3    0  502 -0.16042994547E+04 -0.59939303881E+03 -0.30516934307E+03  0.17395910707E+04  0.10100000352E+00 0. -1.
</event>
<event>
 5   0  0.6630125E-07  0.2655940E+04  0.7818609E-02  0.8349444E-01
        1   -1    0    0  501    0  0.00000000000E+00  0.00000000000E+00  0.16129801603E+04  0.16129801603E+04  0.50400001928E-02 0. -1.
       -1   -1    0    0    0  501  0.00000000000E+00  0.00000000000E+00 -0.10933206823E+04  0.10933206823E+04  0.50400001928E-02 0.  1.
    10030    2    1    2    0    0  0.00000000000E+00  0.00000000000E+00  0.51965947804E+03  0.27063008426E+04  0.26559401871E+04 0.  0.
        5    1    3    3  502    0  0.68323254301E+03 -0.10692047392E+04 -0.13936005494E+03  0.12764986475E+04  0.46999998093E+01 0.  1.
       -5    1    3    3    0  502 -0.68323254301E+03  0.10692047392E+04  0.65901953298E+03  0.14298021951E+04  0.46999998093E+01 0. -1.
</event>
<event>
 5   0  0.2020725E-06  0.3542009E+04  0.7818609E-02  0.8103906E-01
        2   -1    0    0  501    0  0.00000000000E+00  0.00000000000E+00  0.20681732102E+04  0.20681732102E+04  0.25500000920E-02 0.  1.
       -2   -1    0    0    0  501  0.00000000000E+00  0.00000000000E+00 -0.15165345579E+04  0.15165345579E+04  0.25500000920E-02 0. -1.
    10030    2    1    2    0    0  0.00000000000E+00  0.00000000000E+00  0.55163865231E+03  0.35847077681E+04  0.35420085516E+04 0.  0.
        3    1    3    3  502    0 -0.32160022245E+02 -0.87299487667E+03 -0.12833046030E+04  0.15524255332E+04  0.10100000352E+00 0. -1.
       -3    1    3    3    0  502  0.32160022245E+02  0.87299487667E+03  0.18349432553E+04  0.20322822349E+04  0.10100000352E+00 0.  1.
</event>
<event>
 5   0  0.1999883E-06  0.3552997E+04  0.7818609E-02  0.8101344E-01
        2   -1    0    0  501    0  0.00000000000E+00  0.00000000000E+00  0.16259712333E+04  0.16259712333E+04  0.25500000920E-02 0. -1.
       -2   -1    0    0    0  501  0.00000000000E+00  0.00000000000E+00 -0.19409607966E+04  0.19409607966E+04  0.25500000920E-02 0.  1.
    10030    2    1    2    0    0  0.00000000000E+00  0.00000000000E+00 -0.31498956335E+03  0.35669320299E+04  0.35529967184E+04 0.  0.
        4    1    3    3  502    0 -0.10897735719E+04 -0.12284595453E+04 -0.83781445851E+03  0.18435438623E+04  0.12699999809E+01 0.  1.
       -4    1    3    3    0  502  0.10897735719E+04  0.12284595453E+04  0.52282489516E+03  0.17233881676E+04  0.12699999809E+01 0. -1.
</event>
<event>
 5   0  0.2020725E-06  0.2731362E+04  0.7818609E-02  0.8324900E-01
        2   -1    0    0  501    0  0.00000000000E+00  0.00000000000E+00  0.18980995569E+04  0.18980995569E+04  0.25500000920E-02 0.  1.
       -2   -1    0    0    0  501  0.00000000000E+00  0.00000000000E+00 -0.98260651991E+03  0.98260651992E+03  0.25500000920E-02 0. -1.
    10030    2    1    2    0    0  0.00000000000E+00  0.00000000000E+00  0.91549303701E+03  0.28807060768E+04  0.27313622975E+04 0.  0.
        3    1    3    3  502    0  0.73760633068E+02  0.50316431821E+03  0.17945142456E+04  0.18651799779E+04  0.10100000352E+00 0.  1.
       -3    1    3    3    0  502 -0.73760633068E+02 -0.50316431821E+03 -0.87902120863E+03  0.10155260989E+04  0.10100000352E+00 0. -1.
</event>
<event>
 5   0  0.2073287E-06  0.3533992E+04  0.7818609E-02  0.8105781E-01
        2   -1    0    0  501    0  0.00000000000E+00  0.00000000000E+00  0.16342496886E+04  0.16342496886E+04  0.25500000920E-02 0.  1.
       -2   -1    0    0    0  501  0.00000000000E+00  0.00000000000E+00 -0.19105248949E+04  0.19105248949E+04  0.25500000920E-02 0. -1.
    10030    2    1    2    0    0  0.00000000000E+00  0.00000000000E+00 -0.27627520631E+03  0.35447745834E+04  0.35339919154E+04 0.  0.
        1    1    3    3  502    0 -0.17470368764E+04  0.41421598731E+02  0.12423480118E+03  0.17519383214E+04  0.50400001928E-02 0.  1.
       -1    1    3    3    0  502  0.17470368764E+04 -0.41421598731E+02 -0.40051000749E+03  0.17928362620E+04  0.50400001928E-02 0. -1.
</event>
<event>
 5   0  0.7378896E-07  0.3503890E+04  0.7818609E-02  0.8112869E-01
       -1   -1    0    0    0  501  0.00000000000E+00  0.00000000000E+00  0.30016610028E+04  0.30016610028E+04  0.50400001928E-02 0. -1.
        1   -1    0    0  501    0  0.00000000000E+00  0.00000000000E+00 -0.10225374119E+04  0.10225374119E+04  0.50400001928E-02 0.  1.
    10030    2    1    2    0    0  0.00000000000E+00  0.00000000000E+00  0.19791235909E+04  0.40241984148E+04  0.35038896520E+04 0.  0.
        2    1    3    3  502    0 -0.13599099190E+04 -0.10699537319E+04  0.67470937965E+03  0.18572530046E+04  0.25500000920E-02 0.  1.
       -2    1    3    3    0  502  0.13599099190E+04  0.10699537319E+04  0.13044142112E+04  0.21669454102E+04  0.25500000920E-02 0. -1.
</event>
<event>
 5   0  0.6630125E-07  0.3312041E+04  0.7818609E-02  0.8159838E-01
       -1   -1    0    0    0  501  0.00000000000E+00  0.00000000000E+00  0.15305074953E+04  0.15305074953E+04  0.50400001928E-02 0. -1.
        1   -1    0    0  501    0  0.00000000000E+00  0.00000000000E+00 -0.17918261710E+04  0.17918261711E+04  0.50400001928E-02 0.  1.
    10030    2    1    2    0    0  0.00000000000E+00  0.00000000000E+00 -0.26131867577E+03  0.33223336663E+04  0.33120406912E+04 0.  0.
        4    1    3    3  502    0 -0.40219423370E+03 -0.11865676028E+04  0.95561830472E+03  0.15757254948E+04  0.12699999809E+01 0. -1.
       -4    1    3    3    0  502  0.40219423370E+03  0.11865676028E+04 -0.12169369805E+04  0.17466081716E+04  0.12699999809E+01 0.  1.
</event>
<event>
 5   0  0.2023479E-06  0.3054690E+04  0.7818609E-02  0.8228284E-01
        2   -1    0    0  501    0  0.00000000000E+00  0.00000000000E+00  0.17073150120E+04  0.17073150120E+04  0.25500000920E-02 0. -1.
       -2   -1    0    0    0  501  0.00000000000E+00  0.00000000000E+00 -0.13663461167E+04  0.13663461167E+04  0.25500000920E-02 0.  1.
    10030    2    1    2    0    0  0.00000000000E+00  0.00000000000E+00  0.34096889536E+03  0.30736611287E+04  0.30546903193E+04 0.  0.
        5    1    3    3  502    0  0.51846706630E+02 -0.10958264699E+04  0.12397397820E+04  0.16554457255E+04  0.46999998093E+01 0. -1.
       -5    1    3    3    0  502 -0.51846706630E+02  0.10958264699E+04 -0.89877088666E+03  0.14182154032E+04  0.46999998093E+01 0.  1.
</event>
<event>
 5   0  0.6630125E-07  0.3445890E+04  0.7818609E-02  0.8126734E-01
        1   -1    0    0  501    0  0.00000000000E+00  0.00000000000E+00  0.21457552923E+04  0.21457552923E+04  0.50400001928E-02 0. -1.
       -1   -1    0    0    0  501  0.00000000000E+00  0.00000000000E+00 -0.13834472387E+04  0.13834472387E+04  0.50400001928E-02 0.  1.
    10030    2    1    2    0    0  0.00000000000E+00  0.00000000000E+00  0.76230805362E+03  0.35292025310E+04  0.34458898613E+04 0.  0.
        1    1    3    3  502    0 -0.49170119535E+03  0.98364556065E+03  0.17395741417E+04  0.20580201284E+04  0.50400001928E-02 0. -1.
       -1    1    3    3    0  502  0.49170119535E+03 -0.98364556065E+03 -0.97726608811E+03  0.14711824025E+04  0.50400001928E-02 0.  1.
</event>
<event>
 5   0  0.6630125E-07  0.3544275E+04  0.7818609E-02  0.8103377E-01
       -1   -1    0    0    0  501  0.00000000000E+00  0.00000000000E+00  0.22177477190E+04  0.22177477190E+04  0.50400001928E-02 0. -1.
        1   -1    0    0  501    0  0.00000000000E+00  0.00000000000E+00 -0.14160632614E+04  0.14160632614E+04  0.50400001928E-02 0.  1.
    10030    2    1    2    0    0  0.00000000000E+00  0.00000000000E+00  0.80168445758E+03  0.36338109804E+04  0.35442748584E+04 0.  0.
        4    1    3    3  502    0  0.12908381053E+04 -0.10595298715E+04 -0.20709838598E+03  0.16827827896E+04  0.12699999809E+01 0.  1.
       -4    1    3    3    0  502 -0.12908381053E+04  0.10595298715E+04  0.10087828436E+04  0.19510281907E+04  0.12699999809E+01 0. -1.
</event>
<event>
 5   0  0.6630125E-07  0.2367961E+04  0.7818609E-02  0.8451597E-01
       -1   -1    0    0    0  501  0.00000000000E+00  0.00000000000E+00  0.10567070278E+04  0.10567070279E+04  0.50400001928E-02 0.  1.
        1   -1    0    0  501    0  0.00000000000E+00  0.00000000000E+00 -0.13265831709E+04  0.13265831709E+04  0.50400001928E-02 0. -1.
    10030    2    1    2    0    0  0.00000000000E+00  0.00000000000E+00 -0.26987614307E+03  0.23832901988E+04  0.23679609454E+04 0.  0.
        5    1    3    3  502    0 -0.39479592273E+03 -0.58909336064E+03 -0.10891753030E+04  0.12996998649E+04  0.46999998093E+01 0. -1.
       -5    1    3    3    0  502  0.39479592273E+03  0.58909336064E+03  0.81929915995E+03  0.10835903339E+04  0.46999998093E+01 0.  1.
</event>
<event>
 5   0  0.1999883E-06  0.3343258E+04  0.7818609E-02  0.8151975E-01
       -2   -1    0    0    0  501  0.00000000000E+00  0.00000000000E+00  0.11935987581E+04  0.11935987581E+04  0.25500000920E-02 0.  1.
        2   -1    0    0  501    0  0.00000000000E+00  0.00000000000E+00 -0.23411079149E+04  0.23411079149E+04  0.25500000920E-02 0. -1.
    10030    2    1    2    0    0  0.00000000000E+00  0.00000000000E+00 -0.11475091569E+04  0.35347066730E+04  0.33432579917E+04 0.  0.
        4    1    3    3  502    0  0.30213164607E+03 -0.40793351447E+03 -0.22576442886E+04  0.23140122365E+04  0.12699999809E+01 0. -1.
       -4    1    3    3    0  502 -0.30213164607E+03  0.40793351447E+03  0.11101351317E+04  0.12206944365E+04  0.12699999809E+01 0.  1.
</event>
<event>
 5   0  0.6630125E-07  0.3484488E+04  0.7818609E-02  0.8117476E-01
        1   -1    0    0  501    0  0.00000000000E+00  0.00000000000E+00  0.20132980627E+04  0.20132980627E+04  0.50400001928E-02 0.  1.
       -1   -1    0    0    0  501  0.00000000000E+00  0.00000000000E+00 -0.15076828645E+04  0.15076828645E+04  0.50400001928E-02 0. -1.
    10030    2    1    2    0    0  0.00000000000E+00  0.00000000000E+00  0.50561519816E+03  0.35209809272E+04  0.34844884791E+04 0.  0.
        1    1    3    3  502    0 -0.40963972458E+02 -0.27220999940E+03  0.19911846714E+04  0.20101225650E+04  0.50400001928E-02 0.  1.
       -1    1    3    3    0  502  0.40963972458E+02  0.27220999940E+03 -0.14855694732E+04  0.15108583622E+04  0.50400001928E-02 0. -1.
</event>
<event>
 5   0  0.2001768E-06  0.3599111E+04  0.7818609E-02  0.8090695E-01
       -2   -1    0    0    0  501  0.00000000000E+00  0.00000000000E+00  0.13380065980E+04  0.13380065980E+04  0.25500000920E-02 0. -1.
        2   -1    0    0  501    0  0.00000000000E+00  0.00000000000E+00 -0.24203175098E+04  0.24203175098E+04  0.25500000920E-02 0.  1.
    10030    2    1    2    0    0  0.00000000000E+00  0.00000000000E+00 -0.10823109118E+04  0.37583241077E+04  0.35991114444E+04 0.  0.
        2    1    3    3  502    0  0.67930087321E+03 -0.74396973749E+02 -0.22795558499E+04  0.23797813888E+04  0.25500000920E-02 0.  1.
       -2    1    3    3    0  502 -0.67930087321E+03  0.74396973749E+02  0.11972449381E+04  0.13785427189E+04  0.25500000920E-02 0. -1.
</event>
<event>
 5   0  0.2023479E-06  0.2137174E+04  0.7818609E-02  0.8545042E-01
        2   -1    0    0  501    0  0.00000000000E+00  0.00000000000E+00  0.20996620814E+04  0.20996620814E+04  0.25500000920E-02 0.  1.
       -2   -1    0    0    0  501  0.00000000000E+00  0.00000000000E+00 -0.54383896905E+03  0.54383896906E+03  0.25500000920E-02 0. -1.
    10030    2    1    2    0    0  0.00000000000E+00  0.00000000000E+00  0.15558231124E+04  0.26435010505E+04  0.21371738925E+04 0.  0.
        5    1    3    3  502    0 -0.39406710636E+03 -0.16754457441E+03 -0.43306227289E+03  0.60903619838E+03  0.46999998093E+01 0. -1.
       -5    1    3    3    0  502  0.39406710636E+03  0.16754457441E+03  0.19888853853E+04  0.20344648521E+04  0.46999998093E+01 0.  1.
</event>
<event>
 5   0  0.6890600E-07  0.3451943E+04  0.7818609E-02  0.8125274E-01
       -1   -1    0    0    0  501  0.00000000000E+00  0.00000000000E+00  0.11164273030E+04  0.11164273030E+04  0.50400001928E-02 0. -1.
        1   -1    0    0  501    0  0.00000000000E+00  0.00000000000E+00 -0.26683126273E+04  0.26683126273E+04  0.50400001928E-02 0.  1.
    10030    2    1    2    0    0  0.00000000000E+00  0.00000000000E+00 -0.15518853243E+04  0.37847399303E+04  0.34519426820E+04 0.  0.
        3    1    3    3  502    0  0.13431809409E+04 -0.10815168809E+04 -0.69715933817E+03  0.18600658474E+04  0.10100000352E+00 0. -1.
       -3    1    3    3    0  502 -0.13431809409E+04  0.10815168809E+04 -0.85472598615E+03  0.19246740829E+04  0.10100000352E+00 0.  1.
</event>
<event>
 5   0  0.6630125E-07  0.3354885E+04  0.7818609E-02  0.8149069E-01
        1   -1    0    0  501    0  0.00000000000E+00  0.00000000000E+00  0.22087098466E+04  0.22087098466E+04  0.50400001928E-02 0.  1.
       -1   -1    0    0    0  501  0.00000000000E+00  0.00000000000E+00 -0.12739623176E+04  0.12739623176E+04  0.50400001928E-02 0. -1.
    10030    2    1    2    0    0  0.00000000000E+00  0.00000000000E+00  0.93474752895E+03  0.34826721642E+04  0.33548848655E+04 0.  0.
        5    1    3    3  502    0  0.14549648115E+03  0.90447058288E+03 -0.99133827016E+03  0.13498184757E+04  0.46999998093E+01 0. -1.
       -5    1    3    3    0  502 -0.14549648115E+03 -0.90447058288E+03  0.19260857991E+04  0.21328536886E+04  0.46999998093E+01 0.  1.
</event>
<event>
 5   0  0.2001768E-06  0.2586772E+04  0.7818609E-02  0.8372708E-01
        2   -1    0    0  501    0  0.00000000000E+00  0.00000000000E+00  0.13021990699E+04  0.13021990699E+04  0.25500000920E-02 0. -1.
       -2   -1    0    0    0  501  0.00000000000E+00  0.00000000000E+00 -0.12846323853E+04  0.12846323853E+04  0.25500000920E-02 0.  1.
    10030    2    1    2    0    0  0.00000000000E+00  0.00000000000E+00  0.17566684622E+02  0.25868314553E+04  0.25867718085E+04 0.  0.
        2    1    3    3  502    0  0.56364645741E+03  0.62762646697E+03  0.98923176822E+03  0.13000737680E+04  0.25500000920E-02 0. -1.
       -2    1    3    3    0  502 -0.56364645741E+03 -0.62762646697E+03 -0.97166508360E+03  0.12867576872E+04  0.25500000920E-02 0.  1.
</event>
<event>
 5   0  0.6630125E-07  0.3388020E+04  0.7818609E-02  0.8140853E-01
       -1   -1    0    0    0  501  0.00000000000E+00  0.00000000000E+00  0.14622790476E+04  0.14622790476E+04  0.50400001928E-02 0.  1.
        1   -1    0    0  501    0  0.00000000000E+00  0.00000000000E+00 -0.19624639669E+04  0.19624639669E+04  0.50400001928E-02 0. -1.
    10030    2    1    2    0    0  0.00000000000E+00  0.00000000000E+00 -0.50018491926E+03  0.34247430145E+04  0.33880200357E+04 0.  0.
        4    1    3    3  502    0  0.15138459810E+04 -0.38528312969E+03  0.41237014788E+03  0.16156186109E+04  0.12699999809E+01 0.  1.
       -4    1    3    3    0  502 -0.15138459810E+04  0.38528312969E+03 -0.91255506714E+03  0.18091244036E+04  0.12699999809E+01 0. -1.
</event>
<event>
 5   0  0.2020725E-06  0.3164622E+04  0.7818609E-02  0.8198224E-01
        2   -1    0    0  501    0  0.00000000000E+00  0.00000000000E+00  0.20238932963E+04  0.20238932963E+04  0.25500000920E-02 0.  1.
       -2   -1    0    0    0  501  0.00000000000E+00  0.00000000000E+00 -0.12370747894E+04  0.12370747894E+04  0.25500000920E-02 0. -1.
    10030    2    1    2    0    0  0.00000000000E+00  0.00000000000E+00  0.78681850694E+03  0.32609680857E+04  0.31646215402E+04 0.  0.
        3    1    3    3  502    0  0.30499830655E+03  0.96657912042E+03  0.16454774751E+04  0.19325877197E+04  0.10100000352E+00 0.  1.
       -3    1    3    3    0  502 -0.30499830655E+03 -0.96657912042E+03 -0.85865896813E+03  0.13283803660E+04  0.10100000352E+00 0. -1.
</event>
<event>
 5   0  0.2023479E-06  0.2191414E+04  0.7818609E-02  0.8522010E-01
        2   -1    0    0  501    0  0.00000000000E+00  0.00000000000E+00  0.16370156225E+04  0.16370156225E+04  0.25500000920E-02 0.  1.
       -2   -1    0    0    0  501  0.00000000000E+00  0.00000000000E+00 -0.73339201836E+03  0.73339201836E+03  0.25500000920E-02 0. -1.
    10030    2    1    2    0    0  0.00000000000E+00  0.00000000000E+00  0.90362360410E+03  0.23704076408E+04  0.21914143300E+04 0.  0.
        5    1    3    3  502    0 -0.30789506226E+03 -0.61644954899E+03  0.13733002070E+04  0.15364846125E+04  0.46999998093E+01 0.  1.
       -5    1    3    3    0  502  0.30789506226E+03  0.61644954899E+03 -0.46967660294E+03  0.83392302832E+03  0.46999998093E+01 0. -1.
</event>
<event>
 5   0  0.1999883E-06  0.3467839E+04  0.7818609E-02  0.8121454E-01
        2   -1    0    0  501    0  0.00000000000E+00  0.00000000000E+00  0.18324387332E+04  0.18324387332E+04  0.25500000920E-02 0. -1.
       -2   -1    0    0    0  501  0.00000000000E+00  0.00000000000E+00 -0.16406972733E+04  0.16406972733E+04  0.25500000920E-02 0.  1.
    10030    2    1    2    0    0  0.00000000000E+00  0.00000000000E+00  0.19174145990E+03  0.34731360065E+04  0.34678392310E+04 0.  0.
        4    1    3    3  502    0 -0.16439263017E+04 -0.46782246751E+03  0.38807666628E+03  0.17526998198E+04  0.12699999809E+01 0. -1.
       -4    1    3    3    0  502  0.16439263017E+04  0.46782246751E+03 -0.19633520638E+03  0.17204361867E+04  0.12699999809E+01 0.  1.
</event>
<event>
 5   0  0.6630125E-07  0.3472432E+04  0.7818609E-02  0.8120354E-01
       -1   -1    0    0    0  501  0.00000000000E+00  0.00000000000E+00  0.12503320529E+04  0.12503320529E+04  0.50400001928E-02 0. -1.
        1   -1    0    0  501    0  0.00000000000E+00  0.00000000000E+00 -0.24109164485E+04  0.24109164485E+04  0.50400001928E-02 0.  1.
    10030    2    1    2    0    0  0.00000000000E+00  0.00000000000E+00 -0.11605843955E+04  0.36612485014E+04  0.34724320656E+04 0.  0.
        4    1    3    3  502    0  0.10538870814E+04  0.17063347625E+03 -0.20239213128E+04  0.22882423073E+04  0.12699999809E+01 0.  1.
       -4    1    3    3    0  502 -0.10538870814E+04 -0.17063347625E+03  0.86333691724E+03  0.13730061941E+04  0.12699999809E+01 0. -1.
</event>
<event>
 5   0  0.2073287E-06  0.3459837E+04  0.7818609E-02  0.8123374E-01
       -2   -1    0    0    0  501  0.00000000000E+00  0.00000000000E+00  0.20225100518E+04  0.20225100518E+04  0.25500000920E-02 0.  1.
        2   -1    0    0  501    0  0.00000000000E+00  0.00000000000E+00 -0.14796556993E+04  0.14796556993E+04  0.25500000920E-02 0. -1.
    10030    2    1    2    0    0  0.00000000000E+00  0.00000000000E+00  0.54285435244E+03  0.35021657511E+04  0.34598372939E+04 0.  0.
        1    1    3    3  502    0 -0.12017244908E+04 -0.24330134634E+02 -0.98793411749E+03  0.15558751646E+04  0.50400001928E-02 0. -1.
       -1    1    3    3    0  502  0.12017244908E+04  0.24330134634E+02  0.15307884699E+04  0.19462905865E+04  0.50400001928E-02 0.  1.
</event>
<event>
 5   0  0.6630125E-07  0.3497555E+04  0.7818609E-02  0.8114370E-01
       -1   -1    0    0    0  501  0.00000000000E+00  0.00000000000E+00  0.14033656573E+04  0.14033656573E+04  0.50400001928E-02 0.  1.
        1   -1    0    0  501    0  0.00000000000E+00  0.00000000000E+00 -0.21792053587E+04  0.21792053587E+04  0.50400001928E-02 0. -1.
    10030    2    1    2    0    0  0.00000000000E+00  0.00000000000E+00 -0.77583970141E+03  0.35825710160E+04  0.34975545517E+04 0.  0.
        4    1    3    3  502    0  0.25158685749E+03 -0.69620576239E+03 -0.20107997133E+04  0.21427355204E+04  0.12699999809E+01 0. -1.
       -4    1    3    3    0  502 -0.25158685749E+03  0.69620576239E+03  0.12349600119E+04  0.14398354956E+04  0.12699999809E+01 0.  1.
</event>
<event>
 5   0  0.1999883E-06  0.3489433E+04  0.7818609E-02  0.8116299E-01
       -2   -1    0    0    0  501  0.00000000000E+00  0.00000000000E+00  0.10712879440E+04  0.10712879440E+04  0.25500000920E-02 0.  1.
        2   -1    0    0  501    0  0.00000000000E+00  0.00000000000E+00 -0.28414721364E+04  0.28414721364E+04  0.25500000920E-02 0. -1.
    10030    2    1    2    0    0  0.00000000000E+00  0.00000000000E+00 -0.17701841923E+04  0.39127600804E+04  0.34894325286E+04 0.  0.
        4    1    3    3  502    0 -0.10579328022E+03  0.44242005329E+03  0.10036217198E+04  0.11019010351E+04  0.12699999809E+01 0.  1.
       -4    1    3    3    0  502  0.10579328022E+03 -0.44242005329E+03 -0.27738059121E+04  0.28108590453E+04  0.12699999809E+01 0. -1.
</event>
<event>
 5   0  0.6630125E-07  0.3469052E+04  0.7818609E-02  0.8121164E-01
        1   -1    0    0  501    0  0.00000000000E+00  0.00000000000E+00  0.21430518895E+04  0.21430518895E+04  0.50400001928E-02 0.  1.
       -1   -1    0    0    0  501  0.00000000000E+00  0.00000000000E+00 -0.14038765498E+04  0.14038765498E+04  0.50400001928E-02 0. -1.
    10030    2    1    2    0    0  0.00000000000E+00  0.00000000000E+00  0.73917533972E+03  0.35469284393E+04  0.34690519123E+04 0.  0.
        1    1    3    3  502    0 -0.49965534902E+03  0.15900141727E+04 -0.12159211225E+03  0.16711029827E+04  0.50400001928E-02 0.  1.
       -1    1    3    3    0  502  0.49965534902E+03 -0.15900141727E+04  0.86076745197E+03  0.18758254565E+04  0.50400001928E-02 0. -1.
</event>
<event>
 5   0  0.2023479E-06  0.3476211E+04  0.7818609E-02  0.8119451E-01
        2   -1    0    0  501    0  0.00000000000E+00  0.00000000000E+00  0.13031728583E+04  0.13031728583E+04  0.25500000920E-02 0. -1.
       -2   -1    0    0    0  501  0.00000000000E+00  0.00000000000E+00 -0.23181970415E+04  0.23181970416E+04  0.25500000920E-02 0.  1.
    10030    2    1    2    0    0  0.00000000000E+00  0.00000000000E+00 -0.10150241833E+04  0.36213698998E+04  0.34762114232E+04 0.  0.
        5    1    3    3  502    0 -0.77483685362E+03  0.10322421873E+04 -0.17202062981E+04  0.21505877990E+04  0.46999998093E+01 0. -1.
       -5    1    3    3    0  502  0.77483685362E+03 -0.10322421873E+04  0.70518211482E+03  0.14707821008E+04  0.46999998093E+01 0.  1.
</event>
<event>
 5   0  0.2023479E-06  0.3705847E+04  0.7818609E-02  0.8066667E-01
       -2   -1    0    0    0  501  0.00000000000E+00  0.00000000000E+00  0.21587803850E+04  0.21587803850E+04  0.25500000920E-02 0.  1.
        2   -1    0    0  501    0  0.00000000000E+00  0.00000000000E+00 -0.15904003389E+04  0.15904003389E+04  0.25500000920E-02 0. -1.
    10030    2    1    2    0    0  0.00000000000E+00  0.00000000000E+00  0.56838004605E+03  0.37491807239E+04  0.37058467620E+04 0.  0.
        5    1    3    3  502    0 -0.14337750390E+04 -0.10917865567E+04  0.72003409090E+03  0.19406648165E+04  0.46999998093E+01 0.  1.
       -5    1    3    3    0  502  0.14337750390E+04  0.10917865567E+04 -0.15165404486E+03  0.18085159074E+04  0.46999998093E+01 0. -1.
</event>
<event>
 5   0  0.2001768E-06  0.3558753E+04  0.7818609E-02  0.8100006E-01
        2   -1    0    0  501    0  0.00000000000E+00  0.00000000000E+00  0.15447365347E+04  0.15447365347E+04  0.25500000920E-02 0. -1.
       -2   -1    0    0    0  501  0.00000000000E+00  0.00000000000E+00 -0.20496575873E+04  0.20496575873E+04  0.25500000920E-02 0.  1.
    10030    2    1    2    0    0  0.00000000000E+00  0.00000000000E+00 -0.50492105265E+03  0.35943941220E+04  0.35587531292E+04 0.  0.
        2    1    3    3  502    0 -0.61949962259E+03  0.46896623242E+03 -0.18692645631E+04  0.20243169506E+04  0.25500000920E-02 0.  1.
       -2    1    3    3    0  502  0.61949962259E+03 -0.46896623242E+03  0.13643435105E+04  0.15700771714E+04  0.25500000920E-02 0. -1.
</event>
<event>
 5   0  0.2001768E-06  0.3397975E+04  0.7818609E-02  0.8138404E-01
       -2   -1    0    0    0  501  0.00000000000E+00  0.00000000000E+00  0.13155116712E+04  0.13155116712E+04  0.25500000920E-02 0.  1.
        2   -1    0    0  501    0  0.00000000000E+00  0.00000000000E+00 -0.21942476458E+04  0.21942476458E+04  0.25500000920E-02 0. -1.
    10030    2    1    2    0    0  0.00000000000E+00  0.00000000000E+00 -0.87873597458E+03  0.35097593169E+04  0.33979749189E+04 0.  0.
        2    1    3    3  502    0 -0.77916998757E+03 -0.10518808263E+04  0.67931242289E+03  0.14747964300E+04  0.25500000920E-02 0.  1.
       -2    1    3    3    0  502  0.77916998757E+03  0.10518808263E+04 -0.15580483975E+04  0.20349628869E+04  0.25500000920E-02 0. -1.
</event>
<event>
 5   0  0.2073287E-06  0.3487759E+04  0.7818609E-02  0.8116697E-01
       -2   -1    0    0    0  501  0.00000000000E+00  0.00000000000E+00  0.15217754052E+04  0.15217754052E+04  0.25500000920E-02 0. -1.
        2   -1    0    0  501    0  0.00000000000E+00  0.00000000000E+00 -0.19984000153E+04  0.19984000153E+04  0.25500000920E-02 0.  1.
    10030    2    1    2    0    0  0.00000000000E+00  0.00000000000E+00 -0.47662461011E+03  0.35201754206E+04  0.34877591621E+04 0.  0.
        1    1    3    3  502    0  0.39515691738E+03 -0.40890571947E+03 -0.19021984987E+04  0.19853745252E+04  0.50400001928E-02 0.  1.
       -1    1    3    3    0  502 -0.39515691738E+03  0.40890571947E+03  0.14255738886E+04  0.15348008954E+04  0.50400001928E-02 0. -1.
</event>
<event>
 5   0  0.6890600E-07  0.3216855E+04  0.7818609E-02  0.8184380E-01
        1   -1    0    0  501    0  0.00000000000E+00  0.00000000000E+00  0.17118382966E+04  0.17118382966E+04  0.50400001928E-02 0. -1.
       -1   -1    0    0    0  501  0.00000000000E+00  0.00000000000E+00 -0.15112637371E+04  0.15112637371E+04  0.50400001928E-02 0.  1.
    10030    2    1    2    0    0  0.00000000000E+00  0.00000000000E+00  0.20057455950E+03  0.32231020337E+04  0.32168550738E+04 0.  0.
        3    1    3    3  502    0 -0.11642297624E+04 -0.10942230022E+04 -0.85232257042E+02  0.16000060831E+04  0.10100000352E+00 0. -1.
       -3    1    3    3    0  502  0.11642297624E+04  0.10942230022E+04  0.28580681655E+03  0.16230959506E+04  0.10100000352E+00 0.  1.
</event>
<event>
 5   0  0.6890600E-07  0.3468554E+04  0.7818609E-02  0.8121283E-01
       -1   -1    0    0    0  501  0.00000000000E+00  0.00000000000E+00  0.15032366398E+04  0.15032366398E+04  0.50400001928E-02 0. -1.
        1   -1    0    0  501    0  0.00000000000E+00  0.00000000000E+00 -0.20008276850E+04  0.20008276850E+04  0.50400001928E-02 0.  1.
    10030    2    1    2    0    0  0.00000000000E+00  0.00000000000E+00 -0.49759104515E+03  0.35040643248E+04  0.34685544459E+04 0.  0.
        3    1    3    3  502    0 -0.14921672629E+04 -0.87084794480E+03 -0.96325950317E+02  0.17303808778E+04  0.10100000352E+00 0.  1.
       -3    1    3    3    0  502  0.14921672629E+04  0.87084794480E+03 -0.40126509483E+03  0.17736834470E+04  0.10100000352E+00 0. -1.
</event>
<event>
 5   0  0.6630125E-07  0.2743392E+04  0.7818609E-02  0.8321061E-01
        3   -1    0    0  501    0  0.00000000000E+00  0.00000000000E+00  0.13694197570E+04  0.13694197607E+04  0.10100000352E+00 0. -1.
       -3   -1    0    0    0  501  0.00000000000E+00  0.00000000000E+00 -0.13739762422E+04  0.13739762459E+04  0.10100000352E+00 0.  1.
    10030    2    1    2    0    0  0.00000000000E+00  0.00000000000E+00 -0.45564852532E+01  0.27433960067E+04  0.27433922227E+04 0.  0.
        5    1    3    3  502    0 -0.11254727534E+04  0.11947266995E+03  0.77268443459E+03  0.13704108738E+04  0.46999998093E+01 0. -1.
       -5    1    3    3    0  502  0.11254727534E+04 -0.11947266995E+03 -0.77724091984E+03  0.13729851329E+04  0.46999998093E+01 0.  1.
</event>
<event>
 5   0  0.2020725E-06  0.3518539E+04  0.7818609E-02  0.8109410E-01
       -2   -1    0    0    0  501  0.00000000000E+00  0.00000000000E+00  0.11502075485E+04  0.11502075485E+04  0.25500000920E-02 0. -1.
        2   -1    0    0  501    0  0.00000000000E+00  0.00000000000E+00 -0.26908447420E+04  0.26908447420E+04  0.25500000920E-02 0.  1.
    10030    2    1    2    0    0  0.00000000000E+00  0.00000000000E+00 -0.15406371934E+04  0.38410522905E+04  0.35185394323E+04 0.  0.
        3    1    3    3  502    0 -0.86050842779E+03 -0.61826249961E+02 -0.24440640870E+04  0.25918615918E+04  0.10100000352E+00 0.  1.
       -3    1    3    3    0  502  0.86050842779E+03  0.61826249961E+02  0.90342689356E+03  0.12491906987E+04  0.10100000352E+00 0. -1.
</event>
<event>
 5   0  0.6630125E-07  0.3460429E+04  0.7818609E-02  0.8123232E-01
       -1   -1    0    0    0  501  0.00000000000E+00  0.00000000000E+00  0.24683043588E+04  0.24683043588E+04  0.50400001928E-02 0. -1.
        1   -1    0    0  501    0  0.00000000000E+00  0.00000000000E+00 -0.12128335724E+04  0.12128335724E+04  0.50400001928E-02 0.  1.
    10030    2    1    2    0    0  0.00000000000E+00  0.00000000000E+00  0.12554707864E+04  0.36811379313E+04  0.34604291025E+04 0.  0.
        1    1    3    3  502    0  0.95634215861E+03  0.92890087605E+03  0.18008860362E+04  0.22406779504E+04  0.50400001928E-02 0. -1.
       -1    1    3    3    0  502 -0.95634215861E+03 -0.92890087605E+03 -0.54541524980E+03  0.14404599809E+04  0.50400001928E-02 0.  1.
</event>
<event>
 5   0  0.2001768E-06  0.2915079E+04  0.7818609E-02  0.8268405E-01
        2   -1    0    0  501    0  0.00000000000E+00  0.00000000000E+00  0.14697755525E+04  0.14697755525E+04  0.25500000920E-02 0.  1.
       -2   -1    0    0    0  501  0.00000000000E+00  0.00000000000E+00 -0.14454054283E+04  0.14454054283E+04  0.25500000920E-02 0. -1.
    10030    2    1    2    0    0  0.00000000000E+00  0.00000000000E+00  0.24370124285E+02  0.29151809808E+04  0.29150791152E+04 0.  0.
        2    1    3    3  502    0  0.95182104385E+02 -0.88863685535E+03  0.11636098840E+04  0.14672160904E+04  0.25500000920E-02 0.  1.
       -2    1    3    3    0  502 -0.95182104385E+02  0.88863685535E+03 -0.11392397597E+04  0.14479648904E+04  0.25500000920E-02 0. -1.
</event>
<event>
 5   0  0.6630125E-07  0.3384459E+04  0.7818609E-02  0.8141731E-01
       -1   -1    0    0    0  501  0.00000000000E+00  0.00000000000E+00  0.15762182766E+04  0.15762182766E+04  0.50400001928E-02 0. -1.
        1   -1    0    0  501    0  0.00000000000E+00  0.00000000000E+00 -0.18167787423E+04  0.18167787423E+04  0.50400001928E-02 0.  1.
    10030    2    1    2    0    0  0.00000000000E+00  0.00000000000E+00 -0.24056046572E+03  0.33929970189E+04  0.33844585139E+04 0.  0.
        4    1    3    3  502    0  0.13449766343E+04  0.91316078692E+03  0.35081322156E+03  0.16630984032E+04  0.12699999809E+01 0.  1.
       -4    1    3    3    0  502 -0.13449766343E+04 -0.91316078692E+03 -0.59137368728E+03  0.17298986156E+04  0.12699999809E+01 0. -1.
</event>
<event>
 5   0  0.6630125E-07  0.3304350E+04  0.7818609E-02  0.8161789E-01
       -1   -1    0    0    0  501  0.00000000000E+00  0.00000000000E+00  0.15903734101E+04  0.15903734101E+04  0.50400001928E-02 0.  1.
        1   -1    0    0  501    0  0.00000000000E+00  0.00000000000E+00 -0.17163784864E+04  0.17163784864E+04  0.50400001928E-02 0. -1.
    10030    2    1    2    0    0  0.00000000000E+00  0.00000000000E+00 -0.12600507632E+03  0.33067518965E+04  0.33043502880E+04 0.  0.
        1    1    3    3  502    0 -0.44271802635E+03  0.11410007911E+03 -0.16518165636E+04  0.17139183290E+04  0.50400001928E-02 0. -1.
       -1    1    3    3    0  502  0.44271802635E+03 -0.11410007911E+03  0.15258114873E+04  0.15928335674E+04  0.50400001928E-02 0.  1.
</event>
<event>
 5   0  0.7378896E-07  0.3439409E+04  0.7818609E-02  0.8128301E-01
       -1   -1    0    0    0  501  0.00000000000E+00  0.00000000000E+00  0.10728295684E+04  0.10728295684E+04  0.50400001928E-02 0.  1.
        1   -1    0    0  501    0  0.00000000000E+00  0.00000000000E+00 -0.27566199718E+04  0.27566199718E+04  0.50400001928E-02 0. -1.
    10030    2    1    2    0    0  0.00000000000E+00  0.00000000000E+00 -0.16837904034E+04  0.38294495402E+04  0.34394089111E+04 0.  0.
        2    1    3    3  502    0  0.12316768355E+04  0.96442353595E+03 -0.16372135369E+04  0.22644223875E+04  0.25500000920E-02 0. -1.
       -2    1    3    3    0  502 -0.12316768355E+04 -0.96442353595E+03 -0.46576866522E+02  0.15650271526E+04  0.25500000920E-02 0.  1.
</event>
<event>
 5   0  0.6890600E-07  0.3501297E+04  0.7818609E-02  0.8113483E-01
       -1   -1    0    0    0  501  0.00000000000E+00  0.00000000000E+00  0.20687309753E+04  0.20687309753E+04  0.50400001928E-02 0. -1.
        1   -1    0    0  501    0  0.00000000000E+00  0.00000000000E+00 -0.14814733204E+04  0.14814733204E+04  0.50400001928E-02 0.  1.
    10030    2    1    2    0    0  0.00000000000E+00  0.00000000000E+00  0.58725765495E+03  0.35502042957E+04  0.35012967581E+04 0.  0.
        3    1    3    3  502    0 -0.11986557745E+04  0.17956815119E+03  0.15745038640E+04  0.19869783126E+04  0.10100000352E+00 0.  1.
       -3    1    3    3    0  502  0.11986557745E+04 -0.17956815119E+03 -0.98724620910E+03  0.15632259831E+04  0.10100000352E+00 0. -1.
</event>
<event>
 5   0  0.1999883E-06  0.2248957E+04  0.7818609E-02  0.8498323E-01
       -2   -1    0    0    0  501  0.00000000000E+00  0.00000000000E+00  0.75911991041E+03  0.75911991041E+03  0.25500000920E-02 0. -1.
        2   -1    0    0  501    0  0.00000000000E+00  0.00000000000E+00 -0.16656806504E+04  0.16656806504E+04  0.25500000920E-02 0.  1.
    10030    2    1    2    0    0  0.00000000000E+00  0.00000000000E+00 -0.90656074002E+03  0.24248005608E+04  0.22489565101E+04 0.  0.
        4    1    3    3  502    0 -0.56902944995E+03 -0.26238796700E+03  0.55343183771E+03  0.83602055718E+03  0.12699999809E+01 0. -1.
       -4    1    3    3    0  502  0.56902944995E+03  0.26238796700E+03 -0.14599925777E+04  0.15887800037E+04  0.12699999809E+01 0.  1.
</event>
<event>
 5   0  0.1999883E-06  0.3404935E+04  0.7818609E-02  0.8136696E-01
        2   -1    0    0  501    0  0.00000000000E+00  0.00000000000E+00  0.24915845035E+04  0.24915845035E+04  0.25500000920E-02 0.  1.
       -2   -1    0    0    0  501  0.00000000000E+00  0.00000000000E+00 -0.11632743680E+04  0.11632743680E+04  0.25500000920E-02 0. -1.
    10030    2    1    2    0    0  0.00000000000E+00  0.00000000000E+00  0.13283101355E+04  0.36548588715E+04  0.34049354699E+04 0.  0.
        4    1    3    3  502    0 -0.11613066699E+04 -0.93560674470E+03 -0.21734231366E+03  0.15070608669E+04  0.12699999809E+01 0. -1.
       -4    1    3    3    0  502  0.11613066699E+04  0.93560674470E+03  0.15456524492E+04  0.21477980046E+04  0.12699999809E+01 0.  1.
</event>
<event>
 5   0  0.7378896E-07  0.3529049E+04  0.7818609E-02  0.8106940E-01
        1   -1    0    0  501    0  0.00000000000E+00  0.00000000000E+00  0.28712844077E+04  0.28712844077E+04  0.50400001928E-02 0.  1.
       -1   -1    0    0    0  501  0.00000000000E+00  0.00000000000E+00 -0.10843739247E+04  0.10843739247E+04  0.50400001928E-02 0. -1.
    10030    2    1    2    0    0  0.00000000000E+00  0.00000000000E+00  0.17869104830E+04  0.39556583324E+04  0.35290485642E+04 0.  0.
        2    1    3    3  502    0  0.16240772637E+04  0.41799803803E+03  0.15086125491E+04  0.22557174339E+04  0.25500000920E-02 0.  1.
       -2    1    3    3    0  502 -0.16240772637E+04 -0.41799803803E+03  0.27829793384E+03  0.16999408985E+04  0.25500000920E-02 0. -1.
</event>
<event>
 5   0  0.1999883E-06  0.3557425E+04  0.7818609E-02  0.8100314E-01
        2   -1    0    0  501    0  0.00000000000E+00  0.00000000000E+00  0.27240892308E+04  0.27240892308E+04  0.25500000920E-02 0. -1.
       -2   -1    0    0    0  501  0.00000000000E+00  0.00000000000E+00 -0.11614226007E+04  0.11614226007E+04  0.25500000920E-02 0.  1.
    10030    2    1    2    0    0  0.00000000000E+00  0.00000000000E+00  0.15626666301E+04  0.38855118315E+04  0.35574253605E+04 0.  0.
        4    1    3    3  502    0  0.94022827451E+03 -0.10184049528E+04 -0.43621158670E+03  0.14530863764E+04  0.12699999809E+01 0.  1.
       -4    1    3    3    0  502 -0.94022827451E+03  0.10184049528E+04  0.19988782168E+04  0.24324254551E+04  0.12699999809E+01 0. -1.
</event>
<event>
 5   0  0.2073287E-06  0.3528160E+04  0.7818609E-02  0.8107149E-01
       -2   -1    0    0    0  501  0.00000000000E+00  0.00000000000E+00  0.13433287412E+04  0.13433287412E+04  0.25500000920E-02 0.  1.
        2   -1    0    0  501    0  0.00000000000E+00  0.00000000000E+00 -0.23166170349E+04  0.23166170349E+04  0.25500000920E-02 0. -1.
    10030    2    1    2    0    0  0.00000000000E+00  0.00000000000E+00 -0.97328829377E+03  0.36599457761E+04  0.35281599994E+04 0.  0.
        1    1    3    3  502    0  0.86685023012E+03 -0.13011591194E+04 -0.13341896665E+04  0.20553604165E+04  0.50400001928E-02 0. -1.
       -1    1    3    3    0  502 -0.86685023012E+03  0.13011591194E+04  0.36090137276E+03  0.16045853596E+04  0.50400001928E-02 0.  1.
</event>
<event>
 5   0  0.1999883E-06  0.3543500E+04  0.7818609E-02  0.8103558E-01
        2   -1    0    0  501    0  0.00000000000E+00  0.00000000000E+00  0.25289521023E+04  0.25289521023E+04  0.25500000920E-02 0. -1.
       -2   -1    0    0    0  501  0.00000000000E+00  0.00000000000E+00 -0.12412642505E+04  0.12412642505E+04  0.25500000920E-02 0.  1.
    10030    2    1    2    0    0  0.00000000000E+00  0.00000000000E+00  0.12876878518E+04  0.37702163527E+04  0.35434998720E+04 0.  0.
        4    1    3    3  502    0 -0.32120904367E+03  0.13722423408E+04  0.17862602079E+04  0.22752915055E+04  0.12699999809E+01 0. -1.
       -4    1    3    3    0  502  0.32120904367E+03 -0.13722423408E+04 -0.49857235611E+03  0.14949248472E+04  0.12699999809E+01 0.  1.
</event>
<event>
 5   0  0.6890600E-07  0.3511120E+04  0.7818609E-02  0.8111160E-01
       -1   -1    0    0    0  501  0.00000000000E+00  0.00000000000E+00  0.18761530839E+04  0.18761530839E+04  0.50400001928E-02 0.  1.
        1   -1    0    0  501    0  0.00000000000E+00  0.00000000000E+00 -0.16427185448E+04  0.16427185448E+04  0.50400001928E-02 0. -1.
    10030    2    1    2    0    0  0.00000000000E+00  0.00000000000E+00  0.23343453916E+03  0.35188716287E+04  0.35111203134E+04 0.  0.
        3    1    3    3  502    0  0.80361895287E+03  0.15382862221E+04 -0.14818335255E+03  0.17418628645E+04  0.10100000352E+00 0. -1.
       -3    1    3    3    0  502 -0.80361895287E+03 -0.15382862221E+04  0.38161789171E+03  0.17770087642E+04  0.10100000352E+00 0.  1.
</event>
<event>
 5   0  0.2023479E-06  0.3141213E+04  0.7818609E-02  0.8204517E-01
        2   -1    0    0  501    0  0.00000000000E+00  0.00000000000E+00  0.11260251979E+04  0.11260251979E+04  0.25500000920E-02 0.  1.
       -2   -1    0    0    0  501  0.00000000000E+00  0.00000000000E+00 -0.21907194875E+04  0.21907194875E+04  0.25500000920E-02 0. -1.
    10030    2    1    2    0    0  0.00000000000E+00  0.00000000000E+00 -0.10646942896E+04  0.33167446854E+04  0.31412133608E+04 0.  0.
        5    1    3    3  502    0 -0.69589800103E+02  0.88800836383E+03 -0.18982257688E+04  0.20968273066E+04  0.46999998093E+01 0. -1.
       -5    1    3    3    0  502  0.69589800103E+02 -0.88800836383E+03  0.83353147911E+03  0.12199173788E+04  0.46999998093E+01 0.  1.
</event>
<event>
 5   0  0.6630125E-07  0.3535472E+04  0.7818609E-02  0.8105435E-01
       -1   -1    0    0    0  501  0.00000000000E+00  0.00000000000E+00  0.18953861395E+04  0.18953861395E+04  0.50400001928E-02 0. -1.
        1   -1    0    0  501    0  0.00000000000E+00  0.00000000000E+00 -0.16486830817E+04  0.16486830817E+04  0.50400001928E-02 0.  1.
    10030    2    1    2    0    0  0.00000000000E+00  0.00000000000E+00  0.24670305781E+03  0.35440692211E+04  0.35354722804E+04 0.  0.
        5    1    3    3  502    0  0.10478506996E+04  0.13541465026E+04  0.56392579574E+03  0.18027030349E+04  0.46999998093E+01 0. -1.
       -5    1    3    3    0  502 -0.10478506996E+04 -0.13541465026E+04 -0.31722273792E+03  0.17413661862E+04  0.46999998093E+01 0.  1.
</event>
<event>
 5   0  0.6890600E-07  0.3433182E+04  0.7818609E-02  0.8129810E-01
        1   -1    0    0  501    0  0.00000000000E+00  0.00000000000E+00  0.18652551455E+04  0.18652551455E+04  0.50400001928E-02 0. -1.
       -1   -1    0    0    0  501  0.00000000000E+00  0.00000000000E+00 -0.15797756285E+04  0.15797756285E+04  0.50400001928E-02 0.  1.
    10030    2    1    2    0    0  0.00000000000E+00  0.00000000000E+00  0.28547951705E+03  0.34450307740E+04  0.34331819758E+04 0.  0.
        3    1    3    3  502    0 -0.37619281022E+03 -0.15985460974E+04  0.64427866460E+03  0.17640764336E+04  0.10100000352E+00 0.  1.
       -3    1    3    3    0  502  0.37619281022E+03  0.15985460974E+04 -0.35879914754E+03  0.16809543403E+04  0.10100000352E+00 0. -1.
</event>
<event>
 5   0  0.2020725E-06  0.2312943E+04  0.7818609E-02  0.8472835E-01
        2   -1    0    0  501    0  0.00000000000E+00  0.00000000000E+00  0.15959454163E+04  0.15959454163E+04  0.25500000920E-02 0. -1.
       -2   -1    0    0    0  501  0.00000000000E+00  0.00000000000E+00 -0.83801507574E+03  0.83801507574E+03  0.25500000920E-02 0.  1.
    10030    2    1    2    0    0  0.00000000000E+00  0.00000000000E+00  0.75793034052E+03  0.24339604920E+04  0.23129429901E+04 0.  0.
        3    1    3    3  502    0 -0.86790427688E+03 -0.53427579286E+03  0.95411260228E+03  0.13960799851E+04  0.10100000352E+00 0. -1.
       -3    1    3    3    0  502  0.86790427688E+03  0.53427579286E+03 -0.19618226176E+03  0.10378805069E+04  0.10100000352E+00 0.  1.
</event>
<event>
 5   0  0.6630125E-07  0.3532795E+04  0.7818609E-02  0.8106062E-01
       -1   -1    0    0    0  501  0.00000000000E+00  0.00000000000E+00  0.29764077097E+04  0.29764077097E+04  0.50400001928E-02 0.  1.
        1   -1    0    0  501    0  0.00000000000E+00  0.00000000000E+00 -0.10482970379E+04  0.10482970380E+04  0.50400001928E-02 0. -1.
    10030    2    1    2    0    0  0.00000000000E+00  0.00000000000E+00  0.19281106718E+04  0.40247047477E+04  0.35327945799E+04 0.  0.
        1    1    3    3  502    0 -0.13566200217E+04 -0.10815831622E+04  0.58635032417E+03  0.18314056685E+04  0.50400001928E-02 0. -1.
       -1    1    3    3    0  502  0.13566200217E+04  0.10815831622E+04  0.13417603476E+04  0.21932990792E+04  0.50400001928E-02 0.  1.
</event>
<event>
 5   0  0.6630125E-07  0.3517879E+04  0.7818609E-02  0.8109566E-01
        1   -1    0    0  501    0  0.00000000000E+00  0.00000000000E+00  0.21130616357E+04  0.21130616357E+04  0.50400001928E-02 0.  1.
       -1   -1    0    0    0  501  0.00000000000E+00  0.00000000000E+00 -0.14641637205E+04  0.14641637205E+04  0.50400001928E-02 0. -1.
    10030    2    1    2    0    0  0.00000000000E+00  0.00000000000E+00  0.64889791526E+03  0.35772253562E+04  0.35178790122E+04 0.  0.
        4    1    3    3  502    0 -0.18577339669E+03  0.11458083395E+04 -0.10193892031E+04  0.15448444796E+04  0.12699999809E+01 0. -1.
       -4    1    3    3    0  502  0.18577339669E+03 -0.11458083395E+04  0.16682871183E+04  0.20323808767E+04  0.12699999809E+01 0.  1.
</event>
<event>
 5   0  0.6630125E-07  0.3536625E+04  0.7818609E-02  0.8105165E-01
       -1   -1    0    0    0  501  0.00000000000E+00  0.00000000000E+00  0.17570840786E+04  0.17570840786E+04  0.50400001928E-02 0.  1.
        1   -1    0    0  501    0  0.00000000000E+00  0.00000000000E+00 -0.17796125987E+04  0.17796125987E+04  0.50400001928E-02 0. -1.
    10030    2    1    2    0    0  0.00000000000E+00  0.00000000000E+00 -0.22528520140E+02  0.35366966773E+04  0.35366249240E+04 0.  0.
        5    1    3    3  502    0 -0.48774438622E+03 -0.16535370771E+04  0.38222488099E+03  0.17658418393E+04  0.46999998093E+01 0.  1.
       -5    1    3    3    0  502  0.48774438622E+03  0.16535370771E+04 -0.40475340113E+03  0.17708548380E+04  0.46999998093E+01 0. -1.
</event>
<event>
 5   0  0.6630125E-07  0.3470969E+04  0.7818609E-02  0.8120705E-01
        1   -1    0    0  501    0  0.00000000000E+00  0.00000000000E+00  0.14360939322E+04  0.14360939322E+04  0.50400001928E-02 0.  1.
       -1   -1    0    0    0  501  0.00000000000E+00  0.00000000000E+00 -0.20972903878E+04  0.20972903878E+04  0.50400001928E-02 0. -1.
    10030    2    1    2    0    0  0.00000000000E+00  0.00000000000E+00 -0.66119645559E+03  0.35333843200E+04  0.34709687408E+04 0.  0.
        4    1    3    3  502    0  0.44457152418E+03  0.13360960920E+04 -0.13632897356E+04  0.19599380407E+04  0.12699999809E+01 0. -1.
       -4    1    3    3    0  502 -0.44457152418E+03 -0.13360960920E+04  0.70209328006E+03  0.15734462793E+04  0.12699999809E+01 0.  1.
</event>
<event>
 5   0  0.6630125E-07  0.3500829E+04  0.7818609E-02  0.8113593E-01
        1   -1    0    0  501    0  0.00000000000E+00  0.00000000000E+00  0.18891936014E+04  0.18891936014E+04  0.50400001928E-02 0. -1.
       -1   -1    0    0    0  501  0.00000000000E+00  0.00000000000E+00 -0.16218300930E+04  0.16218300930E+04  0.50400001928E-02 0.  1.
    10030    2    1    2    0    0  0.00000000000E+00  0.00000000000E+00  0.26736350841E+03  0.35110236944E+04  0.35008290643E+04 0.  0.
        1    1    3    3  502    0 -0.79174649968E+03 -0.15599433309E+04  0.19439993441E+03  0.17601355203E+04  0.50400001928E-02 0.  1.
       -1    1    3    3    0  502  0.79174649968E+03  0.15599433309E+04  0.72963574004E+02  0.17508881742E+04  0.50400001928E-02 0. -1.
</event>
<event>
 5   0  0.1999883E-06  0.3534761E+04  0.7818609E-02  0.8105601E-01
       -2   -1    0    0    0  501  0.00000000000E+00  0.00000000000E+00  0.17861194746E+04  0.17861194746E+04  0.25500000920E-02 0.  1.
        2   -1    0    0  501    0  0.00000000000E+00  0.00000000000E+00 -0.17488380978E+04  0.17488380978E+04  0.25500000920E-02 0. -1.
    10030    2    1    2    0    0  0.00000000000E+00  0.00000000000E+00  0.37281376794E+02  0.35349575723E+04  0.35347609731E+04 0.  0.
        4    1    3    3  502    0  0.13798932101E+04 -0.10528926190E+04 -0.31446045914E+03  0.17639657399E+04  0.12699999809E+01 0. -1.
       -4    1    3    3    0  502 -0.13798932101E+04  0.10528926190E+04  0.35174183593E+03  0.17709918324E+04  0.12699999809E+01 0.  1.
</event>
<event>
 5   0  0.6630125E-07  0.3530832E+04  0.7818609E-02  0.8106522E-01
       -1   -1    0    0    0  501  0.00000000000E+00  0.00000000000E+00  0.25963103391E+04  0.25963103391E+04  0.50400001928E-02 0.  1.
        1   -1    0    0  501    0  0.00000000000E+00  0.00000000000E+00 -0.12004317836E+04  0.12004317836E+04  0.50400001928E-02 0. -1.
    10030    2    1    2    0    0  0.00000000000E+00  0.00000000000E+00  0.13958785556E+04  0.37967421227E+04  0.35308318856E+04 0.  0.
        4    1    3    3  502    0  0.10007524616E+04  0.54882379616E+03 -0.75033281769E+03  0.13659114169E+04  0.12699999809E+01 0. -1.
       -4    1    3    3    0  502 -0.10007524616E+04 -0.54882379616E+03  0.21462113732E+04  0.24308307058E+04  0.12699999809E+01 0.  1.
</event>
<event>
 5   0  0.6630125E-07  0.3552848E+04  0.7818609E-02  0.8101379E-01
       -1   -1    0    0    0  501  0.00000000000E+00  0.00000000000E+00  0.11584056167E+04  0.11584056167E+04  0.50400001928E-02 0. -1.
        1   -1    0    0  501    0  0.00000000000E+00  0.00000000000E+00 -0.27241604857E+04  0.27241604857E+04  0.50400001928E-02 0.  1.
    10030    2    1    2    0    0  0.00000000000E+00  0.00000000000E+00 -0.15657548690E+04  0.38825661024E+04  0.35528483263E+04 0.  0.
        1    1    3    3  502    0  0.14738976139E+04  0.72404420915E+03 -0.15233022945E+04  0.22398803704E+04  0.50400001928E-02 0.  1.
       -1    1    3    3    0  502 -0.14738976139E+04 -0.72404420915E+03 -0.42452574498E+02  0.16426857320E+04  0.50400001928E-02 0. -1.
</event>
<event>
 5   0  0.6890600E-07  0.3080505E+04  0.7818609E-02  0.8221109E-01
        1   -1    0    0  501    0  0.00000000000E+00  0.00000000000E+00  0.17724907911E+04  0.17724907911E+04  0.50400001928E-02 0. -1.
       -1   -1    0    0    0  501  0.00000000000E+00  0.00000000000E+00 -0.13384428712E+04  0.13384428712E+04  0.50400001928E-02 0.  1.
    10030    2    1    2    0    0  0.00000000000E+00  0.00000000000E+00  0.43404791988E+03  0.31109336623E+04  0.30805049350E+04 0.  0.
        3    1    3    3  502    0 -0.43134401529E+03 -0.73021585374E+03  0.15154554362E+04  0.17366283545E+04  0.10100000352E+00 0. -1.
       -3    1    3    3    0  502  0.43134401529E+03  0.73021585374E+03 -0.10814075163E+04  0.13743053078E+04  0.10100000352E+00 0.  1.
</event>
<event>
 5   0  0.6890600E-07  0.2138494E+04  0.7818609E-02  0.8544473E-01
        1   -1    0    0  501    0  0.00000000000E+00  0.00000000000E+00  0.86525057718E+03  0.86525057720E+03  0.50400001928E-02 0. -1.
       -1   -1    0    0    0  501  0.00000000000E+00  0.00000000000E+00 -0.13213392045E+04  0.13213392045E+04  0.50400001928E-02 0.  1.
    10030    2    1    2    0    0  0.00000000000E+00  0.00000000000E+00 -0.45608862735E+03  0.21865897817E+04  0.21384943389E+04 0.  0.
        3    1    3    3  502    0  0.23631051549E+03  0.10427181301E+04 -0.24197949761E+03  0.10962015535E+04  0.10100000352E+00 0. -1.
       -3    1    3    3    0  502 -0.23631051549E+03 -0.10427181301E+04 -0.21410912973E+03  0.10903882282E+04  0.10100000352E+00 0.  1.
</event>
<event>
 5   0  0.1999883E-06  0.3475453E+04  0.7818609E-02  0.8119632E-01
       -2   -1    0    0    0  501  0.00000000000E+00  0.00000000000E+00  0.14617574410E+04  0.14617574410E+04  0.25500000920E-02 0.  1.
        2   -1    0    0  501    0  0.00000000000E+00  0.00000000000E+00 -0.20657964837E+04  0.20657964837E+04  0.25500000920E-02 0. -1.
    10030    2    1    2    0    0  0.00000000000E+00  0.00000000000E+00 -0.60403904261E+03  0.35275539247E+04  0.34754529959E+04 0.  0.
        4    1    3    3  502    0 -0.13610420970E+04  0.58963365947E+03  0.61686328274E+03  0.16064324962E+04  0.12699999809E+01 0.  1.
       -4    1    3    3    0  502  0.13610420970E+04 -0.58963365947E+03 -0.12209023254E+04  0.19211214285E+04  0.12699999809E+01 0. -1.
</event>
<event>
 5   0  0.7378896E-07  0.3512253E+04  0.7818609E-02  0.8110892E-01
        1   -1    0    0  501    0  0.00000000000E+00  0.00000000000E+00  0.18014870313E+04  0.18014870313E+04  0.50400001928E-02 0.  1.
       -1   -1    0    0    0  501  0.00000000000E+00  0.00000000000E+00 -0.17119085336E+04  0.17119085336E+04  0.50400001928E-02 0. -1.
    10030    2    1    2    0    0  0.00000000000E+00  0.00000000000E+00  0.89578497714E+02  0.35133955649E+04  0.35122534203E+04 0.  0.
        2    1    3    3  502    0  0.11201101984E+03  0.14880616154E+04  0.97089114158E+03  0.17803099305E+04  0.25500000920E-02 0.  1.
       -2    1    3    3    0  502 -0.11201101984E+03 -0.14880616154E+04 -0.88131264387E+03  0.17330856344E+04  0.25500000920E-02 0. -1.
</event>
<event>
 5   0  0.6630125E-07  0.3454094E+04  0.7818609E-02  0.8124756E-01
       -1   -1    0    0    0  501  0.00000000000E+00  0.00000000000E+00  0.19909348056E+04  0.19909348056E+04  0.50400001928E-02 0.  1.
        1   -1    0    0  501    0  0.00000000000E+00  0.00000000000E+00 -0.14981361402E+04  0.14981361402E+04  0.50400001928E-02 0. -1.
    10030    2    1    2    0    0  0.00000000000E+00  0.00000000000E+00  0.49279866543E+03  0.34890709458E+04  0.34540940259E+04 0.  0.
        4    1    3    3  502    0 -0.41617977353E+03 -0.12002162014E+04 -0.93547650745E+03  0.15776065552E+04  0.12699999809E+01 0. -1.
       -4    1    3    3    0  502  0.41617977353E+03  0.12002162014E+04  0.14282751729E+04  0.19114643906E+04  0.12699999809E+01 0.  1.
</event>
<event>
 5   0  0.1999883E-06  0.2453216E+04  0.7818609E-02  0.8419845E-01
        2   -1    0    0  501    0  0.00000000000E+00  0.00000000000E+00  0.98226900070E+03  0.98226900070E+03  0.25500000920E-02 0. -1.
       -2   -1    0    0    0  501  0.00000000000E+00  0.00000000000E+00 -0.15317265112E+04  0.15317265112E+04  0.25500000920E-02 0.  1.
    10030    2    1    2    0    0  0.00000000000E+00  0.00000000000E+00 -0.54945751050E+03  0.25139955119E+04  0.24532162314E+04 0.  0.
        4    1    3    3  502    0 -0.91443782287E+03 -0.23617048534E+03 -0.10768030942E+04  0.14322986932E+04  0.12699999809E+01 0.  1.
       -4    1    3    3    0  502  0.91443782287E+03  0.23617048534E+03  0.52734558367E+03  0.10816968187E+04  0.12699999809E+01 0. -1.
</event>
<event>
 5   0  0.2023479E-06  0.3510641E+04  0.7818609E-02  0.8111273E-01
       -2   -1    0    0    0  501  0.00000000000E+00  0.00000000000E+00  0.15976559342E+04  0.15976559342E+04  0.25500000920E-02 0. -1.
        2   -1    0    0  501    0  0.00000000000E+00  0.00000000000E+00 -0.19285441304E+04  0.19285441304E+04  0.25500000920E-02 0.  1.
    10030    2    1    2    0    0  0.00000000000E+00  0.00000000000E+00 -0.33088819626E+03  0.35262000646E+04  0.35106409524E+04 0.  0.
        5    1    3    3  502    0  0.11020835602E+04  0.37279899794E+03 -0.14856363572E+04  0.18869829735E+04  0.46999998093E+01 0.  1.
       -5    1    3    3    0  502 -0.11020835602E+04 -0.37279899794E+03  0.11547481609E+04  0.16392170911E+04  0.46999998093E+01 0. -1.
</event>
<event>
 5   0  0.6630125E-07  0.3554224E+04  0.7818609E-02  0.8101058E-01
       -1   -1    0    0    0  501  0.00000000000E+00  0.00000000000E+00  0.20616673306E+04  0.20616673306E+04  0.50400001928E-02 0. -1.
        1   -1    0    0  501    0  0.00000000000E+00  0.00000000000E+00 -0.15318316766E+04  0.15318316766E+04  0.50400001928E-02 0.  1.
    10030    2    1    2    0    0  0.00000000000E+00  0.00000000000E+00  0.52983565404E+03  0.35934990073E+04  0.35542241481E+04 0.  0.
        4    1    3    3  502    0  0.10167073872E+04 -0.12276797137E+04 -0.52940629075E+03  0.16796321098E+04  0.12699999809E+01 0.  1.
       -4    1    3    3    0  502 -0.10167073872E+04  0.12276797137E+04  0.10592419448E+04  0.19138668975E+04  0.12699999809E+01 0. -1.
</event>
<event>
 5   0  0.1999883E-06  0.2873830E+04  0.7818609E-02  0.8280707E-01
        2   -1    0    0  501    0  0.00000000000E+00  0.00000000000E+00  0.18218644579E+04  0.18218644579E+04  0.25500000920E-02 0.  1.
       -2   -1    0    0    0  501  0.00000000000E+00  0.00000000000E+00 -0.11333030251E+04  0.11333030251E+04  0.25500000920E-02 0. -1.
    10030    2    1    2    0    0  0.00000000000E+00  0.00000000000E+00  0.68856143281E+03  0.29551674830E+04  0.28738298498E+04 0.  0.
        4    1    3    3  502    0  0.26612749899E+03 -0.20489016497E+03 -0.10923725042E+04  0.11428399391E+04  0.12699999809E+01 0. -1.
       -4    1    3    3    0  502 -0.26612749899E+03  0.20489016497E+03  0.17809339370E+04  0.18123275439E+04  0.12699999809E+01 0.  1.
</event>
<event>
 5   0  0.2020725E-06  0.3517955E+04  0.7818609E-02  0.8109548E-01
       -2   -1    0    0    0  501  0.00000000000E+00  0.00000000000E+00  0.13028177522E+04  0.13028177522E+04  0.25500000920E-02 0.  1.
        2   -1    0    0  501    0  0.00000000000E+00  0.00000000000E+00 -0.23748537049E+04  0.23748537049E+04  0.25500000920E-02 0. -1.
    10030    2    1    2    0    0  0.00000000000E+00  0.00000000000E+00 -0.10720359527E+04  0.36776714571E+04  0.35179548409E+04 0.  0.
        3    1    3    3  502    0  0.11829517582E+04 -0.30810932221E+03  0.78619467593E+03  0.14534126376E+04  0.10100000352E+00 0.  1.
       -3    1    3    3    0  502 -0.11829517582E+04  0.30810932221E+03 -0.18582306286E+04  0.22242588195E+04  0.10100000352E+00 0. -1.
</event>
<event>
 5   0  0.6630125E-07  0.2917960E+04  0.7818609E-02  0.8267554E-01
        1   -1    0    0  501    0  0.00000000000E+00  0.00000000000E+00  0.22056429728E+04  0.22056429728E+04  0.50400001928E-02 0. -1.
       -1   -1    0    0    0  501  0.00000000000E+00  0.00000000000E+00 -0.96508022502E+03  0.96508022503E+03  0.50400001928E-02 0.  1.
    10030    2    1    2    0    0  0.00000000000E+00  0.00000000000E+00  0.12405627477E+04  0.31707231978E+04  0.29179598465E+04 0.  0.
        5    1    3    3  502    0 -0.12771840260E+03  0.13139836508E+04  0.12951569510E+04  0.18494103499E+04  0.46999998093E+01 0. -1.
       -5    1    3    3    0  502  0.12771840260E+03 -0.13139836508E+04 -0.54594203211E+02  0.13213128479E+04  0.46999998093E+01 0.  1.
</event>
<event>
 5   0  0.2001768E-06  0.3335255E+04  0.7818609E-02  0.8153982E-01
       -2   -1    0    0    0  501  0.00000000000E+00  0.00000000000E+00  0.13221132794E+04  0.13221132794E+04  0.25500000920E-02 0. -1.
        2   -1    0    0  501    0  0.00000000000E+00  0.00000000000E+00 -0.21034360219E+04  0.21034360219E+04  0.25500000920E-02 0.  1.
    10030    2    1    2    0    0  0.00000000000E+00  0.00000000000E+00 -0.78132274243E+03  0.34255493013E+04  0.33352545312E+04 0.  0.
        2    1    3    3  502    0  0.11674032165E+04 -0.11707242446E+04 -0.16668607979E+03  0.16616888324E+04  0.25500000920E-02 0. -1.
       -2    1    3    3    0  502 -0.11674032165E+04  0.11707242446E+04 -0.61463666264E+03  0.17638604689E+04  0.25500000920E-02 0.  1.
</event>
<event>
 5   0  0.6630125E-07  0.3512653E+04  0.7818609E-02  0.8110798E-01
       -1   -1    0    0    0  501  0.00000000000E+00  0.00000000000E+00  0.11221662828E+04  0.11221662829E+04  0.50400001928E-02 0. -1.
        1   -1    0    0  501    0  0.00000000000E+00  0.00000000000E+00 -0.27488647808E+04  0.27488647808E+04  0.50400001928E-02 0.  1.
    10030    2    1    2    0    0  0.00000000000E+00  0.00000000000E+00 -0.16266984979E+04  0.38710310637E+04  0.35126533408E+04 0.  0.
        5    1    3    3  502    0 -0.14019404274E+04 -0.98084691773E+03 -0.37646397016E+03  0.17519260397E+04  0.46999998093E+01 0.  1.
       -5    1    3    3    0  502  0.14019404274E+04  0.98084691773E+03 -0.12502345278E+04  0.21191050239E+04  0.46999998093E+01 0. -1.
</event>
<event>
 5   0  0.2001768E-06  0.3351848E+04  0.7818609E-02  0.8149827E-01
       -2   -1    0    0    0  501  0.00000000000E+00  0.00000000000E+00  0.11889268192E+04  0.11889268192E+04  0.25500000920E-02 0. -1.
        2   -1    0    0  501    0  0.00000000000E+00  0.00000000000E+00 -0.23624005028E+04  0.23624005028E+04  0.25500000920E-02 0.  1.
    10030    2    1    2    0    0  0.00000000000E+00  0.00000000000E+00 -0.11734736836E+04  0.35513273220E+04  0.33518480368E+04 0.  0.
        2    1    3    3  502    0  0.11069326426E+04  0.12290811350E+04 -0.87257183938E+03  0.18701128112E+04  0.25500000920E-02 0.  1.
       -2    1    3    3    0  502 -0.11069326426E+04 -0.12290811350E+04 -0.30090184424E+03  0.16812145108E+04  0.25500000920E-02 0. -1.
</event>
<event>
 5   0  0.6890600E-07  0.2242802E+04  0.7818609E-02  0.8500821E-01
       -1   -1    0    0    0  501  0.00000000000E+00  0.00000000000E+00  0.74674786525E+03  0.74674786526E+03  0.50400001928E-02 0.  1.
        1   -1    0    0  501    0  0.00000000000E+00  0.00000000000E+00 -0.16840218563E+04  0.16840218563E+04  0.50400001928E-02 0. -1.
    10030    2    1    2    0    0  0.00000000000E+00  0.00000000000E+00 -0.93727399109E+03  0.24307697216E+04  0.22428015751E+04 0.  0.
        3    1    3    3  502    0 -0.53887841189E+03  0.28705244448E+03  0.55080710045E+03  0.82230014033E+03  0.10100000352E+00 0.  1.
       -3    1    3    3    0  502  0.53887841189E+03 -0.28705244448E+03 -0.14880810915E+04  0.16084695813E+04  0.10100000352E+00 0. -1.
</event>
<event>
 5   0  0.2020725E-06  0.3547608E+04  0.7818609E-02  0.8102599E-01
       -2   -1    0    0    0  501  0.00000000000E+00  0.00000000000E+00  0.22961543702E+04  0.22961543702E+04  0.25500000920E-02 0.  1.
        2   -1    0    0  501    0  0.00000000000E+00  0.00000000000E+00 -0.13702829733E+04  0.13702829733E+04  0.25500000920E-02 0. -1.
    10030    2    1    2    0    0  0.00000000000E+00  0.00000000000E+00  0.92587139695E+03  0.36664373435E+04  0.35476083422E+04 0.  0.
        3    1    3    3  502    0 -0.95261214313E+03  0.76952380000E+03 -0.86330302663E+03  0.14983086798E+04  0.10100000352E+00 0. -1.
       -3    1    3    3    0  502  0.95261214313E+03 -0.76952380000E+03  0.17891744236E+04  0.21681286637E+04  0.10100000352E+00 0.  1.
</event>
<event>
 5   0  0.6630125E-07  0.3479897E+04  0.7818609E-02  0.8118571E-01
        1   -1    0    0  501    0  0.00000000000E+00  0.00000000000E+00  0.16805017337E+04  0.16805017337E+04  0.50400001928E-02 0.  1.
       -1   -1    0    0    0  501  0.00000000000E+00  0.00000000000E+00 -0.18014977193E+04  0.18014977193E+04  0.50400001928E-02 0. -1.
    10030    2    1    2    0    0  0.00000000000E+00  0.00000000000E+00 -0.12099598557E+03  0.34819994530E+04  0.34798965735E+04 0.  0.
        4    1    3    3  502    0  0.92712567482E+03 -0.41477380700E+03 -0.14740863170E+04  0.17901205017E+04  0.12699999809E+01 0. -1.
       -4    1    3    3    0  502 -0.92712567482E+03  0.41477380700E+03  0.13530903314E+04  0.16918789513E+04  0.12699999809E+01 0.  1.
</event>
<event>
 5   0  0.6630125E-07  0.3538655E+04  0.7818609E-02  0.8104690E-01
        1   -1    0    0  501    0  0.00000000000E+00  0.00000000000E+00  0.26174588579E+04  0.26174588579E+04  0.50400001928E-02 0. -1.
       -1   -1    0    0    0  501  0.00000000000E+00  0.00000000000E+00 -0.11960148272E+04  0.11960148272E+04  0.50400001928E-02 0.  1.
    10030    2    1    2    0    0  0.00000000000E+00  0.00000000000E+00  0.14214440307E+04  0.38134736851E+04  0.35386548878E+04 0.  0.
        1    1    3    3  502    0 -0.12727888558E+04 -0.20211607704E+03  0.20171742204E+04  0.23937072117E+04  0.50400001928E-02 0. -1.
       -1    1    3    3    0  502  0.12727888558E+04  0.20211607704E+03 -0.59573018979E+03  0.14197664734E+04  0.50400001928E-02 0.  1.
</event>
<event>
 5   0  0.2001768E-06  0.3524363E+04  0.7818609E-02  0.8108040E-01
        2   -1    0    0  501    0  0.00000000000E+00  0.00000000000E+00  0.14406825085E+04  0.14406825085E+04  0.25500000920E-02 0. -1.
       -2   -1    0    0    0  501  0.00000000000E+00  0.00000000000E+00 -0.21554257986E+04  0.21554257986E+04  0.25500000920E-02 0.  1.
    10030    2    1    2    0    0  0.00000000000E+00  0.00000000000E+00 -0.71474329013E+03  0.35961083071E+04  0.35243633447E+04 0.  0.
        2    1    3    3  502    0 -0.38436003245E+03  0.12284867310E+04  0.87061075496E+03  0.15539869270E+04  0.25500000920E-02 0. -1.
       -2    1    3    3    0  502  0.38436003245E+03 -0.12284867310E+04 -0.15853540451E+04  0.20421213801E+04  0.25500000920E-02 0.  1.
</event>
<event>
 5   0  0.6890600E-07  0.3443114E+04  0.7818609E-02  0.8127405E-01
        1   -1    0    0  501    0  0.00000000000E+00  0.00000000000E+00  0.19268284829E+04  0.19268284829E+04  0.50400001928E-02 0. -1.
       -1   -1    0    0    0  501  0.00000000000E+00  0.00000000000E+00 -0.15381540575E+04  0.15381540575E+04  0.50400001928E-02 0.  1.
    10030    2    1    2    0    0  0.00000000000E+00  0.00000000000E+00  0.38867442539E+03  0.34649825405E+04  0.34431143165E+04 0.  0.
        3    1    3    3  502    0 -0.22523519403E+03  0.15195504773E+04  0.97644407776E+03  0.18202218527E+04  0.10100000352E+00 0. -1.
       -3    1    3    3    0  502  0.22523519403E+03 -0.15195504773E+04 -0.58776965237E+03  0.16447606878E+04  0.10100000352E+00 0.  1.
</event>
<event>
 5   0  0.1999883E-06  0.3513017E+04  0.7818609E-02  0.8110712E-01
       -2   -1    0    0    0  501  0.00000000000E+00  0.00000000000E+00  0.10687877514E+04  0.10687877514E+04  0.25500000920E-02 0.  1.
        2   -1    0    0  501    0  0.00000000000E+00  0.00000000000E+00 -0.28867498604E+04  0.28867498604E+04  0.25500000920E-02 0. -1.
    10030    2    1    2    0    0  0.00000000000E+00  0.00000000000E+00 -0.18179621090E+04  0.39555376119E+04  0.35130174450E+04 0.  0.
        4    1    3    3  502    0 -0.12284985283E+04 -0.96510711779E+03 -0.18130418002E+04  0.23932744442E+04  0.12699999809E+01 0. -1.
       -4    1    3    3    0  502  0.12284985283E+04  0.96510711779E+03 -0.49203087773E+01  0.15622631677E+04  0.12699999809E+01 0.  1.
</event>
<event>
 5   0  0.2020725E-06  0.3430636E+04  0.7818609E-02  0.8130428E-01
       -2   -1    0    0    0  501  0.00000000000E+00  0.00000000000E+00  0.12990888461E+04  0.12990888461E+04  0.25500000920E-02 0. -1.
        2   -1    0    0  501    0  0.00000000000E+00  0.00000000000E+00 -0.22649069624E+04  0.22649069624E+04  0.25500000920E-02 0.  1.
    10030    2    1    2    0    0  0.00000000000E+00  0.00000000000E+00 -0.96581811635E+03  0.35639958085E+04  0.34306357266E+04 0.  0.
        3    1    3    3  502    0  0.13707590464E+04 -0.10311713956E+04 -0.48761867892E+03  0.17832741787E+04  0.10100000352E+00 0. -1.
       -3    1    3    3    0  502 -0.13707590464E+04  0.10311713956E+04 -0.47819943743E+03  0.17807216297E+04  0.10100000352E+00 0.  1.
</event>
<event>
 5   0  0.2023479E-06  0.3461760E+04  0.7818609E-02  0.8122912E-01
       -2   -1    0    0    0  501  0.00000000000E+00  0.00000000000E+00  0.16857990191E+04  0.16857990191E+04  0.25500000920E-02 0. -1.
        2   -1    0    0  501    0  0.00000000000E+00  0.00000000000E+00 -0.17771669826E+04  0.17771669826E+04  0.25500000920E-02 0.  1.
    10030    2    1    2    0    0  0.00000000000E+00  0.00000000000E+00 -0.91367963504E+02  0.34629660017E+04  0.34617604516E+04 0.  0.
        5    1    3    3  502    0  0.11635915246E+04 -0.16821088831E+03  0.12250670742E+04  0.16979551129E+04  0.46999998093E+01 0.  1.
       -5    1    3    3    0  502 -0.11635915246E+04  0.16821088831E+03 -0.13164350377E+04  0.17650108888E+04  0.46999998093E+01 0. -1.
</event>
<event>
 5   0  0.6630125E-07  0.3396554E+04  0.7818609E-02  0.8138753E-01
        1   -1    0    0  501    0  0.00000000000E+00  0.00000000000E+00  0.21904232679E+04  0.21904232679E+04  0.50400001928E-02 0.  1.
       -1   -1    0    0    0  501  0.00000000000E+00  0.00000000000E+00 -0.13167065113E+04  0.13167065113E+04  0.50400001928E-02 0. -1.
    10030    2    1    2    0    0  0.00000000000E+00  0.00000000000E+00  0.87371675662E+03  0.35071297792E+04  0.33965538885E+04 0.  0.
        4    1    3    3  502    0 -0.32988367672E+03  0.32145317710E+03  0.21246955424E+04  0.21740487911E+04  0.12699999809E+01 0.  1.
       -4    1    3    3    0  502  0.32988367672E+03 -0.32145317710E+03 -0.12509787858E+04  0.13330809881E+04  0.12699999809E+01 0. -1.
</event>
<event>
 5   0  0.6890600E-07  0.3447550E+04  0.7818609E-02  0.8126334E-01
       -1   -1    0    0    0  501  0.00000000000E+00  0.00000000000E+00  0.28480387464E+04  0.28480387464E+04  0.50400001928E-02 0. -1.
        1   -1    0    0  501    0  0.00000000000E+00  0.00000000000E+00 -0.10433142606E+04  0.10433142606E+04  0.50400001928E-02 0.  1.
    10030    2    1    2    0    0  0.00000000000E+00  0.00000000000E+00  0.18047244859E+04  0.38913530070E+04  0.34475495291E+04 0.  0.
        3    1    3    3  502    0  0.74708841711E+03  0.15248852561E+04  0.12371659001E+04  0.21009511232E+04  0.10100000352E+00 0. -1.
       -3    1    3    3    0  502 -0.74708841711E+03 -0.15248852561E+04  0.56755858571E+03  0.17904018839E+04  0.10100000352E+00 0.  1.
</event>
<event>
 5   0  0.6630125E-07  0.2995634E+04  0.7818609E-02  0.8244979E-01
       -1   -1    0    0    0  501  0.00000000000E+00  0.00000000000E+00  0.11567306497E+04  0.11567306497E+04  0.50400001928E-02 0. -1.
        1   -1    0    0  501    0  0.00000000000E+00  0.00000000000E+00 -0.19394802198E+04  0.19394802198E+04  0.50400001928E-02 0.  1.
    10030    2    1    2    0    0  0.00000000000E+00  0.00000000000E+00 -0.78274957016E+03  0.30962108695E+04  0.29956342999E+04 0.  0.
        5    1    3    3  502    0 -0.10553124459E+04 -0.22082989261E+03 -0.14659859641E+04  0.18197766723E+04  0.46999998093E+01 0.  1.
       -5    1    3    3    0  502  0.10553124459E+04  0.22082989261E+03  0.68323639396E+03  0.12764341973E+04  0.46999998093E+01 0. -1.
</event>
<event>
 5   0  0.1999883E-06  0.3536272E+04  0.7818609E-02  0.8105247E-01
        2   -1    0    0  501    0  0.00000000000E+00  0.00000000000E+00  0.18129839099E+04  0.18129839099E+04  0.25500000920E-02 0. -1.
       -2   -1    0    0    0  501  0.00000000000E+00  0.00000000000E+00 -0.17243976545E+04  0.17243976545E+04  0.25500000920E-02 0.  1.
    10030    2    1    2    0    0  0.00000000000E+00  0.00000000000E+00  0.88586255444E+02  0.35373815644E+04  0.35362721625E+04 0.  0.
        4    1    3    3  502    0  0.13555727662E+04  0.41412577318E+03  0.11016138039E+04  0.17951691470E+04  0.12699999809E+01 0. -1.
       -4    1    3    3    0  502 -0.13555727662E+04 -0.41412577318E+03 -0.10130275485E+04  0.17422124174E+04  0.12699999809E+01 0.  1.
</event>
<event>
 5   0  0.1999883E-06  0.3617671E+04  0.7818609E-02  0.8086456E-01
       -2   -1    0    0    0  501  0.00000000000E+00  0.00000000000E+00  0.15955831813E+04  0.15955831813E+04  0.25500000920E-02 0.  1.
        2   -1    0    0  501    0  0.00000000000E+00  0.00000000000E+00 -0.20505893126E+04  0.20505893126E+04  0.25500000920E-02 0. -1.
    10030    2    1    2    0    0  0.00000000000E+00  0.00000000000E+00 -0.45500613128E+03  0.36461724939E+04  0.36176709740E+04 0.  0.
        4    1    3    3  502    0  0.12542636434E+04  0.10846884274E+04  0.50079488176E+03  0.17322018930E+04  0.12699999809E+01 0.  1.
       -4    1    3    3    0  502 -0.12542636434E+04 -0.10846884274E+04 -0.95580101305E+03  0.19139706009E+04  0.12699999809E+01 0. -1.
</event>
<event>
 5   0  0.2023479E-06  0.3310822E+04  0.7818609E-02  0.8160147E-01
       -2   -1    0    0    0  501  0.00000000000E+00  0.00000000000E+00  0.81840618947E+03  0.81840618947E+03  0.25500000920E-02 0.  1.
        2   -1    0    0  501    0  0.00000000000E+00  0.00000000000E+00 -0.33484418921E+04  0.33484418921E+04  0.25500000920E-02 0. -1.
    10030    2    1    2    0    0  0.00000000000E+00  0.00000000000E+00 -0.25300357026E+04  0.41668480815E+04  0.33108219943E+04 0.  0.
        5    1    3    3  502    0  0.12655936325E+03  0.12891926599E+04 -0.25622008564E+04  0.28710503836E+04  0.46999998093E+01 0. -1.
       -5    1    3    3    0  502 -0.12655936325E+03 -0.12891926599E+04  0.32165153791E+02  0.12957976979E+04  0.46999998093E+01 0.  1.
</event>
<event>
 5   0  0.1999883E-06  0.3505225E+04  0.7818609E-02  0.8112553E-01
       -2   -1    0    0    0  501  0.00000000000E+00  0.00000000000E+00  0.20598879676E+04  0.20598879676E+04  0.25500000920E-02 0.  1.
        2   -1    0    0  501    0  0.00000000000E+00  0.00000000000E+00 -0.14911737795E+04  0.14911737795E+04  0.25500000920E-02 0. -1.
    10030    2    1    2    0    0  0.00000000000E+00  0.00000000000E+00  0.56871418804E+03  0.35510617471E+04  0.35052252002E+04 0.  0.
        4    1    3    3  502    0 -0.15459906221E+03 -0.67113157089E+03  0.19170553781E+04  0.20370128598E+04  0.12699999809E+01 0.  1.
       -4    1    3    3    0  502  0.15459906221E+03  0.67113157089E+03 -0.13483411900E+04  0.15140488873E+04  0.12699999809E+01 0. -1.
</event>
<event>
 5   0  0.2001768E-06  0.3520259E+04  0.7818609E-02  0.8109005E-01
        2   -1    0    0  501    0  0.00000000000E+00  0.00000000000E+00  0.15091441825E+04  0.15091441825E+04  0.25500000920E-02 0. -1.
       -2   -1    0    0    0  501  0.00000000000E+00  0.00000000000E+00 -0.20528565028E+04  0.20528565028E+04  0.25500000920E-02 0.  1.
    10030    2    1    2    0    0  0.00000000000E+00  0.00000000000E+00 -0.54371232032E+03  0.35620006852E+04  0.35202593362E+04 0.  0.
        2    1    3    3  502    0  0.74420998482E+03  0.93960191451E+03 -0.15760757422E+04  0.19800795450E+04  0.25500000920E-02 0.  1.
       -2    1    3    3    0  502 -0.74420998482E+03 -0.93960191451E+03  0.10323634219E+04  0.15819211403E+04  0.25500000920E-02 0. -1.
</event>
<event>
 5   0  0.2023479E-06  0.3558688E+04  0.7818609E-02  0.8100021E-01
        2   -1    0    0  501    0  0.00000000000E+00  0.00000000000E+00  0.21389316719E+04  0.21389316719E+04  0.25500000920E-02 0.  1.
       -2   -1    0    0    0  501  0.00000000000E+00  0.00000000000E+00 -0.14802086275E+04  0.14802086275E+04  0.25500000920E-02 0. -1.
    10030    2    1    2    0    0  0.00000000000E+00  0.00000000000E+00  0.65872304437E+03  0.36191402994E+04  0.35586880247E+04 0.  0.
        5    1    3    3  502    0  0.16191092005E+04 -0.13437045714E+03  0.10672717920E+04  0.19438778745E+04  0.46999998093E+01 0.  1.
       -5    1    3    3    0  502 -0.16191092005E+04  0.13437045714E+03 -0.40854874762E+03  0.16752624249E+04  0.46999998093E+01 0. -1.
</event>
<event>
 5   0  0.2023479E-06  0.2547892E+04  0.7818609E-02  0.8386120E-01
       -2   -1    0    0    0  501  0.00000000000E+00  0.00000000000E+00  0.17677004937E+04  0.17677004937E+04  0.25500000920E-02 0. -1.
        2   -1    0    0  501    0  0.00000000000E+00  0.00000000000E+00 -0.91810715524E+03  0.91810715524E+03  0.25500000920E-02 0.  1.
    10030    2    1    2    0    0  0.00000000000E+00  0.00000000000E+00  0.84959333846E+03  0.26858076489E+04  0.25478920476E+04 0.  0.
        5    1    3    3  502    0  0.35920844619E+00  0.11557602679E+04 -0.14005775954E+03  0.11642251465E+04  0.46999998093E+01 0.  1.
       -5    1    3    3    0  502 -0.35920844619E+00 -0.11557602679E+04  0.98965109800E+03  0.15215825024E+04  0.46999998093E+01 0. -1.
</event>
<event>
 5   0  0.7378896E-07  0.3392399E+04  0.7818609E-02  0.8139774E-01
       -1   -1    0    0    0  501  0.00000000000E+00  0.00000000000E+00  0.17189424117E+04  0.17189424117E+04  0.50400001928E-02 0.  1.
        1   -1    0    0  501    0  0.00000000000E+00  0.00000000000E+00 -0.16737572007E+04  0.16737572007E+04  0.50400001928E-02 0. -1.
    10030    2    1    2    0    0  0.00000000000E+00  0.00000000000E+00  0.45185211053E+02  0.33926996124E+04  0.33923987025E+04 0.  0.
        2    1    3    3  502    0  0.87100076303E+03  0.12255448880E+04  0.80783079183E+03  0.17068078948E+04  0.25500000920E-02 0.  1.
       -2    1    3    3    0  502 -0.87100076303E+03 -0.12255448880E+04 -0.76264558077E+03  0.16858917176E+04  0.25500000920E-02 0. -1.
</event>
<event>
 5   0  0.7378896E-07  0.3608310E+04  0.7818609E-02  0.8088591E-01
        1   -1    0    0  501    0  0.00000000000E+00  0.00000000000E+00  0.14100180349E+04  0.14100180349E+04  0.50400001928E-02 0.  1.
       -1   -1    0    0    0  501  0.00000000000E+00  0.00000000000E+00 -0.23084634033E+04  0.23084634033E+04  0.50400001928E-02 0. -1.
    10030    2    1    2    0    0  0.00000000000E+00  0.00000000000E+00 -0.89844536839E+03  0.37184814381E+04  0.36083098711E+04 0.  0.
        2    1    3    3  502    0 -0.62075479942E+03  0.16903462933E+04 -0.56382941095E+03  0.18869315613E+04  0.25500000920E-02 0. -1.
       -2    1    3    3    0  502  0.62075479942E+03 -0.16903462933E+04 -0.33461595744E+03  0.18315498768E+04  0.25500000920E-02 0.  1.
</event>
<event>
 5   0  0.2023479E-06  0.3507814E+04  0.7818609E-02  0.8111941E-01
       -2   -1    0    0    0  501  0.00000000000E+00  0.00000000000E+00  0.12165919310E+04  0.12165919310E+04  0.25500000920E-02 0. -1.
        2   -1    0    0  501    0  0.00000000000E+00  0.00000000000E+00 -0.25285302111E+04  0.25285302111E+04  0.25500000920E-02 0.  1.
    10030    2    1    2    0    0  0.00000000000E+00  0.00000000000E+00 -0.13119382801E+04  0.37451221421E+04  0.35078138218E+04 0.  0.
        5    1    3    3  502    0  0.10464357475E+04 -0.13373982068E+04 -0.11244061099E+04  0.20366572925E+04  0.46999998093E+01 0. -1.
       -5    1    3    3    0  502 -0.10464357475E+04  0.13373982068E+04 -0.18753217022E+03  0.17084648495E+04  0.46999998093E+01 0.  1.
</event>
<event>
 5   0  0.6630125E-07  0.3504803E+04  0.7818609E-02  0.8112653E-01
       -1   -1    0    0    0  501  0.00000000000E+00  0.00000000000E+00  0.18571383937E+04  0.18571383937E+04  0.50400001928E-02 0.  1.
        1   -1    0    0  501    0  0.00000000000E+00  0.00000000000E+00 -0.16535715829E+04  0.16535715829E+04  0.50400001928E-02 0. -1.
    10030    2    1    2    0    0  0.00000000000E+00  0.00000000000E+00  0.20356681085E+03  0.35107099766E+04  0.35048031462E+04 0.  0.
        5    1    3    3  502    0  0.16375844977E+04  0.15059778700E+03 -0.50465125475E+03  0.17201911694E+04  0.46999998093E+01 0.  1.
       -5    1    3    3    0  502 -0.16375844977E+04 -0.15059778700E+03  0.70821806560E+03  0.17905188072E+04  0.46999998093E+01 0. -1.
</event>
<event>
 5   0  0.2020725E-06  0.3036915E+04  0.7818609E-02  0.8233267E-01
        2   -1    0    0  501    0  0.00000000000E+00  0.00000000000E+00  0.13456367564E+04  0.13456367565E+04  0.25500000920E-02 0.  1.
       -2   -1    0    0    0  501  0.00000000000E+00  0.00000000000E+00 -0.17134739508E+04  0.17134739508E+04  0.25500000920E-02 0. -1.
    10030    2    1    2    0    0  0.00000000000E+00  0.00000000000E+00 -0.36783719434E+03  0.30591107072E+04  0.30369152306E+04 0.  0.
        3    1    3    3  502    0  0.11995463667E+04  0.14147943840E+03 -0.11108535460E+04  0.16410129580E+04  0.10100000352E+00 0.  1.
       -3    1    3    3    0  502 -0.11995463667E+04 -0.14147943840E+03  0.74301635164E+03  0.14180977493E+04  0.10100000352E+00 0. -1.
</event>
<event>
 5   0  0.6630125E-07  0.3158048E+04  0.7818609E-02  0.8199985E-01
       -1   -1    0    0    0  501  0.00000000000E+00  0.00000000000E+00  0.22036164544E+04  0.22036164544E+04  0.50400001928E-02 0.  1.
        1   -1    0    0  501    0  0.00000000000E+00  0.00000000000E+00 -0.11314661159E+04  0.11314661159E+04  0.50400001928E-02 0. -1.
    10030    2    1    2    0    0  0.00000000000E+00  0.00000000000E+00  0.10721503385E+04  0.33350825702E+04  0.31580483533E+04 0.  0.
        1    1    3    3  502    0  0.91750884146E+03 -0.12791416512E+04  0.40548423242E+03  0.16255593809E+04  0.50400001928E-02 0. -1.
       -1    1    3    3    0  502 -0.91750884146E+03  0.12791416512E+04  0.66666610609E+03  0.17095231894E+04  0.50400001928E-02 0.  1.
</event>
<event>
 5   0  0.7378896E-07  0.3558458E+04  0.7818609E-02  0.8100074E-01
        1   -1    0    0  501    0  0.00000000000E+00  0.00000000000E+00  0.12871067860E+04  0.12871067860E+04  0.50400001928E-02 0.  1.
       -1   -1    0    0    0  501  0.00000000000E+00  0.00000000000E+00 -0.24595127533E+04  0.24595127533E+04  0.50400001928E-02 0. -1.
    10030    2    1    2    0    0  0.00000000000E+00  0.00000000000E+00 -0.11724059674E+04  0.37466195393E+04  0.35584578430E+04 0.  0.
        2    1    3    3  502    0 -0.13798698595E+04 -0.97330287919E+03 -0.11764684226E+04  0.20580178020E+04  0.25500000920E-02 0. -1.
       -2    1    3    3    0  502  0.13798698595E+04  0.97330287919E+03  0.40624552821E+01  0.16886017373E+04  0.25500000920E-02 0.  1.
</event>
<event>
 5   0  0.6630125E-07  0.3547520E+04  0.7818609E-02  0.8102620E-01
        1   -1    0    0  501    0  0.00000000000E+00  0.00000000000E+00  0.16332443832E+04  0.16332443832E+04  0.50400001928E-02 0. -1.
       -1   -1    0    0    0  501  0.00000000000E+00  0.00000000000E+00 -0.19263651594E+04  0.19263651595E+04  0.50400001928E-02 0.  1.
    10030    2    1    2    0    0  0.00000000000E+00  0.00000000000E+00 -0.29312077621E+03  0.35596095427E+04  0.35475203040E+04 0.  0.
        5    1    3    3  502    0  0.94269465682E+03  0.14834160137E+04 -0.38613479831E+03  0.17995328444E+04  0.46999998093E+01 0. -1.
       -5    1    3    3    0  502 -0.94269465682E+03 -0.14834160137E+04  0.93014022108E+02  0.17600766983E+04  0.46999998093E+01 0.  1.
</event>
<event>
 5   0  0.2001768E-06  0.3525037E+04  0.7818609E-02  0.8107882E-01
        2   -1    0    0  501    0  0.00000000000E+00  0.00000000000E+00  0.19785343935E+04  0.19785343935E+04  0.25500000920E-02 0. -1.
       -2   -1    0    0    0  501  0.00000000000E+00  0.00000000000E+00 -0.15700872616E+04  0.15700872616E+04  0.25500000920E-02 0.  1.
    10030    2    1    2    0    0  0.00000000000E+00  0.00000000000E+00  0.40844713189E+03  0.35486216551E+04  0.35250371049E+04 0.  0.
        2    1    3    3  502    0 -0.17260582431E+04 -0.30284459152E+03  0.14602651784E+02  0.17524854187E+04  0.25500000920E-02 0.  1.
       -2    1    3    3    0  502  0.17260582431E+04  0.30284459152E+03  0.39384448011E+03  0.17961362364E+04  0.25500000920E-02 0. -1.
</event>
<event>
 5   0  0.1999883E-06  0.2812102E+04  0.7818609E-02  0.8299521E-01
        2   -1    0    0  501    0  0.00000000000E+00  0.00000000000E+00  0.11861025012E+04  0.11861025012E+04  0.25500000920E-02 0.  1.
       -2   -1    0    0    0  501  0.00000000000E+00  0.00000000000E+00 -0.16667863121E+04  0.16667863121E+04  0.25500000920E-02 0. -1.
    10030    2    1    2    0    0  0.00000000000E+00  0.00000000000E+00 -0.48068381090E+03  0.28528888133E+04  0.28121019994E+04 0.  0.
        4    1    3    3  502    0  0.56237673616E+03 -0.26085149986E+03 -0.15206551174E+04  0.16421646377E+04  0.12699999809E+01 0. -1.
       -4    1    3    3    0  502 -0.56237673616E+03  0.26085149986E+03  0.10399713065E+04  0.12107241757E+04  0.12699999809E+01 0.  1.
</event>
<event>
 5   0  0.6890600E-07  0.3487303E+04  0.7818609E-02  0.8116806E-01
       -1   -1    0    0    0  501  0.00000000000E+00  0.00000000000E+00  0.11393715451E+04  0.11393715451E+04  0.50400001928E-02 0. -1.
        1   -1    0    0  501    0  0.00000000000E+00  0.00000000000E+00 -0.26684188184E+04  0.26684188184E+04  0.50400001928E-02 0.  1.
    10030    2    1    2    0    0  0.00000000000E+00  0.00000000000E+00 -0.15290472733E+04  0.38077903636E+04  0.34873029534E+04 0.  0.
        3    1    3    3  502    0  0.92488718912E+03 -0.58819997729E+03  0.71617049042E+03  0.13093111576E+04  0.10100000352E+00 0. -1.
       -3    1    3    3    0  502 -0.92488718912E+03  0.58819997729E+03 -0.22452177637E+04  0.24984792060E+04  0.10100000352E+00 0.  1.
</event>
<event>
 5   0  0.2001768E-06  0.3438640E+04  0.7818609E-02  0.8128487E-01
        2   -1    0    0  501    0  0.00000000000E+00  0.00000000000E+00  0.27957809770E+04  0.27957809770E+04  0.25500000920E-02 0.  1.
       -2   -1    0    0    0  501  0.00000000000E+00  0.00000000000E+00 -0.10573292903E+04  0.10573292903E+04  0.25500000920E-02 0. -1.
    10030    2    1    2    0    0  0.00000000000E+00  0.00000000000E+00  0.17384516867E+04  0.38531102673E+04  0.34386399150E+04 0.  0.
        2    1    3    3  502    0  0.39682779626E+03 -0.86555863628E+03  0.24733493111E+04  0.26503058064E+04  0.25500000920E-02 0.  1.
       -2    1    3    3    0  502 -0.39682779626E+03  0.86555863628E+03 -0.73489762444E+03  0.12028044609E+04  0.25500000920E-02 0. -1.
</event>
<event>
 5   0  0.6630125E-07  0.3635097E+04  0.7818609E-02  0.8082499E-01
        1   -1    0    0  501    0  0.00000000000E+00  0.00000000000E+00  0.22478040354E+04  0.22478040354E+04  0.50400001928E-02 0. -1.
       -1   -1    0    0    0  501  0.00000000000E+00  0.00000000000E+00 -0.14696484697E+04  0.14696484697E+04  0.50400001928E-02 0.  1.
    10030    2    1    2    0    0  0.00000000000E+00  0.00000000000E+00  0.77815556569E+03  0.37174525052E+04  0.36350965659E+04 0.  0.
        5    1    3    3  502    0 -0.32296763785E+03  0.16745993301E+04 -0.25354454209E+03  0.17242093655E+04  0.46999998093E+01 0.  1.
       -5    1    3    3    0  502  0.32296763785E+03 -0.16745993301E+04  0.10317001078E+04  0.19932431396E+04  0.46999998093E+01 0. -1.
</event>
<event>
 5   0  0.6630125E-07  0.3483867E+04  0.7818609E-02  0.8117624E-01
        3   -1    0    0  501    0  0.00000000000E+00  0.00000000000E+00  0.12081885926E+04  0.12081885968E+04  0.10100000352E+00 0. -1.
       -3   -1    0    0    0  501  0.00000000000E+00  0.00000000000E+00 -0.25114717614E+04  0.25114717634E+04  0.10100000352E+00 0.  1.
    10030    2    1    2    0    0  0.00000000000E+00  0.00000000000E+00 -0.13032831687E+04  0.37196603602E+04  0.34838665557E+04 0.  0.
        5    1    3    3  502    0 -0.12601078606E+04  0.52234111074E+03  0.50500676891E+03  0.14545672838E+04  0.46999998093E+01 0. -1.
       -5    1    3    3    0  502  0.12601078606E+04 -0.52234111074E+03 -0.18082899376E+04  0.22650930765E+04  0.46999998093E+01 0.  1.
</event>
<event>
 5   0  0.6630125E-07  0.3010566E+04  0.7818609E-02  0.8240720E-01
       -1   -1    0    0    0  501  0.00000000000E+00  0.00000000000E+00  0.11734244869E+04  0.11734244869E+04  0.50400001928E-02 0.  1.
        1   -1    0    0  501    0  0.00000000000E+00  0.00000000000E+00 -0.19309945708E+04  0.19309945708E+04  0.50400001928E-02 0. -1.
    10030    2    1    2    0    0  0.00000000000E+00  0.00000000000E+00 -0.75757008384E+03  0.31044190577E+04  0.30105656037E+04 0.  0.
        4    1    3    3  502    0 -0.10015580299E+04  0.46907382619E+03  0.67418820762E+03  0.12952529073E+04  0.12699999809E+01 0.  1.
       -4    1    3    3    0  502  0.10015580299E+04 -0.46907382619E+03 -0.14317582915E+04  0.18091661504E+04  0.12699999809E+01 0. -1.
</event>
<event>
 5   0  0.7378896E-07  0.3868809E+04  0.7818609E-02  0.8031548E-01
       -1   -1    0    0    0  501  0.00000000000E+00  0.00000000000E+00  0.15602924213E+04  0.15602924213E+04  0.50400001928E-02 0.  1.
        1   -1    0    0  501    0  0.00000000000E+00  0.00000000000E+00 -0.23982170056E+04  0.23982170056E+04  0.50400001928E-02 0. -1.
    10030    2    1    2    0    0  0.00000000000E+00  0.00000000000E+00 -0.83792458433E+03  0.39585094269E+04  0.38688085083E+04 0.  0.
        2    1    3    3  502    0 -0.15452286076E+04  0.80631858465E+03 -0.12774868412E+04  0.21609844375E+04  0.25500000920E-02 0. -1.
       -2    1    3    3    0  502  0.15452286076E+04 -0.80631858465E+03  0.43956225692E+03  0.17975249894E+04  0.25500000920E-02 0.  1.
</event>
<event>
 5   0  0.6630125E-07  0.3523780E+04  0.7818609E-02  0.8108177E-01
        1   -1    0    0  501    0  0.00000000000E+00  0.00000000000E+00  0.17665816702E+04  0.17665816702E+04  0.50400001928E-02 0. -1.
       -1   -1    0    0    0  501  0.00000000000E+00  0.00000000000E+00 -0.17572109161E+04  0.17572109161E+04  0.50400001928E-02 0.  1.
    10030    2    1    2    0    0  0.00000000000E+00  0.00000000000E+00  0.93707540910E+01  0.35237925862E+04  0.35237801265E+04 0.  0.
        5    1    3    3  502    0  0.16273839454E+04 -0.61178295942E+03 -0.28093357683E+03  0.17611367521E+04  0.46999998093E+01 0.  1.
       -5    1    3    3    0  502 -0.16273839454E+04  0.61178295942E+03  0.29030433092E+03  0.17626558341E+04  0.46999998093E+01 0. -1.
</event>
<event>
 5   0  0.6630125E-07  0.3385720E+04  0.7818609E-02  0.8141420E-01
       -1   -1    0    0    0  501  0.00000000000E+00  0.00000000000E+00  0.15599183176E+04  0.15599183176E+04  0.50400001928E-02 0. -1.
        1   -1    0    0  501    0  0.00000000000E+00  0.00000000000E+00 -0.18371313776E+04  0.18371313776E+04  0.50400001928E-02 0.  1.
    10030    2    1    2    0    0  0.00000000000E+00  0.00000000000E+00 -0.27721305997E+03  0.33970496953E+04  0.33857199458E+04 0.  0.
        1    1    3    3  502    0  0.11043331341E+03 -0.28229020605E+03  0.15324671990E+04  0.15621584405E+04  0.50400001928E-02 0. -1.
       -1    1    3    3    0  502 -0.11043331341E+03  0.28229020605E+03 -0.18096802590E+04  0.18348912548E+04  0.50400001928E-02 0.  1.
</event>
<event>
 5   0  0.2020725E-06  0.3450376E+04  0.7818609E-02  0.8125652E-01
       -2   -1    0    0    0  501  0.00000000000E+00  0.00000000000E+00  0.17689330617E+04  0.17689330617E+04  0.25500000920E-02 0.  1.
        2   -1    0    0  501    0  0.00000000000E+00  0.00000000000E+00 -0.16825246071E+04  0.16825246071E+04  0.25500000920E-02 0. -1.
    10030    2    1    2    0    0  0.00000000000E+00  0.00000000000E+00  0.86408454582E+02  0.34514576688E+04  0.34503758662E+04 0.  0.
        3    1    3    3  502    0 -0.47054020748E+02  0.89339608236E+03  0.15187608669E+04  0.17626699129E+04  0.10100000352E+00 0.  1.
       -3    1    3    3    0  502  0.47054020748E+02 -0.89339608236E+03 -0.14323524124E+04  0.16887877558E+04  0.10100000352E+00 0. -1.
</event>
<event>
 5   0  0.2020725E-06  0.3486238E+04  0.7818609E-02  0.8117059E-01
        2   -1    0    0  501    0  0.00000000000E+00  0.00000000000E+00  0.27478259628E+04  0.27478259628E+04  0.25500000920E-02 0.  1.
       -2   -1    0    0    0  501  0.00000000000E+00  0.00000000000E+00 -0.11057700857E+04  0.11057700858E+04  0.25500000920E-02 0. -1.
    10030    2    1    2    0    0  0.00000000000E+00  0.00000000000E+00  0.16420558770E+04  0.38535960485E+04  0.34862379440E+04 0.  0.
        3    1    3    3  502    0 -0.15928459810E+04  0.52718320055E+03  0.13434656375E+04  0.21494139610E+04  0.10100000352E+00 0.  1.
       -3    1    3    3    0  502  0.15928459810E+04 -0.52718320055E+03  0.29859023949E+03  0.17041820876E+04  0.10100000352E+00 0. -1.
</event>
<event>
 5   0  0.6630125E-07  0.3414916E+04  0.7818609E-02  0.8134255E-01
        1   -1    0    0  501    0  0.00000000000E+00  0.00000000000E+00  0.24491368746E+04  0.24491368746E+04  0.50400001928E-02 0. -1.
       -1   -1    0    0    0  501  0.00000000000E+00  0.00000000000E+00 -0.11903839500E+04  0.11903839500E+04  0.50400001928E-02 0.  1.
    10030    2    1    2    0    0  0.00000000000E+00  0.00000000000E+00  0.12587529246E+04  0.36395208246E+04  0.34149162373E+04 0.  0.
        5    1    3    3  502    0 -0.40703493214E+03  0.13697529022E+04  0.16254543355E+04  0.21642606903E+04  0.46999998093E+01 0. -1.
       -5    1    3    3    0  502  0.40703493214E+03 -0.13697529022E+04 -0.36670141092E+03  0.14752601343E+04  0.46999998093E+01 0.  1.
</event>
<event>
 5   0  0.6890600E-07  0.3548226E+04  0.7818609E-02  0.8102455E-01
       -1   -1    0    0    0  501  0.00000000000E+00  0.00000000000E+00  0.17923252928E+04  0.17923252928E+04  0.50400001928E-02 0. -1.
        1   -1    0    0  501    0  0.00000000000E+00  0.00000000000E+00 -0.17560860064E+04  0.17560860064E+04  0.50400001928E-02 0.  1.
    10030    2    1    2    0    0  0.00000000000E+00  0.00000000000E+00  0.36239286433E+02  0.35484112992E+04  0.35482262417E+04 0.  0.
        3    1    3    3  502    0 -0.47020061465E+03 -0.11841409024E+04  0.12527686029E+04  0.17868148974E+04  0.10100000352E+00 0. -1.
       -3    1    3    3    0  502  0.47020061465E+03  0.11841409024E+04 -0.12165293165E+04  0.17615964018E+04  0.10100000352E+00 0.  1.
</event>
<event>
 5   0  0.6890600E-07  0.3539854E+04  0.7818609E-02  0.8104409E-01
       -1   -1    0    0    0  501  0.00000000000E+00  0.00000000000E+00  0.15338443800E+04  0.15338443800E+04  0.50400001928E-02 0. -1.
        1   -1    0    0  501    0  0.00000000000E+00  0.00000000000E+00 -0.20423467005E+04  0.20423467005E+04  0.50400001928E-02 0.  1.
    10030    2    1    2    0    0  0.00000000000E+00  0.00000000000E+00 -0.50850232047E+03  0.35761910805E+04  0.35398542392E+04 0.  0.
        3    1    3    3  502    0  0.31958586817E+03 -0.16988462216E+04  0.12968729790E+03  0.17335029325E+04  0.10100000352E+00 0. -1.
       -3    1    3    3    0  502 -0.31958586817E+03  0.16988462216E+04 -0.63818961836E+03  0.18426881480E+04  0.10100000352E+00 0.  1.
</event>
<event>
 5   0  0.2001768E-06  0.3500110E+04  0.7818609E-02  0.8113764E-01
       -2   -1    0    0    0  501  0.00000000000E+00  0.00000000000E+00  0.23758501384E+04  0.23758501384E+04  0.25500000920E-02 0. -1.
        2   -1    0    0  501    0  0.00000000000E+00  0.00000000000E+00 -0.12890930675E+04  0.12890930675E+04  0.25500000920E-02 0.  1.
    10030    2    1    2    0    0  0.00000000000E+00  0.00000000000E+00  0.10867570709E+04  0.36649432058E+04  0.35001096798E+04 0.  0.
        2    1    3    3  502    0 -0.44160426553E+03 -0.13726005555E+04 -0.49511754702E+03  0.15245287789E+04  0.25500000920E-02 0.  1.
       -2    1    3    3    0  502  0.44160426553E+03  0.13726005555E+04  0.15818746179E+04  0.21404144269E+04  0.25500000920E-02 0. -1.
</event>
<event>
 5   0  0.2001768E-06  0.3504400E+04  0.7818609E-02  0.8112748E-01
       -2   -1    0    0    0  501  0.00000000000E+00  0.00000000000E+00  0.15105333234E+04  0.15105333234E+04  0.25500000920E-02 0. -1.
        2   -1    0    0  501    0  0.00000000000E+00  0.00000000000E+00 -0.20325303102E+04  0.20325303102E+04  0.25500000920E-02 0.  1.
    10030    2    1    2    0    0  0.00000000000E+00  0.00000000000E+00 -0.52199698682E+03  0.35430636336E+04  0.35043999568E+04 0.  0.
        2    1    3    3  502    0  0.41863435508E+03 -0.16618181283E+04  0.10814697861E+03  0.17171458830E+04  0.25500000920E-02 0.  1.
       -2    1    3    3    0  502 -0.41863435508E+03  0.16618181283E+04 -0.63014396543E+03  0.18259177506E+04  0.25500000920E-02 0. -1.
</event>
<event>
 5   0  0.6630125E-07  0.3535397E+04  0.7818609E-02  0.8105452E-01
        1   -1    0    0  501    0  0.00000000000E+00  0.00000000000E+00  0.16827216701E+04  0.16827216701E+04  0.50400001928E-02 0.  1.
       -1   -1    0    0    0  501  0.00000000000E+00  0.00000000000E+00 -0.18569663703E+04  0.18569663703E+04  0.50400001928E-02 0. -1.
    10030    2    1    2    0    0  0.00000000000E+00  0.00000000000E+00 -0.17424470022E+03  0.35396880404E+04  0.35353967539E+04 0.  0.
        4    1    3    3  502    0  0.82073575924E+02 -0.54167544896E+03  0.15955745296E+04  0.16870115756E+04  0.12699999809E+01 0.  1.
       -4    1    3    3    0  502 -0.82073575924E+02  0.54167544896E+03 -0.17698192298E+04  0.18526764647E+04  0.12699999809E+01 0. -1.
</event>
<event>
 5   0  0.2073287E-06  0.3527445E+04  0.7818609E-02  0.8107317E-01
        2   -1    0    0  501    0  0.00000000000E+00  0.00000000000E+00  0.28454828443E+04  0.28454828443E+04  0.25500000920E-02 0. -1.
       -2   -1    0    0    0  501  0.00000000000E+00  0.00000000000E+00 -0.10932120899E+04  0.10932120899E+04  0.25500000920E-02 0.  1.
    10030    2    1    2    0    0  0.00000000000E+00  0.00000000000E+00  0.17522707543E+04  0.39386949342E+04  0.35274445407E+04 0.  0.
        1    1    3    3  502    0  0.13347542568E+02  0.97838442178E+03 -0.76235774722E+03  0.12404045987E+04  0.50400001928E-02 0.  1.
       -1    1    3    3    0  502 -0.13347542568E+02 -0.97838442178E+03  0.25146285016E+04  0.26982903355E+04  0.50400001928E-02 0. -1.
</event>
<event>
 5   0  0.6630125E-07  0.3498751E+04  0.7818609E-02  0.8114086E-01
        3   -1    0    0  501    0  0.00000000000E+00  0.00000000000E+00  0.10625791487E+04  0.10625791535E+04  0.10100000352E+00 0. -1.
       -3   -1    0    0    0  501  0.00000000000E+00  0.00000000000E+00 -0.28800814986E+04  0.28800815004E+04  0.10100000352E+00 0.  1.
    10030    2    1    2    0    0  0.00000000000E+00  0.00000000000E+00 -0.18175023500E+04  0.39426606539E+04  0.34987509542E+04 0.  0.
        3    1    3    3  502    0  0.14145859233E+04  0.55599041330E+03  0.67241002867E+02  0.15214138283E+04  0.10100000352E+00 0. -1.
       -3    1    3    3    0  502 -0.14145859233E+04 -0.55599041330E+03 -0.18847433528E+04  0.24212468256E+04  0.10100000352E+00 0.  1.
</event>
<event>
 5   0  0.2023479E-06  0.3124942E+04  0.7818609E-02  0.8208926E-01
        2   -1    0    0  501    0  0.00000000000E+00  0.00000000000E+00  0.21296839766E+04  0.21296839766E+04  0.25500000920E-02 0. -1.
       -2   -1    0    0    0  501  0.00000000000E+00  0.00000000000E+00 -0.11463275845E+04  0.11463275845E+04  0.25500000920E-02 0.  1.
    10030    2    1    2    0    0  0.00000000000E+00  0.00000000000E+00  0.98335639217E+03  0.32760115611E+04  0.31249419122E+04 0.  0.
        5    1    3    3  502    0 -0.95612437001E+01  0.49676467741E+03 -0.10612952494E+04  0.11718516367E+04  0.46999998093E+01 0.  1.
       -5    1    3    3    0  502  0.95612437001E+01 -0.49676467741E+03  0.20446516416E+04  0.21041599244E+04  0.46999998093E+01 0. -1.
</event>
<event>
 5   0  0.2023479E-06  0.3635232E+04  0.7818609E-02  0.8082469E-01
       -2   -1    0    0    0  501  0.00000000000E+00  0.00000000000E+00  0.21850003986E+04  0.21850003986E+04  0.25500000920E-02 0. -1.
        2   -1    0    0  501    0  0.00000000000E+00  0.00000000000E+00 -0.15120030142E+04  0.15120030142E+04  0.25500000920E-02 0.  1.
    10030    2    1    2    0    0  0.00000000000E+00  0.00000000000E+00  0.67299738438E+03  0.36970034128E+04  0.36352315958E+04 0.  0.
        5    1    3    3  502    0 -0.21656549327E+02 -0.33041935071E+03  0.21540607329E+04  0.21793681847E+04  0.46999998093E+01 0. -1.
       -5    1    3    3    0  502  0.21656549327E+02  0.33041935071E+03 -0.14810633485E+04  0.15176352281E+04  0.46999998093E+01 0.  1.
</event>
<event>
 5   0  0.2001768E-06  0.2164077E+04  0.7818609E-02  0.8533530E-01
        2   -1    0    0  501    0  0.00000000000E+00  0.00000000000E+00  0.54000464301E+03  0.54000464302E+03  0.25500000920E-02 0. -1.
       -2   -1    0    0    0  501  0.00000000000E+00  0.00000000000E+00 -0.21681433410E+04  0.21681433410E+04  0.25500000920E-02 0.  1.
    10030    2    1    2    0    0  0.00000000000E+00  0.00000000000E+00 -0.16281386980E+04  0.27081479840E+04  0.21640771436E+04 0.  0.
        2    1    3    3  502    0  0.20530901523E+03 -0.37719167300E+03 -0.20569294604E+04  0.21012815507E+04  0.25500000920E-02 0.  1.
       -2    1    3    3    0  502 -0.20530901523E+03  0.37719167300E+03  0.42879076248E+03  0.60686643333E+03  0.25500000920E-02 0. -1.
</event>
<event>
 5   0  0.6630125E-07  0.3459936E+04  0.7818609E-02  0.8123351E-01
       -1   -1    0    0    0  501  0.00000000000E+00  0.00000000000E+00  0.14288858121E+04  0.14288858121E+04  0.50400001928E-02 0. -1.
        1   -1    0    0  501    0  0.00000000000E+00  0.00000000000E+00 -0.20944911034E+04  0.20944911034E+04  0.50400001928E-02 0.  1.
    10030    2    1    2    0    0  0.00000000000E+00  0.00000000000E+00 -0.66560529129E+03  0.35233769155E+04  0.34599356186E+04 0.  0.
        5    1    3    3  502    0 -0.52279737168E+03  0.60469463340E+03 -0.18951417315E+04  0.20568317783E+04  0.46999998093E+01 0.  1.
       -5    1    3    3    0  502  0.52279737168E+03 -0.60469463340E+03  0.12295364403E+04  0.14665451372E+04  0.46999998093E+01 0. -1.
</event>
<event>
 5   0  0.2020725E-06  0.3051624E+04  0.7818609E-02  0.8229141E-01
        2   -1    0    0  501    0  0.00000000000E+00  0.00000000000E+00  0.16020838257E+04  0.16020838257E+04  0.25500000920E-02 0.  1.
       -2   -1    0    0    0  501  0.00000000000E+00  0.00000000000E+00 -0.14531715639E+04  0.14531715639E+04  0.25500000920E-02 0. -1.
    10030    2    1    2    0    0  0.00000000000E+00  0.00000000000E+00  0.14891226181E+03  0.30552553896E+04  0.30516242616E+04 0.  0.
        3    1    3    3  502    0 -0.78227966729E+03  0.13082078685E+04  0.55749692438E+01  0.15242704470E+04  0.10100000352E+00 0. -1.
       -3    1    3    3    0  502  0.78227966729E+03 -0.13082078685E+04  0.14333729257E+03  0.15309849427E+04  0.10100000352E+00 0.  1.
</event>
<event>
 5   0  0.6890600E-07  0.3553743E+04  0.7818609E-02  0.8101170E-01
        1   -1    0    0  501    0  0.00000000000E+00  0.00000000000E+00  0.20362928536E+04  0.20362928536E+04  0.50400001928E-02 0. -1.
       -1   -1    0    0    0  501  0.00000000000E+00  0.00000000000E+00 -0.15505003067E+04  0.15505003067E+04  0.50400001928E-02 0.  1.
    10030    2    1    2    0    0  0.00000000000E+00  0.00000000000E+00  0.48579254689E+03  0.35867931603E+04  0.35537432063E+04 0.  0.
        3    1    3    3  502    0  0.12837358181E+04 -0.37260950740E+03 -0.93865623638E+03  0.16333680038E+04  0.10100000352E+00 0.  1.
       -3    1    3    3    0  502 -0.12837358181E+04  0.37260950740E+03  0.14244487833E+04  0.19534251565E+04  0.10100000352E+00 0. -1.
</event>
<event>
 5   0  0.1999883E-06  0.3483761E+04  0.7818609E-02  0.8117649E-01
        2   -1    0    0  501    0  0.00000000000E+00  0.00000000000E+00  0.16999085207E+04  0.16999085207E+04  0.25500000920E-02 0. -1.
       -2   -1    0    0    0  501  0.00000000000E+00  0.00000000000E+00 -0.17848883949E+04  0.17848883949E+04  0.25500000920E-02 0.  1.
    10030    2    1    2    0    0  0.00000000000E+00  0.00000000000E+00 -0.84979874180E+02  0.34847969157E+04  0.34837606066E+04 0.  0.
        4    1    3    3  502    0  0.67652027706E+03  0.15720547757E+04  0.28181241853E+03  0.17344900563E+04  0.12699999809E+01 0. -1.
       -4    1    3    3    0  502 -0.67652027706E+03 -0.15720547757E+04 -0.36679229271E+03  0.17503068594E+04  0.12699999809E+01 0.  1.
</event>
<event>
 5   0  0.7378896E-07  0.3528142E+04  0.7818609E-02  0.8107153E-01
       -1   -1    0    0    0  501  0.00000000000E+00  0.00000000000E+00  0.30593855545E+04  0.30593855545E+04  0.50400001928E-02 0. -1.
        1   -1    0    0  501    0  0.00000000000E+00  0.00000000000E+00 -0.10171802396E+04  0.10171802396E+04  0.50400001928E-02 0.  1.
    10030    2    1    2    0    0  0.00000000000E+00  0.00000000000E+00  0.20422053149E+04  0.40765657942E+04  0.35281420218E+04 0.  0.
        2    1    3    3  502    0 -0.13030420666E+04  0.69182188618E+03  0.21386076963E+04  0.25981106651E+04  0.25500000920E-02 0.  1.
       -2    1    3    3    0  502  0.13030420666E+04 -0.69182188618E+03 -0.96402381385E+02  0.14784551291E+04  0.25500000920E-02 0. -1.
</event>
<event>
 5   0  0.6630125E-07  0.3597684E+04  0.7818609E-02  0.8091022E-01
       -1   -1    0    0    0  501  0.00000000000E+00  0.00000000000E+00  0.25007952809E+04  0.25007952809E+04  0.50400001928E-02 0.  1.
        1   -1    0    0  501    0  0.00000000000E+00  0.00000000000E+00 -0.12939211545E+04  0.12939211545E+04  0.50400001928E-02 0. -1.
    10030    2    1    2    0    0  0.00000000000E+00  0.00000000000E+00  0.12068741263E+04  0.37947164354E+04  0.35976836532E+04 0.  0.
        1    1    3    3  502    0 -0.86673012672E+03 -0.45849391104E+03  0.21941404989E+04  0.24032665911E+04  0.50400001928E-02 0.  1.
       -1    1    3    3    0  502  0.86673012672E+03  0.45849391104E+03 -0.98726637251E+03  0.13914498444E+04  0.50400001928E-02 0. -1.
</event>
<event>
 5   0  0.2023479E-06  0.3604176E+04  0.7818609E-02  0.8089536E-01
       -2   -1    0    0    0  501  0.00000000000E+00  0.00000000000E+00  0.20029506005E+04  0.20029506005E+04  0.25500000920E-02 0.  1.
        2   -1    0    0  501    0  0.00000000000E+00  0.00000000000E+00 -0.16213686402E+04  0.16213686402E+04  0.25500000920E-02 0. -1.
    10030    2    1    2    0    0  0.00000000000E+00  0.00000000000E+00  0.38158196029E+03  0.36243192408E+04  0.36041760732E+04 0.  0.
        5    1    3    3  502    0  0.77119739653E+03  0.42722979109E+03 -0.13896890324E+04  0.16457607407E+04  0.46999998093E+01 0. -1.
       -5    1    3    3    0  502 -0.77119739653E+03 -0.42722979109E+03  0.17712709927E+04  0.19785585001E+04  0.46999998093E+01 0.  1.
</event>
<event>
 5   0  0.6630125E-07  0.2652184E+04  0.7818609E-02  0.8350689E-01
       -1   -1    0    0    0  501  0.00000000000E+00  0.00000000000E+00  0.99250621174E+03  0.99250621175E+03  0.50400001928E-02 0. -1.
        1   -1    0    0  501    0  0.00000000000E+00  0.00000000000E+00 -0.17717968050E+04  0.17717968050E+04  0.50400001928E-02 0.  1.
    10030    2    1    2    0    0  0.00000000000E+00  0.00000000000E+00 -0.77929059321E+03  0.27643030167E+04  0.26521835041E+04 0.  0.
        5    1    3    3  502    0 -0.39721044875E+03 -0.10287268638E+04 -0.11572874058E+04  0.15985591420E+04  0.46999998093E+01 0.  1.
       -5    1    3    3    0  502  0.39721044875E+03  0.10287268638E+04  0.37799681260E+03  0.11657438747E+04  0.46999998093E+01 0. -1.
</event>
<event>
 5   0  0.2020725E-06  0.2753626E+04  0.7818609E-02  0.8317812E-01
        2   -1    0    0  501    0  0.00000000000E+00  0.00000000000E+00  0.16855310597E+04  0.16855310597E+04  0.25500000920E-02 0.  1.
       -2   -1    0    0    0  501  0.00000000000E+00  0.00000000000E+00 -0.11246390606E+04  0.11246390606E+04  0.25500000920E-02 0. -1.
    10030    2    1    2    0    0  0.00000000000E+00  0.00000000000E+00  0.56089199905E+03  0.28101701203E+04  0.27536260222E+04 0.  0.
        3    1    3    3  502    0 -0.95832606807E+03 -0.11273777925E+03 -0.72181824474E+03  0.12050395214E+04  0.10100000352E+00 0. -1.
       -3    1    3    3    0  502  0.95832606807E+03  0.11273777925E+03  0.12827102438E+04  0.16051305988E+04  0.10100000352E+00 0.  1.
</event>
<event>
 5   0  0.2073287E-06  0.3542757E+04  0.7818609E-02  0.8103731E-01
        2   -1    0    0  501    0  0.00000000000E+00  0.00000000000E+00  0.28862649197E+04  0.28862649197E+04  0.25500000920E-02 0. -1.
       -2   -1    0    0    0  501  0.00000000000E+00  0.00000000000E+00 -0.10871429012E+04  0.10871429012E+04  0.25500000920E-02 0.  1.
    10030    2    1    2    0    0  0.00000000000E+00  0.00000000000E+00  0.17991220185E+04  0.39734078208E+04  0.35427573546E+04 0.  0.
        1    1    3    3  502    0  0.16459629762E+04  0.40471426605E+03  0.32242742521E+03  0.17253832040E+04  0.50400001928E-02 0.  1.
       -1    1    3    3    0  502 -0.16459629762E+04 -0.40471426605E+03  0.14766945933E+04  0.22480246168E+04  0.50400001928E-02 0. -1.
</event>
<event>
 5   0  0.7378896E-07  0.3635069E+04  0.7818609E-02  0.8082506E-01
        1   -1    0    0  501    0  0.00000000000E+00  0.00000000000E+00  0.14799402460E+04  0.14799402460E+04  0.50400001928E-02 0. -1.
       -1   -1    0    0    0  501  0.00000000000E+00  0.00000000000E+00 -0.22321388000E+04  0.22321388000E+04  0.50400001928E-02 0.  1.
    10030    2    1    2    0    0  0.00000000000E+00  0.00000000000E+00 -0.75219855397E+03  0.37120790460E+04  0.36350692125E+04 0.  0.
        2    1    3    3  502    0  0.11050773743E+04  0.79698404988E+03  0.85232013331E+03  0.16071182871E+04  0.25500000920E-02 0. -1.
       -2    1    3    3    0  502 -0.11050773743E+04 -0.79698404988E+03 -0.16045186873E+04  0.21049607590E+04  0.25500000920E-02 0.  1.
</event>
<event>
 5   0  0.7378896E-07  0.3494672E+04  0.7818609E-02  0.8115054E-01
       -1   -1    0    0    0  501  0.00000000000E+00  0.00000000000E+00  0.19514925923E+04  0.19514925923E+04  0.50400001928E-02 0. -1.
        1   -1    0    0  501    0  0.00000000000E+00  0.00000000000E+00 -0.15645370055E+04  0.15645370055E+04  0.50400001928E-02 0.  1.
    10030    2    1    2    0    0  0.00000000000E+00  0.00000000000E+00  0.38695558682E+03  0.35160295978E+04  0.34946715877E+04 0.  0.
        2    1    3    3  502    0 -0.51819906619E+03  0.14577628096E+04 -0.62363082658E+03  0.16680881539E+04  0.25500000920E-02 0.  1.
       -2    1    3    3    0  502  0.51819906619E+03 -0.14577628096E+04  0.10105864134E+04  0.18479414439E+04  0.25500000920E-02 0. -1.
</event>
<event>
 5   0  0.2020725E-06  0.3588112E+04  0.7818609E-02  0.8093220E-01
        2   -1    0    0  501    0  0.00000000000E+00  0.00000000000E+00  0.22353963128E+04  0.22353963128E+04  0.25500000920E-02 0. -1.
       -2   -1    0    0    0  501  0.00000000000E+00  0.00000000000E+00 -0.14398504975E+04  0.14398504975E+04  0.25500000920E-02 0.  1.
    10030    2    1    2    0    0  0.00000000000E+00  0.00000000000E+00  0.79554581530E+03  0.36752468102E+04  0.35881117557E+04 0.  0.
        3    1    3    3  502    0 -0.11998303781E+03 -0.14181855627E+04  0.15165382334E+04  0.20797919231E+04  0.10100000352E+00 0. -1.
       -3    1    3    3    0  502  0.11998303781E+03  0.14181855627E+04 -0.72099241812E+03  0.15954548871E+04  0.10100000352E+00 0.  1.
</event>
<event>
 5   0  0.2020725E-06  0.3575717E+04  0.7818609E-02  0.8096077E-01
        2   -1    0    0  501    0  0.00000000000E+00  0.00000000000E+00  0.18922169801E+04  0.18922169801E+04  0.25500000920E-02 0.  1.
       -2   -1    0    0    0  501  0.00000000000E+00  0.00000000000E+00 -0.16892556593E+04  0.16892556593E+04  0.25500000920E-02 0. -1.
    10030    2    1    2    0    0  0.00000000000E+00  0.00000000000E+00  0.20296132082E+03  0.35814726394E+04  0.35757171265E+04 0.  0.
        3    1    3    3  502    0  0.65818289155E+03  0.49095228203E+03 -0.14892190043E+04  0.17005916955E+04  0.10100000352E+00 0. -1.
       -3    1    3    3    0  502 -0.65818289155E+03 -0.49095228203E+03  0.16921803251E+04  0.18808809438E+04  0.10100000352E+00 0.  1.
</event>
<event>
 5   0  0.6630125E-07  0.3540047E+04  0.7818609E-02  0.8104364E-01
        1   -1    0    0  501    0  0.00000000000E+00  0.00000000000E+00  0.22380378836E+04  0.22380378836E+04  0.50400001928E-02 0. -1.
       -1   -1    0    0    0  501  0.00000000000E+00  0.00000000000E+00 -0.13998794912E+04  0.13998794912E+04  0.50400001928E-02 0.  1.
    10030    2    1    2    0    0  0.00000000000E+00  0.00000000000E+00  0.83815839242E+03  0.36379173748E+04  0.35400470809E+04 0.  0.
        4    1    3    3  502    0  0.46688700869E+03 -0.16179709255E+04  0.97928170851E+03  0.19480266097E+04  0.12699999809E+01 0. -1.
       -4    1    3    3    0  502 -0.46688700869E+03  0.16179709255E+04 -0.14112331609E+03  0.16898907651E+04  0.12699999809E+01 0.  1.
</event>
<event>
 5   0  0.6630125E-07  0.3515115E+04  0.7818609E-02  0.8110217E-01
        1   -1    0    0  501    0  0.00000000000E+00  0.00000000000E+00  0.23839505158E+04  0.23839505158E+04  0.50400001928E-02 0. -1.
       -1   -1    0    0    0  501  0.00000000000E+00  0.00000000000E+00 -0.12957516530E+04  0.12957516530E+04  0.50400001928E-02 0.  1.
    10030    2    1    2    0    0  0.00000000000E+00  0.00000000000E+00  0.10881988628E+04  0.36797021689E+04  0.35151146904E+04 0.  0.
        4    1    3    3  502    0  0.11261305632E+04  0.13062601488E+04  0.18984527738E+03  0.17350874514E+04  0.12699999809E+01 0.  1.
       -4    1    3    3    0  502 -0.11261305632E+04 -0.13062601488E+04  0.89835358544E+03  0.19446147174E+04  0.12699999809E+01 0. -1.
</event>
<event>
 5   0  0.6630125E-07  0.3400011E+04  0.7818609E-02  0.8137904E-01
        1   -1    0    0  501    0  0.00000000000E+00  0.00000000000E+00  0.13917315849E+04  0.13917315849E+04  0.50400001928E-02 0.  1.
       -1   -1    0    0    0  501  0.00000000000E+00  0.00000000000E+00 -0.20765638146E+04  0.20765638146E+04  0.50400001928E-02 0. -1.
    10030    2    1    2    0    0  0.00000000000E+00  0.00000000000E+00 -0.68483222963E+03  0.34682953995E+04  0.34000114405E+04 0.  0.
        1    1    3    3  502    0  0.47376406382E+02 -0.19593795123E+03  0.13794966063E+04  0.13941474425E+04  0.50400001928E-02 0.  1.
       -1    1    3    3    0  502 -0.47376406382E+02  0.19593795123E+03 -0.20643288359E+04  0.20741479570E+04  0.50400001928E-02 0. -1.
</event>
<event>
 5   0  0.6630125E-07  0.3579249E+04  0.7818609E-02  0.8095262E-01
       -1   -1    0    0    0  501  0.00000000000E+00  0.00000000000E+00  0.29691882766E+04  0.29691882766E+04  0.50400001928E-02 0. -1.
        1   -1    0    0  501    0  0.00000000000E+00  0.00000000000E+00 -0.10786637910E+04  0.10786637910E+04  0.50400001928E-02 0.  1.
    10030    2    1    2    0    0  0.00000000000E+00  0.00000000000E+00  0.18905244856E+04  0.40478520677E+04  0.35792490178E+04 0.  0.
        1    1    3    3  502    0 -0.12547955937E+04  0.79938581371E+03 -0.17955127738E+03  0.14985887769E+04  0.50400001928E-02 0.  1.
       -1    1    3    3    0  502  0.12547955937E+04 -0.79938581371E+03  0.20700757630E+04  0.25492632908E+04  0.50400001928E-02 0. -1.
</event>
<event>
 5   0  0.7378896E-07  0.3300626E+04  0.7818609E-02  0.8162736E-01
       -1   -1    0    0    0  501  0.00000000000E+00  0.00000000000E+00  0.12080144575E+04  0.12080144575E+04  0.50400001928E-02 0. -1.
        1   -1    0    0  501    0  0.00000000000E+00  0.00000000000E+00 -0.22545529198E+04  0.22545529198E+04  0.50400001928E-02 0.  1.
    10030    2    1    2    0    0  0.00000000000E+00  0.00000000000E+00 -0.10465384623E+04  0.34625673773E+04  0.33006257117E+04 0.  0.
        2    1    3    3  502    0  0.36408349545E+03 -0.12888853097E+04  0.48827560850E+03  0.14255508420E+04  0.25500000920E-02 0. -1.
       -2    1    3    3    0  502 -0.36408349545E+03  0.12888853097E+04 -0.15348140708E+04  0.20370165353E+04  0.25500000920E-02 0.  1.
</event>
<event>
 5   0  0.6630125E-07  0.3489428E+04  0.7818609E-02  0.8116300E-01
        1   -1    0    0  501    0  0.00000000000E+00  0.00000000000E+00  0.22903610681E+04  0.22903610681E+04  0.50400001928E-02 0. -1.
       -1   -1    0    0    0  501  0.00000000000E+00  0.00000000000E+00 -0.13290596469E+04  0.13290596469E+04  0.50400001928E-02 0.  1.
    10030    2    1    2    0    0  0.00000000000E+00  0.00000000000E+00  0.96130142124E+03  0.36194207150E+04  0.34894277309E+04 0.  0.
        5    1    3    3  502    0 -0.12209861994E+04 -0.11914962358E+04  0.10161470333E+03  0.17090401450E+04  0.46999998093E+01 0. -1.
       -5    1    3    3    0  502  0.12209861994E+04  0.11914962358E+04  0.85968671792E+03  0.19103805700E+04  0.46999998093E+01 0.  1.
</event>
<event>
 5   0  0.7378896E-07  0.2466242E+04  0.7818609E-02  0.8415112E-01
        1   -1    0    0  501    0  0.00000000000E+00  0.00000000000E+00  0.11291618816E+04  0.11291618817E+04  0.50400001928E-02 0.  1.
       -1   -1    0    0    0  501  0.00000000000E+00  0.00000000000E+00 -0.13466509623E+04  0.13466509623E+04  0.50400001928E-02 0. -1.
    10030    2    1    2    0    0  0.00000000000E+00  0.00000000000E+00 -0.21748908064E+03  0.24758128440E+04  0.24662416220E+04 0.  0.
        2    1    3    3  502    0  0.29928022730E+03 -0.26374601056E+03  0.10625983481E+04  0.11350091902E+04  0.25500000920E-02 0.  1.
       -2    1    3    3    0  502 -0.29928022730E+03  0.26374601056E+03 -0.12800874288E+04  0.13408036537E+04  0.25500000920E-02 0. -1.
</event>
<event>
 5   0  0.2073287E-06  0.2520573E+04  0.7818609E-02  0.8395693E-01
       -2   -1    0    0    0  501  0.00000000000E+00  0.00000000000E+00  0.11204139839E+04  0.11204139839E+04  0.25500000920E-02 0.  1.
        2   -1    0    0  501    0  0.00000000000E+00  0.00000000000E+00 -0.14176202426E+04  0.14176202426E+04  0.25500000920E-02 0. -1.
    10030    2    1    2    0    0  0.00000000000E+00  0.00000000000E+00 -0.29720625868E+03  0.25380342265E+04  0.25205725886E+04 0.  0.
        1    1    3    3  502    0 -0.33279360114E+03  0.10297751310E+04  0.50172960390E+03  0.11928625222E+04  0.50400001928E-02 0.  1.
       -1    1    3    3    0  502  0.33279360114E+03 -0.10297751310E+04 -0.79893586258E+03  0.13451717043E+04  0.50400001928E-02 0. -1.
</event>
<event>
 5   0  0.2073287E-06  0.3017964E+04  0.7818609E-02  0.8238620E-01
       -2   -1    0    0    0  501  0.00000000000E+00  0.00000000000E+00  0.84539439782E+03  0.84539439783E+03  0.25500000920E-02 0.  1.
        2   -1    0    0  501    0  0.00000000000E+00  0.00000000000E+00 -0.26934490809E+04  0.26934490809E+04  0.25500000920E-02 0. -1.
    10030    2    1    2    0    0  0.00000000000E+00  0.00000000000E+00 -0.18480546831E+04  0.35388434787E+04  0.30179640580E+04 0.  0.
        1    1    3    3  502    0  0.13739129463E+04 -0.19798480079E+03 -0.23012172858E+03  0.14070503812E+04  0.50400001928E-02 0. -1.
       -1    1    3    3    0  502 -0.13739129463E+04  0.19798480079E+03 -0.16179329545E+04  0.21317930975E+04  0.50400001928E-02 0.  1.
</event>
<event>
 5   0  0.2001768E-06  0.3404831E+04  0.7818609E-02  0.8136722E-01
       -2   -1    0    0    0  501  0.00000000000E+00  0.00000000000E+00  0.12901640250E+04  0.12901640250E+04  0.25500000920E-02 0. -1.
        2   -1    0    0  501    0  0.00000000000E+00  0.00000000000E+00 -0.22463955913E+04  0.22463955913E+04  0.25500000920E-02 0.  1.
    10030    2    1    2    0    0  0.00000000000E+00  0.00000000000E+00 -0.95623156623E+03  0.35365596163E+04  0.34048311428E+04 0.  0.
        2    1    3    3  502    0  0.12776974605E+04 -0.97688086892E+03 -0.10577485107E+04  0.19250036220E+04  0.25500000920E-02 0. -1.
       -2    1    3    3    0  502 -0.12776974605E+04  0.97688086892E+03  0.10151694447E+03  0.16115559943E+04  0.25500000920E-02 0.  1.
</event>
<event>
 5   0  0.6630125E-07  0.3461052E+04  0.7818609E-02  0.8123083E-01
       -1   -1    0    0    0  501  0.00000000000E+00  0.00000000000E+00  0.15289326675E+04  0.15289326676E+04  0.50400001928E-02 0. -1.
        1   -1    0    0  501    0  0.00000000000E+00  0.00000000000E+00 -0.19586996876E+04  0.19586996876E+04  0.50400001928E-02 0.  1.
    10030    2    1    2    0    0  0.00000000000E+00  0.00000000000E+00 -0.42976702005E+03  0.34876323552E+04  0.34610518276E+04 0.  0.
        4    1    3    3  502    0 -0.23337842895E+03  0.84344642890E+03  0.12895157437E+04  0.15584350598E+04  0.12699999809E+01 0. -1.
       -4    1    3    3    0  502  0.23337842895E+03 -0.84344642890E+03 -0.17192827638E+04  0.19291972953E+04  0.12699999809E+01 0.  1.
</event>
<event>
 5   0  0.6630125E-07  0.3487545E+04  0.7818609E-02  0.8116748E-01
       -1   -1    0    0    0  501  0.00000000000E+00  0.00000000000E+00  0.15168432741E+04  0.15168432741E+04  0.50400001928E-02 0.  1.
        1   -1    0    0  501    0  0.00000000000E+00  0.00000000000E+00 -0.20046514488E+04  0.20046514488E+04  0.50400001928E-02 0. -1.
    10030    2    1    2    0    0  0.00000000000E+00  0.00000000000E+00 -0.48780817471E+03  0.35214947229E+04  0.34875447335E+04 0.  0.
        4    1    3    3  502    0 -0.42407262719E+03 -0.83506288352E+03 -0.17291317030E+04  0.19664856145E+04  0.12699999809E+01 0. -1.
       -4    1    3    3    0  502  0.42407262719E+03  0.83506288352E+03  0.12413235283E+04  0.15550091085E+04  0.12699999809E+01 0.  1.
</event>
<event>
 5   0  0.6630125E-07  0.3068542E+04  0.7818609E-02  0.8224425E-01
       -1   -1    0    0    0  501  0.00000000000E+00  0.00000000000E+00  0.95205265120E+03  0.95205265121E+03  0.50400001928E-02 0.  1.
        1   -1    0    0  501    0  0.00000000000E+00  0.00000000000E+00 -0.24725391359E+04  0.24725391359E+04  0.50400001928E-02 0. -1.
    10030    2    1    2    0    0  0.00000000000E+00  0.00000000000E+00 -0.15204864847E+04  0.34245917871E+04  0.30685419597E+04 0.  0.
        1    1    3    3  502    0  0.73760119073E+03 -0.79249681464E+02 -0.22590755557E+04  0.23777633177E+04  0.50400001928E-02 0. -1.
       -1    1    3    3    0  502 -0.73760119073E+03  0.79249681464E+02  0.73858907100E+03  0.10468284694E+04  0.50400001928E-02 0.  1.
</event>
<event>
 5   0  0.7378896E-07  0.3862522E+04  0.7818609E-02  0.8032869E-01
        1   -1    0    0  501    0  0.00000000000E+00  0.00000000000E+00  0.18836368544E+04  0.18836368544E+04  0.50400001928E-02 0.  1.
       -1   -1    0    0    0  501  0.00000000000E+00  0.00000000000E+00 -0.19800894073E+04  0.19800894073E+04  0.50400001928E-02 0. -1.
    10030    2    1    2    0    0  0.00000000000E+00  0.00000000000E+00 -0.96452552928E+02  0.38637262618E+04  0.38625221722E+04 0.  0.
        2    1    3    3  502    0  0.18322019576E+04  0.51165802685E+03 -0.38151392467E+03  0.19401831935E+04  0.25500000920E-02 0. -1.
       -2    1    3    3    0  502 -0.18322019576E+04 -0.51165802685E+03  0.28506137174E+03  0.19235430682E+04  0.25500000920E-02 0.  1.
</event>
<event>
 5   0  0.7378896E-07  0.2942938E+04  0.7818609E-02  0.8260215E-01
        1   -1    0    0  501    0  0.00000000000E+00  0.00000000000E+00  0.21609607414E+04  0.21609607414E+04  0.50400001928E-02 0.  1.
       -1   -1    0    0    0  501  0.00000000000E+00  0.00000000000E+00 -0.10019717556E+04  0.10019717556E+04  0.50400001928E-02 0. -1.
    10030    2    1    2    0    0  0.00000000000E+00  0.00000000000E+00  0.11589889858E+04  0.31629324970E+04  0.29429384145E+04 0.  0.
        2    1    3    3  502    0 -0.14623973388E+04 -0.11982857391E+03  0.46050827328E+03  0.15378662924E+04  0.25500000920E-02 0.  1.
       -2    1    3    3    0  502  0.14623973388E+04  0.11982857391E+03  0.69848071251E+03  0.16250662046E+04  0.25500000920E-02 0. -1.
</event>
<event>
 5   0  0.2020725E-06  0.3538905E+04  0.7818609E-02  0.8104631E-01
        2   -1    0    0  501    0  0.00000000000E+00  0.00000000000E+00  0.18044809873E+04  0.18044809873E+04  0.25500000920E-02 0.  1.
       -2   -1    0    0    0  501  0.00000000000E+00  0.00000000000E+00 -0.17351040737E+04  0.17351040737E+04  0.25500000920E-02 0. -1.
    10030    2    1    2    0    0  0.00000000000E+00  0.00000000000E+00  0.69376913595E+02  0.35395850611E+04  0.35389050918E+04 0.  0.
        3    1    3    3  502    0  0.11102833905E+04 -0.13378501155E+04  0.36397832855E+03  0.17762467094E+04  0.10100000352E+00 0.  1.
       -3    1    3    3    0  502 -0.11102833905E+04  0.13378501155E+04 -0.29460141495E+03  0.17633383517E+04  0.10100000352E+00 0. -1.
</event>
<event>
 5   0  0.2073287E-06  0.3447026E+04  0.7818609E-02  0.8126460E-01
        2   -1    0    0  501    0  0.00000000000E+00  0.00000000000E+00  0.89800935021E+03  0.89800935022E+03  0.25500000920E-02 0. -1.
       -2   -1    0    0    0  501  0.00000000000E+00  0.00000000000E+00 -0.33078688109E+04  0.33078688109E+04  0.25500000920E-02 0.  1.
    10030    2    1    2    0    0  0.00000000000E+00  0.00000000000E+00 -0.24098594607E+04  0.42058781612E+04  0.34470260350E+04 0.  0.
        1    1    3    3  502    0  0.46683099811E+03  0.89575176442E+02  0.81644616583E+03  0.94474294639E+03  0.50400001928E-02 0. -1.
       -1    1    3    3    0  502 -0.46683099811E+03 -0.89575176442E+02 -0.32263056265E+04  0.32611352148E+04  0.50400001928E-02 0.  1.
</event>
<event>
 5   0  0.2020725E-06  0.3394207E+04  0.7818609E-02  0.8139330E-01
       -2   -1    0    0    0  501  0.00000000000E+00  0.00000000000E+00  0.14081818067E+04  0.14081818067E+04  0.25500000920E-02 0.  1.
        2   -1    0    0  501    0  0.00000000000E+00  0.00000000000E+00 -0.20453041779E+04  0.20453041779E+04  0.25500000920E-02 0. -1.
    10030    2    1    2    0    0  0.00000000000E+00  0.00000000000E+00 -0.63712237122E+03  0.34534859847E+04  0.33942069074E+04 0.  0.
        3    1    3    3  502    0  0.12162294596E+03  0.87015444607E+03 -0.17958833349E+04  0.19992893397E+04  0.10100000352E+00 0. -1.
       -3    1    3    3    0  502 -0.12162294596E+03 -0.87015444607E+03  0.11587609637E+04  0.14541966450E+04  0.10100000352E+00 0.  1.
</event>
<event>
 5   0  0.6630125E-07  0.2421843E+04  0.7818609E-02  0.8431371E-01
       -1   -1    0    0    0  501  0.00000000000E+00  0.00000000000E+00  0.89039470454E+03  0.89039470455E+03  0.50400001928E-02 0. -1.
        1   -1    0    0  501    0  0.00000000000E+00  0.00000000000E+00 -0.16468330501E+04  0.16468330501E+04  0.50400001928E-02 0.  1.
    10030    2    1    2    0    0  0.00000000000E+00  0.00000000000E+00 -0.75643834557E+03  0.25372277547E+04  0.24218434525E+04 0.  0.
        1    1    3    3  502    0  0.54798196624E+03  0.74923598454E+03  0.43644895291E+03  0.10257321699E+04  0.50400001928E-02 0. -1.
       -1    1    3    3    0  502 -0.54798196624E+03 -0.74923598454E+03 -0.11928872985E+04  0.15114955848E+04  0.50400001928E-02 0.  1.
</event>
<event>
 5   0  0.2001768E-06  0.3509328E+04  0.7818609E-02  0.8111583E-01
       -2   -1    0    0    0  501  0.00000000000E+00  0.00000000000E+00  0.23575002831E+04  0.23575002831E+04  0.25500000920E-02 0. -1.
        2   -1    0    0  501    0  0.00000000000E+00  0.00000000000E+00 -0.13059792537E+04  0.13059792537E+04  0.25500000920E-02 0.  1.
    10030    2    1    2    0    0  0.00000000000E+00  0.00000000000E+00  0.10515210294E+04  0.36634795368E+04  0.35093284031E+04 0.  0.
        2    1    3    3  502    0  0.14409574387E+04  0.95382617791E+03  0.20791331314E+03  0.17405087370E+04  0.25500000920E-02 0. -1.
       -2    1    3    3    0  502 -0.14409574387E+04 -0.95382617791E+03  0.84360771624E+03  0.19229707998E+04  0.25500000920E-02 0.  1.
</event>
<event>
 5   0  0.2001768E-06  0.2425298E+04  0.7818609E-02  0.8430093E-01
       -2   -1    0    0    0  501  0.00000000000E+00  0.00000000000E+00  0.77767309826E+03  0.77767309827E+03  0.25500000920E-02 0. -1.
        2   -1    0    0  501    0  0.00000000000E+00  0.00000000000E+00 -0.18909204952E+04  0.18909204952E+04  0.25500000920E-02 0.  1.
    10030    2    1    2    0    0  0.00000000000E+00  0.00000000000E+00 -0.11132473969E+04  0.26685935935E+04  0.24252983322E+04 0.  0.
        2    1    3    3  502    0  0.43789657672E+03  0.81422525036E+03 -0.14200748211E+04  0.16944995331E+04  0.25500000920E-02 0.  1.
       -2    1    3    3    0  502 -0.43789657672E+03 -0.81422525036E+03  0.30682742414E+03  0.97409406036E+03  0.25500000920E-02 0. -1.
</event>
<event>
 5   0  0.6630125E-07  0.2398322E+04  0.7818609E-02  0.8440132E-01
        1   -1    0    0  501    0  0.00000000000E+00  0.00000000000E+00  0.15583946154E+04  0.15583946154E+04  0.50400001928E-02 0.  1.
       -1   -1    0    0    0  501  0.00000000000E+00  0.00000000000E+00 -0.92273625264E+03  0.92273625265E+03  0.50400001928E-02 0. -1.
    10030    2    1    2    0    0  0.00000000000E+00  0.00000000000E+00  0.63565836273E+03  0.24811308680E+04  0.23983220864E+04 0.  0.
        1    1    3    3  502    0  0.63751458711E+03  0.86733234828E+03 -0.22890379142E+03  0.11004940695E+04  0.50400001928E-02 0. -1.
       -1    1    3    3    0  502 -0.63751458711E+03 -0.86733234828E+03  0.86456215415E+03  0.13806367986E+04  0.50400001928E-02 0.  1.
</event>
<event>
 5   0  0.6630125E-07  0.2673754E+04  0.7818609E-02  0.8343571E-01
       -1   -1    0    0    0  501  0.00000000000E+00  0.00000000000E+00  0.69525248935E+03  0.69525248936E+03  0.50400001928E-02 0. -1.
        1   -1    0    0  501    0  0.00000000000E+00  0.00000000000E+00 -0.25706345977E+04  0.25706345977E+04  0.50400001928E-02 0.  1.
    10030    2    1    2    0    0  0.00000000000E+00  0.00000000000E+00 -0.18753821083E+04  0.32658870870E+04  0.26737539926E+04 0.  0.
        4    1    3    3  502    0  0.19033029042E+03 -0.10228458127E+04 -0.19631362528E+04  0.22217886344E+04  0.12699999809E+01 0.  1.
       -4    1    3    3    0  502 -0.19033029042E+03  0.10228458127E+04  0.87754144513E+02  0.10440984526E+04  0.12699999809E+01 0. -1.
</event>
<event>
 5   0  0.6630125E-07  0.3506795E+04  0.7818609E-02  0.8112181E-01
       -1   -1    0    0    0  501  0.00000000000E+00  0.00000000000E+00  0.28652076381E+04  0.28652076381E+04  0.50400001928E-02 0. -1.
        1   -1    0    0  501    0  0.00000000000E+00  0.00000000000E+00 -0.10730124981E+04  0.10730124981E+04  0.50400001928E-02 0.  1.
    10030    2    1    2    0    0  0.00000000000E+00  0.00000000000E+00  0.17921951400E+04  0.39382201362E+04  0.35067954633E+04 0.  0.
        5    1    3    3  502    0 -0.28752509116E+03  0.49493953542E+02 -0.10455548298E+04  0.10855078635E+04  0.46999998093E+01 0.  1.
       -5    1    3    3    0  502  0.28752509116E+03 -0.49493953542E+02  0.28377499699E+04  0.28527122727E+04  0.46999998093E+01 0. -1.
</event>
<event>
 5   0  0.1999883E-06  0.3455922E+04  0.7818609E-02  0.8124316E-01
        2   -1    0    0  501    0  0.00000000000E+00  0.00000000000E+00  0.23495113006E+04  0.23495113006E+04  0.25500000920E-02 0. -1.
       -2   -1    0    0    0  501  0.00000000000E+00  0.00000000000E+00 -0.12708384695E+04  0.12708384695E+04  0.25500000920E-02 0.  1.
    10030    2    1    2    0    0  0.00000000000E+00  0.00000000000E+00  0.10786728311E+04  0.36203497701E+04  0.34559220740E+04 0.  0.
        4    1    3    3  502    0  0.47810929368E+03  0.12832330522E+04  0.16433133063E+04  0.21391016335E+04  0.12699999809E+01 0. -1.
       -4    1    3    3    0  502 -0.47810929368E+03 -0.12832330522E+04 -0.56464047517E+03  0.14812481366E+04  0.12699999809E+01 0.  1.
</event>
<event>
 5   0  0.6630125E-07  0.3411769E+04  0.7818609E-02  0.8135024E-01
        1   -1    0    0  501    0  0.00000000000E+00  0.00000000000E+00  0.20276241282E+04  0.20276241282E+04  0.50400001928E-02 0.  1.
       -1   -1    0    0    0  501  0.00000000000E+00  0.00000000000E+00 -0.14351977861E+04  0.14351977861E+04  0.50400001928E-02 0. -1.
    10030    2    1    2    0    0  0.00000000000E+00  0.00000000000E+00  0.59242634217E+03  0.34628219143E+04  0.34117688432E+04 0.  0.
        5    1    3    3  502    0  0.68371548768E+03  0.12826112774E+04 -0.61015634066E+03  0.15763474893E+04  0.46999998093E+01 0. -1.
       -5    1    3    3    0  502 -0.68371548768E+03 -0.12826112774E+04  0.12025826828E+04  0.18864744250E+04  0.46999998093E+01 0.  1.
</event>
<event>
 5   0  0.2073287E-06  0.3420282E+04  0.7818609E-02  0.8132946E-01
        2   -1    0    0  501    0  0.00000000000E+00  0.00000000000E+00  0.21750352226E+04  0.21750352226E+04  0.25500000920E-02 0.  1.
       -2   -1    0    0    0  501  0.00000000000E+00  0.00000000000E+00 -0.13446137482E+04  0.13446137482E+04  0.25500000920E-02 0. -1.
    10030    2    1    2    0    0  0.00000000000E+00  0.00000000000E+00  0.83042147440E+03  0.35196489707E+04  0.34202820135E+04 0.  0.
        1    1    3    3  502    0 -0.87857741320E+03  0.11141267882E+04 -0.56720035116E+03  0.15280356703E+04  0.50400001928E-02 0. -1.
       -1    1    3    3    0  502  0.87857741320E+03 -0.11141267882E+04  0.13976218256E+04  0.19916133004E+04  0.50400001928E-02 0.  1.
</event>
<event>
 5   0  0.6630125E-07  0.2274287E+04  0.7818609E-02  0.8488129E-01
        1   -1    0    0  501    0  0.00000000000E+00  0.00000000000E+00  0.10370976868E+04  0.10370976868E+04  0.50400001928E-02 0. -1.
       -1   -1    0    0    0  501  0.00000000000E+00  0.00000000000E+00 -0.12468405176E+04  0.12468405176E+04  0.50400001928E-02 0.  1.
    10030    2    1    2    0    0  0.00000000000E+00  0.00000000000E+00 -0.20974283082E+03  0.22839382044E+04  0.22742870677E+04 0.  0.
        5    1    3    3  502    0 -0.80055351310E+02 -0.76782144976E+02 -0.12413845674E+04  0.12463394767E+04  0.46999998093E+01 0.  1.
       -5    1    3    3    0  502  0.80055351310E+02  0.76782144976E+02  0.10316417366E+04  0.10375987277E+04  0.46999998093E+01 0. -1.
</event>
<event>
 5   0  0.6890600E-07  0.3516939E+04  0.7818609E-02  0.8109787E-01
       -1   -1    0    0    0  501  0.00000000000E+00  0.00000000000E+00  0.12940127138E+04  0.12940127138E+04  0.50400001928E-02 0.  1.
        1   -1    0    0  501    0  0.00000000000E+00  0.00000000000E+00 -0.23896330749E+04  0.23896330749E+04  0.50400001928E-02 0. -1.
    10030    2    1    2    0    0  0.00000000000E+00  0.00000000000E+00 -0.10956203612E+04  0.36836457887E+04  0.35169393399E+04 0.  0.
        3    1    3    3  502    0 -0.64987757483E+03 -0.15069732770E+04 -0.12093384465E+04  0.20385800961E+04  0.10100000352E+00 0. -1.
       -3    1    3    3    0  502  0.64987757483E+03  0.15069732770E+04  0.11371808539E+03  0.16450656926E+04  0.10100000352E+00 0.  1.
</event>
<event>
 5   0  0.6890600E-07  0.3520000E+04  0.7818609E-02  0.8109066E-01
        1   -1    0    0  501    0  0.00000000000E+00  0.00000000000E+00  0.21798672133E+04  0.21798672133E+04  0.50400001928E-02 0. -1.
       -1   -1    0    0    0  501  0.00000000000E+00  0.00000000000E+00 -0.14210040214E+04  0.14210040214E+04  0.50400001928E-02 0.  1.
    10030    2    1    2    0    0  0.00000000000E+00  0.00000000000E+00  0.75886319191E+03  0.36008712346E+04  0.35200000432E+04 0.  0.
        3    1    3    3  502    0 -0.16820293781E+04 -0.26314641306E+03 -0.77061885803E+02  0.17042322048E+04  0.10100000352E+00 0.  1.
       -3    1    3    3    0  502  0.16820293781E+04  0.26314641306E+03  0.83592507771E+03  0.18966390298E+04  0.10100000352E+00 0. -1.
</event>
<event>
 5   0  0.6630125E-07  0.3551543E+04  0.7818609E-02  0.8101682E-01
       -1   -1    0    0    0  501  0.00000000000E+00  0.00000000000E+00  0.19538444883E+04  0.19538444883E+04  0.50400001928E-02 0. -1.
        1   -1    0    0  501    0  0.00000000000E+00  0.00000000000E+00 -0.16139277374E+04  0.16139277374E+04  0.50400001928E-02 0.  1.
    10030    2    1    2    0    0  0.00000000000E+00  0.00000000000E+00  0.33991675093E+03  0.35677722256E+04  0.35515426587E+04 0.  0.
        5    1    3    3  502    0  0.87946884230E+03 -0.12040205736E+04 -0.79892333777E+03  0.16915766538E+04  0.46999998093E+01 0.  1.
       -5    1    3    3    0  502 -0.87946884230E+03  0.12040205736E+04  0.11388400887E+04  0.18761955718E+04  0.46999998093E+01 0. -1.
</event>
<event>
 5   0  0.1999883E-06  0.3506269E+04  0.7818609E-02  0.8112306E-01
        2   -1    0    0  501    0  0.00000000000E+00  0.00000000000E+00  0.24457181728E+04  0.24457181728E+04  0.25500000920E-02 0.  1.
       -2   -1    0    0    0  501  0.00000000000E+00  0.00000000000E+00 -0.12566781859E+04  0.12566781859E+04  0.25500000920E-02 0. -1.
    10030    2    1    2    0    0  0.00000000000E+00  0.00000000000E+00  0.11890399869E+04  0.37023963586E+04  0.35062690578E+04 0.  0.
        4    1    3    3  502    0  0.10172531924E+04 -0.13961360256E+04  0.27865701438E+03  0.17497574701E+04  0.12699999809E+01 0. -1.
       -4    1    3    3    0  502 -0.10172531924E+04  0.13961360256E+04  0.91038297256E+03  0.19526388886E+04  0.12699999809E+01 0.  1.
</event>
<event>
 5   0  0.2020725E-06  0.3480943E+04  0.7818609E-02  0.8118321E-01
        2   -1    0    0  501    0  0.00000000000E+00  0.00000000000E+00  0.15749054700E+04  0.15749054700E+04  0.25500000920E-02 0.  1.
       -2   -1    0    0    0  501  0.00000000000E+00  0.00000000000E+00 -0.19234427522E+04  0.19234427522E+04  0.25500000920E-02 0. -1.
    10030    2    1    2    0    0  0.00000000000E+00  0.00000000000E+00 -0.34853728223E+03  0.34983482222E+04  0.34809426952E+04 0.  0.
        3    1    3    3  502    0  0.16793931434E+03 -0.92532413582E+03  0.12975720028E+04  0.16025359535E+04  0.10100000352E+00 0.  1.
       -3    1    3    3    0  502 -0.16793931434E+03  0.92532413582E+03 -0.16461092851E+04  0.18958122687E+04  0.10100000352E+00 0. -1.
</event>
<event>
 5   0  0.2001768E-06  0.2443283E+04  0.7818609E-02  0.8423475E-01
        2   -1    0    0  501    0  0.00000000000E+00  0.00000000000E+00  0.15017218259E+04  0.15017218259E+04  0.25500000920E-02 0.  1.
       -2   -1    0    0    0  501  0.00000000000E+00  0.00000000000E+00 -0.99379751747E+03  0.99379751747E+03  0.25500000920E-02 0. -1.
    10030    2    1    2    0    0  0.00000000000E+00  0.00000000000E+00  0.50792430845E+03  0.24955193434E+04  0.24432825645E+04 0.  0.
        2    1    3    3  502    0 -0.55015117498E+02  0.74413367648E+03  0.12419304043E+04  0.14488453061E+04  0.25500000920E-02 0.  1.
       -2    1    3    3    0  502  0.55015117498E+02 -0.74413367648E+03 -0.73400609590E+03  0.10466740373E+04  0.25500000920E-02 0. -1.
</event>
<event>
 5   0  0.2073287E-06  0.3465307E+04  0.7818609E-02  0.8122061E-01
       -2   -1    0    0    0  501  0.00000000000E+00  0.00000000000E+00  0.18673631724E+04  0.18673631724E+04  0.25500000920E-02 0.  1.
        2   -1    0    0  501    0  0.00000000000E+00  0.00000000000E+00 -0.16076615478E+04  0.16076615478E+04  0.25500000920E-02 0. -1.
    10030    2    1    2    0    0  0.00000000000E+00  0.00000000000E+00  0.25970162463E+03  0.34750247202E+04  0.34653068944E+04 0.  0.
        1    1    3    3  502    0 -0.13272137395E+04  0.94072599602E+03 -0.46816560378E+03  0.16928203515E+04  0.50400001928E-02 0. -1.
       -1    1    3    3    0  502  0.13272137395E+04 -0.94072599602E+03  0.72786722841E+03  0.17822043688E+04  0.50400001928E-02 0.  1.
</event>
<event>
 5   0  0.2023479E-06  0.2479362E+04  0.7818609E-02  0.8410375E-01
        2   -1    0    0  501    0  0.00000000000E+00  0.00000000000E+00  0.21104987205E+04  0.21104987205E+04  0.25500000920E-02 0. -1.
       -2   -1    0    0    0  501  0.00000000000E+00  0.00000000000E+00 -0.72817311555E+03  0.72817311556E+03  0.25500000920E-02 0.  1.
    10030    2    1    2    0    0  0.00000000000E+00  0.00000000000E+00  0.13823256050E+04  0.28386718361E+04  0.24793615539E+04 0.  0.
        5    1    3    3  502    0  0.40260347949E+03 -0.90007820535E+03  0.15514210412E+04  0.18382490784E+04  0.46999998093E+01 0. -1.
       -5    1    3    3    0  502 -0.40260347949E+03  0.90007820535E+03 -0.16909543619E+03  0.10004227576E+04  0.46999998093E+01 0.  1.
</event>
<event>
 5   0  0.2020725E-06  0.3540117E+04  0.7818609E-02  0.8104348E-01
       -2   -1    0    0    0  501  0.00000000000E+00  0.00000000000E+00  0.13739463231E+04  0.13739463231E+04  0.25500000920E-02 0.  1.
        2   -1    0    0  501    0  0.00000000000E+00  0.00000000000E+00 -0.22803709059E+04  0.22803709059E+04  0.25500000920E-02 0. -1.
    10030    2    1    2    0    0  0.00000000000E+00  0.00000000000E+00 -0.90642458286E+03  0.36543172290E+04  0.35401170723E+04 0.  0.
        3    1    3    3  502    0 -0.14425056191E+04  0.82127653294E+03  0.18126140747E+03  0.16697824148E+04  0.10100000352E+00 0.  1.
       -3    1    3    3    0  502  0.14425056191E+04 -0.82127653294E+03 -0.10876859903E+04  0.19845348141E+04  0.10100000352E+00 0. -1.
</event>
<event>
 5   0  0.6630125E-07  0.3540222E+04  0.7818609E-02  0.8104323E-01
        1   -1    0    0  501    0  0.00000000000E+00  0.00000000000E+00  0.11668292414E+04  0.11668292414E+04  0.50400001928E-02 0. -1.
       -1   -1    0    0    0  501  0.00000000000E+00  0.00000000000E+00 -0.26853056008E+04  0.26853056008E+04  0.50400001928E-02 0.  1.
    10030    2    1    2    0    0  0.00000000000E+00  0.00000000000E+00 -0.15184763594E+04  0.38521348423E+04  0.35402220819E+04 0.  0.
        1    1    3    3  502    0  0.43648521292E+03  0.52238577796E+03 -0.25371794167E+04  0.26269156124E+04  0.50400001928E-02 0.  1.
       -1    1    3    3    0  502 -0.43648521292E+03 -0.52238577796E+03  0.10187030573E+04  0.12252192298E+04  0.50400001928E-02 0. -1.
</event>
<event>
 5   0  0.6890600E-07  0.3182766E+04  0.7818609E-02  0.8193384E-01
        1   -1    0    0  501    0  0.00000000000E+00  0.00000000000E+00  0.19943638390E+04  0.19943638390E+04  0.50400001928E-02 0. -1.
       -1   -1    0    0    0  501  0.00000000000E+00  0.00000000000E+00 -0.12698283949E+04  0.12698283949E+04  0.50400001928E-02 0.  1.
    10030    2    1    2    0    0  0.00000000000E+00  0.00000000000E+00  0.72453544410E+03  0.32641922339E+04  0.31827659873E+04 0.  0.
        3    1    3    3  502    0 -0.82587443515E+03  0.12764611595E+04  0.84448628864E+03  0.17391316156E+04  0.10100000352E+00 0. -1.
       -3    1    3    3    0  502  0.82587443515E+03 -0.12764611595E+04 -0.11995084454E+03  0.15250606183E+04  0.10100000352E+00 0.  1.
</event>
<event>
 5   0  0.6630125E-07  0.3459566E+04  0.7818609E-02  0.8123440E-01
        1   -1    0    0  501    0  0.00000000000E+00  0.00000000000E+00  0.22710481762E+04  0.22710481762E+04  0.50400001928E-02 0.  1.
       -1   -1    0    0    0  501  0.00000000000E+00  0.00000000000E+00 -0.13175186860E+04  0.13175186860E+04  0.50400001928E-02 0. -1.
    10030    2    1    2    0    0  0.00000000000E+00  0.00000000000E+00  0.95352949018E+03  0.35885668622E+04  0.34595655270E+04 0.  0.
        5    1    3    3  502    0 -0.94792910023E+02  0.48549568963E+03  0.21961102591E+04  0.22511361844E+04  0.46999998093E+01 0.  1.
       -5    1    3    3    0  502  0.94792910023E+02 -0.48549568963E+03 -0.12425807690E+04  0.13374306778E+04  0.46999998093E+01 0. -1.
</event>
<event>
 5   0  0.6890600E-07  0.2523983E+04  0.7818609E-02  0.8394491E-01
        1   -1    0    0  501    0  0.00000000000E+00  0.00000000000E+00  0.21130129641E+04  0.21130129641E+04  0.50400001928E-02 0. -1.
       -1   -1    0    0    0  501  0.00000000000E+00  0.00000000000E+00 -0.75372108000E+03  0.75372108001E+03  0.50400001928E-02 0.  1.
    10030    2    1    2    0    0  0.00000000000E+00  0.00000000000E+00  0.13592918841E+04  0.28667340441E+04  0.25239828949E+04 0.  0.
        3    1    3    3  502    0  0.10135439605E+02  0.35424939075E+03 -0.69604239934E+03  0.78107002878E+03  0.10100000352E+00 0.  1.
       -3    1    3    3    0  502 -0.10135439605E+02 -0.35424939075E+03  0.20553342834E+04  0.20856640153E+04  0.10100000352E+00 0. -1.
</event>
<event>
 5   0  0.2001768E-06  0.3596018E+04  0.7818609E-02  0.8091404E-01
        2   -1    0    0  501    0  0.00000000000E+00  0.00000000000E+00  0.17192741035E+04  0.17192741035E+04  0.25500000920E-02 0. -1.
       -2   -1    0    0    0  501  0.00000000000E+00  0.00000000000E+00 -0.18803501118E+04  0.18803501118E+04  0.25500000920E-02 0.  1.
    10030    2    1    2    0    0  0.00000000000E+00  0.00000000000E+00 -0.16107600833E+03  0.35996242153E+04  0.35960184942E+04 0.  0.
        2    1    3    3  502    0 -0.11595151640E+04 -0.13614441422E+04 -0.26735762586E+03  0.18081719133E+04  0.25500000920E-02 0.  1.
       -2    1    3    3    0  502  0.11595151640E+04  0.13614441422E+04  0.10628161754E+03  0.17914523020E+04  0.25500000920E-02 0. -1.
</event>
<event>
 5   0  0.2020725E-06  0.3483052E+04  0.7818609E-02  0.8117818E-01
       -2   -1    0    0    0  501  0.00000000000E+00  0.00000000000E+00  0.11216076246E+04  0.11216076246E+04  0.25500000920E-02 0.  1.
        2   -1    0    0  501    0  0.00000000000E+00  0.00000000000E+00 -0.27040764029E+04  0.27040764029E+04  0.25500000920E-02 0. -1.
    10030    2    1    2    0    0  0.00000000000E+00  0.00000000000E+00 -0.15824687782E+04  0.38256840275E+04  0.34830519440E+04 0.  0.
        3    1    3    3  502    0 -0.15707344020E+03  0.13927740699E+04 -0.19265598028E+04  0.23824618275E+04  0.10100000352E+00 0. -1.
       -3    1    3    3    0  502  0.15707344020E+03 -0.13927740699E+04  0.34409102454E+03  0.14432222001E+04  0.10100000352E+00 0.  1.
</event>
<event>
 5   0  0.6890600E-07  0.3474590E+04  0.7818609E-02  0.8119838E-01
       -1   -1    0    0    0  501  0.00000000000E+00  0.00000000000E+00  0.17848064350E+04  0.17848064351E+04  0.50400001928E-02 0.  1.
        1   -1    0    0  501    0  0.00000000000E+00  0.00000000000E+00 -0.16910484175E+04  0.16910484175E+04  0.50400001928E-02 0. -1.
    10030    2    1    2    0    0  0.00000000000E+00  0.00000000000E+00  0.93758017560E+02  0.34758548526E+04  0.34745901039E+04 0.  0.
        3    1    3    3  502    0  0.11041969045E+04  0.72248627763E+03 -0.10835574796E+04  0.17074349320E+04  0.10100000352E+00 0. -1.
       -3    1    3    3    0  502 -0.11041969045E+04 -0.72248627763E+03  0.11773154972E+04  0.17684199205E+04  0.10100000352E+00 0.  1.
</event>
<event>
 5   0  0.7378896E-07  0.3469086E+04  0.7818609E-02  0.8121155E-01
        1   -1    0    0  501    0  0.00000000000E+00  0.00000000000E+00  0.28207620782E+04  0.28207620782E+04  0.50400001928E-02 0. -1.
       -1   -1    0    0    0  501  0.00000000000E+00  0.00000000000E+00 -0.10666054709E+04  0.10666054709E+04  0.50400001928E-02 0.  1.
    10030    2    1    2    0    0  0.00000000000E+00  0.00000000000E+00  0.17541566073E+04  0.38873675491E+04  0.34690864876E+04 0.  0.
        2    1    3    3  502    0  0.44809066725E+03  0.88384968374E+03 -0.71818154703E+03  0.12238301533E+04  0.25500000920E-02 0.  1.
       -2    1    3    3    0  502 -0.44809066725E+03 -0.88384968374E+03  0.24723381544E+04  0.26635373958E+04  0.25500000920E-02 0. -1.
</event>
<event>
 5   0  0.2001768E-06  0.3483713E+04  0.7818609E-02  0.8117661E-01
        2   -1    0    0  501    0  0.00000000000E+00  0.00000000000E+00  0.14566062888E+04  0.14566062888E+04  0.25500000920E-02 0.  1.
       -2   -1    0    0    0  501  0.00000000000E+00  0.00000000000E+00 -0.20829677311E+04  0.20829677311E+04  0.25500000920E-02 0. -1.
    10030    2    1    2    0    0  0.00000000000E+00  0.00000000000E+00 -0.62636144226E+03  0.35395740199E+04  0.34837129024E+04 0.  0.
        2    1    3    3  502    0  0.69254540794E+03  0.99369877948E+03  0.95869353805E+03  0.15447167075E+04  0.25500000920E-02 0.  1.
       -2    1    3    3    0  502 -0.69254540794E+03 -0.99369877948E+03 -0.15850549803E+04  0.19948573124E+04  0.25500000920E-02 0. -1.
</event>
<event>
 5   0  0.6630125E-07  0.3385859E+04  0.7818609E-02  0.8141386E-01
       -1   -1    0    0    0  501  0.00000000000E+00  0.00000000000E+00  0.15023484220E+04  0.15023484220E+04  0.50400001928E-02 0. -1.
        1   -1    0    0  501    0  0.00000000000E+00  0.00000000000E+00 -0.19076868880E+04  0.19076868880E+04  0.50400001928E-02 0.  1.
    10030    2    1    2    0    0  0.00000000000E+00  0.00000000000E+00 -0.40533846602E+03  0.34100353100E+04  0.33858590554E+04 0.  0.
        4    1    3    3  502    0 -0.14844513304E+04 -0.64849609555E+02  0.61442365376E+03  0.16078928022E+04  0.12699999809E+01 0. -1.
       -4    1    3    3    0  502  0.14844513304E+04  0.64849609555E+02 -0.10197621198E+04  0.18021425077E+04  0.12699999809E+01 0.  1.
</event>
<event>
 5   0  0.2073287E-06  0.3220972E+04  0.7818609E-02  0.8183300E-01
        2   -1    0    0  501    0  0.00000000000E+00  0.00000000000E+00  0.11374795804E+04  0.11374795804E+04  0.25500000920E-02 0. -1.
       -2   -1    0    0    0  501  0.00000000000E+00  0.00000000000E+00 -0.22801862754E+04  0.22801862754E+04  0.25500000920E-02 0.  1.
    10030    2    1    2    0    0  0.00000000000E+00  0.00000000000E+00 -0.11427066950E+04  0.34176658558E+04  0.32209721065E+04 0.  0.
        1    1    3    3  502    0 -0.26841649551E+03 -0.89766154529E+03  0.81853114403E+03  0.12441209341E+04  0.50400001928E-02 0. -1.
       -1    1    3    3    0  502  0.26841649551E+03  0.89766154529E+03 -0.19612378391E+04  0.21735449216E+04  0.50400001928E-02 0.  1.
</event>
<event>
 5   0  0.6630125E-07  0.3467863E+04  0.7818609E-02  0.8121449E-01
        1   -1    0    0  501    0  0.00000000000E+00  0.00000000000E+00  0.18576602108E+04  0.18576602108E+04  0.50400001928E-02 0. -1.
       -1   -1    0    0    0  501  0.00000000000E+00  0.00000000000E+00 -0.16184433178E+04  0.16184433178E+04  0.50400001928E-02 0.  1.
    10030    2    1    2    0    0  0.00000000000E+00  0.00000000000E+00  0.23921689302E+03  0.34761035285E+04  0.34678626010E+04 0.  0.
        4    1    3    3  502    0  0.61898602776E+02 -0.14281253001E+04  0.11033390195E+04  0.18057496822E+04  0.12699999809E+01 0. -1.
       -4    1    3    3    0  502 -0.61898602776E+02  0.14281253001E+04 -0.86412212650E+03  0.16703538464E+04  0.12699999809E+01 0.  1.
</event>
<event>
 5   0  0.6890600E-07  0.3523474E+04  0.7818609E-02  0.8108249E-01
       -1   -1    0    0    0  501  0.00000000000E+00  0.00000000000E+00  0.12620373918E+04  0.12620373918E+04  0.50400001928E-02 0. -1.
        1   -1    0    0  501    0  0.00000000000E+00  0.00000000000E+00 -0.24592914984E+04  0.24592914984E+04  0.50400001928E-02 0.  1.
    10030    2    1    2    0    0  0.00000000000E+00  0.00000000000E+00 -0.11972541066E+04  0.37213288902E+04  0.35234743242E+04 0.  0.
        3    1    3    3  502    0 -0.92460680724E+03 -0.12839989152E+04 -0.14168335950E+04  0.21239040487E+04  0.10100000352E+00 0.  1.
       -3    1    3    3    0  502  0.92460680724E+03  0.12839989152E+04  0.21957948840E+03  0.15974248415E+04  0.10100000352E+00 0. -1.
</event>
<event>
 5   0  0.7378896E-07  0.3043637E+04  0.7818609E-02  0.8231379E-01
       -1   -1    0    0    0  501  0.00000000000E+00  0.00000000000E+00  0.15036292499E+04  0.15036292499E+04  0.50400001928E-02 0.  1.
        1   -1    0    0  501    0  0.00000000000E+00  0.00000000000E+00 -0.15402281487E+04  0.15402281487E+04  0.50400001928E-02 0. -1.
    10030    2    1    2    0    0  0.00000000000E+00  0.00000000000E+00 -0.36598898778E+02  0.30438573986E+04  0.30436373607E+04 0.  0.
        2    1    3    3  502    0  0.14943409624E+04 -0.13578031094E+03  0.23557100783E+03  0.15188761978E+04  0.25500000920E-02 0.  1.
       -2    1    3    3    0  502 -0.14943409624E+04  0.13578031094E+03 -0.27216990661E+03  0.15249812008E+04  0.25500000920E-02 0. -1.
</event>
<event>
 5   0  0.2073287E-06  0.2952459E+04  0.7818609E-02  0.8257438E-01
       -2   -1    0    0    0  501  0.00000000000E+00  0.00000000000E+00  0.17451998702E+04  0.17451998702E+04  0.25500000920E-02 0.  1.
        2   -1    0    0  501    0  0.00000000000E+00  0.00000000000E+00 -0.12487128006E+04  0.12487128006E+04  0.25500000920E-02 0. -1.
    10030    2    1    2    0    0  0.00000000000E+00  0.00000000000E+00  0.49648706955E+03  0.29939126708E+04  0.29524589193E+04 0.  0.
        1    1    3    3  502    0  0.12634780014E+04 -0.72893359420E+03  0.18048380340E+02  0.14587825708E+04  0.50400001928E-02 0.  1.
       -1    1    3    3    0  502 -0.12634780014E+04  0.72893359420E+03  0.47843868921E+03  0.15351301001E+04  0.50400001928E-02 0. -1.
</event>
<event>
 5   0  0.2023479E-06  0.2559985E+04  0.7818609E-02  0.8381922E-01
       -2   -1    0    0    0  501  0.00000000000E+00  0.00000000000E+00  0.70134789901E+03  0.70134789902E+03  0.25500000920E-02 0. -1.
        2   -1    0    0  501    0  0.00000000000E+00  0.00000000000E+00 -0.23360450046E+04  0.23360450047E+04  0.25500000920E-02 0.  1.
    10030    2    1    2    0    0  0.00000000000E+00  0.00000000000E+00 -0.16346971056E+04  0.30373929037E+04  0.25599845750E+04 0.  0.
        5    1    3    3  502    0 -0.17341490454E+03  0.25102151609E+03  0.65756417342E+03  0.72491190004E+03  0.46999998093E+01 0. -1.
       -5    1    3    3    0  502  0.17341490454E+03 -0.25102151609E+03 -0.22922612791E+04  0.23124810036E+04  0.46999998093E+01 0.  1.
</event>
<event>
 5   0  0.6630125E-07  0.2170403E+04  0.7818609E-02  0.8530849E-01
       -1   -1    0    0    0  501  0.00000000000E+00  0.00000000000E+00  0.11451457605E+04  0.11451457605E+04  0.50400001928E-02 0.  1.
        1   -1    0    0  501    0  0.00000000000E+00  0.00000000000E+00 -0.10283951111E+04  0.10283951111E+04  0.50400001928E-02 0. -1.
    10030    2    1    2    0    0  0.00000000000E+00  0.00000000000E+00  0.11675064941E+03  0.21735408716E+04  0.21704030056E+04 0.  0.
        5    1    3    3  502    0 -0.75596925040E+03 -0.53912142696E+03  0.62088018425E+03  0.11169851001E+04  0.46999998093E+01 0.  1.
       -5    1    3    3    0  502  0.75596925040E+03  0.53912142696E+03 -0.50412953484E+03  0.10565557716E+04  0.46999998093E+01 0. -1.
</event>
<event>
 5   0  0.1999883E-06  0.2924186E+04  0.7818609E-02  0.8265717E-01
        2   -1    0    0  501    0  0.00000000000E+00  0.00000000000E+00  0.15358391903E+04  0.15358391903E+04  0.25500000920E-02 0.  1.
       -2   -1    0    0    0  501  0.00000000000E+00  0.00000000000E+00 -0.13918883164E+04  0.13918883164E+04  0.25500000920E-02 0. -1.
    10030    2    1    2    0    0  0.00000000000E+00  0.00000000000E+00  0.14395087382E+03  0.29277275067E+04  0.29241864680E+04 0.  0.
        4    1    3    3  502    0  0.90715727130E+03 -0.96557162159E+03 -0.54720059709E+03  0.14334200283E+04  0.12699999809E+01 0. -1.
       -4    1    3    3    0  502 -0.90715727130E+03  0.96557162159E+03  0.69115147091E+03  0.14943074784E+04  0.12699999809E+01 0.  1.
</event>
<event>
 5   0  0.6630125E-07  0.3548084E+04  0.7818609E-02  0.8102488E-01
       -1   -1    0    0    0  501  0.00000000000E+00  0.00000000000E+00  0.14323126150E+04  0.14323126150E+04  0.50400001928E-02 0.  1.
        1   -1    0    0  501    0  0.00000000000E+00  0.00000000000E+00 -0.21973035809E+04  0.21973035810E+04  0.50400001928E-02 0. -1.
    10030    2    1    2    0    0  0.00000000000E+00  0.00000000000E+00 -0.76499096592E+03  0.36296161960E+04  0.35480843497E+04 0.  0.
        1    1    3    3  502    0  0.54403618749E+02  0.64837374646E+03  0.13058469823E+04  0.14589669667E+04  0.50400001928E-02 0.  1.
       -1    1    3    3    0  502 -0.54403618749E+02 -0.64837374646E+03 -0.20708379482E+04  0.21706492293E+04  0.50400001928E-02 0. -1.
</event>
<event>
 5   0  0.6630125E-07  0.3176476E+04  0.7818609E-02  0.8195058E-01
       -1   -1    0    0    0  501  0.00000000000E+00  0.00000000000E+00  0.20151350390E+04  0.20151350390E+04  0.50400001928E-02 0. -1.
        1   -1    0    0  501    0  0.00000000000E+00  0.00000000000E+00 -0.12517769992E+04  0.12517769992E+04  0.50400001928E-02 0.  1.
    10030    2    1    2    0    0  0.00000000000E+00  0.00000000000E+00  0.76335803984E+03  0.32669120382E+04  0.31764758410E+04 0.  0.
        5    1    3    3  502    0 -0.10686538705E+04 -0.62417929789E+03  0.14054370287E+04  0.18726708794E+04  0.46999998093E+01 0. -1.
       -5    1    3    3    0  502  0.10686538705E+04  0.62417929789E+03 -0.64207898887E+03  0.13942411588E+04  0.46999998093E+01 0.  1.
</event>
<event>
 5   0  0.7378896E-07  0.3592535E+04  0.7818609E-02  0.8092204E-01
        1   -1    0    0  501    0  0.00000000000E+00  0.00000000000E+00  0.28063455999E+04  0.28063456000E+04  0.50400001928E-02 0. -1.
       -1   -1    0    0    0  501  0.00000000000E+00  0.00000000000E+00 -0.11497433870E+04  0.11497433870E+04  0.50400001928E-02 0.  1.
    10030    2    1    2    0    0  0.00000000000E+00  0.00000000000E+00  0.16566022130E+04  0.39560889869E+04  0.35925352024E+04 0.  0.
        2    1    3    3  502    0  0.10853728892E+03 -0.12464427628E+04  0.22475972586E+04  0.25723711515E+04  0.25500000920E-02 0. -1.
       -2    1    3    3    0  502 -0.10853728892E+03  0.12464427628E+04 -0.59099504567E+03  0.13837178354E+04  0.25500000920E-02 0.  1.
</event>
<event>
 5   0  0.7378896E-07  0.3443068E+04  0.7818609E-02  0.8127416E-01
        1   -1    0    0  501    0  0.00000000000E+00  0.00000000000E+00  0.31234384058E+04  0.31234384058E+04  0.50400001928E-02 0. -1.
       -1   -1    0    0    0  501  0.00000000000E+00  0.00000000000E+00 -0.94885177390E+03  0.94885177391E+03  0.50400001928E-02 0.  1.
    10030    2    1    2    0    0  0.00000000000E+00  0.00000000000E+00  0.21745866319E+04  0.40722901797E+04  0.34430684408E+04 0.  0.
        2    1    3    3  502    0  0.39288134703E+02  0.62761603851E+03  0.29827349228E+04  0.30483033099E+04  0.25500000920E-02 0. -1.
       -2    1    3    3    0  502 -0.39288134703E+02 -0.62761603851E+03 -0.80814829095E+03  0.10239868698E+04  0.25500000920E-02 0.  1.
</event>
<event>
 5   0  0.6630125E-07  0.3313783E+04  0.7818609E-02  0.8159397E-01
       -1   -1    0    0    0  501  0.00000000000E+00  0.00000000000E+00  0.11377917049E+04  0.11377917049E+04  0.50400001928E-02 0. -1.
        1   -1    0    0  501    0  0.00000000000E+00  0.00000000000E+00 -0.24128227318E+04  0.24128227318E+04  0.50400001928E-02 0.  1.
    10030    2    1    2    0    0  0.00000000000E+00  0.00000000000E+00 -0.12750310269E+04  0.35506144366E+04  0.33137831489E+04 0.  0.
        5    1    3    3  502    0 -0.61594301986E+03 -0.13029370297E+04  0.23836457553E+03  0.14607773505E+04  0.46999998093E+01 0. -1.
       -5    1    3    3    0  502  0.61594301986E+03  0.13029370297E+04 -0.15133956024E+04  0.20898370861E+04  0.46999998093E+01 0.  1.
</event>
<event>
 5   0  0.6630125E-07  0.3536825E+04  0.7818609E-02  0.8105118E-01
       -1   -1    0    0    0  501  0.00000000000E+00  0.00000000000E+00  0.15239477654E+04  0.15239477654E+04  0.50400001928E-02 0.  1.
        1   -1    0    0  501    0  0.00000000000E+00  0.00000000000E+00 -0.20520933049E+04  0.20520933049E+04  0.50400001928E-02 0. -1.
    10030    2    1    2    0    0  0.00000000000E+00  0.00000000000E+00 -0.52814553948E+03  0.35760410703E+04  0.35368251336E+04 0.  0.
        5    1    3    3  502    0  0.13888694776E+04 -0.58287616343E+02 -0.13693102578E+04  0.19512530702E+04  0.46999998093E+01 0. -1.
       -5    1    3    3    0  502 -0.13888694776E+04  0.58287616343E+02  0.84116471830E+03  0.16247880001E+04  0.46999998093E+01 0.  1.
</event>
<event>
 5   0  0.7378896E-07  0.3401482E+04  0.7818609E-02  0.8137543E-01
        1   -1    0    0  501    0  0.00000000000E+00  0.00000000000E+00  0.15105028006E+04  0.15105028006E+04  0.50400001928E-02 0.  1.
       -1   -1    0    0    0  501  0.00000000000E+00  0.00000000000E+00 -0.19149388391E+04  0.19149388391E+04  0.50400001928E-02 0. -1.
    10030    2    1    2    0    0  0.00000000000E+00  0.00000000000E+00 -0.40443603851E+03  0.34254416397E+04  0.34014823118E+04 0.  0.
        2    1    3    3  502    0  0.16832126914E+04 -0.22671483410E+03 -0.29181605210E+03  0.17232995064E+04  0.25500000920E-02 0.  1.
       -2    1    3    3    0  502 -0.16832126914E+04  0.22671483410E+03 -0.11261998641E+03  0.17021421333E+04  0.25500000920E-02 0. -1.
</event>
<event>
 5   0  0.7378896E-07  0.2442542E+04  0.7818609E-02  0.8423746E-01
        1   -1    0    0  501    0  0.00000000000E+00  0.00000000000E+00  0.16248938613E+04  0.16248938613E+04  0.50400001928E-02 0. -1.
       -1   -1    0    0    0  501  0.00000000000E+00  0.00000000000E+00 -0.91790794760E+03  0.91790794762E+03  0.50400001928E-02 0.  1.
    10030    2    1    2    0    0  0.00000000000E+00  0.00000000000E+00  0.70698591366E+03  0.25428018089E+04  0.24425421096E+04 0.  0.
        2    1    3    3  502    0  0.48826881960E+03  0.99217081291E+02  0.15142735164E+04  0.15941376201E+04  0.25500000920E-02 0. -1.
       -2    1    3    3    0  502 -0.48826881960E+03 -0.99217081291E+02 -0.80728760277E+03  0.94866418874E+03  0.25500000920E-02 0.  1.
</event>
<event>
 5   0  0.2023479E-06  0.3491610E+04  0.7818609E-02  0.8115781E-01
       -2   -1    0    0    0  501  0.00000000000E+00  0.00000000000E+00  0.18919971151E+04  0.18919971151E+04  0.25500000920E-02 0.  1.
        2   -1    0    0  501    0  0.00000000000E+00  0.00000000000E+00 -0.16109087142E+04  0.16109087142E+04  0.25500000920E-02 0. -1.
    10030    2    1    2    0    0  0.00000000000E+00  0.00000000000E+00  0.28108840090E+03  0.35029058294E+04  0.34916097377E+04 0.  0.
        5    1    3    3  502    0 -0.16792384051E+04 -0.47377429989E+03  0.81117084371E+02  0.17466842244E+04  0.46999998093E+01 0. -1.
       -5    1    3    3    0  502  0.16792384051E+04  0.47377429989E+03  0.19997131653E+03  0.17562216050E+04  0.46999998093E+01 0.  1.
</event>
<event>
 5   0  0.2073287E-06  0.3512834E+04  0.7818609E-02  0.8110755E-01
       -2   -1    0    0    0  501  0.00000000000E+00  0.00000000000E+00  0.20491922165E+04  0.20491922165E+04  0.25500000920E-02 0. -1.
        2   -1    0    0  501    0  0.00000000000E+00  0.00000000000E+00 -0.15054717395E+04  0.15054717395E+04  0.25500000920E-02 0.  1.
    10030    2    1    2    0    0  0.00000000000E+00  0.00000000000E+00  0.54372047704E+03  0.35546639560E+04  0.35128341667E+04 0.  0.
        1    1    3    3  502    0  0.40541829790E+03 -0.13067975302E+04  0.13862996898E+04  0.19477963475E+04  0.50400001928E-02 0. -1.
       -1    1    3    3    0  502 -0.40541829790E+03  0.13067975302E+04 -0.84257921280E+03  0.16068676085E+04  0.50400001928E-02 0.  1.
</event>
<event>
 5   0  0.6630125E-07  0.3366809E+04  0.7818609E-02  0.8146101E-01
        1   -1    0    0  501    0  0.00000000000E+00  0.00000000000E+00  0.19010704118E+04  0.19010704118E+04  0.50400001928E-02 0.  1.
       -1   -1    0    0    0  501  0.00000000000E+00  0.00000000000E+00 -0.14906608908E+04  0.14906608908E+04  0.50400001928E-02 0. -1.
    10030    2    1    2    0    0  0.00000000000E+00  0.00000000000E+00  0.41040952093E+03  0.33917313026E+04  0.33668093582E+04 0.  0.
        5    1    3    3  502    0 -0.65090163883E+03 -0.14288817888E+04  0.81670133616E+03  0.17698585459E+04  0.46999998093E+01 0.  1.
       -5    1    3    3    0  502  0.65090163883E+03  0.14288817888E+04 -0.40629181524E+03  0.16218727567E+04  0.46999998093E+01 0. -1.
</event>
<event>
 5   0  0.7378896E-07  0.2905940E+04  0.7818609E-02  0.8271112E-01
        1   -1    0    0  501    0  0.00000000000E+00  0.00000000000E+00  0.15355098465E+04  0.15355098465E+04  0.50400001928E-02 0.  1.
       -1   -1    0    0    0  501  0.00000000000E+00  0.00000000000E+00 -0.13748674607E+04  0.13748674607E+04  0.50400001928E-02 0. -1.
    10030    2    1    2    0    0  0.00000000000E+00  0.00000000000E+00  0.16064238587E+03  0.29103773072E+04  0.29059404836E+04 0.  0.
        2    1    3    3  502    0 -0.86228609705E+03 -0.11080228914E+04 -0.29424244698E+03  0.14345140845E+04  0.25500000920E-02 0. -1.
       -2    1    3    3    0  502  0.86228609705E+03  0.11080228914E+04  0.45488483285E+03  0.14758632227E+04  0.25500000920E-02 0.  1.
</event>
<event>
 5   0  0.6630125E-07  0.2990309E+04  0.7818609E-02  0.8246504E-01
       -1   -1    0    0    0  501  0.00000000000E+00  0.00000000000E+00  0.11063173055E+04  0.11063173056E+04  0.50400001928E-02 0. -1.
        1   -1    0    0  501    0  0.00000000000E+00  0.00000000000E+00 -0.20206561616E+04  0.20206561616E+04  0.50400001928E-02 0.  1.
    10030    2    1    2    0    0  0.00000000000E+00  0.00000000000E+00 -0.91433885609E+03  0.31269734672E+04  0.29903089340E+04 0.  0.
        1    1    3    3  502    0 -0.44366216134E+02  0.39598151803E+03  0.10497735295E+04  0.11228509193E+04  0.50400001928E-02 0. -1.
       -1    1    3    3    0  502  0.44366216134E+02 -0.39598151803E+03 -0.19641123856E+04  0.20041225479E+04  0.50400001928E-02 0.  1.
</event>
<event>
 5   0  0.2023479E-06  0.3443367E+04  0.7818609E-02  0.8127344E-01
        2   -1    0    0  501    0  0.00000000000E+00  0.00000000000E+00  0.14389230417E+04  0.14389230417E+04  0.25500000920E-02 0.  1.
       -2   -1    0    0    0  501  0.00000000000E+00  0.00000000000E+00 -0.20600085321E+04  0.20600085321E+04  0.25500000920E-02 0. -1.
    10030    2    1    2    0    0  0.00000000000E+00  0.00000000000E+00 -0.62108549045E+03  0.34989315738E+04  0.34433668076E+04 0.  0.
        5    1    3    3  502    0  0.49631252317E+03 -0.71405106810E+03  0.11993614586E+04  0.14814469437E+04  0.46999998093E+01 0.  1.
       -5    1    3    3    0  502 -0.49631252317E+03  0.71405106810E+03 -0.18204469491E+04  0.20174846301E+04  0.46999998093E+01 0. -1.
</event>
<event>
 5   0  0.2023479E-06  0.3484229E+04  0.7818609E-02  0.8117538E-01
       -2   -1    0    0    0  501  0.00000000000E+00  0.00000000000E+00  0.19387707943E+04  0.19387707943E+04  0.25500000920E-02 0.  1.
        2   -1    0    0  501    0  0.00000000000E+00  0.00000000000E+00 -0.15654054974E+04  0.15654054974E+04  0.25500000920E-02 0. -1.
    10030    2    1    2    0    0  0.00000000000E+00  0.00000000000E+00  0.37336529686E+03  0.35041762917E+04  0.34842287293E+04 0.  0.
        5    1    3    3  502    0 -0.70291737512E+03 -0.15044617227E+04  0.71642628864E+03  0.18085316221E+04  0.46999998093E+01 0.  1.
       -5    1    3    3    0  502  0.70291737512E+03  0.15044617227E+04 -0.34306099178E+03  0.16956446695E+04  0.46999998093E+01 0. -1.
</event>
<event>
 5   0  0.1999883E-06  0.3406111E+04  0.7818609E-02  0.8136408E-01
        2   -1    0    0  501    0  0.00000000000E+00  0.00000000000E+00  0.20816184512E+04  0.20816184512E+04  0.25500000920E-02 0. -1.
       -2   -1    0    0    0  501  0.00000000000E+00  0.00000000000E+00 -0.13933378798E+04  0.13933378798E+04  0.25500000920E-02 0.  1.
    10030    2    1    2    0    0  0.00000000000E+00  0.00000000000E+00  0.68828057140E+03  0.34749563311E+04  0.34061108845E+04 0.  0.
        4    1    3    3  502    0 -0.66444132865E+03 -0.14155575803E+04  0.10323948254E+04  0.18737999442E+04  0.12699999809E+01 0. -1.
       -4    1    3    3    0  502  0.66444132865E+03  0.14155575803E+04 -0.34411425405E+03  0.16011563868E+04  0.12699999809E+01 0.  1.
</event>
<event>
 5   0  0.6630125E-07  0.3490905E+04  0.7818609E-02  0.8115949E-01
       -1   -1    0    0    0  501  0.00000000000E+00  0.00000000000E+00  0.14257132708E+04  0.14257132708E+04  0.50400001928E-02 0.  1.
        1   -1    0    0  501    0  0.00000000000E+00  0.00000000000E+00 -0.21368978432E+04  0.21368978432E+04  0.50400001928E-02 0. -1.
    10030    2    1    2    0    0  0.00000000000E+00  0.00000000000E+00 -0.71118457236E+03  0.35626111140E+04  0.34909045323E+04 0.  0.
        5    1    3    3  502    0 -0.14232397141E+04 -0.50012661868E+03  0.54041921272E+03  0.16024396818E+04  0.46999998093E+01 0.  1.
       -5    1    3    3    0  502  0.14232397141E+04  0.50012661868E+03 -0.12516037851E+04  0.19601714321E+04  0.46999998093E+01 0. -1.
</event>
<event>
 5   0  0.2001768E-06  0.2313465E+04  0.7818609E-02  0.8472631E-01
       -2   -1    0    0    0  501  0.00000000000E+00  0.00000000000E+00  0.94551637025E+03  0.94551637026E+03  0.25500000920E-02 0. -1.
        2   -1    0    0  501    0  0.00000000000E+00  0.00000000000E+00 -0.14151321810E+04  0.14151321810E+04  0.25500000920E-02 0.  1.
    10030    2    1    2    0    0  0.00000000000E+00  0.00000000000E+00 -0.46961581077E+03  0.23606485513E+04  0.23134654899E+04 0.  0.
        2    1    3    3  502    0  0.20091082645E+03  0.61648351793E+03  0.74265035178E+03  0.98587353808E+03  0.25500000920E-02 0. -1.
       -2    1    3    3    0  502 -0.20091082645E+03 -0.61648351793E+03 -0.12122661625E+04  0.13747750132E+04  0.25500000920E-02 0.  1.
</event>
<event>
 5   0  0.7378896E-07  0.3594164E+04  0.7818609E-02  0.8091830E-01
        1   -1    0    0  501    0  0.00000000000E+00  0.00000000000E+00  0.14063459425E+04  0.14063459425E+04  0.50400001928E-02 0.  1.
       -1   -1    0    0    0  501  0.00000000000E+00  0.00000000000E+00 -0.22963793450E+04  0.22963793450E+04  0.50400001928E-02 0. -1.
    10030    2    1    2    0    0  0.00000000000E+00  0.00000000000E+00 -0.89003340248E+03  0.37027252875E+04  0.35941640331E+04 0.  0.
        2    1    3    3  502    0  0.96783287695E+02 -0.14531841686E+04  0.63958528535E+03  0.15906541327E+04  0.25500000920E-02 0.  1.
       -2    1    3    3    0  502 -0.96783287695E+02  0.14531841686E+04 -0.15296186878E+04  0.21120711548E+04  0.25500000920E-02 0. -1.
</event>
<event>
 5   0  0.2001768E-06  0.3507066E+04  0.7818609E-02  0.8112118E-01
       -2   -1    0    0    0  501  0.00000000000E+00  0.00000000000E+00  0.11950643055E+04  0.11950643055E+04  0.25500000920E-02 0.  1.
        2   -1    0    0  501    0  0.00000000000E+00  0.00000000000E+00 -0.25729807651E+04  0.25729807652E+04  0.25500000920E-02 0. -1.
    10030    2    1    2    0    0  0.00000000000E+00  0.00000000000E+00 -0.13779164596E+04  0.37680450707E+04  0.35070657086E+04 0.  0.
        2    1    3    3  502    0 -0.15582863976E+03 -0.10852424071E+04  0.78139935953E+03  0.13463352503E+04  0.25500000920E-02 0.  1.
       -2    1    3    3    0  502  0.15582863976E+03  0.10852424071E+04 -0.21593158192E+04  0.24217098204E+04  0.25500000920E-02 0. -1.
</event>
<event>
 5   0  0.6630125E-07  0.2970956E+04  0.7818609E-02  0.8252074E-01
        1   -1    0    0  501    0  0.00000000000E+00  0.00000000000E+00  0.10546935608E+04  0.10546935608E+04  0.50400001928E-02 0. -1.
       -1   -1    0    0    0  501  0.00000000000E+00  0.00000000000E+00 -0.20922138813E+04  0.20922138813E+04  0.50400001928E-02 0.  1.
    10030    2    1    2    0    0  0.00000000000E+00  0.00000000000E+00 -0.10375203204E+04  0.31469074421E+04  0.29709557442E+04 0.  0.
        5    1    3    3  502    0 -0.27536203423E+03  0.13899697882E+04 -0.46505245930E+02  0.14177535363E+04  0.46999998093E+01 0. -1.
       -5    1    3    3    0  502  0.27536203423E+03 -0.13899697882E+04 -0.99101507449E+03  0.17291539058E+04  0.46999998093E+01 0.  1.
</event>
<event>
 5   0  0.1999883E-06  0.3507935E+04  0.7818609E-02  0.8111912E-01
       -2   -1    0    0    0  501  0.00000000000E+00  0.00000000000E+00  0.16462758366E+04  0.16462758366E+04  0.25500000920E-02 0. -1.
        2   -1    0    0  501    0  0.00000000000E+00  0.00000000000E+00 -0.18687039687E+04  0.18687039687E+04  0.25500000920E-02 0.  1.
    10030    2    1    2    0    0  0.00000000000E+00  0.00000000000E+00 -0.22242813217E+03  0.35149798053E+04  0.35079351131E+04 0.  0.
        4    1    3    3  502    0  0.15092116872E+04 -0.37988197933E+02  0.78346063605E+03  0.17008748340E+04  0.12699999809E+01 0. -1.
       -4    1    3    3    0  502 -0.15092116872E+04  0.37988197933E+02 -0.10058887682E+04  0.18141049713E+04  0.12699999809E+01 0.  1.
</event>
<event>
 5   0  0.6630125E-07  0.3385272E+04  0.7818609E-02  0.8141531E-01
        1   -1    0    0  501    0  0.00000000000E+00  0.00000000000E+00  0.18413286820E+04  0.18413286820E+04  0.50400001928E-02 0. -1.
       -1   -1    0    0    0  501  0.00000000000E+00  0.00000000000E+00 -0.15559502953E+04  0.15559502953E+04  0.50400001928E-02 0.  1.
    10030    2    1    2    0    0  0.00000000000E+00  0.00000000000E+00  0.28537838668E+03  0.33972789773E+04  0.33852715735E+04 0.  0.
        1    1    3    3  502    0  0.15659550130E+04 -0.70330678428E+02 -0.49821080855E+03  0.16448025769E+04  0.50400001928E-02 0. -1.
       -1    1    3    3    0  502 -0.15659550130E+04  0.70330678428E+02  0.78358919523E+03  0.17524764004E+04  0.50400001928E-02 0.  1.
</event>
<event>
 5   0  0.6630125E-07  0.3863510E+04  0.7818609E-02  0.8032661E-01
       -1   -1    0    0    0  501  0.00000000000E+00  0.00000000000E+00  0.13398035143E+04  0.13398035143E+04  0.50400001928E-02 0. -1.
        1   -1    0    0  501    0  0.00000000000E+00  0.00000000000E+00 -0.27852427442E+04  0.27852427442E+04  0.50400001928E-02 0.  1.
    10030    2    1    2    0    0  0.00000000000E+00  0.00000000000E+00 -0.14454392300E+04  0.41250462585E+04  0.38635103296E+04 0.  0.
        5    1    3    3  502    0  0.29459584079E+03 -0.17757784989E+04 -0.14712331256E+04  0.23248064406E+04  0.46999998093E+01 0.  1.
       -5    1    3    3    0  502 -0.29459584079E+03  0.17757784989E+04  0.25793895599E+02  0.18002398178E+04  0.46999998093E+01 0. -1.
</event>
<event>
 5   0  0.6630125E-07  0.3185023E+04  0.7818609E-02  0.8192784E-01
        1   -1    0    0  501    0  0.00000000000E+00  0.00000000000E+00  0.19776908348E+04  0.19776908348E+04  0.50400001928E-02 0.  1.
       -1   -1    0    0    0  501  0.00000000000E+00  0.00000000000E+00 -0.12823508659E+04  0.12823508659E+04  0.50400001928E-02 0. -1.
    10030    2    1    2    0    0  0.00000000000E+00  0.00000000000E+00  0.69533996892E+03  0.32600417007E+04  0.31850234250E+04 0.  0.
        1    1    3    3  502    0  0.45672629910E+03  0.10877394367E+04  0.14425935570E+04  0.18635590050E+04  0.50400001928E-02 0.  1.
       -1    1    3    3    0  502 -0.45672629910E+03 -0.10877394367E+04 -0.74725358809E+03  0.13964826957E+04  0.50400001928E-02 0. -1.
</event>
<event>
 5   0  0.2001768E-06  0.3490699E+04  0.7818609E-02  0.8115998E-01
       -2   -1    0    0    0  501  0.00000000000E+00  0.00000000000E+00  0.10681725987E+04  0.10681725987E+04  0.25500000920E-02 0.  1.
        2   -1    0    0  501    0  0.00000000000E+00  0.00000000000E+00 -0.28518286353E+04  0.28518286353E+04  0.25500000920E-02 0. -1.
    10030    2    1    2    0    0  0.00000000000E+00  0.00000000000E+00 -0.17836560366E+04  0.39200012340E+04  0.34906991875E+04 0.  0.
        2    1    3    3  502    0  0.28342719850E+03  0.60646408635E+03 -0.27019298550E+04  0.27836225689E+04  0.25500000920E-02 0. -1.
       -2    1    3    3    0  502 -0.28342719850E+03 -0.60646408635E+03  0.91827381837E+03  0.11363786651E+04  0.25500000920E-02 0.  1.
</event>
<event>
 5   0  0.2073287E-06  0.3150060E+04  0.7818609E-02  0.8202132E-01
       -2   -1    0    0    0  501  0.00000000000E+00  0.00000000000E+00  0.16591715360E+04  0.16591715360E+04  0.25500000920E-02 0.  1.
        2   -1    0    0  501    0  0.00000000000E+00  0.00000000000E+00 -0.14951551017E+04  0.14951551017E+04  0.25500000920E-02 0. -1.
    10030    2    1    2    0    0  0.00000000000E+00  0.00000000000E+00  0.16401643435E+03  0.31543266377E+04  0.31500595465E+04 0.  0.
        1    1    3    3  502    0  0.14317788247E+04  0.56486222589E+03 -0.25259836087E+03  0.15597646838E+04  0.50400001928E-02 0. -1.
       -1    1    3    3    0  502 -0.14317788247E+04 -0.56486222589E+03  0.41661479523E+03  0.15945619538E+04  0.50400001928E-02 0.  1.
</event>
<event>
 5   0  0.6630125E-07  0.3597952E+04  0.7818609E-02  0.8090961E-01
        1   -1    0    0  501    0  0.00000000000E+00  0.00000000000E+00  0.20285361310E+04  0.20285361310E+04  0.50400001928E-02 0.  1.
       -1   -1    0    0    0  501  0.00000000000E+00  0.00000000000E+00 -0.15953937958E+04  0.15953937958E+04  0.50400001928E-02 0. -1.
    10030    2    1    2    0    0  0.00000000000E+00  0.00000000000E+00  0.43314233523E+03  0.36239299268E+04  0.35979516161E+04 0.  0.
        5    1    3    3  502    0 -0.17981534503E+04 -0.71786714223E+01  0.27066652877E+03  0.18184305937E+04  0.46999998093E+01 0.  1.
       -5    1    3    3    0  502  0.17981534503E+04  0.71786714223E+01  0.16247580646E+03  0.18054993331E+04  0.46999998093E+01 0. -1.
</event>
<event>
 5   0  0.2023479E-06  0.3552939E+04  0.7818609E-02  0.8101357E-01
        2   -1    0    0  501    0  0.00000000000E+00  0.00000000000E+00  0.24829918085E+04  0.24829918085E+04  0.25500000920E-02 0.  1.
       -2   -1    0    0    0  501  0.00000000000E+00  0.00000000000E+00 -0.12709845643E+04  0.12709845643E+04  0.25500000920E-02 0. -1.
    10030    2    1    2    0    0  0.00000000000E+00  0.00000000000E+00  0.12120072442E+04  0.37539763728E+04  0.35529392125E+04 0.  0.
        5    1    3    3  502    0 -0.11560128278E+04  0.12575612644E+04  0.11214562417E+04  0.20434070039E+04  0.46999998093E+01 0.  1.
       -5    1    3    3    0  502  0.11560128278E+04 -0.12575612644E+04  0.90551002508E+02  0.17105693689E+04  0.46999998093E+01 0. -1.
</event>
<event>
 5   0  0.2023479E-06  0.3532021E+04  0.7818609E-02  0.8106243E-01
        2   -1    0    0  501    0  0.00000000000E+00  0.00000000000E+00  0.24384605553E+04  0.24384605553E+04  0.25500000920E-02 0.  1.
       -2   -1    0    0    0  501  0.00000000000E+00  0.00000000000E+00 -0.12790010089E+04  0.12790010089E+04  0.25500000920E-02 0. -1.
    10030    2    1    2    0    0  0.00000000000E+00  0.00000000000E+00  0.11594595464E+04  0.37174615641E+04  0.35320212402E+04 0.  0.
        5    1    3    3  502    0  0.15675580739E+04 -0.26191530987E+03  0.13901796592E+04  0.21115064574E+04  0.46999998093E+01 0.  1.
       -5    1    3    3    0  502 -0.15675580739E+04  0.26191530987E+03 -0.23072011285E+03  0.16059551068E+04  0.46999998093E+01 0. -1.
</event>
<event>
 5   0  0.2023479E-06  0.3374724E+04  0.7818609E-02  0.8144138E-01
       -2   -1    0    0    0  501  0.00000000000E+00  0.00000000000E+00  0.24203434286E+04  0.24203434286E+04  0.25500000920E-02 0.  1.
        2   -1    0    0  501    0  0.00000000000E+00  0.00000000000E+00 -0.11763583894E+04  0.11763583894E+04  0.25500000920E-02 0. -1.
    10030    2    1    2    0    0  0.00000000000E+00  0.00000000000E+00  0.12439850392E+04  0.35967018180E+04  0.33747244613E+04 0.  0.
        5    1    3    3  502    0 -0.30821657817E+03  0.13115515017E+04 -0.46070437436E+03  0.14238804062E+04  0.46999998093E+01 0. -1.
       -5    1    3    3    0  502  0.30821657817E+03 -0.13115515017E+04  0.17046894135E+04  0.21728214117E+04  0.46999998093E+01 0.  1.
</event>
<event>
 5   0  0.6630125E-07  0.3607913E+04  0.7818609E-02  0.8088682E-01
       -1   -1    0    0    0  501  0.00000000000E+00  0.00000000000E+00  0.11752025663E+04  0.11752025663E+04  0.50400001928E-02 0.  1.
        1   -1    0    0  501    0  0.00000000000E+00  0.00000000000E+00 -0.27691048012E+04  0.27691048012E+04  0.50400001928E-02 0. -1.
    10030    2    1    2    0    0  0.00000000000E+00  0.00000000000E+00 -0.15939022349E+04  0.39443073676E+04  0.36079130083E+04 0.  0.
        1    1    3    3  502    0 -0.43687716984E+02  0.84044562308E+03 -0.25413428912E+04  0.26770657729E+04  0.50400001928E-02 0. -1.
       -1    1    3    3    0  502  0.43687716984E+02 -0.84044562308E+03  0.94744065629E+03  0.12672415946E+04  0.50400001928E-02 0.  1.
</event>
<event>
 5   0  0.1999883E-06  0.3481139E+04  0.7818609E-02  0.8118274E-01
        2   -1    0    0  501    0  0.00000000000E+00  0.00000000000E+00  0.21783308478E+04  0.21783308478E+04  0.25500000920E-02 0.  1.
       -2   -1    0    0    0  501  0.00000000000E+00  0.00000000000E+00 -0.13907811522E+04  0.13907811522E+04  0.25500000920E-02 0. -1.
    10030    2    1    2    0    0  0.00000000000E+00  0.00000000000E+00  0.78754969558E+03  0.35691120001E+04  0.34811385991E+04 0.  0.
        4    1    3    3  502    0 -0.74234858242E+03 -0.15721053457E+04  0.47945244385E+03  0.18034613649E+04  0.12699999809E+01 0.  1.
       -4    1    3    3    0  502  0.74234858242E+03  0.15721053457E+04  0.30809725173E+03  0.17656506351E+04  0.12699999809E+01 0. -1.
</event>
<event>
 5   0  0.6630125E-07  0.3518585E+04  0.7818609E-02  0.8109400E-01
        1   -1    0    0  501    0  0.00000000000E+00  0.00000000000E+00  0.23706248580E+04  0.23706248580E+04  0.50400001928E-02 0.  1.
       -1   -1    0    0    0  501  0.00000000000E+00  0.00000000000E+00 -0.13056095143E+04  0.13056095143E+04  0.50400001928E-02 0. -1.
    10030    2    1    2    0    0  0.00000000000E+00  0.00000000000E+00  0.10650153437E+04  0.36762343723E+04  0.35185851528E+04 0.  0.
        1    1    3    3  502    0  0.64735532338E+03 -0.74410264805E+03 -0.98959484819E+03  0.13971598438E+04  0.50400001928E-02 0. -1.
       -1    1    3    3    0  502 -0.64735532338E+03  0.74410264805E+03  0.20546101919E+04  0.22790745285E+04  0.50400001928E-02 0.  1.
</event>
<event>
 5   0  0.6630125E-07  0.3531205E+04  0.7818609E-02  0.8106434E-01
       -1   -1    0    0    0  501  0.00000000000E+00  0.00000000000E+00  0.16620180368E+04  0.16620180368E+04  0.50400001928E-02 0. -1.
        1   -1    0    0  501    0  0.00000000000E+00  0.00000000000E+00 -0.18756423669E+04  0.18756423669E+04  0.50400001928E-02 0.  1.
    10030    2    1    2    0    0  0.00000000000E+00  0.00000000000E+00 -0.21362433010E+03  0.35376604036E+04  0.35312045788E+04 0.  0.
        1    1    3    3  502    0 -0.20350025353E+03  0.11770460716E+04  0.11957577987E+04  0.16901735180E+04  0.50400001928E-02 0. -1.
       -1    1    3    3    0  502  0.20350025353E+03 -0.11770460716E+04 -0.14093821288E+04  0.18474868857E+04  0.50400001928E-02 0.  1.
</event>
<event>
 5   0  0.7378896E-07  0.3521712E+04  0.7818609E-02  0.8108664E-01
       -1   -1    0    0    0  501  0.00000000000E+00  0.00000000000E+00  0.14373634103E+04  0.14373634104E+04  0.50400001928E-02 0. -1.
        1   -1    0    0  501    0  0.00000000000E+00  0.00000000000E+00 -0.21571536936E+04  0.21571536936E+04  0.50400001928E-02 0.  1.
    10030    2    1    2    0    0  0.00000000000E+00  0.00000000000E+00 -0.71979028327E+03  0.35945171040E+04  0.35217119642E+04 0.  0.
        2    1    3    3  502    0 -0.88577482288E+03 -0.15186434224E+04 -0.46062120550E+03  0.18174286165E+04  0.25500000920E-02 0. -1.
       -2    1    3    3    0  502  0.88577482288E+03  0.15186434224E+04 -0.25916907777E+03  0.17770884874E+04  0.25500000920E-02 0.  1.
</event>
<event>
 5   0  0.1999883E-06  0.3504559E+04  0.7818609E-02  0.8112710E-01
       -2   -1    0    0    0  501  0.00000000000E+00  0.00000000000E+00  0.17362719788E+04  0.17362719788E+04  0.25500000920E-02 0. -1.
        2   -1    0    0  501    0  0.00000000000E+00  0.00000000000E+00 -0.17684344865E+04  0.17684344865E+04  0.25500000920E-02 0.  1.
    10030    2    1    2    0    0  0.00000000000E+00  0.00000000000E+00 -0.32162507643E+02  0.35047064653E+04  0.35045588853E+04 0.  0.
        4    1    3    3  502    0  0.77187178826E+03 -0.58934957086E+03  0.14425283005E+04  0.17389676492E+04  0.12699999809E+01 0. -1.
       -4    1    3    3    0  502 -0.77187178826E+03  0.58934957086E+03 -0.14746908081E+04  0.17657388161E+04  0.12699999809E+01 0.  1.
</event>
<event>
 5   0  0.6630125E-07  0.3579704E+04  0.7818609E-02  0.8095157E-01
       -1   -1    0    0    0  501  0.00000000000E+00  0.00000000000E+00  0.13759813805E+04  0.13759813805E+04  0.50400001928E-02 0. -1.
        1   -1    0    0  501    0  0.00000000000E+00  0.00000000000E+00 -0.23282074931E+04  0.23282074931E+04  0.50400001928E-02 0.  1.
    10030    2    1    2    0    0  0.00000000000E+00  0.00000000000E+00 -0.95222611262E+03  0.37041888736E+04  0.35797039880E+04 0.  0.
        4    1    3    3  502    0 -0.17584710416E+04 -0.10598417510E+03 -0.80352661728E+03  0.19362617817E+04  0.12699999809E+01 0.  1.
       -4    1    3    3    0  502  0.17584710416E+04  0.10598417510E+03 -0.14869949534E+03  0.17679270919E+04  0.12699999809E+01 0. -1.
</event>
<event>
 5   0  0.6890600E-07  0.3473510E+04  0.7818609E-02  0.8120097E-01
       -1   -1    0    0    0  501  0.00000000000E+00  0.00000000000E+00  0.16749373011E+04  0.16749373011E+04  0.50400001928E-02 0. -1.
        1   -1    0    0  501    0  0.00000000000E+00  0.00000000000E+00 -0.18008540597E+04  0.18008540597E+04  0.50400001928E-02 0.  1.
    10030    2    1    2    0    0  0.00000000000E+00  0.00000000000E+00 -0.12591675861E+03  0.34757913609E+04  0.34735098322E+04 0.  0.
        3    1    3    3  502    0  0.10428509378E+04 -0.12013660833E+04 -0.76019369142E+03  0.17631542766E+04  0.10100000352E+00 0.  1.
       -3    1    3    3    0  502 -0.10428509378E+04  0.12013660833E+04  0.63427693281E+03  0.17126370842E+04  0.10100000352E+00 0. -1.
</event>
<event>
 5   0  0.2073287E-06  0.3541046E+04  0.7818609E-02  0.8104131E-01
       -2   -1    0    0    0  501  0.00000000000E+00  0.00000000000E+00  0.26270854926E+04  0.26270854926E+04  0.25500000920E-02 0.  1.
        2   -1    0    0  501    0  0.00000000000E+00  0.00000000000E+00 -0.11932430137E+04  0.11932430137E+04  0.25500000920E-02 0. -1.
    10030    2    1    2    0    0  0.00000000000E+00  0.00000000000E+00  0.14338424789E+04  0.38203285063E+04  0.35410458401E+04 0.  0.
        1    1    3    3  502    0  0.28042844161E+03  0.17131203610E+04  0.34112439349E+03  0.17691204973E+04  0.50400001928E-02 0. -1.
       -1    1    3    3    0  502 -0.28042844161E+03 -0.17131203610E+04  0.10927180854E+04  0.20512080090E+04  0.50400001928E-02 0.  1.
</event>
<event>
 5   0  0.2023479E-06  0.3369232E+04  0.7818609E-02  0.8145499E-01
       -2   -1    0    0    0  501  0.00000000000E+00  0.00000000000E+00  0.15288343997E+04  0.15288343997E+04  0.25500000920E-02 0.  1.
        2   -1    0    0  501    0  0.00000000000E+00  0.00000000000E+00 -0.18562709631E+04  0.18562709631E+04  0.25500000920E-02 0. -1.
    10030    2    1    2    0    0  0.00000000000E+00  0.00000000000E+00 -0.32743656339E+03  0.33851053628E+04  0.33692319027E+04 0.  0.
        5    1    3    3  502    0  0.15617202300E+04  0.47979170938E+03 -0.57643168628E+03  0.17324738787E+04  0.46999998093E+01 0. -1.
       -5    1    3    3    0  502 -0.15617202300E+04 -0.47979170938E+03  0.24899512290E+03  0.16526314842E+04  0.46999998093E+01 0.  1.
</event>
<event>
 5   0  0.6630125E-07  0.3481862E+04  0.7818609E-02  0.8118102E-01
       -1   -1    0    0    0  501  0.00000000000E+00  0.00000000000E+00  0.28576951804E+04  0.28576951804E+04  0.50400001928E-02 0. -1.
        1   -1    0    0  501    0  0.00000000000E+00  0.00000000000E+00 -0.10605893385E+04  0.10605893385E+04  0.50400001928E-02 0.  1.
    10030    2    1    2    0    0  0.00000000000E+00  0.00000000000E+00  0.17971058419E+04  0.39182845189E+04  0.34818621690E+04 0.  0.
        4    1    3    3  502    0  0.86801486923E+03 -0.44298757864E+03 -0.72488712109E+03  0.12145578452E+04  0.12699999809E+01 0.  1.
       -4    1    3    3    0  502 -0.86801486923E+03  0.44298757864E+03  0.25219929630E+04  0.27037266737E+04  0.12699999809E+01 0. -1.
</event>
<event>
 5   0  0.1999883E-06  0.3573797E+04  0.7818609E-02  0.8096520E-01
       -2   -1    0    0    0  501  0.00000000000E+00  0.00000000000E+00  0.99379697219E+03  0.99379697220E+03  0.25500000920E-02 0. -1.
        2   -1    0    0  501    0  0.00000000000E+00  0.00000000000E+00 -0.32129359045E+04  0.32129359045E+04  0.25500000920E-02 0.  1.
    10030    2    1    2    0    0  0.00000000000E+00  0.00000000000E+00 -0.22191389323E+04  0.42067328767E+04  0.35737968458E+04 0.  0.
        4    1    3    3  502    0  0.14985310489E+03  0.10563351149E+03 -0.32018344748E+04  0.32070796698E+04  0.12699999809E+01 0.  1.
       -4    1    3    3    0  502 -0.14985310489E+03 -0.10563351149E+03  0.98269554250E+03  0.99965320684E+03  0.12699999809E+01 0. -1.
</event>
<event>
 5   0  0.2001768E-06  0.3464137E+04  0.7818609E-02  0.8122342E-01
        2   -1    0    0  501    0  0.00000000000E+00  0.00000000000E+00  0.16100030694E+04  0.16100030694E+04  0.25500000920E-02 0.  1.
       -2   -1    0    0    0  501  0.00000000000E+00  0.00000000000E+00 -0.18633887244E+04  0.18633887244E+04  0.25500000920E-02 0. -1.
    10030    2    1    2    0    0  0.00000000000E+00  0.00000000000E+00 -0.25338565493E+03  0.34733917938E+04  0.34641371600E+04 0.  0.
        2    1    3    3  502    0  0.21573783814E+03  0.95413196353E+02 -0.18472068271E+04  0.18622082469E+04  0.25500000920E-02 0. -1.
       -2    1    3    3    0  502 -0.21573783814E+03 -0.95413196353E+02  0.15938211722E+04  0.16111835469E+04  0.25500000920E-02 0.  1.
</event>
<event>
 5   0  0.6630125E-07  0.3652334E+04  0.7818609E-02  0.8078608E-01
       -1   -1    0    0    0  501  0.00000000000E+00  0.00000000000E+00  0.20318652715E+04  0.20318652716E+04  0.50400001928E-02 0. -1.
        1   -1    0    0  501    0  0.00000000000E+00  0.00000000000E+00 -0.16412927321E+04  0.16412927321E+04  0.50400001928E-02 0.  1.
    10030    2    1    2    0    0  0.00000000000E+00  0.00000000000E+00  0.39057253941E+03  0.36731580037E+04  0.36523338856E+04 0.  0.
        1    1    3    3  502    0 -0.34414060125E+02  0.72094461264E+01  0.20315248131E+04  0.20318290701E+04  0.50400001928E-02 0. -1.
       -1    1    3    3    0  502  0.34414060125E+02 -0.72094461264E+01 -0.16409522737E+04  0.16413289336E+04  0.50400001928E-02 0.  1.
</event>
<event>
 5   0  0.2001768E-06  0.3436633E+04  0.7818609E-02  0.8128974E-01
        2   -1    0    0  501    0  0.00000000000E+00  0.00000000000E+00  0.26490377393E+04  0.26490377393E+04  0.25500000920E-02 0.  1.
       -2   -1    0    0    0  501  0.00000000000E+00  0.00000000000E+00 -0.11145976341E+04  0.11145976341E+04  0.25500000920E-02 0. -1.
    10030    2    1    2    0    0  0.00000000000E+00  0.00000000000E+00  0.15344401053E+04  0.37636353734E+04  0.34366327688E+04 0.  0.
        2    1    3    3  502    0  0.98722803378E+03  0.11730851155E+04 -0.82397257936E+02  0.15354273630E+04  0.25500000920E-02 0. -1.
       -2    1    3    3    0  502 -0.98722803378E+03 -0.11730851155E+04  0.16168373632E+04  0.22282080105E+04  0.25500000920E-02 0.  1.
</event>
<event>
 5   0  0.7378896E-07  0.3457316E+04  0.7818609E-02  0.8123981E-01
        1   -1    0    0  501    0  0.00000000000E+00  0.00000000000E+00  0.24336680253E+04  0.24336680253E+04  0.50400001928E-02 0. -1.
       -1   -1    0    0    0  501  0.00000000000E+00  0.00000000000E+00 -0.12278827982E+04  0.12278827982E+04  0.50400001928E-02 0.  1.
    10030    2    1    2    0    0  0.00000000000E+00  0.00000000000E+00  0.12057852271E+04  0.36615508235E+04  0.34573163609E+04 0.  0.
        2    1    3    3  502    0 -0.46346382781E+03 -0.40725420249E+03 -0.11073069759E+04  0.12675896198E+04  0.25500000920E-02 0.  1.
       -2    1    3    3    0  502  0.46346382781E+03  0.40725420249E+03  0.23130922030E+04  0.23939612037E+04  0.25500000920E-02 0. -1.
</event>
<event>
 5   0  0.6630125E-07  0.3436852E+04  0.7818609E-02  0.8128920E-01
        1   -1    0    0  501    0  0.00000000000E+00  0.00000000000E+00  0.12236783875E+04  0.12236783875E+04  0.50400001928E-02 0.  1.
       -1   -1    0    0    0  501  0.00000000000E+00  0.00000000000E+00 -0.24132059217E+04  0.24132059217E+04  0.50400001928E-02 0. -1.
    10030    2    1    2    0    0  0.00000000000E+00  0.00000000000E+00 -0.11895275342E+04  0.36368843092E+04  0.34368520078E+04 0.  0.
        4    1    3    3  502    0  0.34081399444E+03 -0.83969588919E+03  0.95026323007E+03  0.13131051688E+04  0.12699999809E+01 0.  1.
       -4    1    3    3    0  502 -0.34081399444E+03  0.83969588919E+03 -0.21397907643E+04  0.23237791403E+04  0.12699999809E+01 0. -1.
</event>
<event>
 5   0  0.2073287E-06  0.2335454E+04  0.7818609E-02  0.8464072E-01
        2   -1    0    0  501    0  0.00000000000E+00  0.00000000000E+00  0.10729303304E+04  0.10729303304E+04  0.25500000920E-02 0.  1.
       -2   -1    0    0    0  501  0.00000000000E+00  0.00000000000E+00 -0.12708996093E+04  0.12708996093E+04  0.25500000920E-02 0. -1.
    10030    2    1    2    0    0  0.00000000000E+00  0.00000000000E+00 -0.19796927886E+03  0.23438299397E+04  0.23354543350E+04 0.  0.
        1    1    3    3  502    0  0.87076822629E+03 -0.55968070878E+02 -0.87779411408E+03  0.12376963422E+04  0.50400001928E-02 0. -1.
       -1    1    3    3    0  502 -0.87076822629E+03  0.55968070878E+02  0.67982483522E+03  0.11061335975E+04  0.50400001928E-02 0.  1.
</event>
<event>
 5   0  0.2001768E-06  0.3391871E+04  0.7818609E-02  0.8139904E-01
       -2   -1    0    0    0  501  0.00000000000E+00  0.00000000000E+00  0.12737917971E+04  0.12737917971E+04  0.25500000920E-02 0. -1.
        2   -1    0    0  501    0  0.00000000000E+00  0.00000000000E+00 -0.22579803910E+04  0.22579803910E+04  0.25500000920E-02 0.  1.
    10030    2    1    2    0    0  0.00000000000E+00  0.00000000000E+00 -0.98418859392E+03  0.35317721880E+04  0.33918708112E+04 0.  0.
        2    1    3    3  502    0  0.12828953038E+04  0.68531987030E+03 -0.14002574140E+04  0.20189612454E+04  0.25500000920E-02 0.  1.
       -2    1    3    3    0  502 -0.12828953038E+04 -0.68531987030E+03  0.41606882010E+03  0.15128109426E+04  0.25500000920E-02 0. -1.
</event>
<event>
 5   0  0.6630125E-07  0.3313115E+04  0.7818609E-02  0.8159566E-01
       -1   -1    0    0    0  501  0.00000000000E+00  0.00000000000E+00  0.10273882369E+04  0.10273882369E+04  0.50400001928E-02 0. -1.
        1   -1    0    0  501    0  0.00000000000E+00  0.00000000000E+00 -0.26710277929E+04  0.26710277929E+04  0.50400001928E-02 0.  1.
    10030    2    1    2    0    0  0.00000000000E+00  0.00000000000E+00 -0.16436395560E+04  0.36984160298E+04  0.33131148696E+04 0.  0.
        1    1    3    3  502    0 -0.79794033022E+03 -0.41081805028E+03  0.73248016536E+03  0.11584504451E+04  0.50400001928E-02 0. -1.
       -1    1    3    3    0  502  0.79794033022E+03  0.41081805028E+03 -0.23761197214E+04  0.25399655847E+04  0.50400001928E-02 0.  1.
</event>
<event>
 5   0  0.7378896E-07  0.3418810E+04  0.7818609E-02  0.8133305E-01
        1   -1    0    0  501    0  0.00000000000E+00  0.00000000000E+00  0.11701505855E+04  0.11701505855E+04  0.50400001928E-02 0.  1.
       -1   -1    0    0    0  501  0.00000000000E+00  0.00000000000E+00 -0.24971707629E+04  0.24971707629E+04  0.50400001928E-02 0. -1.
    10030    2    1    2    0    0  0.00000000000E+00  0.00000000000E+00 -0.13270201774E+04  0.36673213484E+04  0.34188102201E+04 0.  0.
        2    1    3    3  502    0 -0.45584678746E+03  0.10568019256E+04 -0.20192804809E+04  0.23242461712E+04  0.25500000920E-02 0. -1.
       -2    1    3    3    0  502  0.45584678746E+03 -0.10568019256E+04  0.69226030357E+03  0.13430751772E+04  0.25500000920E-02 0.  1.
</event>
<event>
 5   0  0.2073287E-06  0.3531356E+04  0.7818609E-02  0.8106399E-01
        2   -1    0    0  501    0  0.00000000000E+00  0.00000000000E+00  0.14940943902E+04  0.14940943902E+04  0.25500000920E-02 0.  1.
       -2   -1    0    0    0  501  0.00000000000E+00  0.00000000000E+00 -0.20866277170E+04  0.20866277170E+04  0.25500000920E-02 0. -1.
    10030    2    1    2    0    0  0.00000000000E+00  0.00000000000E+00 -0.59253332682E+03  0.35807221072E+04  0.35313559812E+04 0.  0.
        1    1    3    3  502    0 -0.34387638127E+03  0.15623635647E+04  0.46143303595E+03  0.16649778739E+04  0.50400001928E-02 0.  1.
       -1    1    3    3    0  502  0.34387638127E+03 -0.15623635647E+04 -0.10539663628E+04  0.19157442334E+04  0.50400001928E-02 0. -1.
</event>
<event>
 5   0  0.7378896E-07  0.2177282E+04  0.7818609E-02  0.8527944E-01
       -1   -1    0    0    0  501  0.00000000000E+00  0.00000000000E+00  0.72168251324E+03  0.72168251325E+03  0.50400001928E-02 0.  1.
        1   -1    0    0  501    0  0.00000000000E+00  0.00000000000E+00 -0.16421885308E+04  0.16421885308E+04  0.50400001928E-02 0. -1.
    10030    2    1    2    0    0  0.00000000000E+00  0.00000000000E+00 -0.92050601753E+03  0.23638710440E+04  0.21772815584E+04 0.  0.
        2    1    3    3  502    0  0.70963831611E+03  0.48280026705E+03 -0.11873111784E+04  0.14650564739E+04  0.25500000920E-02 0. -1.
       -2    1    3    3    0  502 -0.70963831611E+03 -0.48280026705E+03  0.26680516084E+03  0.89881457009E+03  0.25500000920E-02 0.  1.
</event>
<event>
 5   0  0.6890600E-07  0.3417272E+04  0.7818609E-02  0.8133680E-01
        1   -1    0    0  501    0  0.00000000000E+00  0.00000000000E+00  0.22539342773E+04  0.22539342773E+04  0.50400001928E-02 0.  1.
       -1   -1    0    0    0  501  0.00000000000E+00  0.00000000000E+00 -0.12952625403E+04  0.12952625403E+04  0.50400001928E-02 0. -1.
    10030    2    1    2    0    0  0.00000000000E+00  0.00000000000E+00  0.95867173705E+03  0.35491968176E+04  0.34172717993E+04 0.  0.
        3    1    3    3  502    0  0.15274556186E+04  0.18240344004E+03  0.12517154329E+04  0.19832254578E+04  0.10100000352E+00 0. -1.
       -3    1    3    3    0  502 -0.15274556186E+04 -0.18240344004E+03 -0.29304369580E+03  0.15659713597E+04  0.10100000352E+00 0.  1.
</event>
<event>
 5   0  0.1999883E-06  0.3498379E+04  0.7818609E-02  0.8114174E-01
       -2   -1    0    0    0  501  0.00000000000E+00  0.00000000000E+00  0.12037471447E+04  0.12037471447E+04  0.25500000920E-02 0.  1.
        2   -1    0    0  501    0  0.00000000000E+00  0.00000000000E+00 -0.25417825961E+04  0.25417825961E+04  0.25500000920E-02 0. -1.
    10030    2    1    2    0    0  0.00000000000E+00  0.00000000000E+00 -0.13380354515E+04  0.37455297408E+04  0.34983787916E+04 0.  0.
        4    1    3    3  502    0  0.89069398318E+02 -0.16133407168E+04  0.48284234508E+02  0.16165192874E+04  0.12699999809E+01 0.  1.
       -4    1    3    3    0  502 -0.89069398318E+02  0.16133407168E+04 -0.13863196860E+04  0.21290104534E+04  0.12699999809E+01 0. -1.
</event>
<event>
 5   0  0.1999883E-06  0.3358861E+04  0.7818609E-02  0.8148078E-01
       -2   -1    0    0    0  501  0.00000000000E+00  0.00000000000E+00  0.16652166716E+04  0.16652166716E+04  0.25500000920E-02 0. -1.
        2   -1    0    0  501    0  0.00000000000E+00  0.00000000000E+00 -0.16937654598E+04  0.16937654598E+04  0.25500000920E-02 0.  1.
    10030    2    1    2    0    0  0.00000000000E+00  0.00000000000E+00 -0.28548788237E+02  0.33589821314E+04  0.33588608078E+04 0.  0.
        4    1    3    3  502    0 -0.39342894131E+03  0.14208302467E+04 -0.81862921832E+03  0.16863274687E+04  0.12699999809E+01 0.  1.
       -4    1    3    3    0  502  0.39342894131E+03 -0.14208302467E+04  0.79008043009E+03  0.16726546627E+04  0.12699999809E+01 0. -1.
</event>
<event>
 5   0  0.1999883E-06  0.3400757E+04  0.7818609E-02  0.8137721E-01
       -2   -1    0    0    0  501  0.00000000000E+00  0.00000000000E+00  0.13068414515E+04  0.13068414515E+04  0.25500000920E-02 0. -1.
        2   -1    0    0  501    0  0.00000000000E+00  0.00000000000E+00 -0.22124238242E+04  0.22124238242E+04  0.25500000920E-02 0.  1.
    10030    2    1    2    0    0  0.00000000000E+00  0.00000000000E+00 -0.90558237274E+03  0.35192652757E+04  0.34007570697E+04 0.  0.
        4    1    3    3  502    0 -0.82427561274E+03 -0.58404868063E+03  0.96262249704E+03  0.13954163650E+04  0.12699999809E+01 0. -1.
       -4    1    3    3    0  502  0.82427561274E+03  0.58404868063E+03 -0.18682048698E+04  0.21238489107E+04  0.12699999809E+01 0.  1.
</event>
<event>
 5   0  0.2020725E-06  0.2596690E+04  0.7818609E-02  0.8369326E-01
        2   -1    0    0  501    0  0.00000000000E+00  0.00000000000E+00  0.16955171610E+04  0.16955171610E+04  0.25500000920E-02 0.  1.
       -2   -1    0    0    0  501  0.00000000000E+00  0.00000000000E+00 -0.99421012981E+03  0.99421012981E+03  0.25500000920E-02 0. -1.
    10030    2    1    2    0    0  0.00000000000E+00  0.00000000000E+00  0.70130703124E+03  0.26897272909E+04  0.25966904604E+04 0.  0.
        3    1    3    3  502    0  0.63614270903E+03  0.38427465316E+03 -0.75208158161E+03  0.10573416056E+04  0.10100000352E+00 0. -1.
       -3    1    3    3    0  502 -0.63614270903E+03 -0.38427465316E+03  0.14533886128E+04  0.16323856853E+04  0.10100000352E+00 0.  1.
</event>
<event>
 5   0  0.6630125E-07  0.2447728E+04  0.7818609E-02  0.8421848E-01
        1   -1    0    0  501    0  0.00000000000E+00  0.00000000000E+00  0.19468275920E+04  0.19468275920E+04  0.50400001928E-02 0. -1.
       -1   -1    0    0    0  501  0.00000000000E+00  0.00000000000E+00 -0.76937637924E+03  0.76937637925E+03  0.50400001928E-02 0.  1.
    10030    2    1    2    0    0  0.00000000000E+00  0.00000000000E+00  0.11774512127E+04  0.27162039712E+04  0.24477280599E+04 0.  0.
        1    1    3    3  502    0  0.66644812789E+03 -0.27430991162E+03  0.16863840669E+04  0.18339275492E+04  0.50400001928E-02 0. -1.
       -1    1    3    3    0  502 -0.66644812789E+03  0.27430991162E+03 -0.50893285414E+03  0.88227642201E+03  0.50400001928E-02 0.  1.
</event>
<event>
 5   0  0.2001768E-06  0.3519066E+04  0.7818609E-02  0.8109286E-01
       -2   -1    0    0    0  501  0.00000000000E+00  0.00000000000E+00  0.17245515809E+04  0.17245515809E+04  0.25500000920E-02 0. -1.
        2   -1    0    0  501    0  0.00000000000E+00  0.00000000000E+00 -0.17952235809E+04  0.17952235809E+04  0.25500000920E-02 0.  1.
    10030    2    1    2    0    0  0.00000000000E+00  0.00000000000E+00 -0.70672000023E+02  0.35197751619E+04  0.35190655945E+04 0.  0.
        2    1    3    3  502    0  0.56073323212E+03  0.40219092908E+03  0.15835626837E+04  0.17273824343E+04  0.25500000920E-02 0. -1.
       -2    1    3    3    0  502 -0.56073323212E+03 -0.40219092908E+03 -0.16542346837E+04  0.17923927276E+04  0.25500000920E-02 0.  1.
</event>
<event>
 5   0  0.2073287E-06  0.3466777E+04  0.7818609E-02  0.8121709E-01
       -2   -1    0    0    0  501  0.00000000000E+00  0.00000000000E+00  0.17177462837E+04  0.17177462837E+04  0.25500000920E-02 0. -1.
        2   -1    0    0  501    0  0.00000000000E+00  0.00000000000E+00 -0.17491729304E+04  0.17491729304E+04  0.25500000920E-02 0.  1.
    10030    2    1    2    0    0  0.00000000000E+00  0.00000000000E+00 -0.31426646783E+02  0.34669192141E+04  0.34667767743E+04 0.  0.
        1    1    3    3  502    0 -0.95797107411E+03 -0.17108923297E+03 -0.14502251867E+04  0.17464630533E+04  0.50400001928E-02 0.  1.
       -1    1    3    3    0  502  0.95797107411E+03  0.17108923297E+03  0.14187985399E+04  0.17204561608E+04  0.50400001928E-02 0. -1.
</event>
<event>
 5   0  0.7378896E-07  0.3357544E+04  0.7818609E-02  0.8148406E-01
        1   -1    0    0  501    0  0.00000000000E+00  0.00000000000E+00  0.18049607650E+04  0.18049607650E+04  0.50400001928E-02 0.  1.
       -1   -1    0    0    0  501  0.00000000000E+00  0.00000000000E+00 -0.15614057979E+04  0.15614057979E+04  0.50400001928E-02 0. -1.
    10030    2    1    2    0    0  0.00000000000E+00  0.00000000000E+00  0.24355496711E+03  0.33663665629E+04  0.33575444620E+04 0.  0.
        2    1    3    3  502    0 -0.25424234758E+03 -0.12725422552E+04  0.11895985271E+04  0.17604396094E+04  0.25500000920E-02 0.  1.
       -2    1    3    3    0  502  0.25424234758E+03  0.12725422552E+04 -0.94604356003E+03  0.16059269535E+04  0.25500000920E-02 0. -1.
</event>
<event>
 5   0  0.7378896E-07  0.2408706E+04  0.7818609E-02  0.8436251E-01
        1   -1    0    0  501    0  0.00000000000E+00  0.00000000000E+00  0.10375887971E+04  0.10375887971E+04  0.50400001928E-02 0. -1.
       -1   -1    0    0    0  501  0.00000000000E+00  0.00000000000E+00 -0.13979205478E+04  0.13979205478E+04  0.50400001928E-02 0.  1.
    10030    2    1    2    0    0  0.00000000000E+00  0.00000000000E+00 -0.36033175075E+03  0.24355093449E+04  0.24087064575E+04 0.  0.
        2    1    3    3  502    0 -0.24262246425E+03  0.11784792751E+04 -0.23355147009E+03  0.12256530305E+04  0.25500000920E-02 0.  1.
       -2    1    3    3    0  502  0.24262246425E+03 -0.11784792751E+04 -0.12678028065E+03  0.12098563144E+04  0.25500000920E-02 0. -1.
</event>
<event>
 5   0  0.1999883E-06  0.3446941E+04  0.7818609E-02  0.8126481E-01
        2   -1    0    0  501    0  0.00000000000E+00  0.00000000000E+00  0.26975405407E+04  0.26975405407E+04  0.25500000920E-02 0. -1.
       -2   -1    0    0    0  501  0.00000000000E+00  0.00000000000E+00 -0.11011329972E+04  0.11011329972E+04  0.25500000920E-02 0.  1.
    10030    2    1    2    0    0  0.00000000000E+00  0.00000000000E+00  0.15964075434E+04  0.37986735379E+04  0.34469411951E+04 0.  0.
        4    1    3    3  502    0 -0.12070389940E+04 -0.11891610182E+04  0.11454820280E+04  0.20452818265E+04  0.12699999809E+01 0. -1.
       -4    1    3    3    0  502  0.12070389940E+04  0.11891610182E+04  0.45092551548E+03  0.17533917114E+04  0.12699999809E+01 0.  1.
</event>
<event>
 5   0  0.1999883E-06  0.3811623E+04  0.7818609E-02  0.8043665E-01
        2   -1    0    0  501    0  0.00000000000E+00  0.00000000000E+00  0.20943069454E+04  0.20943069454E+04  0.25500000920E-02 0.  1.
       -2   -1    0    0    0  501  0.00000000000E+00  0.00000000000E+00 -0.17342815444E+04  0.17342815444E+04  0.25500000920E-02 0. -1.
    10030    2    1    2    0    0  0.00000000000E+00  0.00000000000E+00  0.36002540104E+03  0.38285884898E+04  0.38116232152E+04 0.  0.
        4    1    3    3  502    0 -0.49614442450E+02  0.10669471424E+04 -0.14053909856E+04  0.17652091187E+04  0.12699999809E+01 0. -1.
       -4    1    3    3    0  502  0.49614442450E+02 -0.10669471424E+04  0.17654163867E+04  0.20633793710E+04  0.12699999809E+01 0.  1.
</event>
<event>
 5   0  0.1999883E-06  0.3530665E+04  0.7818609E-02  0.8106561E-01
       -2   -1    0    0    0  501  0.00000000000E+00  0.00000000000E+00  0.15058388320E+04  0.15058388320E+04  0.25500000920E-02 0. -1.
        2   -1    0    0  501    0  0.00000000000E+00  0.00000000000E+00 -0.20695436672E+04  0.20695436672E+04  0.25500000920E-02 0.  1.
    10030    2    1    2    0    0  0.00000000000E+00  0.00000000000E+00 -0.56370483520E+03  0.35753824993E+04  0.35306652171E+04 0.  0.
        4    1    3    3  502    0  0.28647444210E+03  0.13924785243E+04  0.77798480401E+03  0.16205943400E+04  0.12699999809E+01 0.  1.
       -4    1    3    3    0  502 -0.28647444210E+03 -0.13924785243E+04 -0.13416896392E+04  0.19547881593E+04  0.12699999809E+01 0. -1.
</event>
<event>
 5   0  0.6890600E-07  0.2241980E+04  0.7818609E-02  0.8501155E-01
       -1   -1    0    0    0  501  0.00000000000E+00  0.00000000000E+00  0.62552339270E+03  0.62552339272E+03  0.50400001928E-02 0.  1.
        1   -1    0    0  501    0  0.00000000000E+00  0.00000000000E+00 -0.20089074393E+04  0.20089074393E+04  0.50400001928E-02 0. -1.
    10030    2    1    2    0    0  0.00000000000E+00  0.00000000000E+00 -0.13833840466E+04  0.26344308321E+04  0.22419800152E+04 0.  0.
        3    1    3    3  502    0 -0.16871242961E+03 -0.69098043515E+03  0.32640340160E+03  0.78259634323E+03  0.10100000352E+00 0.  1.
       -3    1    3    3    0  502  0.16871242961E+03  0.69098043515E+03 -0.17097874482E+04  0.18518344888E+04  0.10100000352E+00 0. -1.
</event>
<event>
 5   0  0.6630125E-07  0.3467650E+04  0.7818609E-02  0.8121499E-01
        1   -1    0    0  501    0  0.00000000000E+00  0.00000000000E+00  0.22582239673E+04  0.22582239673E+04  0.50400001928E-02 0.  1.
       -1   -1    0    0    0  501  0.00000000000E+00  0.00000000000E+00 -0.13312007577E+04  0.13312007577E+04  0.50400001928E-02 0. -1.
    10030    2    1    2    0    0  0.00000000000E+00  0.00000000000E+00  0.92702320959E+03  0.35894247250E+04  0.34676501879E+04 0.  0.
        5    1    3    3  502    0 -0.17078568070E+03  0.63730778475E+03  0.21231886257E+04  0.22233490485E+04  0.46999998093E+01 0.  1.
       -5    1    3    3    0  502  0.17078568070E+03 -0.63730778475E+03 -0.11961654161E+04  0.13660756765E+04  0.46999998093E+01 0. -1.
</event>
<event>
 5   0  0.2001768E-06  0.3556455E+04  0.7818609E-02  0.8100540E-01
        2   -1    0    0  501    0  0.00000000000E+00  0.00000000000E+00  0.23787905319E+04  0.23787905319E+04  0.25500000920E-02 0.  1.
       -2   -1    0    0    0  501  0.00000000000E+00  0.00000000000E+00 -0.13292863277E+04  0.13292863277E+04  0.25500000920E-02 0. -1.
    10030    2    1    2    0    0  0.00000000000E+00  0.00000000000E+00  0.10495042042E+04  0.37080768596E+04  0.35564553873E+04 0.  0.
        2    1    3    3  502    0  0.58375355761E+03 -0.10199869015E+04 -0.86666551640E+03  0.14602227955E+04  0.25500000920E-02 0. -1.
       -2    1    3    3    0  502 -0.58375355761E+03  0.10199869015E+04  0.19161697206E+04  0.22478540641E+04  0.25500000920E-02 0.  1.
</event>
<event>
 5   0  0.7378896E-07  0.3452529E+04  0.7818609E-02  0.8125133E-01
        1   -1    0    0  501    0  0.00000000000E+00  0.00000000000E+00  0.22217996267E+04  0.22217996267E+04  0.50400001928E-02 0. -1.
       -1   -1    0    0    0  501  0.00000000000E+00  0.00000000000E+00 -0.13412498353E+04  0.13412498354E+04  0.50400001928E-02 0.  1.
    10030    2    1    2    0    0  0.00000000000E+00  0.00000000000E+00  0.88054979139E+03  0.35630494621E+04  0.34525285711E+04 0.  0.
        2    1    3    3  502    0  0.34397934379E+03  0.10352811378E+04 -0.94040832810E+03  0.14403113020E+04  0.25500000920E-02 0.  1.
       -2    1    3    3    0  502 -0.34397934379E+03 -0.10352811378E+04  0.18209581195E+04  0.21227381601E+04  0.25500000920E-02 0. -1.
</event>
<event>
 5   0  0.7378896E-07  0.3284431E+04  0.7818609E-02  0.8166868E-01
        1   -1    0    0  501    0  0.00000000000E+00  0.00000000000E+00  0.22751498765E+04  0.22751498766E+04  0.50400001928E-02 0. -1.
       -1   -1    0    0    0  501  0.00000000000E+00  0.00000000000E+00 -0.11853601801E+04  0.11853601801E+04  0.50400001928E-02 0.  1.
    10030    2    1    2    0    0  0.00000000000E+00  0.00000000000E+00  0.10897896965E+04  0.34605100566E+04  0.32844311942E+04 0.  0.
        2    1    3    3  502    0  0.25328136704E+03 -0.12702835875E+04 -0.51872980717E+03  0.13952965478E+04  0.25500000920E-02 0.  1.
       -2    1    3    3    0  502 -0.25328136704E+03  0.12702835875E+04  0.16085195036E+04  0.20652135088E+04  0.25500000920E-02 0. -1.
</event>
<event>
 5   0  0.6630125E-07  0.2306247E+04  0.7818609E-02  0.8475462E-01
       -1   -1    0    0    0  501  0.00000000000E+00  0.00000000000E+00  0.90633140966E+03  0.90633140967E+03  0.50400001928E-02 0. -1.
        1   -1    0    0  501    0  0.00000000000E+00  0.00000000000E+00 -0.14671162430E+04  0.14671162431E+04  0.50400001928E-02 0.  1.
    10030    2    1    2    0    0  0.00000000000E+00  0.00000000000E+00 -0.56078483339E+03  0.23734476527E+04  0.23062467628E+04 0.  0.
        1    1    3    3  502    0  0.94430623532E+03  0.28202281379E+03  0.33575349546E+03  0.10411443432E+04  0.50400001928E-02 0. -1.
       -1    1    3    3    0  502 -0.94430623532E+03 -0.28202281379E+03 -0.89653832885E+03  0.13323033096E+04  0.50400001928E-02 0.  1.
</event>
<event>
 5   0  0.2001768E-06  0.2726694E+04  0.7818609E-02  0.8326395E-01
        2   -1    0    0  501    0  0.00000000000E+00  0.00000000000E+00  0.10689842560E+04  0.10689842560E+04  0.25500000920E-02 0. -1.
       -2   -1    0    0    0  501  0.00000000000E+00  0.00000000000E+00 -0.17387670182E+04  0.17387670182E+04  0.25500000920E-02 0.  1.
    10030    2    1    2    0    0  0.00000000000E+00  0.00000000000E+00 -0.66978276221E+03  0.28077512741E+04  0.27266936515E+04 0.  0.
        2    1    3    3  502    0  0.11876610103E+04 -0.58820106225E+03 -0.57079522178E+01  0.13253496692E+04  0.25500000920E-02 0. -1.
       -2    1    3    3    0  502 -0.11876610103E+04  0.58820106225E+03 -0.66407480999E+03  0.14824016049E+04  0.25500000920E-02 0.  1.
</event>
<event>
 5   0  0.1999883E-06  0.3465140E+04  0.7818609E-02  0.8122101E-01
       -2   -1    0    0    0  501  0.00000000000E+00  0.00000000000E+00  0.18556364751E+04  0.18556364751E+04  0.25500000920E-02 0.  1.
        2   -1    0    0  501    0  0.00000000000E+00  0.00000000000E+00 -0.16176652541E+04  0.16176652541E+04  0.25500000920E-02 0. -1.
    10030    2    1    2    0    0  0.00000000000E+00  0.00000000000E+00  0.23797122102E+03  0.34733017292E+04  0.34651399106E+04 0.  0.
        4    1    3    3  502    0 -0.10260680382E+04 -0.12689281890E+04  0.70242419849E+03  0.17766248156E+04  0.12699999809E+01 0.  1.
       -4    1    3    3    0  502  0.10260680382E+04  0.12689281890E+04 -0.46445297747E+03  0.16966769136E+04  0.12699999809E+01 0. -1.
</event>
<event>
 5   0  0.6630125E-07  0.3443460E+04  0.7818609E-02  0.8127321E-01
       -1   -1    0    0    0  501  0.00000000000E+00  0.00000000000E+00  0.13409781300E+04  0.13409781301E+04  0.50400001928E-02 0.  1.
        1   -1    0    0  501    0  0.00000000000E+00  0.00000000000E+00 -0.22105913033E+04  0.22105913033E+04  0.50400001928E-02 0. -1.
    10030    2    1    2    0    0  0.00000000000E+00  0.00000000000E+00 -0.86961317321E+03  0.35515694333E+04  0.34434602319E+04 0.  0.
        1    1    3    3  502    0 -0.13042384927E+04 -0.10878961904E+03  0.71901173649E+03  0.14932685975E+04  0.50400001928E-02 0.  1.
       -1    1    3    3    0  502  0.13042384927E+04  0.10878961904E+03 -0.15886249097E+04  0.20583008358E+04  0.50400001928E-02 0. -1.
</event>
<event>
 5   0  0.2073287E-06  0.3381501E+04  0.7818609E-02  0.8142462E-01
       -2   -1    0    0    0  501  0.00000000000E+00  0.00000000000E+00  0.36343564566E+04  0.36343564566E+04  0.25500000920E-02 0. -1.
        2   -1    0    0  501    0  0.00000000000E+00  0.00000000000E+00 -0.78655929887E+03  0.78655929887E+03  0.25500000920E-02 0.  1.
    10030    2    1    2    0    0  0.00000000000E+00  0.00000000000E+00  0.28477971577E+04  0.44209157555E+04  0.33815007712E+04 0.  0.
        1    1    3    3  502    0  0.68061940996E+03 -0.15343158176E+04  0.11583065595E+04  0.20393729171E+04  0.50400001928E-02 0.  1.
       -1    1    3    3    0  502 -0.68061940996E+03  0.15343158176E+04  0.16894905983E+04  0.23815428384E+04  0.50400001928E-02 0. -1.
</event>
<event>
 5   0  0.7378896E-07  0.3529857E+04  0.7818609E-02  0.8106750E-01
        1   -1    0    0  501    0  0.00000000000E+00  0.00000000000E+00  0.10966450368E+04  0.10966450368E+04  0.50400001928E-02 0.  1.
       -1   -1    0    0    0  501  0.00000000000E+00  0.00000000000E+00 -0.28404571995E+04  0.28404571995E+04  0.50400001928E-02 0. -1.
    10030    2    1    2    0    0  0.00000000000E+00  0.00000000000E+00 -0.17438121627E+04  0.39371022363E+04  0.35298573853E+04 0.  0.
        2    1    3    3  502    0 -0.12526000445E+04  0.65589632799E+03  0.30625908364E+03  0.14467209443E+04  0.25500000920E-02 0.  1.
       -2    1    3    3    0  502  0.12526000445E+04 -0.65589632799E+03 -0.20500712463E+04  0.24903812920E+04  0.25500000920E-02 0. -1.
</event>
<event>
 5   0  0.6630125E-07  0.2564124E+04  0.7818609E-02  0.8380491E-01
        1   -1    0    0  501    0  0.00000000000E+00  0.00000000000E+00  0.21971863474E+04  0.21971863474E+04  0.50400001928E-02 0.  1.
       -1   -1    0    0    0  501  0.00000000000E+00  0.00000000000E+00 -0.74808522958E+03  0.74808522960E+03  0.50400001928E-02 0. -1.
    10030    2    1    2    0    0  0.00000000000E+00  0.00000000000E+00  0.14491011178E+04  0.29452715770E+04  0.25641237514E+04 0.  0.
        1    1    3    3  502    0  0.64400175408E+02  0.12172874847E+04  0.26833912873E+03  0.12481755049E+04  0.50400001928E-02 0. -1.
       -1    1    3    3    0  502 -0.64400175408E+02 -0.12172874847E+04  0.11807619891E+04  0.16970960721E+04  0.50400001928E-02 0.  1.
</event>
<event>
 5   0  0.6630125E-07  0.3440492E+04  0.7818609E-02  0.8128039E-01
       -1   -1    0    0    0  501  0.00000000000E+00  0.00000000000E+00  0.11882117949E+04  0.11882117949E+04  0.50400001928E-02 0.  1.
        1   -1    0    0  501    0  0.00000000000E+00  0.00000000000E+00 -0.24905045267E+04  0.24905045268E+04  0.50400001928E-02 0. -1.
    10030    2    1    2    0    0  0.00000000000E+00  0.00000000000E+00 -0.13022927318E+04  0.36787163217E+04  0.34404923218E+04 0.  0.
        1    1    3    3  502    0  0.14569453965E+04  0.39028668962E+03  0.23331282346E+03  0.15262530793E+04  0.50400001928E-02 0.  1.
       -1    1    3    3    0  502 -0.14569453965E+04 -0.39028668962E+03 -0.15356055553E+04  0.21524632424E+04  0.50400001928E-02 0. -1.
</event>
<event>
 5   0  0.6630125E-07  0.3507883E+04  0.7818609E-02  0.8111924E-01
        1   -1    0    0  501    0  0.00000000000E+00  0.00000000000E+00  0.18305774161E+04  0.18305774161E+04  0.50400001928E-02 0.  1.
       -1   -1    0    0    0  501  0.00000000000E+00  0.00000000000E+00 -0.16805136298E+04  0.16805136298E+04  0.50400001928E-02 0. -1.
    10030    2    1    2    0    0  0.00000000000E+00  0.00000000000E+00  0.15006378625E+03  0.35110910459E+04  0.35078827222E+04 0.  0.
        1    1    3    3  502    0 -0.55436656921E+03 -0.12613438365E+04  0.11613815253E+04  0.18019760304E+04  0.50400001928E-02 0.  1.
       -1    1    3    3    0  502  0.55436656921E+03  0.12613438365E+04 -0.10113177390E+04  0.17091150155E+04  0.50400001928E-02 0. -1.
</event>
<event>
 5   0  0.6630125E-07  0.2508930E+04  0.7818609E-02  0.8399811E-01
        1   -1    0    0  501    0  0.00000000000E+00  0.00000000000E+00  0.16770996097E+04  0.16770996097E+04  0.50400001928E-02 0. -1.
       -1   -1    0    0    0  501  0.00000000000E+00  0.00000000000E+00 -0.93833590997E+03  0.93833590999E+03  0.50400001928E-02 0.  1.
    10030    2    1    2    0    0  0.00000000000E+00  0.00000000000E+00  0.73876369975E+03  0.26154355197E+04  0.25089302808E+04 0.  0.
        1    1    3    3  502    0 -0.40934999286E+03 -0.11790697756E+04  0.50087050246E+03  0.13448584359E+04  0.50400001928E-02 0.  1.
       -1    1    3    3    0  502  0.40934999286E+03  0.11790697756E+04  0.23789319729E+03  0.12705770838E+04  0.50400001928E-02 0. -1.
</event>
<event>
 5   0  0.7378896E-07  0.3442434E+04  0.7818609E-02  0.8127569E-01
        1   -1    0    0  501    0  0.00000000000E+00  0.00000000000E+00  0.27268831245E+04  0.27268831245E+04  0.50400001928E-02 0.  1.
       -1   -1    0    0    0  501  0.00000000000E+00  0.00000000000E+00 -0.10864374164E+04  0.10864374164E+04  0.50400001928E-02 0. -1.
    10030    2    1    2    0    0  0.00000000000E+00  0.00000000000E+00  0.16404457080E+04  0.38133205409E+04  0.34424339394E+04 0.  0.
        2    1    3    3  502    0  0.60197783617E+02 -0.82616759250E+02 -0.10830719689E+04  0.10878851924E+04  0.25500000920E-02 0. -1.
       -2    1    3    3    0  502 -0.60197783617E+02  0.82616759250E+02  0.27235176770E+04  0.27254353485E+04  0.25500000920E-02 0.  1.
</event>
<event>
 5   0  0.6630125E-07  0.3593618E+04  0.7818609E-02  0.8091955E-01
        1   -1    0    0  501    0  0.00000000000E+00  0.00000000000E+00  0.23711357905E+04  0.23711357905E+04  0.50400001928E-02 0. -1.
       -1   -1    0    0    0  501  0.00000000000E+00  0.00000000000E+00 -0.13615934591E+04  0.13615934591E+04  0.50400001928E-02 0.  1.
    10030    2    1    2    0    0  0.00000000000E+00  0.00000000000E+00  0.10095423314E+04  0.37327292496E+04  0.35936182229E+04 0.  0.
        4    1    3    3  502    0  0.97062885859E+03  0.64191706147E+03 -0.91729283471E+03  0.14817576227E+04  0.12699999809E+01 0.  1.
       -4    1    3    3    0  502 -0.97062885859E+03 -0.64191706147E+03  0.19268351661E+04  0.22509716269E+04  0.12699999809E+01 0. -1.
</event>
<event>
 5   0  0.2001768E-06  0.3489535E+04  0.7818609E-02  0.8116275E-01
       -2   -1    0    0    0  501  0.00000000000E+00  0.00000000000E+00  0.12470342322E+04  0.12470342323E+04  0.25500000920E-02 0. -1.
        2   -1    0    0  501    0  0.00000000000E+00  0.00000000000E+00 -0.24411627805E+04  0.24411627805E+04  0.25500000920E-02 0.  1.
    10030    2    1    2    0    0  0.00000000000E+00  0.00000000000E+00 -0.11941285482E+04  0.36881970127E+04  0.34895349568E+04 0.  0.
        2    1    3    3  502    0 -0.15092777731E+04 -0.50704673277E+03  0.15714141526E+03  0.15999091255E+04  0.25500000920E-02 0.  1.
       -2    1    3    3    0  502  0.15092777731E+04  0.50704673277E+03 -0.13512699635E+04  0.20882878872E+04  0.25500000920E-02 0. -1.
</event>
<event>
 5   0  0.7378896E-07  0.2486033E+04  0.7818609E-02  0.8407978E-01
       -1   -1    0    0    0  501  0.00000000000E+00  0.00000000000E+00  0.82529590243E+03  0.82529590244E+03  0.50400001928E-02 0.  1.
        1   -1    0    0  501    0  0.00000000000E+00  0.00000000000E+00 -0.18721642884E+04  0.18721642884E+04  0.50400001928E-02 0. -1.
    10030    2    1    2    0    0  0.00000000000E+00  0.00000000000E+00 -0.10468683860E+04  0.26974601909E+04  0.24860325951E+04 0.  0.
        2    1    3    3  502    0  0.61816454570E+03  0.39057547353E+03 -0.16141149950E+04  0.17720168800E+04  0.25500000920E-02 0. -1.
       -2    1    3    3    0  502 -0.61816454570E+03 -0.39057547353E+03  0.56724660902E+03  0.92544331081E+03  0.25500000920E-02 0.  1.
</event>
<event>
 5   0  0.6630125E-07  0.3495354E+04  0.7818609E-02  0.8114892E-01
       -1   -1    0    0    0  501  0.00000000000E+00  0.00000000000E+00  0.11529042534E+04  0.11529042534E+04  0.50400001928E-02 0.  1.
        1   -1    0    0  501    0  0.00000000000E+00  0.00000000000E+00 -0.26492882660E+04  0.26492882660E+04  0.50400001928E-02 0. -1.
    10030    2    1    2    0    0  0.00000000000E+00  0.00000000000E+00 -0.14963840126E+04  0.38021925194E+04  0.34953544657E+04 0.  0.
        5    1    3    3  502    0  0.64662887158E+03 -0.66278002790E+03 -0.23605174369E+04  0.25356401407E+04  0.46999998093E+01 0. -1.
       -5    1    3    3    0  502 -0.64662887158E+03  0.66278002790E+03  0.86413342431E+03  0.12665523787E+04  0.46999998093E+01 0.  1.
</event>
<event>
 5   0  0.2073287E-06  0.3390160E+04  0.7818609E-02  0.8140326E-01
       -2   -1    0    0    0  501  0.00000000000E+00  0.00000000000E+00  0.88572727925E+03  0.88572727926E+03  0.25500000920E-02 0. -1.
        2   -1    0    0  501    0  0.00000000000E+00  0.00000000000E+00 -0.32439960582E+04  0.32439960582E+04  0.25500000920E-02 0.  1.
    10030    2    1    2    0    0  0.00000000000E+00  0.00000000000E+00 -0.23582687790E+04  0.41297233375E+04  0.33901597618E+04 0.  0.
        1    1    3    3  502    0 -0.46404678482E+03 -0.12261065997E+04  0.12980682084E+03  0.13173938755E+04  0.50400001928E-02 0. -1.
       -1    1    3    3    0  502  0.46404678482E+03  0.12261065997E+04 -0.24880755998E+04  0.28123294620E+04  0.50400001928E-02 0.  1.
</event>
<event>
 5   0  0.2073287E-06  0.3478555E+04  0.7818609E-02  0.8118891E-01
        2   -1    0    0  501    0  0.00000000000E+00  0.00000000000E+00  0.14331378617E+04  0.14331378617E+04  0.25500000920E-02 0. -1.
       -2   -1    0    0    0  501  0.00000000000E+00  0.00000000000E+00 -0.21108129818E+04  0.21108129818E+04  0.25500000920E-02 0.  1.
    10030    2    1    2    0    0  0.00000000000E+00  0.00000000000E+00 -0.67767512010E+03  0.35439508436E+04  0.34785548743E+04 0.  0.
        1    1    3    3  502    0 -0.47062167405E+02 -0.90635540889E+03  0.11727643316E+04  0.14829265499E+04  0.50400001928E-02 0. -1.
       -1    1    3    3    0  502  0.47062167405E+02  0.90635540889E+03 -0.18504394517E+04  0.20610242937E+04  0.50400001928E-02 0.  1.
</event>
<event>
 5   0  0.2001768E-06  0.3553106E+04  0.7818609E-02  0.8101319E-01
       -2   -1    0    0    0  501  0.00000000000E+00  0.00000000000E+00  0.23997639616E+04  0.23997639616E+04  0.25500000920E-02 0.  1.
        2   -1    0    0  501    0  0.00000000000E+00  0.00000000000E+00 -0.13151876350E+04  0.13151876350E+04  0.25500000920E-02 0. -1.
    10030    2    1    2    0    0  0.00000000000E+00  0.00000000000E+00  0.10845763266E+04  0.37149515966E+04  0.35531056214E+04 0.  0.
        2    1    3    3  502    0  0.47819095782E+03 -0.29583613142E+03  0.23042671149E+04  0.23718837547E+04  0.25500000920E-02 0.  1.
       -2    1    3    3    0  502 -0.47819095782E+03  0.29583613142E+03 -0.12196907883E+04  0.13430678419E+04  0.25500000920E-02 0. -1.
</event>
<event>
 5   0  0.2023479E-06  0.3332581E+04  0.7818609E-02  0.8154654E-01
        2   -1    0    0  501    0  0.00000000000E+00  0.00000000000E+00  0.16849735371E+04  0.16849735371E+04  0.25500000920E-02 0. -1.
       -2   -1    0    0    0  501  0.00000000000E+00  0.00000000000E+00 -0.16478147844E+04  0.16478147844E+04  0.25500000920E-02 0.  1.
    10030    2    1    2    0    0  0.00000000000E+00  0.00000000000E+00  0.37158752642E+02  0.33327883215E+04  0.33325811652E+04 0.  0.
        5    1    3    3  502    0  0.19773415772E+03 -0.84200237639E+03 -0.14057406731E+04  0.16505137773E+04  0.46999998093E+01 0.  1.
       -5    1    3    3    0  502 -0.19773415772E+03  0.84200237639E+03  0.14428994258E+04  0.16822745442E+04  0.46999998093E+01 0. -1.
</event>
<event>
 5   0  0.6630125E-07  0.2968681E+04  0.7818609E-02  0.8252731E-01
       -1   -1    0    0    0  501  0.00000000000E+00  0.00000000000E+00  0.14561796293E+04  0.14561796293E+04  0.50400001928E-02 0.  1.
        1   -1    0    0  501    0  0.00000000000E+00  0.00000000000E+00 -0.15130464471E+04  0.15130464471E+04  0.50400001928E-02 0. -1.
    10030    2    1    2    0    0  0.00000000000E+00  0.00000000000E+00 -0.56866817854E+02  0.29692260764E+04  0.29686814679E+04 0.  0.
        4    1    3    3  502    0 -0.16648660208E+03 -0.13809445507E+03  0.14403311142E+04  0.14564831611E+04  0.12699999809E+01 0.  1.
       -4    1    3    3    0  502  0.16648660208E+03  0.13809445507E+03 -0.14971979320E+04  0.15127429153E+04  0.12699999809E+01 0. -1.
</event>
<event>
 5   0  0.2073287E-06  0.2824026E+04  0.7818609E-02  0.8295848E-01
        2   -1    0    0  501    0  0.00000000000E+00  0.00000000000E+00  0.18114283422E+04  0.18114283422E+04  0.25500000920E-02 0. -1.
       -2   -1    0    0    0  501  0.00000000000E+00  0.00000000000E+00 -0.11006677957E+04  0.11006677957E+04  0.25500000920E-02 0.  1.
    10030    2    1    2    0    0  0.00000000000E+00  0.00000000000E+00  0.71076054649E+03  0.29120961379E+04  0.28240260909E+04 0.  0.
        1    1    3    3  502    0 -0.37092322962E+03 -0.10757799112E+04 -0.50669021506E+03  0.12456409731E+04  0.50400001928E-02 0.  1.
       -1    1    3    3    0  502  0.37092322962E+03  0.10757799112E+04  0.12174507615E+04  0.16664551649E+04  0.50400001928E-02 0. -1.
</event>
<event>
 5   0  0.6630125E-07  0.3348780E+04  0.7818609E-02  0.8150593E-01
       -1   -1    0    0    0  501  0.00000000000E+00  0.00000000000E+00  0.15007013311E+04  0.15007013311E+04  0.50400001928E-02 0.  1.
        1   -1    0    0  501    0  0.00000000000E+00  0.00000000000E+00 -0.18681813217E+04  0.18681813217E+04  0.50400001928E-02 0. -1.
    10030    2    1    2    0    0  0.00000000000E+00  0.00000000000E+00 -0.36747999065E+03  0.33688826528E+04  0.33487801935E+04 0.  0.
        1    1    3    3  502    0 -0.69701567034E+03  0.14603865054E+04 -0.61646464854E+03  0.17316432233E+04  0.50400001928E-02 0.  1.
       -1    1    3    3    0  502  0.69701567034E+03 -0.14603865054E+04  0.24898465789E+03  0.16372394295E+04  0.50400001928E-02 0. -1.
</event>
<event>
 5   0  0.7378896E-07  0.3505163E+04  0.7818609E-02  0.8112568E-01
       -1   -1    0    0    0  501  0.00000000000E+00  0.00000000000E+00  0.15916106386E+04  0.15916106386E+04  0.50400001928E-02 0. -1.
        1   -1    0    0  501    0  0.00000000000E+00  0.00000000000E+00 -0.19298322619E+04  0.19298322619E+04  0.50400001928E-02 0.  1.
    10030    2    1    2    0    0  0.00000000000E+00  0.00000000000E+00 -0.33822162328E+03  0.35214429006E+04  0.35051627973E+04 0.  0.
        2    1    3    3  502    0 -0.49306353424E+02 -0.11471497437E+04 -0.14993292848E+04  0.18884840362E+04  0.25500000920E-02 0.  1.
       -2    1    3    3    0  502  0.49306353424E+02  0.11471497437E+04  0.11611076615E+04  0.16329588643E+04  0.25500000920E-02 0. -1.
</event>
<event>
 5   0  0.6630125E-07  0.3301429E+04  0.7818609E-02  0.8162532E-01
        1   -1    0    0  501    0  0.00000000000E+00  0.00000000000E+00  0.19431461112E+04  0.19431461112E+04  0.50400001928E-02 0. -1.
       -1   -1    0    0    0  501  0.00000000000E+00  0.00000000000E+00 -0.14022921401E+04  0.14022921401E+04  0.50400001928E-02 0.  1.
    10030    2    1    2    0    0  0.00000000000E+00  0.00000000000E+00  0.54085397107E+03  0.33454382513E+04  0.33014290959E+04 0.  0.
        1    1    3    3  502    0 -0.46326244651E+01 -0.12513628889E+04  0.13613127324E+04  0.18490816360E+04  0.50400001928E-02 0. -1.
       -1    1    3    3    0  502  0.46326244651E+01  0.12513628889E+04 -0.82045876137E+03  0.14963566153E+04  0.50400001928E-02 0.  1.
</event>
<event>
 5   0  0.6630125E-07  0.3488848E+04  0.7818609E-02  0.8116438E-01
       -1   -1    0    0    0  501  0.00000000000E+00  0.00000000000E+00  0.13509912820E+04  0.13509912820E+04  0.50400001928E-02 0. -1.
        1   -1    0    0  501    0  0.00000000000E+00  0.00000000000E+00 -0.22524313164E+04  0.22524313164E+04  0.50400001928E-02 0.  1.
    10030    2    1    2    0    0  0.00000000000E+00  0.00000000000E+00 -0.90144003439E+03  0.36034225983E+04  0.34888479885E+04 0.  0.
        5    1    3    3  502    0 -0.66544262336E+03 -0.12085419479E+04  0.65186074478E+03  0.15258872977E+04  0.46999998093E+01 0. -1.
       -5    1    3    3    0  502  0.66544262336E+03  0.12085419479E+04 -0.15533007792E+04  0.20775353006E+04  0.46999998093E+01 0.  1.
</event>
<event>
 5   0  0.7378896E-07  0.2963292E+04  0.7818609E-02  0.8254291E-01
       -1   -1    0    0    0  501  0.00000000000E+00  0.00000000000E+00  0.12830230887E+04  0.12830230887E+04  0.50400001928E-02 0.  1.
        1   -1    0    0  501    0  0.00000000000E+00  0.00000000000E+00 -0.17110178848E+04  0.17110178848E+04  0.50400001928E-02 0. -1.
    10030    2    1    2    0    0  0.00000000000E+00  0.00000000000E+00 -0.42799479603E+03  0.29940409735E+04  0.29632923929E+04 0.  0.
        2    1    3    3  502    0  0.13092317137E+04  0.41608489111E+03 -0.77478924178E+03  0.15771850513E+04  0.25500000920E-02 0. -1.
       -2    1    3    3    0  502 -0.13092317137E+04 -0.41608489111E+03  0.34679444575E+03  0.14168559222E+04  0.25500000920E-02 0.  1.
</event>
<event>
 5   0  0.2073287E-06  0.2836617E+04  0.7818609E-02  0.8291990E-01
        2   -1    0    0  501    0  0.00000000000E+00  0.00000000000E+00  0.14314960903E+04  0.14314960903E+04  0.25500000920E-02 0. -1.
       -2   -1    0    0    0  501  0.00000000000E+00  0.00000000000E+00 -0.14052425492E+04  0.14052425492E+04  0.25500000920E-02 0.  1.
    10030    2    1    2    0    0  0.00000000000E+00  0.00000000000E+00  0.26253541170E+02  0.28367386395E+04  0.28366171509E+04 0.  0.
        1    1    3    3  502    0  0.46826048823E+03 -0.43579583787E+03 -0.12527920971E+04  0.14066534526E+04  0.50400001928E-02 0.  1.
       -1    1    3    3    0  502 -0.46826048823E+03  0.43579583787E+03  0.12790456383E+04  0.14300851869E+04  0.50400001928E-02 0. -1.
</event>
<event>
 5   0  0.2020725E-06  0.3517303E+04  0.7818609E-02  0.8109702E-01
        2   -1    0    0  501    0  0.00000000000E+00  0.00000000000E+00  0.22892324291E+04  0.22892324291E+04  0.25500000920E-02 0.  1.
       -2   -1    0    0    0  501  0.00000000000E+00  0.00000000000E+00 -0.13510442751E+04  0.13510442751E+04  0.25500000920E-02 0. -1.
    10030    2    1    2    0    0  0.00000000000E+00  0.00000000000E+00  0.93818815399E+03  0.36402767042E+04  0.35173025845E+04 0.  0.
        3    1    3    3  502    0  0.48902351469E+03 -0.82359207137E+02  0.22153699566E+04  0.22701962672E+04  0.10100000352E+00 0.  1.
       -3    1    3    3    0  502 -0.48902351469E+03  0.82359207137E+02 -0.12771818026E+04  0.13700804370E+04  0.10100000352E+00 0. -1.
</event>
<event>
 5   0  0.6630125E-07  0.3550078E+04  0.7818609E-02  0.8102024E-01
       -1   -1    0    0    0  501  0.00000000000E+00  0.00000000000E+00  0.14229135301E+04  0.14229135301E+04  0.50400001928E-02 0. -1.
        1   -1    0    0  501    0  0.00000000000E+00  0.00000000000E+00 -0.22143039685E+04  0.22143039685E+04  0.50400001928E-02 0.  1.
    10030    2    1    2    0    0  0.00000000000E+00  0.00000000000E+00 -0.79139043836E+03  0.36372174986E+04  0.35500777888E+04 0.  0.
        1    1    3    3  502    0 -0.17097602036E+04  0.42771375154E+03 -0.61193039691E+03  0.18656574760E+04  0.50400001928E-02 0.  1.
       -1    1    3    3    0  502  0.17097602036E+04 -0.42771375154E+03 -0.17946004145E+03  0.17715600226E+04  0.50400001928E-02 0. -1.
</event>
<event>
 5   0  0.7378896E-07  0.3429086E+04  0.7818609E-02  0.8130804E-01
       -1   -1    0    0    0  501  0.00000000000E+00  0.00000000000E+00  0.15077425009E+04  0.15077425009E+04  0.50400001928E-02 0. -1.
        1   -1    0    0  501    0  0.00000000000E+00  0.00000000000E+00 -0.19497076614E+04  0.19497076614E+04  0.50400001928E-02 0.  1.
    10030    2    1    2    0    0  0.00000000000E+00  0.00000000000E+00 -0.44196516057E+03  0.34574501623E+04  0.34290856539E+04 0.  0.
        2    1    3    3  502    0  0.13055224692E+04  0.11113159972E+04 -0.23676267151E+03  0.17307422471E+04  0.25500000920E-02 0. -1.
       -2    1    3    3    0  502 -0.13055224692E+04 -0.11113159972E+04 -0.20520248905E+03  0.17267079153E+04  0.25500000920E-02 0.  1.
</event>
<event>
 5   0  0.6630125E-07  0.3274140E+04  0.7818609E-02  0.8169507E-01
        1   -1    0    0  501    0  0.00000000000E+00  0.00000000000E+00  0.19670065236E+04  0.19670065236E+04  0.50400001928E-02 0.  1.
       -1   -1    0    0    0  501  0.00000000000E+00  0.00000000000E+00 -0.13624752770E+04  0.13624752771E+04  0.50400001928E-02 0. -1.
    10030    2    1    2    0    0  0.00000000000E+00  0.00000000000E+00  0.60453124654E+03  0.33294818007E+04  0.32741397394E+04 0.  0.
        1    1    3    3  502    0 -0.13013187869E+04  0.42171004589E+03 -0.61222787711E+03  0.14986970746E+04  0.50400001928E-02 0. -1.
       -1    1    3    3    0  502  0.13013187869E+04 -0.42171004589E+03  0.12167591236E+04  0.18307847260E+04  0.50400001928E-02 0.  1.
</event>
<event>
 5   0  0.7378896E-07  0.3590822E+04  0.7818609E-02  0.8092597E-01
        1   -1    0    0  501    0  0.00000000000E+00  0.00000000000E+00  0.26219780223E+04  0.26219780223E+04  0.50400001928E-02 0.  1.
       -1   -1    0    0    0  501  0.00000000000E+00  0.00000000000E+00 -0.12294156345E+04  0.12294156345E+04  0.50400001928E-02 0. -1.
    10030    2    1    2    0    0  0.00000000000E+00  0.00000000000E+00  0.13925623877E+04  0.38513936568E+04  0.35908220641E+04 0.  0.
        2    1    3    3  502    0 -0.50079204841E+03  0.17191710900E+04  0.55578380253E+03  0.18748966765E+04  0.25500000920E-02 0. -1.
       -2    1    3    3    0  502  0.50079204841E+03 -0.17191710900E+04  0.83677858520E+03  0.19764969803E+04  0.25500000920E-02 0.  1.
</event>
<event>
 5   0  0.6890600E-07  0.2498418E+04  0.7818609E-02  0.8403549E-01
       -1   -1    0    0    0  501  0.00000000000E+00  0.00000000000E+00  0.11520900131E+04  0.11520900131E+04  0.50400001928E-02 0.  1.
        1   -1    0    0  501    0  0.00000000000E+00  0.00000000000E+00 -0.13545152089E+04  0.13545152089E+04  0.50400001928E-02 0. -1.
    10030    2    1    2    0    0  0.00000000000E+00  0.00000000000E+00 -0.20242519577E+03  0.25066052220E+04  0.24984182554E+04 0.  0.
        3    1    3    3  502    0  0.30795848578E+03 -0.71175469835E+02 -0.13137336204E+04  0.13512218219E+04  0.10100000352E+00 0. -1.
       -3    1    3    3    0  502 -0.30795848578E+03  0.71175469835E+02  0.11113084246E+04  0.11553834001E+04  0.10100000352E+00 0.  1.
</event>
<event>
 5   0  0.2073287E-06  0.3440030E+04  0.7818609E-02  0.8128151E-01
        2   -1    0    0  501    0  0.00000000000E+00  0.00000000000E+00  0.21052592506E+04  0.21052592506E+04  0.25500000920E-02 0.  1.
       -2   -1    0    0    0  501  0.00000000000E+00  0.00000000000E+00 -0.14052671278E+04  0.14052671278E+04  0.25500000920E-02 0. -1.
    10030    2    1    2    0    0  0.00000000000E+00  0.00000000000E+00  0.69999212282E+03  0.35105263784E+04  0.34400300117E+04 0.  0.
        1    1    3    3  502    0 -0.83378623444E+03 -0.13178071040E+04  0.10905650413E+04  0.19029312014E+04  0.50400001928E-02 0.  1.
       -1    1    3    3    0  502  0.83378623444E+03  0.13178071040E+04 -0.39057291845E+03  0.16075951769E+04  0.50400001928E-02 0. -1.
</event>
<event>
 5   0  0.6630125E-07  0.3547532E+04  0.7818609E-02  0.8102617E-01
        1   -1    0    0  501    0  0.00000000000E+00  0.00000000000E+00  0.21172071292E+04  0.21172071293E+04  0.50400001928E-02 0. -1.
       -1   -1    0    0    0  501  0.00000000000E+00  0.00000000000E+00 -0.14860362978E+04  0.14860362978E+04  0.50400001928E-02 0.  1.
    10030    2    1    2    0    0  0.00000000000E+00  0.00000000000E+00  0.63117083140E+03  0.36032434271E+04  0.35475324631E+04 0.  0.
        5    1    3    3  502    0 -0.79251028178E+03 -0.10007040298E+04 -0.93531659077E+03  0.15825044445E+04  0.46999998093E+01 0.  1.
       -5    1    3    3    0  502  0.79251028178E+03  0.10007040298E+04  0.15664874222E+04  0.20207389826E+04  0.46999998093E+01 0. -1.
</event>
<event>
 5   0  0.2001768E-06  0.3317749E+04  0.7818609E-02  0.8158394E-01
        2   -1    0    0  501    0  0.00000000000E+00  0.00000000000E+00  0.26144284136E+04  0.26144284136E+04  0.25500000920E-02 0. -1.
       -2   -1    0    0    0  501  0.00000000000E+00  0.00000000000E+00 -0.10525681822E+04  0.10525681822E+04  0.25500000920E-02 0.  1.
    10030    2    1    2    0    0  0.00000000000E+00  0.00000000000E+00  0.15618602315E+04  0.36669965958E+04  0.33177487324E+04 0.  0.
        2    1    3    3  502    0 -0.13041248238E+04  0.25538779769E+03 -0.31651643430E+03  0.13660699603E+04  0.25500000920E-02 0.  1.
       -2    1    3    3    0  502  0.13041248238E+04 -0.25538779769E+03  0.18783766658E+04  0.23009266355E+04  0.25500000920E-02 0. -1.
</event>
<event>
 5   0  0.7378896E-07  0.3218867E+04  0.7818609E-02  0.8183852E-01
       -1   -1    0    0    0  501  0.00000000000E+00  0.00000000000E+00  0.14340241149E+04  0.14340241149E+04  0.50400001928E-02 0. -1.
        1   -1    0    0  501    0  0.00000000000E+00  0.00000000000E+00 -0.18062985893E+04  0.18062985893E+04  0.50400001928E-02 0.  1.
    10030    2    1    2    0    0  0.00000000000E+00  0.00000000000E+00 -0.37227447436E+03  0.32403227042E+04  0.32188667172E+04 0.  0.
        2    1    3    3  502    0 -0.11198679078E+04 -0.10913585716E+04  0.19733246569E+03  0.15761052518E+04  0.25500000920E-02 0. -1.
       -2    1    3    3    0  502  0.11198679078E+04  0.10913585716E+04 -0.56960694005E+03  0.16642174524E+04  0.25500000920E-02 0.  1.
</event>
<event>
 5   0  0.2020725E-06  0.2567791E+04  0.7818609E-02  0.8379225E-01
       -2   -1    0    0    0  501  0.00000000000E+00  0.00000000000E+00  0.11343593039E+04  0.11343593039E+04  0.25500000920E-02 0. -1.
        2   -1    0    0  501    0  0.00000000000E+00  0.00000000000E+00 -0.14531441131E+04  0.14531441131E+04  0.25500000920E-02 0.  1.
    10030    2    1    2    0    0  0.00000000000E+00  0.00000000000E+00 -0.31878480928E+03  0.25875034170E+04  0.25677909141E+04 0.  0.
        3    1    3    3  502    0  0.66419820833E+03  0.91041139029E+01 -0.12665286380E+04  0.14301527701E+04  0.10100000352E+00 0.  1.
       -3    1    3    3    0  502 -0.66419820833E+03 -0.91041139029E+01  0.94774382869E+03  0.11573506469E+04  0.10100000352E+00 0. -1.
</event>
<event>
 5   0  0.6630125E-07  0.3487636E+04  0.7818609E-02  0.8116726E-01
       -1   -1    0    0    0  501  0.00000000000E+00  0.00000000000E+00  0.21541130159E+04  0.21541130159E+04  0.50400001928E-02 0. -1.
        1   -1    0    0  501    0  0.00000000000E+00  0.00000000000E+00 -0.14116722640E+04  0.14116722640E+04  0.50400001928E-02 0.  1.
    10030    2    1    2    0    0  0.00000000000E+00  0.00000000000E+00  0.74244075188E+03  0.35657852799E+04  0.34876362185E+04 0.  0.
        1    1    3    3  502    0 -0.95118835026E+03  0.12164235804E+04 -0.45715430754E+03  0.16104147495E+04  0.50400001928E-02 0.  1.
       -1    1    3    3    0  502  0.95118835026E+03 -0.12164235804E+04  0.11995950594E+04  0.19553705304E+04  0.50400001928E-02 0. -1.
</event>
<event>
 5   0  0.2020725E-06  0.3501805E+04  0.7818609E-02  0.8113362E-01
        2   -1    0    0  501    0  0.00000000000E+00  0.00000000000E+00  0.28716263628E+04  0.28716263628E+04  0.25500000920E-02 0.  1.
       -2   -1    0    0    0  501  0.00000000000E+00  0.00000000000E+00 -0.10675690110E+04  0.10675690110E+04  0.25500000920E-02 0. -1.
    10030    2    1    2    0    0  0.00000000000E+00  0.00000000000E+00  0.18040573518E+04  0.39391953737E+04  0.35018048581E+04 0.  0.
        3    1    3    3  502    0 -0.10908466901E+04  0.40784983400E+03  0.23727615045E+04  0.26431581784E+04  0.10100000352E+00 0.  1.
       -3    1    3    3    0  502  0.10908466901E+04 -0.40784983400E+03 -0.56870415271E+03  0.12960371954E+04  0.10100000352E+00 0. -1.
</event>
<event>
 5   0  0.6890600E-07  0.3207326E+04  0.7818609E-02  0.8186885E-01
        1   -1    0    0  501    0  0.00000000000E+00  0.00000000000E+00  0.19584295383E+04  0.19584295383E+04  0.50400001928E-02 0. -1.
       -1   -1    0    0    0  501  0.00000000000E+00  0.00000000000E+00 -0.13131616404E+04  0.13131616404E+04  0.50400001928E-02 0.  1.
    10030    2    1    2    0    0  0.00000000000E+00  0.00000000000E+00  0.64526789788E+03  0.32715911787E+04  0.32073257054E+04 0.  0.
        3    1    3    3  502    0 -0.11519192745E+04 -0.42315657943E+03  0.13756734412E+04  0.18434904211E+04  0.10100000352E+00 0. -1.
       -3    1    3    3    0  502  0.11519192745E+04  0.42315657943E+03 -0.73040554333E+03  0.14281007576E+04  0.10100000352E+00 0.  1.
</event>
<event>
 5   0  0.6630125E-07  0.3439226E+04  0.7818609E-02  0.8128346E-01
       -1   -1    0    0    0  501  0.00000000000E+00  0.00000000000E+00  0.26233391597E+04  0.26233391597E+04  0.50400001928E-02 0. -1.
        1   -1    0    0  501    0  0.00000000000E+00  0.00000000000E+00 -0.11272156511E+04  0.11272156511E+04  0.50400001928E-02 0.  1.
    10030    2    1    2    0    0  0.00000000000E+00  0.00000000000E+00  0.14961235086E+04  0.37505548109E+04  0.34392260519E+04 0.  0.
        5    1    3    3  502    0 -0.63399406763E+03 -0.15211367837E+04  0.21243704474E+03  0.16616128251E+04  0.46999998093E+01 0.  1.
       -5    1    3    3    0  502  0.63399406763E+03  0.15211367837E+04  0.12836864639E+04  0.20889419858E+04  0.46999998093E+01 0. -1.
</event>
<event>
 5   0  0.6890600E-07  0.3458662E+04  0.7818609E-02  0.8123657E-01
       -1   -1    0    0    0  501  0.00000000000E+00  0.00000000000E+00  0.17886733211E+04  0.17886733211E+04  0.50400001928E-02 0. -1.
        1   -1    0    0  501    0  0.00000000000E+00  0.00000000000E+00 -0.16719571992E+04  0.16719571992E+04  0.50400001928E-02 0.  1.
    10030    2    1    2    0    0  0.00000000000E+00  0.00000000000E+00  0.11671612191E+03  0.34606305203E+04  0.34586617275E+04 0.  0.
        3    1    3    3  502    0  0.44378654144E+03 -0.16692050233E+04  0.14439143405E+03  0.17332168937E+04  0.10100000352E+00 0. -1.
       -3    1    3    3    0  502 -0.44378654144E+03  0.16692050233E+04 -0.27675312135E+02  0.17274136266E+04  0.10100000352E+00 0.  1.
</event>
<event>
 5   0  0.2023479E-06  0.3446001E+04  0.7818609E-02  0.8126708E-01
       -2   -1    0    0    0  501  0.00000000000E+00  0.00000000000E+00  0.83200780207E+03  0.83200780207E+03  0.25500000920E-02 0.  1.
        2   -1    0    0  501    0  0.00000000000E+00  0.00000000000E+00 -0.35681521008E+04  0.35681521008E+04  0.25500000920E-02 0. -1.
    10030    2    1    2    0    0  0.00000000000E+00  0.00000000000E+00 -0.27361442987E+04  0.44001599028E+04  0.34460008049E+04 0.  0.
        5    1    3    3  502    0  0.14636834234E+04  0.74347129257E+03 -0.20359589381E+04  0.26153909105E+04  0.46999998093E+01 0. -1.
       -5    1    3    3    0  502 -0.14636834234E+04 -0.74347129257E+03 -0.70018536055E+03  0.17847689923E+04  0.46999998093E+01 0.  1.
</event>
<event>
 5   0  0.2073287E-06  0.2920407E+04  0.7818609E-02  0.8266831E-01
        2   -1    0    0  501    0  0.00000000000E+00  0.00000000000E+00  0.21186145901E+04  0.21186145901E+04  0.25500000920E-02 0.  1.
       -2   -1    0    0    0  501  0.00000000000E+00  0.00000000000E+00 -0.10064099737E+04  0.10064099737E+04  0.25500000920E-02 0. -1.
    10030    2    1    2    0    0  0.00000000000E+00  0.00000000000E+00  0.11122046164E+04  0.31250245639E+04  0.29204074058E+04 0.  0.
        1    1    3    3  502    0 -0.91544831996E+03  0.11374623821E+04  0.53670617363E+03  0.15556091457E+04  0.50400001928E-02 0.  1.
       -1    1    3    3    0  502  0.91544831996E+03 -0.11374623821E+04  0.57549844279E+03  0.15694154182E+04  0.50400001928E-02 0. -1.
</event>
<event>
 5   0  0.2073287E-06  0.3414406E+04  0.7818609E-02  0.8134380E-01
       -2   -1    0    0    0  501  0.00000000000E+00  0.00000000000E+00  0.16836410407E+04  0.16836410407E+04  0.25500000920E-02 0. -1.
        2   -1    0    0  501    0  0.00000000000E+00  0.00000000000E+00 -0.17310942917E+04  0.17310942917E+04  0.25500000920E-02 0.  1.
    10030    2    1    2    0    0  0.00000000000E+00  0.00000000000E+00 -0.47453251044E+02  0.34147353324E+04  0.34144055967E+04 0.  0.
        1    1    3    3  502    0 -0.41347606347E+03  0.34136978514E+02  0.16324567315E+04  0.16843523291E+04  0.50400001928E-02 0. -1.
       -1    1    3    3    0  502  0.41347606347E+03 -0.34136978514E+02 -0.16799099825E+04  0.17303830032E+04  0.50400001928E-02 0.  1.
</event>
<event>
 5   0  0.7378896E-07  0.3510576E+04  0.7818609E-02  0.8111288E-01
       -1   -1    0    0    0  501  0.00000000000E+00  0.00000000000E+00  0.13283203896E+04  0.13283203896E+04  0.50400001928E-02 0.  1.
        1   -1    0    0  501    0  0.00000000000E+00  0.00000000000E+00 -0.23194970614E+04  0.23194970614E+04  0.50400001928E-02 0. -1.
    10030    2    1    2    0    0  0.00000000000E+00  0.00000000000E+00 -0.99117667177E+03  0.36478174510E+04  0.35105755883E+04 0.  0.
        2    1    3    3  502    0 -0.13635561629E+04 -0.40676463220E+02 -0.16433497949E+04  0.21357758620E+04  0.25500000920E-02 0.  1.
       -2    1    3    3    0  502  0.13635561629E+04  0.40676463220E+02  0.65217312317E+03  0.15120415890E+04  0.25500000920E-02 0. -1.
</event>
<event>
 5   0  0.2023479E-06  0.3541530E+04  0.7818609E-02  0.8104018E-01
       -2   -1    0    0    0  501  0.00000000000E+00  0.00000000000E+00  0.15886346546E+04  0.15886346546E+04  0.25500000920E-02 0.  1.
        2   -1    0    0  501    0  0.00000000000E+00  0.00000000000E+00 -0.19737760452E+04  0.19737760452E+04  0.25500000920E-02 0. -1.
    10030    2    1    2    0    0  0.00000000000E+00  0.00000000000E+00 -0.38514139062E+03  0.35624106999E+04  0.35415301924E+04 0.  0.
        5    1    3    3  502    0  0.10588313335E+04  0.11877426047E+04 -0.97415287629E+03  0.18657042114E+04  0.46999998093E+01 0.  1.
       -5    1    3    3    0  502 -0.10588313335E+04 -0.11877426047E+04  0.58901148567E+03  0.16967064885E+04  0.46999998093E+01 0. -1.
</event>
<event>
 5   0  0.2001768E-06  0.3509646E+04  0.7818609E-02  0.8111508E-01
        2   -1    0    0  501    0  0.00000000000E+00  0.00000000000E+00  0.19340056310E+04  0.19340056310E+04  0.25500000920E-02 0.  1.
       -2   -1    0    0    0  501  0.00000000000E+00  0.00000000000E+00 -0.15922415509E+04  0.15922415509E+04  0.25500000920E-02 0. -1.
    10030    2    1    2    0    0  0.00000000000E+00  0.00000000000E+00  0.34176408019E+03  0.35262471819E+04  0.35096462074E+04 0.  0.
        2    1    3    3  502    0 -0.38128849881E+02 -0.10820185521E+04  0.15584234626E+04  0.18976041856E+04  0.25500000920E-02 0.  1.
       -2    1    3    3    0  502  0.38128849881E+02  0.10820185521E+04 -0.12166593825E+04  0.16286429963E+04  0.25500000920E-02 0. -1.
</event>
<event>
 5   0  0.6630125E-07  0.3363690E+04  0.7818609E-02  0.8146876E-01
        1   -1    0    0  501    0  0.00000000000E+00  0.00000000000E+00  0.18639226585E+04  0.18639226585E+04  0.50400001928E-02 0. -1.
       -1   -1    0    0    0  501  0.00000000000E+00  0.00000000000E+00 -0.15175540520E+04  0.15175540520E+04  0.50400001928E-02 0.  1.
    10030    2    1    2    0    0  0.00000000000E+00  0.00000000000E+00  0.34636860649E+03  0.33814767105E+04  0.33636904632E+04 0.  0.
        5    1    3    3  502    0 -0.77919612931E+03  0.14595305496E+04 -0.13041468440E+03  0.16596403566E+04  0.46999998093E+01 0.  1.
       -5    1    3    3    0  502  0.77919612931E+03 -0.14595305496E+04  0.47678329089E+03  0.17218363539E+04  0.46999998093E+01 0. -1.
</event>
<event>
 5   0  0.6630125E-07  0.2487177E+04  0.7818609E-02  0.8407568E-01
       -1   -1    0    0    0  501  0.00000000000E+00  0.00000000000E+00  0.80456550631E+03  0.80456550633E+03  0.50400001928E-02 0.  1.
        1   -1    0    0  501    0  0.00000000000E+00  0.00000000000E+00 -0.19221712628E+04  0.19221712628E+04  0.50400001928E-02 0. -1.
    10030    2    1    2    0    0  0.00000000000E+00  0.00000000000E+00 -0.11176057565E+04  0.27267367692E+04  0.24871772718E+04 0.  0.
        4    1    3    3  502    0 -0.11723471434E+04  0.36934325122E+03 -0.76594260960E+03  0.14482686063E+04  0.12699999809E+01 0.  1.
       -4    1    3    3    0  502  0.11723471434E+04 -0.36934325122E+03 -0.35166314690E+03  0.12784681629E+04  0.12699999809E+01 0. -1.
</event>
<event>
 5   0  0.6890600E-07  0.3471854E+04  0.7818609E-02  0.8120493E-01
        1   -1    0    0  501    0  0.00000000000E+00  0.00000000000E+00  0.19501798069E+04  0.19501798069E+04  0.50400001928E-02 0. -1.
       -1   -1    0    0    0  501  0.00000000000E+00  0.00000000000E+00 -0.15452128172E+04  0.15452128172E+04  0.50400001928E-02 0.  1.
    10030    2    1    2    0    0  0.00000000000E+00  0.00000000000E+00  0.40496698971E+03  0.34953926241E+04  0.34718541637E+04 0.  0.
        3    1    3    3  502    0  0.54918304184E+02  0.27216707588E+03  0.19276798855E+04  0.19475730252E+04  0.10100000352E+00 0. -1.
       -3    1    3    3    0  502 -0.54918304184E+02 -0.27216707588E+03 -0.15227128958E+04  0.15478195989E+04  0.10100000352E+00 0.  1.
</event>
<event>
 5   0  0.6630125E-07  0.3510542E+04  0.7818609E-02  0.8111296E-01
        1   -1    0    0  501    0  0.00000000000E+00  0.00000000000E+00  0.19654231024E+04  0.19654231025E+04  0.50400001928E-02 0.  1.
       -1   -1    0    0    0  501  0.00000000000E+00  0.00000000000E+00 -0.15675895698E+04  0.15675895698E+04  0.50400001928E-02 0. -1.
    10030    2    1    2    0    0  0.00000000000E+00  0.00000000000E+00  0.39783353262E+03  0.35330126723E+04  0.35105422691E+04 0.  0.
        5    1    3    3  502    0 -0.21954355965E+03 -0.55519854853E+03  0.18600909794E+04  0.19535622193E+04  0.46999998093E+01 0.  1.
       -5    1    3    3    0  502  0.21954355965E+03  0.55519854853E+03 -0.14622574468E+04  0.15794504530E+04  0.46999998093E+01 0. -1.
</event>
<event>
 5   0  0.2001768E-06  0.2414659E+04  0.7818609E-02  0.8434036E-01
       -2   -1    0    0    0  501  0.00000000000E+00  0.00000000000E+00  0.11389389529E+04  0.11389389529E+04  0.25500000920E-02 0.  1.
        2   -1    0    0  501    0  0.00000000000E+00  0.00000000000E+00 -0.12798271594E+04  0.12798271594E+04  0.25500000920E-02 0. -1.
    10030    2    1    2    0    0  0.00000000000E+00  0.00000000000E+00 -0.14088820653E+03  0.24187661123E+04  0.24146594003E+04 0.  0.
        2    1    3    3  502    0 -0.64757006969E+03  0.36186510741E+03 -0.10246142243E+04  0.12649615250E+04  0.25500000920E-02 0. -1.
       -2    1    3    3    0  502  0.64757006969E+03 -0.36186510741E+03  0.88372601779E+03  0.11538045873E+04  0.25500000920E-02 0.  1.
</event>
<event>
 5   0  0.2001768E-06  0.2263625E+04  0.7818609E-02  0.8492403E-01
       -2   -1    0    0    0  501  0.00000000000E+00  0.00000000000E+00  0.77356994860E+03  0.77356994861E+03  0.25500000920E-02 0.  1.
        2   -1    0    0  501    0  0.00000000000E+00  0.00000000000E+00 -0.16559577848E+04  0.16559577848E+04  0.25500000920E-02 0. -1.
    10030    2    1    2    0    0  0.00000000000E+00  0.00000000000E+00 -0.88238783615E+03  0.24295277334E+04  0.22636246848E+04 0.  0.
        2    1    3    3  502    0 -0.18337456866E+03 -0.10653990002E+04 -0.81524685196E+02  0.10841344642E+04  0.25500000920E-02 0. -1.
       -2    1    3    3    0  502  0.18337456866E+03  0.10653990002E+04 -0.80086315096E+03  0.13453932692E+04  0.25500000920E-02 0.  1.
</event>
<event>
 5   0  0.6630125E-07  0.2457121E+04  0.7818609E-02  0.8418423E-01
        1   -1    0    0  501    0  0.00000000000E+00  0.00000000000E+00  0.15273300662E+04  0.15273300662E+04  0.50400001928E-02 0. -1.
       -1   -1    0    0    0  501  0.00000000000E+00  0.00000000000E+00 -0.98823475604E+03  0.98823475605E+03  0.50400001928E-02 0.  1.
    10030    2    1    2    0    0  0.00000000000E+00  0.00000000000E+00  0.53909531015E+03  0.25155648222E+04  0.24571207991E+04 0.  0.
        4    1    3    3  502    0 -0.43092308112E+03  0.23415711327E+03  0.14227660023E+04  0.15049215812E+04  0.12699999809E+01 0. -1.
       -4    1    3    3    0  502  0.43092308112E+03 -0.23415711327E+03 -0.88367069214E+03  0.10106432410E+04  0.12699999809E+01 0.  1.
</event>
<event>
 5   0  0.6630125E-07  0.3414511E+04  0.7818609E-02  0.8134354E-01
       -1   -1    0    0    0  501  0.00000000000E+00  0.00000000000E+00  0.19997722387E+04  0.19997722387E+04  0.50400001928E-02 0. -1.
        1   -1    0    0  501    0  0.00000000000E+00  0.00000000000E+00 -0.14575262595E+04  0.14575262596E+04  0.50400001928E-02 0.  1.
    10030    2    1    2    0    0  0.00000000000E+00  0.00000000000E+00  0.54224597912E+03  0.34572984982E+04  0.34145105365E+04 0.  0.
        1    1    3    3  502    0  0.14610188298E+04 -0.74309760220E+03 -0.21230153556E+03  0.16528284876E+04  0.50400001928E-02 0.  1.
       -1    1    3    3    0  502 -0.14610188298E+04  0.74309760220E+03  0.75454751468E+03  0.18044700106E+04  0.50400001928E-02 0. -1.
</event>
<event>
 5   0  0.6630125E-07  0.3310942E+04  0.7818609E-02  0.8160117E-01
        1   -1    0    0  501    0  0.00000000000E+00  0.00000000000E+00  0.14330207165E+04  0.14330207165E+04  0.50400001928E-02 0. -1.
       -1   -1    0    0    0  501  0.00000000000E+00  0.00000000000E+00 -0.19124522523E+04  0.19124522523E+04  0.50400001928E-02 0.  1.
    10030    2    1    2    0    0  0.00000000000E+00  0.00000000000E+00 -0.47943153576E+03  0.33454729688E+04  0.33109416768E+04 0.  0.
        1    1    3    3  502    0  0.94722852028E+03 -0.11131022196E+04  0.54578852043E+03  0.15601677891E+04  0.50400001928E-02 0. -1.
       -1    1    3    3    0  502 -0.94722852028E+03  0.11131022196E+04 -0.10252200562E+04  0.17853051797E+04  0.50400001928E-02 0.  1.
</event>
<event>
 5   0  0.6630125E-07  0.2205765E+04  0.7818609E-02  0.8516033E-01
       -1   -1    0    0    0  501  0.00000000000E+00  0.00000000000E+00  0.61761726078E+03  0.61761726080E+03  0.50400001928E-02 0.  1.
        1   -1    0    0  501    0  0.00000000000E+00  0.00000000000E+00 -0.19694227952E+04  0.19694227952E+04  0.50400001928E-02 0. -1.
    10030    2    1    2    0    0  0.00000000000E+00  0.00000000000E+00 -0.13518055344E+04  0.25870400560E+04  0.22057647310E+04 0.  0.
        5    1    3    3  502    0  0.10262138527E+04  0.51558776430E+02 -0.20594929930E+03  0.10479553343E+04  0.46999998093E+01 0.  1.
       -5    1    3    3    0  502 -0.10262138527E+04 -0.51558776430E+02 -0.11458562351E+04  0.15390847217E+04  0.46999998093E+01 0. -1.
</event>
<event>
 5   0  0.1999883E-06  0.3440033E+04  0.7818609E-02  0.8128150E-01
        2   -1    0    0  501    0  0.00000000000E+00  0.00000000000E+00  0.26487437881E+04  0.26487437881E+04  0.25500000920E-02 0.  1.
       -2   -1    0    0    0  501  0.00000000000E+00  0.00000000000E+00 -0.11169280111E+04  0.11169280111E+04  0.25500000920E-02 0. -1.
    10030    2    1    2    0    0  0.00000000000E+00  0.00000000000E+00  0.15318157771E+04  0.37656717992E+04  0.34400326342E+04 0.  0.
        4    1    3    3  502    0  0.27317391270E+03 -0.70100621187E+03  0.24590705797E+04  0.25715877244E+04  0.12699999809E+01 0.  1.
       -4    1    3    3    0  502 -0.27317391270E+03  0.70100621187E+03 -0.92725480263E+03  0.11940840747E+04  0.12699999809E+01 0. -1.
</event>
<event>
 5   0  0.2020725E-06  0.3460182E+04  0.7818609E-02  0.8123292E-01
        2   -1    0    0  501    0  0.00000000000E+00  0.00000000000E+00  0.21632093700E+04  0.21632093700E+04  0.25500000920E-02 0.  1.
       -2   -1    0    0    0  501  0.00000000000E+00  0.00000000000E+00 -0.13836915922E+04  0.13836915922E+04  0.25500000920E-02 0. -1.
    10030    2    1    2    0    0  0.00000000000E+00  0.00000000000E+00  0.77951777776E+03  0.35469009622E+04  0.34601818550E+04 0.  0.
        3    1    3    3  502    0 -0.14409916036E+04 -0.39130538150E+03 -0.50600567143E+03  0.15765844262E+04  0.10100000352E+00 0. -1.
       -3    1    3    3    0  502  0.14409916036E+04  0.39130538150E+03  0.12855234492E+04  0.19703165360E+04  0.10100000352E+00 0.  1.
</event>
<event>
 5   0  0.2073287E-06  0.3507973E+04  0.7818609E-02  0.8111903E-01
       -2   -1    0    0    0  501  0.00000000000E+00  0.00000000000E+00  0.17088168144E+04  0.17088168144E+04  0.25500000920E-02 0. -1.
        2   -1    0    0  501    0  0.00000000000E+00  0.00000000000E+00 -0.18003496846E+04  0.18003496846E+04  0.25500000920E-02 0.  1.
    10030    2    1    2    0    0  0.00000000000E+00  0.00000000000E+00 -0.91532870219E+02  0.35091664990E+04  0.35079725272E+04 0.  0.
        1    1    3    3  502    0  0.80655576571E+03 -0.15527346531E+04  0.76548263860E+02  0.17513928009E+04  0.50400001928E-02 0.  1.
       -1    1    3    3    0  502 -0.80655576571E+03  0.15527346531E+04 -0.16808113408E+03  0.17577736982E+04  0.50400001928E-02 0. -1.
</event>
<event>
 5   0  0.2020725E-06  0.3491279E+04  0.7818609E-02  0.8115860E-01
        2   -1    0    0  501    0  0.00000000000E+00  0.00000000000E+00  0.10119541377E+04  0.10119541377E+04  0.25500000920E-02 0. -1.
       -2   -1    0    0    0  501  0.00000000000E+00  0.00000000000E+00 -0.30112599176E+04  0.30112599176E+04  0.25500000920E-02 0.  1.
    10030    2    1    2    0    0  0.00000000000E+00  0.00000000000E+00 -0.19993057799E+04  0.40232140552E+04  0.34912788105E+04 0.  0.
        3    1    3    3  502    0  0.15213988944E+04  0.37936905698E+03 -0.18838086511E+04  0.24509815425E+04  0.10100000352E+00 0.  1.
       -3    1    3    3    0  502 -0.15213988944E+04 -0.37936905698E+03 -0.11549712875E+03  0.15722325128E+04  0.10100000352E+00 0. -1.
</event>
<event>
 5   0  0.2023479E-06  0.3483244E+04  0.7818609E-02  0.8117772E-01
        2   -1    0    0  501    0  0.00000000000E+00  0.00000000000E+00  0.12817551418E+04  0.12817551418E+04  0.25500000920E-02 0. -1.
       -2   -1    0    0    0  501  0.00000000000E+00  0.00000000000E+00 -0.23664792676E+04  0.23664792676E+04  0.25500000920E-02 0.  1.
    10030    2    1    2    0    0  0.00000000000E+00  0.00000000000E+00 -0.10847241259E+04  0.36482344094E+04  0.34832438727E+04 0.  0.
        5    1    3    3  502    0 -0.12872542806E+03  0.11305964931E+04 -0.19233010348E+04  0.22347097410E+04  0.46999998093E+01 0.  1.
       -5    1    3    3    0  502  0.12872542806E+03 -0.11305964931E+04  0.83857690894E+03  0.14135246684E+04  0.46999998093E+01 0. -1.
</event>
<event>
 5   0  0.2023479E-06  0.3075080E+04  0.7818609E-02  0.8222610E-01
       -2   -1    0    0    0  501  0.00000000000E+00  0.00000000000E+00  0.94346834459E+03  0.94346834460E+03  0.25500000920E-02 0.  1.
        2   -1    0    0  501    0  0.00000000000E+00  0.00000000000E+00 -0.25056791515E+04  0.25056791515E+04  0.25500000920E-02 0. -1.
    10030    2    1    2    0    0  0.00000000000E+00  0.00000000000E+00 -0.15622108069E+04  0.34491474961E+04  0.30750798111E+04 0.  0.
        5    1    3    3  502    0 -0.13519817381E+03  0.15315760072E+04 -0.77908054149E+03  0.17236566341E+04  0.46999998093E+01 0.  1.
       -5    1    3    3    0  502  0.13519817381E+03 -0.15315760072E+04 -0.78313026538E+03  0.17254908620E+04  0.46999998093E+01 0. -1.
</event>
<event>
 5   0  0.6630125E-07  0.3589439E+04  0.7818609E-02  0.8092915E-01
       -1   -1    0    0    0  501  0.00000000000E+00  0.00000000000E+00  0.13862568692E+04  0.13862568692E+04  0.50400001928E-02 0. -1.
        1   -1    0    0  501    0  0.00000000000E+00  0.00000000000E+00 -0.23235362937E+04  0.23235362937E+04  0.50400001928E-02 0.  1.
    10030    2    1    2    0    0  0.00000000000E+00  0.00000000000E+00 -0.93727942448E+03  0.37097931629E+04  0.35894390358E+04 0.  0.
        1    1    3    3  502    0 -0.38084068115E+03  0.12822329858E+04 -0.17053641788E+04  0.21673550785E+04  0.50400001928E-02 0.  1.
       -1    1    3    3    0  502  0.38084068115E+03 -0.12822329858E+04  0.76808475430E+03  0.15424380843E+04  0.50400001928E-02 0. -1.
</event>
<event>
 5   0  0.1999883E-06  0.3482079E+04  0.7818609E-02  0.8118050E-01
        2   -1    0    0  501    0  0.00000000000E+00  0.00000000000E+00  0.22861145453E+04  0.22861145453E+04  0.25500000920E-02 0.  1.
       -2   -1    0    0    0  501  0.00000000000E+00  0.00000000000E+00 -0.13259260287E+04  0.13259260287E+04  0.25500000920E-02 0. -1.
    10030    2    1    2    0    0  0.00000000000E+00  0.00000000000E+00  0.96018851653E+03  0.36120405740E+04  0.34820791376E+04 0.  0.
        4    1    3    3  502    0 -0.10112864226E+04  0.13602148600E+04  0.67332949418E+02  0.16962959745E+04  0.12699999809E+01 0.  1.
       -4    1    3    3    0  502  0.10112864226E+04 -0.13602148600E+04  0.89285556711E+03  0.19157445995E+04  0.12699999809E+01 0. -1.
</event>
<event>
 5   0  0.6890600E-07  0.2361096E+04  0.7818609E-02  0.8454214E-01
        1   -1    0    0  501    0  0.00000000000E+00  0.00000000000E+00  0.10648446821E+04  0.10648446821E+04  0.50400001928E-02 0.  1.
       -1   -1    0    0    0  501  0.00000000000E+00  0.00000000000E+00 -0.13088228750E+04  0.13088228750E+04  0.50400001928E-02 0. -1.
    10030    2    1    2    0    0  0.00000000000E+00  0.00000000000E+00 -0.24397819290E+03  0.23736675572E+04  0.23610955748E+04 0.  0.
        3    1    3    3  502    0  0.10391175639E+04 -0.47399903082E+03  0.17835351195E+03  0.11559629658E+04  0.10100000352E+00 0.  1.
       -3    1    3    3    0  502 -0.10391175639E+04  0.47399903082E+03 -0.42233170485E+03  0.12177045914E+04  0.10100000352E+00 0. -1.
</event>
<event>
 5   0  0.7378896E-07  0.3465411E+04  0.7818609E-02  0.8122036E-01
       -1   -1    0    0    0  501  0.00000000000E+00  0.00000000000E+00  0.18063729820E+04  0.18063729820E+04  0.50400001928E-02 0. -1.
        1   -1    0    0  501    0  0.00000000000E+00  0.00000000000E+00 -0.16620425645E+04  0.16620425645E+04  0.50400001928E-02 0.  1.
    10030    2    1    2    0    0  0.00000000000E+00  0.00000000000E+00  0.14433041750E+03  0.34684155464E+04  0.34654112503E+04 0.  0.
        2    1    3    3  502    0 -0.85797922496E+02  0.11300475057E+04 -0.12396579696E+04  0.16796191622E+04  0.25500000920E-02 0.  1.
       -2    1    3    3    0  502  0.85797922496E+02 -0.11300475057E+04  0.13839883871E+04  0.17887963842E+04  0.25500000920E-02 0. -1.
</event>
<event>
 5   0  0.6630125E-07  0.3284150E+04  0.7818609E-02  0.8166940E-01
       -1   -1    0    0    0  501  0.00000000000E+00  0.00000000000E+00  0.26330582269E+04  0.26330582269E+04  0.50400001928E-02 0.  1.
        1   -1    0    0  501    0  0.00000000000E+00  0.00000000000E+00 -0.10240602415E+04  0.10240602415E+04  0.50400001928E-02 0. -1.
    10030    2    1    2    0    0  0.00000000000E+00  0.00000000000E+00  0.16089979854E+04  0.36571184684E+04  0.32841499623E+04 0.  0.
        4    1    3    3  502    0 -0.31308906753E+03 -0.10502389572E+04 -0.55723451305E+03  0.12294464392E+04  0.12699999809E+01 0. -1.
       -4    1    3    3    0  502  0.31308906753E+03  0.10502389572E+04  0.21662324984E+04  0.24276720292E+04  0.12699999809E+01 0.  1.
</event>
<event>
 5   0  0.1999883E-06  0.3490419E+04  0.7818609E-02  0.8116064E-01
       -2   -1    0    0    0  501  0.00000000000E+00  0.00000000000E+00  0.14037032942E+04  0.14037032942E+04  0.25500000920E-02 0.  1.
        2   -1    0    0  501    0  0.00000000000E+00  0.00000000000E+00 -0.21698009508E+04  0.21698009508E+04  0.25500000920E-02 0. -1.
    10030    2    1    2    0    0  0.00000000000E+00  0.00000000000E+00 -0.76609765664E+03  0.35735042450E+04  0.34904193114E+04 0.  0.
        4    1    3    3  502    0  0.82425922062E+03  0.13003728087E+04  0.45832999505E+03  0.16063750190E+04  0.12699999809E+01 0.  1.
       -4    1    3    3    0  502 -0.82425922062E+03 -0.13003728087E+04 -0.12244276517E+04  0.19671292259E+04  0.12699999809E+01 0. -1.
</event>
<event>
 5   0  0.6630125E-07  0.3473148E+04  0.7818609E-02  0.8120183E-01
        1   -1    0    0  501    0  0.00000000000E+00  0.00000000000E+00  0.29943475037E+04  0.29943475037E+04  0.50400001928E-02 0.  1.
       -1   -1    0    0    0  501  0.00000000000E+00  0.00000000000E+00 -0.10071271807E+04  0.10071271807E+04  0.50400001928E-02 0. -1.
    10030    2    1    2    0    0  0.00000000000E+00  0.00000000000E+00  0.19872203230E+04  0.40014746844E+04  0.34731477132E+04 0.  0.
        5    1    3    3  502    0  0.19024537828E+03  0.71413863071E+03 -0.81689397586E+03  0.11016011736E+04  0.46999998093E+01 0. -1.
       -5    1    3    3    0  502 -0.19024537828E+03 -0.71413863071E+03  0.28041142989E+04  0.28998735108E+04  0.46999998093E+01 0.  1.
</event>
<event>
 5   0  0.6630125E-07  0.3478215E+04  0.7818609E-02  0.8118972E-01
        1   -1    0    0  501    0  0.00000000000E+00  0.00000000000E+00  0.21576353035E+04  0.21576353035E+04  0.50400001928E-02 0.  1.
       -1   -1    0    0    0  501  0.00000000000E+00  0.00000000000E+00 -0.14017634965E+04  0.14017634965E+04  0.50400001928E-02 0. -1.
    10030    2    1    2    0    0  0.00000000000E+00  0.00000000000E+00  0.75587180697E+03  0.35593988000E+04  0.34782147186E+04 0.  0.
        5    1    3    3  502    0 -0.29840392767E+03  0.17070827771E+04  0.52727285886E+03  0.18114125068E+04  0.46999998093E+01 0.  1.
       -5    1    3    3    0  502  0.29840392767E+03 -0.17070827771E+04  0.22859894811E+03  0.17479862932E+04  0.46999998093E+01 0. -1.
</event>
<event>
 5   0  0.6630125E-07  0.3575123E+04  0.7818609E-02  0.8096214E-01
       -1   -1    0    0    0  501  0.00000000000E+00  0.00000000000E+00  0.14289902324E+04  0.14289902324E+04  0.50400001928E-02 0. -1.
        1   -1    0    0  501    0  0.00000000000E+00  0.00000000000E+00 -0.22361074180E+04  0.22361074180E+04  0.50400001928E-02 0.  1.
    10030    2    1    2    0    0  0.00000000000E+00  0.00000000000E+00 -0.80711718563E+03  0.36650976504E+04  0.35751227442E+04 0.  0.
        5    1    3    3  502    0 -0.87334257910E+03  0.15588372792E+04 -0.35075855968E+03  0.18209213549E+04  0.46999998093E+01 0. -1.
       -5    1    3    3    0  502  0.87334257910E+03 -0.15588372792E+04 -0.45635862596E+03  0.18441762955E+04  0.46999998093E+01 0.  1.
</event>
<event>
 5   0  0.2023479E-06  0.3487471E+04  0.7818609E-02  0.8116766E-01
        2   -1    0    0  501    0  0.00000000000E+00  0.00000000000E+00  0.22046275327E+04  0.22046275327E+04  0.25500000920E-02 0.  1.
       -2   -1    0    0    0  501  0.00000000000E+00  0.00000000000E+00 -0.13791959327E+04  0.13791959327E+04  0.25500000920E-02 0. -1.
    10030    2    1    2    0    0  0.00000000000E+00  0.00000000000E+00  0.82543159998E+03  0.35838234654E+04  0.34874709038E+04 0.  0.
        5    1    3    3  502    0  0.55098606155E+03  0.12518448629E+04 -0.69878181897E+03  0.15359099327E+04  0.46999998093E+01 0. -1.
       -5    1    3    3    0  502 -0.55098606155E+03 -0.12518448629E+04  0.15242134189E+04  0.20479135327E+04  0.46999998093E+01 0.  1.
</event>
<event>
 5   0  0.2073287E-06  0.3519306E+04  0.7818609E-02  0.8109230E-01
        2   -1    0    0  501    0  0.00000000000E+00  0.00000000000E+00  0.25788679051E+04  0.25788679051E+04  0.25500000920E-02 0. -1.
       -2   -1    0    0    0  501  0.00000000000E+00  0.00000000000E+00 -0.12006732859E+04  0.12006732859E+04  0.25500000920E-02 0.  1.
    10030    2    1    2    0    0  0.00000000000E+00  0.00000000000E+00  0.13781946192E+04  0.37795411910E+04  0.35193055006E+04 0.  0.
        1    1    3    3  502    0  0.15080835335E+04  0.89638026420E+03  0.54277142336E+03  0.18364134448E+04  0.50400001928E-02 0.  1.
       -1    1    3    3    0  502 -0.15080835335E+04 -0.89638026420E+03  0.83542319580E+03  0.19431277462E+04  0.50400001928E-02 0. -1.
</event>
<event>
 5   0  0.7378896E-07  0.3227942E+04  0.7818609E-02  0.8181477E-01
       -1   -1    0    0    0  501  0.00000000000E+00  0.00000000000E+00  0.10060176736E+04  0.10060176736E+04  0.50400001928E-02 0.  1.
        1   -1    0    0  501    0  0.00000000000E+00  0.00000000000E+00 -0.25893203153E+04  0.25893203153E+04  0.50400001928E-02 0. -1.
    10030    2    1    2    0    0  0.00000000000E+00  0.00000000000E+00 -0.15833026417E+04  0.35953379889E+04  0.32279417589E+04 0.  0.
        2    1    3    3  502    0  0.49184112732E+03  0.13923049707E+04 -0.15173281398E+04  0.21172400690E+04  0.25500000920E-02 0. -1.
       -2    1    3    3    0  502 -0.49184112732E+03 -0.13923049707E+04 -0.65974501900E+02  0.14780979199E+04  0.25500000920E-02 0.  1.
</event>
<event>
 5   0  0.2023479E-06  0.3514831E+04  0.7818609E-02  0.8110284E-01
        2   -1    0    0  501    0  0.00000000000E+00  0.00000000000E+00  0.24644433019E+04  0.24644433019E+04  0.25500000920E-02 0.  1.
       -2   -1    0    0    0  501  0.00000000000E+00  0.00000000000E+00 -0.12532282985E+04  0.12532282985E+04  0.25500000920E-02 0. -1.
    10030    2    1    2    0    0  0.00000000000E+00  0.00000000000E+00  0.12112150034E+04  0.37176716004E+04  0.35148314815E+04 0.  0.
        5    1    3    3  502    0 -0.60707173818E+03  0.90111828215E+03  0.20666021187E+04  0.23348269017E+04  0.46999998093E+01 0.  1.
       -5    1    3    3    0  502  0.60707173818E+03 -0.90111828215E+03 -0.85538711527E+03  0.13828446987E+04  0.46999998093E+01 0. -1.
</event>
<event>
 5   0  0.2073287E-06  0.2902587E+04  0.7818609E-02  0.8272108E-01
        2   -1    0    0  501    0  0.00000000000E+00  0.00000000000E+00  0.20513392319E+04  0.20513392319E+04  0.25500000920E-02 0.  1.
       -2   -1    0    0    0  501  0.00000000000E+00  0.00000000000E+00 -0.10267695893E+04  0.10267695893E+04  0.25500000920E-02 0. -1.
    10030    2    1    2    0    0  0.00000000000E+00  0.00000000000E+00  0.10245696426E+04  0.30781088213E+04  0.29025869432E+04 0.  0.
        1    1    3    3  502    0  0.69657681254E+03  0.36592844633E+02 -0.83734690559E+03  0.10898202294E+04  0.50400001928E-02 0. -1.
       -1    1    3    3    0  502 -0.69657681254E+03 -0.36592844633E+02  0.18619165482E+04  0.19882885919E+04  0.50400001928E-02 0.  1.
</event>
<event>
 5   0  0.6630125E-07  0.3492654E+04  0.7818609E-02  0.8115533E-01
       -3   -1    0    0    0  501  0.00000000000E+00  0.00000000000E+00  0.16096498843E+04  0.16096498875E+04  0.10100000352E+00 0.  1.
        3   -1    0    0  501    0  0.00000000000E+00  0.00000000000E+00 -0.18946099336E+04  0.18946099363E+04  0.10100000352E+00 0. -1.
    10030    2    1    2    0    0  0.00000000000E+00  0.00000000000E+00 -0.28496004926E+03  0.35042598237E+04  0.34926543892E+04 0.  0.
        5    1    3    3  502    0  0.10505245832E+04  0.12611535138E+04 -0.74072171176E+03  0.18007778402E+04  0.46999998093E+01 0. -1.
       -5    1    3    3    0  502 -0.10505245832E+04 -0.12611535138E+04  0.45576166250E+03  0.17034819836E+04  0.46999998093E+01 0.  1.
</event>
<event>
 5   0  0.2073287E-06  0.3427093E+04  0.7818609E-02  0.8131289E-01
        2   -1    0    0  501    0  0.00000000000E+00  0.00000000000E+00  0.13954727400E+04  0.13954727400E+04  0.25500000920E-02 0.  1.
       -2   -1    0    0    0  501  0.00000000000E+00  0.00000000000E+00 -0.21041200028E+04  0.21041200028E+04  0.25500000920E-02 0. -1.
    10030    2    1    2    0    0  0.00000000000E+00  0.00000000000E+00 -0.70864726282E+03  0.34995927427E+04  0.34270932905E+04 0.  0.
        1    1    3    3  502    0 -0.61496971014E+03 -0.12578432823E+04 -0.13630905263E+04  0.19540658254E+04  0.50400001928E-02 0. -1.
       -1    1    3    3    0  502  0.61496971014E+03  0.12578432823E+04  0.65444326345E+03  0.15455269173E+04  0.50400001928E-02 0.  1.
</event>
<event>
 5   0  0.2020725E-06  0.3441583E+04  0.7818609E-02  0.8127775E-01
        2   -1    0    0  501    0  0.00000000000E+00  0.00000000000E+00  0.18138989007E+04  0.18138989007E+04  0.25500000920E-02 0. -1.
       -2   -1    0    0    0  501  0.00000000000E+00  0.00000000000E+00 -0.16324631887E+04  0.16324631887E+04  0.25500000920E-02 0.  1.
    10030    2    1    2    0    0  0.00000000000E+00  0.00000000000E+00  0.18143571204E+03  0.34463620894E+04  0.34415828820E+04 0.  0.
        3    1    3    3  502    0 -0.28792726363E+03  0.17969015257E+03 -0.15986139935E+04  0.16342451990E+04  0.10100000352E+00 0.  1.
       -3    1    3    3    0  502  0.28792726363E+03 -0.17969015257E+03  0.17800497055E+04  0.18121168904E+04  0.10100000352E+00 0. -1.
</event>
<event>
 5   0  0.6630125E-07  0.3513966E+04  0.7818609E-02  0.8110488E-01
       -1   -1    0    0    0  501  0.00000000000E+00  0.00000000000E+00  0.12868715632E+04  0.12868715632E+04  0.50400001928E-02 0.  1.
        1   -1    0    0  501    0  0.00000000000E+00  0.00000000000E+00 -0.23988328138E+04  0.23988328138E+04  0.50400001928E-02 0. -1.
    10030    2    1    2    0    0  0.00000000000E+00  0.00000000000E+00 -0.11119612506E+04  0.36857043770E+04  0.35139662679E+04 0.  0.
        4    1    3    3  502    0  0.15731346690E+04  0.33597373979E+03 -0.12971688582E+04  0.20664655091E+04  0.12699999809E+01 0. -1.
       -4    1    3    3    0  502 -0.15731346690E+04 -0.33597373979E+03  0.18520760759E+03  0.16192388679E+04  0.12699999809E+01 0.  1.
</event>
<event>
 5   0  0.6630125E-07  0.3522809E+04  0.7818609E-02  0.8108406E-01
        1   -1    0    0  501    0  0.00000000000E+00  0.00000000000E+00  0.16991164326E+04  0.16991164326E+04  0.50400001928E-02 0. -1.
       -1   -1    0    0    0  501  0.00000000000E+00  0.00000000000E+00 -0.18259762116E+04  0.18259762116E+04  0.50400001928E-02 0.  1.
    10030    2    1    2    0    0  0.00000000000E+00  0.00000000000E+00 -0.12685977905E+03  0.35250926442E+04  0.35228092124E+04 0.  0.
        4    1    3    3  502    0  0.99545220948E+03  0.58600296728E+03  0.12671763651E+04  0.17146609379E+04  0.12699999809E+01 0. -1.
       -4    1    3    3    0  502 -0.99545220948E+03 -0.58600296728E+03 -0.13940361441E+04  0.18104317063E+04  0.12699999809E+01 0.  1.
</event>
<event>
 5   0  0.6630125E-07  0.3512239E+04  0.7818609E-02  0.8110896E-01
        1   -1    0    0  501    0  0.00000000000E+00  0.00000000000E+00  0.19576359086E+04  0.19576359086E+04  0.50400001928E-02 0.  1.
       -1   -1    0    0    0  501  0.00000000000E+00  0.00000000000E+00 -0.15753470895E+04  0.15753470895E+04  0.50400001928E-02 0. -1.
    10030    2    1    2    0    0  0.00000000000E+00  0.00000000000E+00  0.38228881908E+03  0.35329829981E+04  0.35122391894E+04 0.  0.
        1    1    3    3  502    0  0.94951533721E+03 -0.82248192708E+03 -0.10432545561E+04  0.16329225226E+04  0.50400001928E-02 0. -1.
       -1    1    3    3    0  502 -0.94951533721E+03  0.82248192708E+03  0.14255433752E+04  0.19000604755E+04  0.50400001928E-02 0.  1.
</event>
<event>
 5   0  0.2023479E-06  0.3538308E+04  0.7818609E-02  0.8104771E-01
        2   -1    0    0  501    0  0.00000000000E+00  0.00000000000E+00  0.25851271923E+04  0.25851271923E+04  0.25500000920E-02 0.  1.
       -2   -1    0    0    0  501  0.00000000000E+00  0.00000000000E+00 -0.12107355881E+04  0.12107355881E+04  0.25500000920E-02 0. -1.
    10030    2    1    2    0    0  0.00000000000E+00  0.00000000000E+00  0.13743916043E+04  0.37958627804E+04  0.35383077828E+04 0.  0.
        5    1    3    3  502    0 -0.12831135617E+04 -0.27340488780E+03 -0.58610873356E+03  0.14368981114E+04  0.46999998093E+01 0. -1.
       -5    1    3    3    0  502  0.12831135617E+04  0.27340488780E+03  0.19605003378E+04  0.23589646690E+04  0.46999998093E+01 0.  1.
</event>
<event>
 5   0  0.6630125E-07  0.3372459E+04  0.7818609E-02  0.8144699E-01
        1   -1    0    0  501    0  0.00000000000E+00  0.00000000000E+00  0.30027846820E+04  0.30027846820E+04  0.50400001928E-02 0.  1.
       -1   -1    0    0    0  501  0.00000000000E+00  0.00000000000E+00 -0.94691127400E+03  0.94691127401E+03  0.50400001928E-02 0. -1.
    10030    2    1    2    0    0  0.00000000000E+00  0.00000000000E+00  0.20558734080E+04  0.39496959560E+04  0.33724594401E+04 0.  0.
        1    1    3    3  502    0  0.43552433026E+03 -0.75805160051E+03 -0.66074999834E+03  0.10958623233E+04  0.50400001928E-02 0. -1.
       -1    1    3    3    0  502 -0.43552433026E+03  0.75805160051E+03  0.27166234063E+04  0.28538336327E+04  0.50400001928E-02 0.  1.
</event>
<event>
 5   0  0.2023479E-06  0.3000950E+04  0.7818609E-02  0.8243460E-01
        2   -1    0    0  501    0  0.00000000000E+00  0.00000000000E+00  0.20850930460E+04  0.20850930460E+04  0.25500000920E-02 0. -1.
       -2   -1    0    0    0  501  0.00000000000E+00  0.00000000000E+00 -0.10797720259E+04  0.10797720259E+04  0.25500000920E-02 0.  1.
    10030    2    1    2    0    0  0.00000000000E+00  0.00000000000E+00  0.10053210201E+04  0.31648650719E+04  0.30009499446E+04 0.  0.
        5    1    3    3  502    0 -0.22447871221E+03 -0.13861525443E+03  0.20604319406E+04  0.20772594332E+04  0.46999998093E+01 0. -1.
       -5    1    3    3    0  502  0.22447871221E+03  0.13861525443E+03 -0.10551109205E+04  0.10876056388E+04  0.46999998093E+01 0.  1.
</event>
<event>
 5   0  0.2073287E-06  0.3462452E+04  0.7818609E-02  0.8122746E-01
       -2   -1    0    0    0  501  0.00000000000E+00  0.00000000000E+00  0.14219275123E+04  0.14219275123E+04  0.25500000920E-02 0.  1.
        2   -1    0    0  501    0  0.00000000000E+00  0.00000000000E+00 -0.21078036758E+04  0.21078036758E+04  0.25500000920E-02 0. -1.
    10030    2    1    2    0    0  0.00000000000E+00  0.00000000000E+00 -0.68587616354E+03  0.35297311881E+04  0.34624523316E+04 0.  0.
        1    1    3    3  502    0  0.13632878226E+04  0.10019202713E+04 -0.71714857645E+03  0.18375799297E+04  0.50400001928E-02 0. -1.
       -1    1    3    3    0  502 -0.13632878226E+04 -0.10019202713E+04  0.31272412910E+02  0.16921512584E+04  0.50400001928E-02 0.  1.
</event>
<event>
 5   0  0.1999883E-06  0.3632388E+04  0.7818609E-02  0.8083113E-01
       -2   -1    0    0    0  501  0.00000000000E+00  0.00000000000E+00  0.11669978832E+04  0.11669978832E+04  0.25500000920E-02 0.  1.
        2   -1    0    0  501    0  0.00000000000E+00  0.00000000000E+00 -0.28265354149E+04  0.28265354149E+04  0.25500000920E-02 0. -1.
    10030    2    1    2    0    0  0.00000000000E+00  0.00000000000E+00 -0.16595375317E+04  0.39935332982E+04  0.36323881104E+04 0.  0.
        4    1    3    3  502    0  0.82682210530E+03 -0.15194844406E+04 -0.14380307595E+04  0.22495336932E+04  0.12699999809E+01 0. -1.
       -4    1    3    3    0  502 -0.82682210530E+03  0.15194844406E+04 -0.22150677224E+03  0.17439996049E+04  0.12699999809E+01 0.  1.
</event>
<event>
 5   0  0.2023479E-06  0.3512388E+04  0.7818609E-02  0.8110860E-01
        2   -1    0    0  501    0  0.00000000000E+00  0.00000000000E+00  0.25803536374E+04  0.25803536374E+04  0.25500000920E-02 0.  1.
       -2   -1    0    0    0  501  0.00000000000E+00  0.00000000000E+00 -0.11952694759E+04  0.11952694759E+04  0.25500000920E-02 0. -1.
    10030    2    1    2    0    0  0.00000000000E+00  0.00000000000E+00  0.13850841615E+04  0.37756231133E+04  0.35123883269E+04 0.  0.
        5    1    3    3  502    0  0.84040446050E+03 -0.15592356277E+02 -0.96499090729E+03  0.12797469750E+04  0.46999998093E+01 0. -1.
       -5    1    3    3    0  502 -0.84040446050E+03  0.15592356277E+02  0.23500750688E+04  0.24958761383E+04  0.46999998093E+01 0.  1.
</event>
<event>
 5   0  0.6630125E-07  0.3547080E+04  0.7818609E-02  0.8102722E-01
        1   -1    0    0  501    0  0.00000000000E+00  0.00000000000E+00  0.16149419914E+04  0.16149419914E+04  0.50400001928E-02 0. -1.
       -1   -1    0    0    0  501  0.00000000000E+00  0.00000000000E+00 -0.19477134519E+04  0.19477134519E+04  0.50400001928E-02 0.  1.
    10030    2    1    2    0    0  0.00000000000E+00  0.00000000000E+00 -0.33277146048E+03  0.35626554433E+04  0.35470800615E+04 0.  0.
        4    1    3    3  502    0 -0.10647773072E+03 -0.17132504207E+04 -0.61430147703E+03  0.18231654968E+04  0.12699999809E+01 0.  1.
       -4    1    3    3    0  502  0.10647773072E+03  0.17132504207E+04  0.28153001655E+03  0.17394899466E+04  0.12699999809E+01 0. -1.
</event>
<event>
 5   0  0.2073287E-06  0.3527670E+04  0.7818609E-02  0.8107264E-01
        2   -1    0    0  501    0  0.00000000000E+00  0.00000000000E+00  0.26781675529E+04  0.26781675529E+04  0.25500000920E-02 0. -1.
       -2   -1    0    0    0  501  0.00000000000E+00  0.00000000000E+00 -0.11616579350E+04  0.11616579350E+04  0.25500000920E-02 0.  1.
    10030    2    1    2    0    0  0.00000000000E+00  0.00000000000E+00  0.15165096179E+04  0.38398254879E+04  0.35276703866E+04 0.  0.
        1    1    3    3  502    0 -0.61989555106E+03  0.15948130312E+04  0.12244217730E+04  0.21040218101E+04  0.50400001928E-02 0.  1.
       -1    1    3    3    0  502  0.61989555106E+03 -0.15948130312E+04  0.29208784486E+03  0.17358036778E+04  0.50400001928E-02 0. -1.
</event>
<event>
 5   0  0.6630125E-07  0.3494237E+04  0.7818609E-02  0.8115157E-01
       -1   -1    0    0    0  501  0.00000000000E+00  0.00000000000E+00  0.14566189292E+04  0.14566189292E+04  0.50400001928E-02 0. -1.
        1   -1    0    0  501    0  0.00000000000E+00  0.00000000000E+00 -0.20955535735E+04  0.20955535735E+04  0.50400001928E-02 0.  1.
    10030    2    1    2    0    0  0.00000000000E+00  0.00000000000E+00 -0.63893464436E+03  0.35521725027E+04  0.34942369710E+04 0.  0.
        4    1    3    3  502    0 -0.21432365592E+03 -0.16641371363E+04 -0.81450576877E+03  0.18651295660E+04  0.12699999809E+01 0.  1.
       -4    1    3    3    0  502  0.21432365592E+03  0.16641371363E+04  0.17557112441E+03  0.16870429367E+04  0.12699999809E+01 0. -1.
</event>
<event>
 5   0  0.7378896E-07  0.3543675E+04  0.7818609E-02  0.8103517E-01
        1   -1    0    0  501    0  0.00000000000E+00  0.00000000000E+00  0.10326690327E+04  0.10326690327E+04  0.50400001928E-02 0.  1.
       -1   -1    0    0    0  501  0.00000000000E+00  0.00000000000E+00 -0.30400916209E+04  0.30400916209E+04  0.50400001928E-02 0. -1.
    10030    2    1    2    0    0  0.00000000000E+00  0.00000000000E+00 -0.20074225882E+04  0.40727606536E+04  0.35436751959E+04 0.  0.
        2    1    3    3  502    0 -0.16783911075E+04 -0.47649967120E+03 -0.13586208614E+04  0.22113116677E+04  0.25500000920E-02 0. -1.
       -2    1    3    3    0  502  0.16783911075E+04  0.47649967120E+03 -0.64880172684E+03  0.18614489859E+04  0.25500000920E-02 0.  1.
</event>
<event>
 5   0  0.6630125E-07  0.2371733E+04  0.7818609E-02  0.8450163E-01
        4   -1    0    0  501    0  0.00000000000E+00  0.00000000000E+00  0.16932366110E+04  0.16932370873E+04  0.12699999809E+01 0. -1.
       -4   -1    0    0    0  501  0.00000000000E+00  0.00000000000E+00 -0.83052661985E+03  0.83052759086E+03  0.12699999809E+01 0.  1.
    10030    2    1    2    0    0  0.00000000000E+00  0.00000000000E+00  0.86270999120E+03  0.25237646782E+04  0.23717334635E+04 0.  0.
        5    1    3    3  502    0  0.24889057006E+03  0.10989841378E+03  0.16595665372E+04  0.16817274924E+04  0.46999998093E+01 0. -1.
       -5    1    3    3    0  502 -0.24889057006E+03 -0.10989841378E+03 -0.79685654605E+03  0.84203718576E+03  0.46999998093E+01 0.  1.
</event>
<event>
 5   0  0.6630125E-07  0.3530740E+04  0.7818609E-02  0.8106543E-01
       -1   -1    0    0    0  501  0.00000000000E+00  0.00000000000E+00  0.13530521704E+04  0.13530521704E+04  0.50400001928E-02 0.  1.
        1   -1    0    0  501    0  0.00000000000E+00  0.00000000000E+00 -0.23033337251E+04  0.23033337251E+04  0.50400001928E-02 0. -1.
    10030    2    1    2    0    0  0.00000000000E+00  0.00000000000E+00 -0.95028155471E+03  0.36563858955E+04  0.35307396936E+04 0.  0.
        1    1    3    3  502    0 -0.12178702025E+04  0.53160980138E+03  0.72841994710E+03  0.15153918406E+04  0.50400001928E-02 0.  1.
       -1    1    3    3    0  502  0.12178702025E+04 -0.53160980138E+03 -0.16787015018E+04  0.21409940550E+04  0.50400001928E-02 0. -1.
</event>
<event>
 5   0  0.6630125E-07  0.3507234E+04  0.7818609E-02  0.8112078E-01
        1   -1    0    0  501    0  0.00000000000E+00  0.00000000000E+00  0.30391638550E+04  0.30391638550E+04  0.50400001928E-02 0. -1.
       -1   -1    0    0    0  501  0.00000000000E+00  0.00000000000E+00 -0.10118480158E+04  0.10118480158E+04  0.50400001928E-02 0.  1.
    10030    2    1    2    0    0  0.00000000000E+00  0.00000000000E+00  0.20273158392E+04  0.40510118708E+04  0.35072336201E+04 0.  0.
        4    1    3    3  502    0 -0.16956029663E+04  0.16372961444E+03  0.53282969382E+03  0.17848769990E+04  0.12699999809E+01 0. -1.
       -4    1    3    3    0  502  0.16956029663E+04 -0.16372961444E+03  0.14944861454E+04  0.22661348719E+04  0.12699999809E+01 0.  1.
</event>
<event>
 5   0  0.1999883E-06  0.3265641E+04  0.7818609E-02  0.8171694E-01
        2   -1    0    0  501    0  0.00000000000E+00  0.00000000000E+00  0.16021824909E+04  0.16021824909E+04  0.25500000920E-02 0. -1.
       -2   -1    0    0    0  501  0.00000000000E+00  0.00000000000E+00 -0.16640439953E+04  0.16640439954E+04  0.25500000920E-02 0.  1.
    10030    2    1    2    0    0  0.00000000000E+00  0.00000000000E+00 -0.61861504403E+02  0.32662264863E+04  0.32656406131E+04 0.  0.
        4    1    3    3  502    0  0.62701365632E+03 -0.72545966372E+01  0.14769543232E+04  0.16045542808E+04  0.12699999809E+01 0. -1.
       -4    1    3    3    0  502 -0.62701365632E+03  0.72545966372E+01 -0.15388158276E+04  0.16616722055E+04  0.12699999809E+01 0.  1.
</event>
<event>
 5   0  0.2001768E-06  0.3452753E+04  0.7818609E-02  0.8125079E-01
       -2   -1    0    0    0  501  0.00000000000E+00  0.00000000000E+00  0.10500238418E+04  0.10500238418E+04  0.25500000920E-02 0. -1.
        2   -1    0    0  501    0  0.00000000000E+00  0.00000000000E+00 -0.28383891598E+04  0.28383891598E+04  0.25500000920E-02 0.  1.
    10030    2    1    2    0    0  0.00000000000E+00  0.00000000000E+00 -0.17883653180E+04  0.38884130015E+04  0.34527532724E+04 0.  0.
        2    1    3    3  502    0 -0.45287274522E+03  0.10979702245E+04 -0.23051639342E+04  0.25931473350E+04  0.25500000920E-02 0.  1.
       -2    1    3    3    0  502  0.45287274522E+03 -0.10979702245E+04  0.51679861625E+03  0.12952656666E+04  0.25500000920E-02 0. -1.
</event>
<event>
 5   0  0.6630125E-07  0.3504366E+04  0.7818609E-02  0.8112756E-01
       -1   -1    0    0    0  501  0.00000000000E+00  0.00000000000E+00  0.19121312183E+04  0.19121312183E+04  0.50400001928E-02 0. -1.
        1   -1    0    0  501    0  0.00000000000E+00  0.00000000000E+00 -0.16056146952E+04  0.16056146952E+04  0.50400001928E-02 0.  1.
    10030    2    1    2    0    0  0.00000000000E+00  0.00000000000E+00  0.30651652313E+03  0.35177459135E+04  0.35043664096E+04 0.  0.
        5    1    3    3  502    0 -0.14207384499E+03 -0.53916638868E+03 -0.15141793007E+04  0.16135818593E+04  0.46999998093E+01 0.  1.
       -5    1    3    3    0  502  0.14207384499E+03  0.53916638868E+03  0.18206958238E+04  0.19041640541E+04  0.46999998093E+01 0. -1.
</event>
<event>
 5   0  0.2001768E-06  0.2533178E+04  0.7818609E-02  0.8391260E-01
        2   -1    0    0  501    0  0.00000000000E+00  0.00000000000E+00  0.12963468692E+04  0.12963468692E+04  0.25500000920E-02 0.  1.
       -2   -1    0    0    0  501  0.00000000000E+00  0.00000000000E+00 -0.12375146109E+04  0.12375146109E+04  0.25500000920E-02 0. -1.
    10030    2    1    2    0    0  0.00000000000E+00  0.00000000000E+00  0.58832258292E+02  0.25338614800E+04  0.25331783919E+04 0.  0.
        2    1    3    3  502    0  0.30419815114E+03 -0.34983078343E+03 -0.11496001914E+04  0.12395558447E+04  0.25500000920E-02 0. -1.
       -2    1    3    3    0  502 -0.30419815114E+03  0.34983078343E+03  0.12084324497E+04  0.12943056353E+04  0.25500000920E-02 0.  1.
</event>
<event>
 5   0  0.6630125E-07  0.3326782E+04  0.7818609E-02  0.8156114E-01
       -1   -1    0    0    0  501  0.00000000000E+00  0.00000000000E+00  0.14555295077E+04  0.14555295077E+04  0.50400001928E-02 0. -1.
        1   -1    0    0  501    0  0.00000000000E+00  0.00000000000E+00 -0.19009366911E+04  0.19009366911E+04  0.50400001928E-02 0.  1.
    10030    2    1    2    0    0  0.00000000000E+00  0.00000000000E+00 -0.44540718338E+03  0.33564661988E+04  0.33267818962E+04 0.  0.
        5    1    3    3  502    0  0.13052628145E+04 -0.99846818188E+03 -0.48228834010E+03  0.17126803141E+04  0.46999998093E+01 0.  1.
       -5    1    3    3    0  502 -0.13052628145E+04  0.99846818188E+03  0.36881156718E+02  0.16437858848E+04  0.46999998093E+01 0. -1.
</event>
<event>
 5   0  0.2073287E-06  0.3408672E+04  0.7818609E-02  0.8135781E-01
        2   -1    0    0  501    0  0.00000000000E+00  0.00000000000E+00  0.17320375915E+04  0.17320375915E+04  0.25500000920E-02 0. -1.
       -2   -1    0    0    0  501  0.00000000000E+00  0.00000000000E+00 -0.16770776634E+04  0.16770776634E+04  0.25500000920E-02 0.  1.
    10030    2    1    2    0    0  0.00000000000E+00  0.00000000000E+00  0.54959928126E+02  0.34091152549E+04  0.34086722088E+04 0.  0.
        1    1    3    3  502    0  0.87395357855E+03  0.22778347260E+03 -0.14180733852E+04  0.16812531915E+04  0.50400001928E-02 0.  1.
       -1    1    3    3    0  502 -0.87395357855E+03 -0.22778347260E+03  0.14730333134E+04  0.17278620634E+04  0.50400001928E-02 0. -1.
</event>
<event>
 5   0  0.1999883E-06  0.3532592E+04  0.7818609E-02  0.8106109E-01
        2   -1    0    0  501    0  0.00000000000E+00  0.00000000000E+00  0.15615092313E+04  0.15615092313E+04  0.25500000920E-02 0.  1.
       -2   -1    0    0    0  501  0.00000000000E+00  0.00000000000E+00 -0.19979395511E+04  0.19979395511E+04  0.25500000920E-02 0. -1.
    10030    2    1    2    0    0  0.00000000000E+00  0.00000000000E+00 -0.43643031973E+03  0.35594487824E+04  0.35325917130E+04 0.  0.
        4    1    3    3  502    0  0.12509719691E+04 -0.50613807919E+03 -0.13664812022E+04  0.19205153245E+04  0.12699999809E+01 0. -1.
       -4    1    3    3    0  502 -0.12509719691E+04  0.50613807919E+03  0.93005088249E+03  0.16389334579E+04  0.12699999809E+01 0.  1.
</event>
<event>
 5   0  0.6890600E-07  0.2943124E+04  0.7818609E-02  0.8260161E-01
        1   -1    0    0  501    0  0.00000000000E+00  0.00000000000E+00  0.18069637188E+04  0.18069637188E+04  0.50400001928E-02 0. -1.
       -1   -1    0    0    0  501  0.00000000000E+00  0.00000000000E+00 -0.11984161206E+04  0.11984161207E+04  0.50400001928E-02 0.  1.
    10030    2    1    2    0    0  0.00000000000E+00  0.00000000000E+00  0.60854759812E+03  0.30053798394E+04  0.29431238166E+04 0.  0.
        3    1    3    3  502    0  0.63677839803E+03 -0.80599277531E+03 -0.77176345519E+03  0.12848073486E+04  0.10100000352E+00 0.  1.
       -3    1    3    3    0  502 -0.63677839803E+03  0.80599277531E+03  0.13803110533E+04  0.17205724908E+04  0.10100000352E+00 0. -1.
</event>
<event>
 5   0  0.1999883E-06  0.3656946E+04  0.7818609E-02  0.8077571E-01
       -2   -1    0    0    0  501  0.00000000000E+00  0.00000000000E+00  0.16374217287E+04  0.16374217287E+04  0.25500000920E-02 0.  1.
        2   -1    0    0  501    0  0.00000000000E+00  0.00000000000E+00 -0.20418160292E+04  0.20418160292E+04  0.25500000920E-02 0. -1.
    10030    2    1    2    0    0  0.00000000000E+00  0.00000000000E+00 -0.40439430042E+03  0.36792377579E+04  0.36569462300E+04 0.  0.
        4    1    3    3  502    0 -0.44972151467E+03  0.12700753147E+04  0.10414492471E+04  0.17029265671E+04  0.12699999809E+01 0.  1.
       -4    1    3    3    0  502  0.44972151467E+03 -0.12700753147E+04 -0.14458435475E+04  0.19763111908E+04  0.12699999809E+01 0. -1.
</event>
<event>
 5   0  0.2023479E-06  0.3601136E+04  0.7818609E-02  0.8090232E-01
        2   -1    0    0  501    0  0.00000000000E+00  0.00000000000E+00  0.20483019946E+04  0.20483019946E+04  0.25500000920E-02 0.  1.
       -2   -1    0    0    0  501  0.00000000000E+00  0.00000000000E+00 -0.15827962993E+04  0.15827962993E+04  0.25500000920E-02 0. -1.
    10030    2    1    2    0    0  0.00000000000E+00  0.00000000000E+00  0.46550569531E+03  0.36310982938E+04  0.36011358301E+04 0.  0.
        5    1    3    3  502    0 -0.11431232850E+04 -0.13356192729E+04 -0.15960301136E+03  0.17652492453E+04  0.46999998093E+01 0. -1.
       -5    1    3    3    0  502  0.11431232850E+04  0.13356192729E+04  0.62510870666E+03  0.18658490485E+04  0.46999998093E+01 0.  1.
</event>
<event>
 5   0  0.2073287E-06  0.2962611E+04  0.7818609E-02  0.8254489E-01
       -2   -1    0    0    0  501  0.00000000000E+00  0.00000000000E+00  0.16043487607E+04  0.16043487607E+04  0.25500000920E-02 0. -1.
        2   -1    0    0  501    0  0.00000000000E+00  0.00000000000E+00 -0.13676990388E+04  0.13676990388E+04  0.25500000920E-02 0.  1.
    10030    2    1    2    0    0  0.00000000000E+00  0.00000000000E+00  0.23664972190E+03  0.29720477996E+04  0.29626111848E+04 0.  0.
        1    1    3    3  502    0 -0.14774891898E+04 -0.66251566596E+02  0.34977843111E+02  0.14793873818E+04  0.50400001928E-02 0. -1.
       -1    1    3    3    0  502  0.14774891898E+04  0.66251566596E+02  0.20167187879E+03  0.14926604177E+04  0.50400001928E-02 0.  1.
</event>
<event>
 5   0  0.6630125E-07  0.2940510E+04  0.7818609E-02  0.8260926E-01
       -1   -1    0    0    0  501  0.00000000000E+00  0.00000000000E+00  0.17734843242E+04  0.17734843242E+04  0.50400001928E-02 0. -1.
        1   -1    0    0  501    0  0.00000000000E+00  0.00000000000E+00 -0.12188719252E+04  0.12188719252E+04  0.50400001928E-02 0.  1.
    10030    2    1    2    0    0  0.00000000000E+00  0.00000000000E+00  0.55461239903E+03  0.29923562494E+04  0.29405103316E+04 0.  0.
        4    1    3    3  502    0  0.23036772429E+02 -0.57996456446E+02  0.17721354517E+04  0.17732343201E+04  0.12699999809E+01 0. -1.
       -4    1    3    3    0  502 -0.23036772429E+02  0.57996456446E+02 -0.12175230527E+04  0.12191219293E+04  0.12699999809E+01 0.  1.
</event>
<event>
 5   0  0.2073287E-06  0.2497365E+04  0.7818609E-02  0.8403925E-01
        2   -1    0    0  501    0  0.00000000000E+00  0.00000000000E+00  0.24599153139E+04  0.24599153139E+04  0.25500000920E-02 0. -1.
       -2   -1    0    0    0  501  0.00000000000E+00  0.00000000000E+00 -0.63384630821E+03  0.63384630822E+03  0.25500000920E-02 0.  1.
    10030    2    1    2    0    0  0.00000000000E+00  0.00000000000E+00  0.18260690057E+04  0.30937616221E+04  0.24973652038E+04 0.  0.
        1    1    3    3  502    0 -0.89517396346E+03 -0.86841934552E+03  0.98858827680E+03  0.15914758451E+04  0.50400001928E-02 0.  1.
       -1    1    3    3    0  502  0.89517396346E+03  0.86841934552E+03  0.83748072892E+03  0.15022857770E+04  0.50400001928E-02 0. -1.
</event>
<event>
 5   0  0.7378896E-07  0.2189692E+04  0.7818609E-02  0.8522731E-01
       -1   -1    0    0    0  501  0.00000000000E+00  0.00000000000E+00  0.54226582474E+03  0.54226582476E+03  0.50400001928E-02 0. -1.
        1   -1    0    0  501    0  0.00000000000E+00  0.00000000000E+00 -0.22105162288E+04  0.22105162288E+04  0.50400001928E-02 0.  1.
    10030    2    1    2    0    0  0.00000000000E+00  0.00000000000E+00 -0.16682504040E+04  0.27527820535E+04  0.21896916732E+04 0.  0.
        2    1    3    3  502    0  0.83212751835E+03  0.12421648428E+03  0.46620707271E+02  0.84263837565E+03  0.25500000920E-02 0. -1.
       -2    1    3    3    0  502 -0.83212751835E+03 -0.12421648428E+03 -0.17148711113E+04  0.19101436779E+04  0.25500000920E-02 0.  1.
</event>
<event>
 5   0  0.2020725E-06  0.3134681E+04  0.7818609E-02  0.8206284E-01
        2   -1    0    0  501    0  0.00000000000E+00  0.00000000000E+00  0.18441365209E+04  0.18441365209E+04  0.25500000920E-02 0.  1.
       -2   -1    0    0    0  501  0.00000000000E+00  0.00000000000E+00 -0.13320899863E+04  0.13320899863E+04  0.25500000920E-02 0. -1.
    10030    2    1    2    0    0  0.00000000000E+00  0.00000000000E+00  0.51204653457E+03  0.31762265072E+04  0.31346807128E+04 0.  0.
        3    1    3    3  502    0 -0.13087038366E+04 -0.49669634776E+03  0.97045169338E+03  0.17032878480E+04  0.10100000352E+00 0.  1.
       -3    1    3    3    0  502  0.13087038366E+04  0.49669634776E+03 -0.45840515881E+03  0.14729386592E+04  0.10100000352E+00 0. -1.
</event>
<event>
 5   0  0.6630125E-07  0.3508181E+04  0.7818609E-02  0.8111854E-01
        1   -1    0    0  501    0  0.00000000000E+00  0.00000000000E+00  0.31343722128E+04  0.31343722128E+04  0.50400001928E-02 0.  1.
       -1   -1    0    0    0  501  0.00000000000E+00  0.00000000000E+00 -0.98164278370E+03  0.98164278371E+03  0.50400001928E-02 0. -1.
    10030    2    1    2    0    0  0.00000000000E+00  0.00000000000E+00  0.21527294291E+04  0.41160149965E+04  0.35081812177E+04 0.  0.
        4    1    3    3  502    0  0.56829006124E+03 -0.13550920656E+04  0.22002516276E+04  0.26458149855E+04  0.12699999809E+01 0. -1.
       -4    1    3    3    0  502 -0.56829006124E+03  0.13550920656E+04 -0.47522198549E+02  0.14702000110E+04  0.12699999809E+01 0.  1.
</event>
<event>
 5   0  0.6630125E-07  0.2222450E+04  0.7818609E-02  0.8509141E-01
       -1   -1    0    0    0  501  0.00000000000E+00  0.00000000000E+00  0.10631941178E+04  0.10631941178E+04  0.50400001928E-02 0.  1.
        1   -1    0    0  501    0  0.00000000000E+00  0.00000000000E+00 -0.11614262465E+04  0.11614262465E+04  0.50400001928E-02 0. -1.
    10030    2    1    2    0    0  0.00000000000E+00  0.00000000000E+00 -0.98232128661E+02  0.22246203643E+04  0.22224504976E+04 0.  0.
        4    1    3    3  502    0  0.41793752963E+03 -0.99134604933E+03 -0.32756237313E+03  0.11246054817E+04  0.12699999809E+01 0. -1.
       -4    1    3    3    0  502 -0.41793752963E+03  0.99134604933E+03  0.22933024447E+03  0.11000148827E+04  0.12699999809E+01 0.  1.
</event>
<event>
 5   0  0.2073287E-06  0.3498725E+04  0.7818609E-02  0.8114092E-01
       -2   -1    0    0    0  501  0.00000000000E+00  0.00000000000E+00  0.17660419400E+04  0.17660419400E+04  0.25500000920E-02 0.  1.
        2   -1    0    0  501    0  0.00000000000E+00  0.00000000000E+00 -0.17328408409E+04  0.17328408409E+04  0.25500000920E-02 0. -1.
    10030    2    1    2    0    0  0.00000000000E+00  0.00000000000E+00  0.33201099092E+02  0.34988827809E+04  0.34987252537E+04 0.  0.
        1    1    3    3  502    0  0.32143272678E+03  0.90533172900E+03 -0.14454245972E+04  0.17355681501E+04  0.50400001928E-02 0. -1.
       -1    1    3    3    0  502 -0.32143272678E+03 -0.90533172900E+03  0.14786256963E+04  0.17633146308E+04  0.50400001928E-02 0.  1.
</event>
<event>
 5   0  0.1999883E-06  0.2138991E+04  0.7818609E-02  0.8544259E-01
        2   -1    0    0  501    0  0.00000000000E+00  0.00000000000E+00  0.27254374527E+04  0.27254374527E+04  0.25500000920E-02 0. -1.
       -2   -1    0    0    0  501  0.00000000000E+00  0.00000000000E+00 -0.41968349896E+03  0.41968349897E+03  0.25500000920E-02 0.  1.
    10030    2    1    2    0    0  0.00000000000E+00  0.00000000000E+00  0.23057539537E+04  0.31451209517E+04  0.21389914692E+04 0.  0.
        4    1    3    3  502    0  0.20198594861E+03  0.90771519808E+03  0.19296394368E+04  0.21420212821E+04  0.12699999809E+01 0. -1.
       -4    1    3    3    0  502 -0.20198594861E+03 -0.90771519808E+03  0.37611451697E+03  0.10030996695E+04  0.12699999809E+01 0.  1.
</event>
<event>
 5   0  0.6630125E-07  0.2227490E+04  0.7818609E-02  0.8507073E-01
       -1   -1    0    0    0  501  0.00000000000E+00  0.00000000000E+00  0.12712352555E+04  0.12712352555E+04  0.50400001928E-02 0. -1.
        1   -1    0    0  501    0  0.00000000000E+00  0.00000000000E+00 -0.97576545512E+03  0.97576545513E+03  0.50400001928E-02 0.  1.
    10030    2    1    2    0    0  0.00000000000E+00  0.00000000000E+00  0.29546980041E+03  0.22470007107E+04  0.22274895714E+04 0.  0.
        5    1    3    3  502    0 -0.24819130713E+03  0.10669350916E+04  0.35063333416E+03  0.11501805248E+04  0.46999998093E+01 0. -1.
       -5    1    3    3    0  502  0.24819130713E+03 -0.10669350916E+04 -0.55163533744E+02  0.10968201859E+04  0.46999998093E+01 0.  1.
</event>
<event>
 5   0  0.2073287E-06  0.3265934E+04  0.7818609E-02  0.8171618E-01
        2   -1    0    0  501    0  0.00000000000E+00  0.00000000000E+00  0.28452257469E+04  0.28452257469E+04  0.25500000920E-02 0.  1.
       -2   -1    0    0    0  501  0.00000000000E+00  0.00000000000E+00 -0.93721272026E+03  0.93721272026E+03  0.25500000920E-02 0. -1.
    10030    2    1    2    0    0  0.00000000000E+00  0.00000000000E+00  0.19080130266E+04  0.37824384671E+04  0.32659343300E+04 0.  0.
        1    1    3    3  502    0 -0.98989976686E+03 -0.11978438959E+04  0.15352198702E+04  0.21844064634E+04  0.50400001928E-02 0.  1.
       -1    1    3    3    0  502  0.98989976686E+03  0.11978438959E+04  0.37279315642E+03  0.15980320037E+04  0.50400001928E-02 0. -1.
</event>
<event>
 5   0  0.2020725E-06  0.3574520E+04  0.7818609E-02  0.8096353E-01
       -2   -1    0    0    0  501  0.00000000000E+00  0.00000000000E+00  0.14854254876E+04  0.14854254876E+04  0.25500000920E-02 0. -1.
        2   -1    0    0  501    0  0.00000000000E+00  0.00000000000E+00 -0.21504268940E+04  0.21504268940E+04  0.25500000920E-02 0.  1.
    10030    2    1    2    0    0  0.00000000000E+00  0.00000000000E+00 -0.66500140645E+03  0.36358523816E+04  0.35745203413E+04 0.  0.
        3    1    3    3  502    0  0.10733957667E+04 -0.24787177363E+03  0.10990133955E+04  0.15561006850E+04  0.10100000352E+00 0. -1.
       -3    1    3    3    0  502 -0.10733957667E+04  0.24787177363E+03 -0.17640148019E+04  0.20797516967E+04  0.10100000352E+00 0.  1.
</event>
<event>
 5   0  0.6630125E-07  0.3489567E+04  0.7818609E-02  0.8116267E-01
        1   -1    0    0  501    0  0.00000000000E+00  0.00000000000E+00  0.11632819920E+04  0.11632819920E+04  0.50400001928E-02 0.  1.
       -1   -1    0    0    0  501  0.00000000000E+00  0.00000000000E+00 -0.26169655801E+04  0.26169655801E+04  0.50400001928E-02 0. -1.
    10030    2    1    2    0    0  0.00000000000E+00  0.00000000000E+00 -0.14536835881E+04  0.37802475721E+04  0.34895666969E+04 0.  0.
        1    1    3    3  502    0 -0.37416859380E+03  0.16647351052E+04 -0.11217991042E+04  0.20420035105E+04  0.50400001928E-02 0. -1.
       -1    1    3    3    0  502  0.37416859380E+03 -0.16647351052E+04 -0.33188448394E+03  0.17382440616E+04  0.50400001928E-02 0.  1.
</event>
<event>
 5   0  0.6630125E-07  0.3517113E+04  0.7818609E-02  0.8109746E-01
        1   -1    0    0  501    0  0.00000000000E+00  0.00000000000E+00  0.14237556480E+04  0.14237556481E+04  0.50400001928E-02 0.  1.
       -1   -1    0    0    0  501  0.00000000000E+00  0.00000000000E+00 -0.21720870985E+04  0.21720870985E+04  0.50400001928E-02 0. -1.
    10030    2    1    2    0    0  0.00000000000E+00  0.00000000000E+00 -0.74833145044E+03  0.35958427465E+04  0.35171131768E+04 0.  0.
        4    1    3    3  502    0 -0.72859814531E+03  0.98917474246E+03  0.91225173774E+03  0.15302048145E+04  0.12699999809E+01 0.  1.
       -4    1    3    3    0  502  0.72859814531E+03 -0.98917474246E+03 -0.16605831882E+04  0.20656379320E+04  0.12699999809E+01 0. -1.
</event>
<event>
 5   0  0.6890600E-07  0.2620349E+04  0.7818609E-02  0.8361322E-01
        1   -1    0    0  501    0  0.00000000000E+00  0.00000000000E+00  0.16346696827E+04  0.16346696827E+04  0.50400001928E-02 0.  1.
       -1   -1    0    0    0  501  0.00000000000E+00  0.00000000000E+00 -0.10500943074E+04  0.10500943074E+04  0.50400001928E-02 0. -1.
    10030    2    1    2    0    0  0.00000000000E+00  0.00000000000E+00  0.58457537534E+03  0.26847639902E+04  0.26203490824E+04 0.  0.
        3    1    3    3  502    0 -0.79104664357E+03 -0.25207123236E+03 -0.74616736779E+03  0.11162707778E+04  0.10100000352E+00 0. -1.
       -3    1    3    3    0  502  0.79104664357E+03  0.25207123236E+03  0.13307427431E+04  0.15684932123E+04  0.10100000352E+00 0.  1.
</event>
<event>
 5   0  0.6630125E-07  0.3480475E+04  0.7818609E-02  0.8118433E-01
       -1   -1    0    0    0  501  0.00000000000E+00  0.00000000000E+00  0.16330235071E+04  0.16330235071E+04  0.50400001928E-02 0.  1.
        1   -1    0    0  501    0  0.00000000000E+00  0.00000000000E+00 -0.18544905222E+04  0.18544905222E+04  0.50400001928E-02 0. -1.
    10030    2    1    2    0    0  0.00000000000E+00  0.00000000000E+00 -0.22146701501E+03  0.34875140293E+04  0.34804750345E+04 0.  0.
        5    1    3    3  502    0  0.29602231733E+03  0.75270424635E+03 -0.16546974533E+04  0.18418030966E+04  0.46999998093E+01 0. -1.
       -5    1    3    3    0  502 -0.29602231733E+03 -0.75270424635E+03  0.14332304383E+04  0.16457109327E+04  0.46999998093E+01 0.  1.
</event>
<event>
 5   0  0.6890600E-07  0.3492115E+04  0.7818609E-02  0.8115661E-01
        1   -1    0    0  501    0  0.00000000000E+00  0.00000000000E+00  0.23166541795E+04  0.23166541795E+04  0.50400001928E-02 0.  1.
       -1   -1    0    0    0  501  0.00000000000E+00  0.00000000000E+00 -0.13159999828E+04  0.13159999828E+04  0.50400001928E-02 0. -1.
    10030    2    1    2    0    0  0.00000000000E+00  0.00000000000E+00  0.10006541967E+04  0.36326541624E+04  0.34921150385E+04 0.  0.
        3    1    3    3  502    0  0.79710739488E+03 -0.59054528285E+03  0.19950226047E+04  0.22280572554E+04  0.10100000352E+00 0.  1.
       -3    1    3    3    0  502 -0.79710739488E+03  0.59054528285E+03 -0.99436840794E+03  0.14045969069E+04  0.10100000352E+00 0. -1.
</event>
<event>
 5   0  0.1999883E-06  0.3403822E+04  0.7818609E-02  0.8136969E-01
       -2   -1    0    0    0  501  0.00000000000E+00  0.00000000000E+00  0.13496816605E+04  0.13496816605E+04  0.25500000920E-02 0. -1.
        2   -1    0    0  501    0  0.00000000000E+00  0.00000000000E+00 -0.21460619249E+04  0.21460619249E+04  0.25500000920E-02 0.  1.
    10030    2    1    2    0    0  0.00000000000E+00  0.00000000000E+00 -0.79638026443E+03  0.34957435854E+04  0.34038216301E+04 0.  0.
        4    1    3    3  502    0 -0.73047998429E+02 -0.79301629875E+03 -0.19428992739E+04  0.20997785744E+04  0.12699999809E+01 0.  1.
       -4    1    3    3    0  502  0.73047998429E+02  0.79301629875E+03  0.11465190094E+04  0.13959650110E+04  0.12699999809E+01 0. -1.
</event>
<event>
 5   0  0.2073287E-06  0.2505591E+04  0.7818609E-02  0.8400997E-01
       -2   -1    0    0    0  501  0.00000000000E+00  0.00000000000E+00  0.87478603134E+03  0.87478603134E+03  0.25500000920E-02 0.  1.
        2   -1    0    0  501    0  0.00000000000E+00  0.00000000000E+00 -0.17941484362E+04  0.17941484362E+04  0.25500000920E-02 0. -1.
    10030    2    1    2    0    0  0.00000000000E+00  0.00000000000E+00 -0.91936240484E+03  0.26689344675E+04  0.25055905413E+04 0.  0.
        1    1    3    3  502    0  0.53797181373E+03 -0.15905769058E+03 -0.16528781045E+04  0.17454853336E+04  0.50400001928E-02 0. -1.
       -1    1    3    3    0  502 -0.53797181373E+03  0.15905769058E+03  0.73351569968E+03  0.92344913395E+03  0.50400001928E-02 0.  1.
</event>
<event>
 5   0  0.7378896E-07  0.3458896E+04  0.7818609E-02  0.8123601E-01
       -1   -1    0    0    0  501  0.00000000000E+00  0.00000000000E+00  0.12041311540E+04  0.12041311540E+04  0.50400001928E-02 0. -1.
        1   -1    0    0  501    0  0.00000000000E+00  0.00000000000E+00 -0.24839404165E+04  0.24839404166E+04  0.50400001928E-02 0.  1.
    10030    2    1    2    0    0  0.00000000000E+00  0.00000000000E+00 -0.12798092625E+04  0.36880715706E+04  0.34588958009E+04 0.  0.
        2    1    3    3  502    0  0.72187654324E+03  0.13936426237E+04  0.13461527296E+03  0.15752672084E+04  0.25500000920E-02 0. -1.
       -2    1    3    3    0  502 -0.72187654324E+03 -0.13936426237E+04 -0.14144245355E+04  0.21128043622E+04  0.25500000920E-02 0.  1.
</event>
<event>
 5   0  0.2023479E-06  0.3487305E+04  0.7818609E-02  0.8116805E-01
       -2   -1    0    0    0  501  0.00000000000E+00  0.00000000000E+00  0.11734161869E+04  0.11734161869E+04  0.25500000920E-02 0. -1.
        2   -1    0    0  501    0  0.00000000000E+00  0.00000000000E+00 -0.25910026081E+04  0.25910026081E+04  0.25500000920E-02 0.  1.
    10030    2    1    2    0    0  0.00000000000E+00  0.00000000000E+00 -0.14175864212E+04  0.37644187950E+04  0.34873052064E+04 0.  0.
        5    1    3    3  502    0 -0.16173761056E+04  0.57525865555E+03 -0.37876266373E+03  0.17579281081E+04  0.46999998093E+01 0. -1.
       -5    1    3    3    0  502  0.16173761056E+04 -0.57525865555E+03 -0.10388237574E+04  0.20064906869E+04  0.46999998093E+01 0.  1.
</event>
<event>
 5   0  0.7378896E-07  0.3226294E+04  0.7818609E-02  0.8181907E-01
       -1   -1    0    0    0  501  0.00000000000E+00  0.00000000000E+00  0.10899924521E+04  0.10899924521E+04  0.50400001928E-02 0.  1.
        1   -1    0    0  501    0  0.00000000000E+00  0.00000000000E+00 -0.23873958861E+04  0.23873958861E+04  0.50400001928E-02 0. -1.
    10030    2    1    2    0    0  0.00000000000E+00  0.00000000000E+00 -0.12974034340E+04  0.34773883382E+04  0.32262941564E+04 0.  0.
        2    1    3    3  502    0  0.81863423032E+03  0.88167905687E+03 -0.18069141971E+04  0.21708198631E+04  0.25500000920E-02 0. -1.
       -2    1    3    3    0  502 -0.81863423032E+03 -0.88167905687E+03  0.50951076305E+03  0.13065684751E+04  0.25500000920E-02 0.  1.
</event>
<event>
 5   0  0.2001768E-06  0.3460161E+04  0.7818609E-02  0.8123297E-01
       -2   -1    0    0    0  501  0.00000000000E+00  0.00000000000E+00  0.12450263392E+04  0.12450263392E+04  0.25500000920E-02 0.  1.
        2   -1    0    0  501    0  0.00000000000E+00  0.00000000000E+00 -0.24041084608E+04  0.24041084608E+04  0.25500000920E-02 0. -1.
    10030    2    1    2    0    0  0.00000000000E+00  0.00000000000E+00 -0.11590821216E+04  0.36491348000E+04  0.34601608957E+04 0.  0.
        2    1    3    3  502    0  0.96943998593E+02 -0.12934475744E+04 -0.17869585271E+04  0.22080818699E+04  0.25500000920E-02 0. -1.
       -2    1    3    3    0  502 -0.96943998593E+02  0.12934475744E+04  0.62787640555E+03  0.14410529301E+04  0.25500000920E-02 0.  1.
</event>
<event>
 5   0  0.2020725E-06  0.3575738E+04  0.7818609E-02  0.8096072E-01
       -2   -1    0    0    0  501  0.00000000000E+00  0.00000000000E+00  0.11329440927E+04  0.11329440927E+04  0.25500000920E-02 0.  1.
        2   -1    0    0  501    0  0.00000000000E+00  0.00000000000E+00 -0.28213890468E+04  0.28213890468E+04  0.25500000920E-02 0. -1.
    10030    2    1    2    0    0  0.00000000000E+00  0.00000000000E+00 -0.16884449541E+04  0.39543331395E+04  0.35757382755E+04 0.  0.
        3    1    3    3  502    0  0.19821202546E+03 -0.11546340468E+04 -0.23377764822E+04  0.26148932444E+04  0.10100000352E+00 0. -1.
       -3    1    3    3    0  502 -0.19821202546E+03  0.11546340468E+04  0.64933152808E+03  0.13394398951E+04  0.10100000352E+00 0.  1.
</event>
<event>
 5   0  0.6630125E-07  0.3445998E+04  0.7818609E-02  0.8126708E-01
        3   -1    0    0  501    0  0.00000000000E+00  0.00000000000E+00  0.15719224802E+04  0.15719224834E+04  0.10100000352E+00 0. -1.
       -3   -1    0    0    0  501  0.00000000000E+00  0.00000000000E+00 -0.18885954545E+04  0.18885954572E+04  0.10100000352E+00 0.  1.
    10030    2    1    2    0    0  0.00000000000E+00  0.00000000000E+00 -0.31667297436E+03  0.34605179406E+04  0.34459980622E+04 0.  0.
        5    1    3    3  502    0 -0.86000366343E+03 -0.56661579653E+03  0.12288033591E+04  0.16033214111E+04  0.46999998093E+01 0. -1.
       -5    1    3    3    0  502  0.86000366343E+03  0.56661579653E+03 -0.15454763335E+04  0.18571965295E+04  0.46999998093E+01 0.  1.
</event>
<event>
 5   0  0.2073287E-06  0.3507821E+04  0.7818609E-02  0.8111939E-01
        2   -1    0    0  501    0  0.00000000000E+00  0.00000000000E+00  0.20962979112E+04  0.20962979112E+04  0.25500000920E-02 0. -1.
       -2   -1    0    0    0  501  0.00000000000E+00  0.00000000000E+00 -0.14674451492E+04  0.14674451492E+04  0.25500000920E-02 0.  1.
    10030    2    1    2    0    0  0.00000000000E+00  0.00000000000E+00  0.62885276208E+03  0.35637430604E+04  0.35078210907E+04 0.  0.
        1    1    3    3  502    0 -0.70358304161E+03 -0.14542417688E+04  0.10082143981E+04  0.19042963244E+04  0.50400001928E-02 0. -1.
       -1    1    3    3    0  502  0.70358304161E+03  0.14542417688E+04 -0.37936163598E+03  0.16594467360E+04  0.50400001928E-02 0.  1.
</event>
<event>
 5   0  0.1999883E-06  0.3529367E+04  0.7818609E-02  0.8106865E-01
       -2   -1    0    0    0  501  0.00000000000E+00  0.00000000000E+00  0.14303238754E+04  0.14303238754E+04  0.25500000920E-02 0.  1.
        2   -1    0    0  501    0  0.00000000000E+00  0.00000000000E+00 -0.21772049141E+04  0.21772049141E+04  0.25500000920E-02 0. -1.
    10030    2    1    2    0    0  0.00000000000E+00  0.00000000000E+00 -0.74688103867E+03  0.36075287895E+04  0.35293671785E+04 0.  0.
        4    1    3    3  502    0 -0.36375252258E+02 -0.17603454025E+04 -0.25263918959E+03  0.17787544148E+04  0.12699999809E+01 0. -1.
       -4    1    3    3    0  502  0.36375252258E+02  0.17603454025E+04 -0.49424184908E+03  0.18287743747E+04  0.12699999809E+01 0.  1.
</event>
<event>
 5   0  0.6630125E-07  0.3501549E+04  0.7818609E-02  0.8113423E-01
       -1   -1    0    0    0  501  0.00000000000E+00  0.00000000000E+00  0.94922373512E+03  0.94922373513E+03  0.50400001928E-02 0. -1.
        1   -1    0    0  501    0  0.00000000000E+00  0.00000000000E+00 -0.32291760678E+04  0.32291760678E+04  0.50400001928E-02 0.  1.
    10030    2    1    2    0    0  0.00000000000E+00  0.00000000000E+00 -0.22799523327E+04  0.41783998030E+04  0.35015485537E+04 0.  0.
        5    1    3    3  502    0  0.17300830640E+04 -0.14213494878E+02 -0.14597251543E+04  0.22636715857E+04  0.46999998093E+01 0.  1.
       -5    1    3    3    0  502 -0.17300830640E+04  0.14213494878E+02 -0.82022717838E+03  0.19147282172E+04  0.46999998093E+01 0. -1.
</event>
<event>
 5   0  0.6630125E-07  0.2757286E+04  0.7818609E-02  0.8316653E-01
       -1   -1    0    0    0  501  0.00000000000E+00  0.00000000000E+00  0.65975646595E+03  0.65975646597E+03  0.50400001928E-02 0.  1.
        1   -1    0    0  501    0  0.00000000000E+00  0.00000000000E+00 -0.28808462286E+04  0.28808462286E+04  0.50400001928E-02 0. -1.
    10030    2    1    2    0    0  0.00000000000E+00  0.00000000000E+00 -0.22210897627E+04  0.35406026946E+04  0.27572862940E+04 0.  0.
        4    1    3    3  502    0  0.77674179759E+03  0.11389990348E+04 -0.11143307897E+04  0.17726763221E+04  0.12699999809E+01 0.  1.
       -4    1    3    3    0  502 -0.77674179759E+03 -0.11389990348E+04 -0.11067589730E+04  0.17679263725E+04  0.12699999809E+01 0. -1.
</event>
<event>
 5   0  0.6630125E-07  0.2369277E+04  0.7818609E-02  0.8451096E-01
        1   -1    0    0  501    0  0.00000000000E+00  0.00000000000E+00  0.14391516302E+04  0.14391516302E+04  0.50400001928E-02 0.  1.
       -1   -1    0    0    0  501  0.00000000000E+00  0.00000000000E+00 -0.97513571124E+03  0.97513571126E+03  0.50400001928E-02 0. -1.
    10030    2    1    2    0    0  0.00000000000E+00  0.00000000000E+00  0.46401591894E+03  0.24142873414E+04  0.23692768082E+04 0.  0.
        5    1    3    3  502    0 -0.42722147251E+03 -0.16253968625E+03 -0.88164438856E+03  0.99310435205E+03  0.46999998093E+01 0. -1.
       -5    1    3    3    0  502  0.42722147251E+03  0.16253968625E+03  0.13456603075E+04  0.14211829894E+04  0.46999998093E+01 0.  1.
</event>
<event>
 5   0  0.2020725E-06  0.3358379E+04  0.7818609E-02  0.8148198E-01
        2   -1    0    0  501    0  0.00000000000E+00  0.00000000000E+00  0.23968275200E+04  0.23968275200E+04  0.25500000920E-02 0.  1.
       -2   -1    0    0    0  501  0.00000000000E+00  0.00000000000E+00 -0.11764208366E+04  0.11764208366E+04  0.25500000920E-02 0. -1.
    10030    2    1    2    0    0  0.00000000000E+00  0.00000000000E+00  0.12204066834E+04  0.35732483566E+04  0.33583792736E+04 0.  0.
        3    1    3    3  502    0  0.79198999644E+01 -0.14146263798E+04  0.15727655878E+04  0.21153775369E+04  0.10100000352E+00 0.  1.
       -3    1    3    3    0  502 -0.79198999644E+01  0.14146263798E+04 -0.35235890441E+03  0.14578708197E+04  0.10100000352E+00 0. -1.
</event>
<event>
 5   0  0.2001768E-06  0.3630526E+04  0.7818609E-02  0.8083535E-01
        2   -1    0    0  501    0  0.00000000000E+00  0.00000000000E+00  0.25247142840E+04  0.25247142840E+04  0.25500000920E-02 0.  1.
       -2   -1    0    0    0  501  0.00000000000E+00  0.00000000000E+00 -0.13051690396E+04  0.13051690396E+04  0.25500000920E-02 0. -1.
    10030    2    1    2    0    0  0.00000000000E+00  0.00000000000E+00  0.12195452444E+04  0.38298833236E+04  0.36305255363E+04 0.  0.
        2    1    3    3  502    0 -0.29627566219E+03  0.14410060784E+04 -0.51206078026E+03  0.15577175703E+04  0.25500000920E-02 0. -1.
       -2    1    3    3    0  502  0.29627566219E+03 -0.14410060784E+04  0.17316060246E+04  0.22721657533E+04  0.25500000920E-02 0.  1.
</event>
<event>
 5   0  0.2023479E-06  0.3067476E+04  0.7818609E-02  0.8224721E-01
       -2   -1    0    0    0  501  0.00000000000E+00  0.00000000000E+00  0.99916462839E+03  0.99916462839E+03  0.25500000920E-02 0.  1.
        2   -1    0    0  501    0  0.00000000000E+00  0.00000000000E+00 -0.23543195350E+04  0.23543195350E+04  0.25500000920E-02 0. -1.
    10030    2    1    2    0    0  0.00000000000E+00  0.00000000000E+00 -0.13551549066E+04  0.33534841634E+04  0.30674763590E+04 0.  0.
        5    1    3    3  502    0 -0.14813014654E+04  0.31698529601E+02 -0.24430182229E+03  0.15016538544E+04  0.46999998093E+01 0.  1.
       -5    1    3    3    0  502  0.14813014654E+04 -0.31698529601E+02 -0.11108530843E+04  0.18518303089E+04  0.46999998093E+01 0. -1.
</event>
<event>
 5   0  0.6630125E-07  0.3401696E+04  0.7818609E-02  0.8137490E-01
       -1   -1    0    0    0  501  0.00000000000E+00  0.00000000000E+00  0.13373047233E+04  0.13373047233E+04  0.50400001928E-02 0. -1.
        1   -1    0    0  501    0  0.00000000000E+00  0.00000000000E+00 -0.21632198666E+04  0.21632198666E+04  0.50400001928E-02 0.  1.
    10030    2    1    2    0    0  0.00000000000E+00  0.00000000000E+00 -0.82591514333E+03  0.35005245900E+04  0.34016961329E+04 0.  0.
        4    1    3    3  502    0 -0.12180373389E+04 -0.11816736297E+04 -0.52990345186E+03  0.17778545518E+04  0.12699999809E+01 0. -1.
       -4    1    3    3    0  502  0.12180373389E+04  0.11816736297E+04 -0.29601169148E+03  0.17226700382E+04  0.12699999809E+01 0.  1.
</event>
<event>
 5   0  0.6630125E-07  0.3505947E+04  0.7818609E-02  0.8112382E-01
       -1   -1    0    0    0  501  0.00000000000E+00  0.00000000000E+00  0.17458668510E+04  0.17458668510E+04  0.50400001928E-02 0. -1.
        1   -1    0    0  501    0  0.00000000000E+00  0.00000000000E+00 -0.17601093678E+04  0.17601093678E+04  0.50400001928E-02 0.  1.
    10030    2    1    2    0    0  0.00000000000E+00  0.00000000000E+00 -0.14242516780E+02  0.35059762188E+04  0.35059472896E+04 0.  0.
        1    1    3    3  502    0  0.89015354499E+03  0.21474821438E+03  0.14876908853E+04  0.17469156532E+04  0.50400001928E-02 0. -1.
       -1    1    3    3    0  502 -0.89015354499E+03 -0.21474821438E+03 -0.15019334021E+04  0.17590605656E+04  0.50400001928E-02 0.  1.
</event>
<event>
 5   0  0.2001768E-06  0.3640269E+04  0.7818609E-02  0.8081329E-01
       -2   -1    0    0    0  501  0.00000000000E+00  0.00000000000E+00  0.22283329858E+04  0.22283329858E+04  0.25500000920E-02 0. -1.
        2   -1    0    0  501    0  0.00000000000E+00  0.00000000000E+00 -0.14867124414E+04  0.14867124414E+04  0.25500000920E-02 0.  1.
    10030    2    1    2    0    0  0.00000000000E+00  0.00000000000E+00  0.74162054433E+03  0.37150454272E+04  0.36402694261E+04 0.  0.
        2    1    3    3  502    0 -0.30618310985E+03  0.17367064764E+03  0.21932641729E+04  0.22213323306E+04  0.25500000920E-02 0. -1.
       -2    1    3    3    0  502  0.30618310985E+03 -0.17367064764E+03 -0.14516436286E+04  0.14937130966E+04  0.25500000920E-02 0.  1.
</event>
<event>
 5   0  0.6630125E-07  0.2198784E+04  0.7818609E-02  0.8518934E-01
        3   -1    0    0  501    0  0.00000000000E+00  0.00000000000E+00  0.11351233429E+04  0.11351233474E+04  0.10100000352E+00 0. -1.
       -3   -1    0    0    0  501  0.00000000000E+00  0.00000000000E+00 -0.10647853543E+04  0.10647853591E+04  0.10100000352E+00 0.  1.
    10030    2    1    2    0    0  0.00000000000E+00  0.00000000000E+00  0.70337988625E+02  0.21999087065E+04  0.21987839558E+04 0.  0.
        1    1    3    3  502    0  0.99424736494E+03 -0.46564943792E+03  0.92691876062E+02  0.11017935404E+04  0.50400001928E-02 0. -1.
       -1    1    3    3    0  502 -0.99424736494E+03  0.46564943792E+03 -0.22353887438E+02  0.10981151661E+04  0.50400001928E-02 0.  1.
</event>
<event>
 5   0  0.6630125E-07  0.3522737E+04  0.7818609E-02  0.8108423E-01
        1   -1    0    0  501    0  0.00000000000E+00  0.00000000000E+00  0.17914936687E+04  0.17914936687E+04  0.50400001928E-02 0. -1.
       -1   -1    0    0    0  501  0.00000000000E+00  0.00000000000E+00 -0.17317499383E+04  0.17317499383E+04  0.50400001928E-02 0.  1.
    10030    2    1    2    0    0  0.00000000000E+00  0.00000000000E+00  0.59743730393E+02  0.35232436070E+04  0.35227370327E+04 0.  0.
        4    1    3    3  502    0 -0.58480804111E+03  0.13992236891E+04 -0.86613087134E+03  0.17464282626E+04  0.12699999809E+01 0.  1.
       -4    1    3    3    0  502  0.58480804111E+03 -0.13992236891E+04  0.92587460173E+03  0.17768153444E+04  0.12699999809E+01 0. -1.
</event>
<event>
 5   0  0.1999883E-06  0.3651948E+04  0.7818609E-02  0.8078695E-01
        2   -1    0    0  501    0  0.00000000000E+00  0.00000000000E+00  0.23928096315E+04  0.23928096315E+04  0.25500000920E-02 0.  1.
       -2   -1    0    0    0  501  0.00000000000E+00  0.00000000000E+00 -0.13934169602E+04  0.13934169602E+04  0.25500000920E-02 0. -1.
    10030    2    1    2    0    0  0.00000000000E+00  0.00000000000E+00  0.99939267131E+03  0.37862265917E+04  0.36519482598E+04 0.  0.
        4    1    3    3  502    0 -0.17053076344E+04 -0.89284574755E+02 -0.17071253383E+03  0.17161556588E+04  0.12699999809E+01 0. -1.
       -4    1    3    3    0  502  0.17053076344E+04  0.89284574755E+02  0.11701052051E+04  0.20700709329E+04  0.12699999809E+01 0.  1.
</event>
<event>
 5   0  0.6630125E-07  0.3416464E+04  0.7818609E-02  0.8133877E-01
        1   -1    0    0  501    0  0.00000000000E+00  0.00000000000E+00  0.13699824602E+04  0.13699824602E+04  0.50400001928E-02 0. -1.
       -1   -1    0    0    0  501  0.00000000000E+00  0.00000000000E+00 -0.21299956307E+04  0.21299956307E+04  0.50400001928E-02 0.  1.
    10030    2    1    2    0    0  0.00000000000E+00  0.00000000000E+00 -0.76001317049E+03  0.34999780909E+04  0.34164640519E+04 0.  0.
        5    1    3    3  502    0  0.52461761788E+03 -0.84379445319E+03 -0.18035134691E+04  0.20591006890E+04  0.46999998093E+01 0.  1.
       -5    1    3    3    0  502 -0.52461761788E+03  0.84379445319E+03  0.10435002986E+04  0.14408774019E+04  0.46999998093E+01 0. -1.
</event>
<event>
 5   0  0.2020725E-06  0.3447405E+04  0.7818609E-02  0.8126369E-01
        2   -1    0    0  501    0  0.00000000000E+00  0.00000000000E+00  0.33163923568E+04  0.33163923568E+04  0.25500000920E-02 0. -1.
       -2   -1    0    0    0  501  0.00000000000E+00  0.00000000000E+00 -0.89589808889E+03  0.89589808889E+03  0.25500000920E-02 0.  1.
    10030    2    1    2    0    0  0.00000000000E+00  0.00000000000E+00  0.24204942679E+04  0.42122904457E+04  0.34474045742E+04 0.  0.
        3    1    3    3  502    0  0.14701074700E+04 -0.67259254946E+03  0.19408749115E+04  0.25259834012E+04  0.10100000352E+00 0. -1.
       -3    1    3    3    0  502 -0.14701074700E+04  0.67259254946E+03  0.47961935637E+03  0.16863070444E+04  0.10100000352E+00 0.  1.
</event>
<event>
 5   0  0.2073287E-06  0.3493147E+04  0.7818609E-02  0.8115416E-01
        2   -1    0    0  501    0  0.00000000000E+00  0.00000000000E+00  0.27899291954E+04  0.27899291954E+04  0.25500000920E-02 0. -1.
       -2   -1    0    0    0  501  0.00000000000E+00  0.00000000000E+00 -0.10934037093E+04  0.10934037093E+04  0.25500000920E-02 0.  1.
    10030    2    1    2    0    0  0.00000000000E+00  0.00000000000E+00  0.16965254861E+04  0.38833329046E+04  0.34931469656E+04 0.  0.
        1    1    3    3  502    0  0.14433799091E+04  0.94282959650E+03  0.53729305166E+03  0.18058120149E+04  0.50400001928E-02 0.  1.
       -1    1    3    3    0  502 -0.14433799091E+04 -0.94282959650E+03  0.11592324345E+04  0.20775208897E+04  0.50400001928E-02 0. -1.
</event>
<event>
 5   0  0.6890600E-07  0.3448237E+04  0.7818609E-02  0.8126168E-01
        1   -1    0    0  501    0  0.00000000000E+00  0.00000000000E+00  0.19925835455E+04  0.19925835455E+04  0.50400001928E-02 0. -1.
       -1   -1    0    0    0  501  0.00000000000E+00  0.00000000000E+00 -0.14918242455E+04  0.14918242455E+04  0.50400001928E-02 0.  1.
    10030    2    1    2    0    0  0.00000000000E+00  0.00000000000E+00  0.50075930000E+03  0.34844077910E+04  0.34482369085E+04 0.  0.
        3    1    3    3  502    0  0.16930248399E+04 -0.32348929584E+03  0.29087496855E+03  0.17480236527E+04  0.10100000352E+00 0.  1.
       -3    1    3    3    0  502 -0.16930248399E+04  0.32348929584E+03  0.20988433145E+03  0.17363841383E+04  0.10100000352E+00 0. -1.
</event>
<event>
 5   0  0.6630125E-07  0.2477674E+04  0.7818609E-02  0.8410983E-01
       -1   -1    0    0    0  501  0.00000000000E+00  0.00000000000E+00  0.13200470046E+04  0.13200470046E+04  0.50400001928E-02 0.  1.
        1   -1    0    0  501    0  0.00000000000E+00  0.00000000000E+00 -0.11626226590E+04  0.11626226590E+04  0.50400001928E-02 0. -1.
    10030    2    1    2    0    0  0.00000000000E+00  0.00000000000E+00  0.15742434561E+03  0.24826696636E+04  0.24776735527E+04 0.  0.
        4    1    3    3  502    0 -0.44414103280E+03  0.80066905346E+03  0.91489040278E+03  0.12943563081E+04  0.12699999809E+01 0.  1.
       -4    1    3    3    0  502  0.44414103280E+03 -0.80066905346E+03 -0.75746605717E+03  0.11883133555E+04  0.12699999809E+01 0. -1.
</event>
<event>
 5   0  0.6630125E-07  0.2722851E+04  0.7818609E-02  0.8327629E-01
        1   -1    0    0  501    0  0.00000000000E+00  0.00000000000E+00  0.66289720838E+03  0.66289720840E+03  0.50400001928E-02 0. -1.
       -1   -1    0    0    0  501  0.00000000000E+00  0.00000000000E+00 -0.27960283044E+04  0.27960283044E+04  0.50400001928E-02 0.  1.
    10030    2    1    2    0    0  0.00000000000E+00  0.00000000000E+00 -0.21331310960E+04  0.34589255128E+04  0.27228509747E+04 0.  0.
        4    1    3    3  502    0 -0.11191703762E+04 -0.12481313266E+03 -0.94651675949E+02  0.11300801749E+04  0.12699999809E+01 0. -1.
       -4    1    3    3    0  502  0.11191703762E+04  0.12481313266E+03 -0.20384794201E+04  0.23288453379E+04  0.12699999809E+01 0.  1.
</event>
<event>
 5   0  0.6630125E-07  0.3431493E+04  0.7818609E-02  0.8130220E-01
       -1   -1    0    0    0  501  0.00000000000E+00  0.00000000000E+00  0.15960416485E+04  0.15960416485E+04  0.50400001928E-02 0.  1.
        1   -1    0    0  501    0  0.00000000000E+00  0.00000000000E+00 -0.18444290686E+04  0.18444290687E+04  0.50400001928E-02 0. -1.
    10030    2    1    2    0    0  0.00000000000E+00  0.00000000000E+00 -0.24838742012E+03  0.34404707172E+04  0.34314927430E+04 0.  0.
        4    1    3    3  502    0  0.74976364228E+03 -0.93004052664E+03  0.11105571605E+04  0.16310915732E+04  0.12699999809E+01 0.  1.
       -4    1    3    3    0  502 -0.74976364228E+03  0.93004052664E+03 -0.13589445806E+04  0.18093791440E+04  0.12699999809E+01 0. -1.
</event>
<event>
 5   0  0.6630125E-07  0.2265550E+04  0.7818609E-02  0.8491629E-01
        1   -1    0    0  501    0  0.00000000000E+00  0.00000000000E+00  0.10372664691E+04  0.10372664691E+04  0.50400001928E-02 0.  1.
       -1   -1    0    0    0  501  0.00000000000E+00  0.00000000000E+00 -0.12370781736E+04  0.12370781736E+04  0.50400001928E-02 0. -1.
    10030    2    1    2    0    0  0.00000000000E+00  0.00000000000E+00 -0.19981170450E+03  0.22743446428E+04  0.22655504490E+04 0.  0.
        1    1    3    3  502    0  0.41848492158E+03  0.26872095790E+03 -0.11216183233E+04  0.12269344913E+04  0.50400001928E-02 0. -1.
       -1    1    3    3    0  502 -0.41848492158E+03 -0.26872095790E+03  0.92180661881E+03  0.10474101514E+04  0.50400001928E-02 0.  1.
</event>
<event>
 5   0  0.2023479E-06  0.3340410E+04  0.7818609E-02  0.8152689E-01
       -2   -1    0    0    0  501  0.00000000000E+00  0.00000000000E+00  0.12305964038E+04  0.12305964038E+04  0.25500000920E-02 0.  1.
        2   -1    0    0  501    0  0.00000000000E+00  0.00000000000E+00 -0.22668553267E+04  0.22668553267E+04  0.25500000920E-02 0. -1.
    10030    2    1    2    0    0  0.00000000000E+00  0.00000000000E+00 -0.10362589229E+04  0.34974517306E+04  0.33404095636E+04 0.  0.
        5    1    3    3  502    0  0.62335782222E+03  0.15458520611E+04 -0.62956800176E+03  0.17817439569E+04  0.46999998093E+01 0.  1.
       -5    1    3    3    0  502 -0.62335782222E+03 -0.15458520611E+04 -0.40669092113E+03  0.17157077736E+04  0.46999998093E+01 0. -1.
</event>
<event>
 5   0  0.2001768E-06  0.2289791E+04  0.7818609E-02  0.8481957E-01
       -2   -1    0    0    0  501  0.00000000000E+00  0.00000000000E+00  0.92997029449E+03  0.92997029449E+03  0.25500000920E-02 0.  1.
        2   -1    0    0  501    0  0.00000000000E+00  0.00000000000E+00 -0.14094925753E+04  0.14094925753E+04  0.25500000920E-02 0. -1.
    10030    2    1    2    0    0  0.00000000000E+00  0.00000000000E+00 -0.47952228076E+03  0.23394628698E+04  0.22897914536E+04 0.  0.
        2    1    3    3  502    0  0.80395949791E+03 -0.52467160213E+03  0.39759411046E+03  0.10390920272E+04  0.25500000920E-02 0.  1.
       -2    1    3    3    0  502 -0.80395949791E+03  0.52467160213E+03 -0.87711639122E+03  0.13003708425E+04  0.25500000920E-02 0. -1.
</event>
<event>
 5   0  0.7378896E-07  0.3510815E+04  0.7818609E-02  0.8111232E-01
        1   -1    0    0  501    0  0.00000000000E+00  0.00000000000E+00  0.24271851611E+04  0.24271851611E+04  0.50400001928E-02 0. -1.
       -1   -1    0    0    0  501  0.00000000000E+00  0.00000000000E+00 -0.12695595682E+04  0.12695595682E+04  0.50400001928E-02 0.  1.
    10030    2    1    2    0    0  0.00000000000E+00  0.00000000000E+00  0.11576255929E+04  0.36967447293E+04  0.35108153726E+04 0.  0.
        2    1    3    3  502    0  0.10551766619E+04 -0.32897302979E+03  0.20147937886E+04  0.22980459205E+04  0.25500000920E-02 0. -1.
       -2    1    3    3    0  502 -0.10551766619E+04  0.32897302979E+03 -0.85716819574E+03  0.13986988088E+04  0.25500000920E-02 0.  1.
</event>
<event>
 5   0  0.6630125E-07  0.3134646E+04  0.7818609E-02  0.8206293E-01
       -1   -1    0    0    0  501  0.00000000000E+00  0.00000000000E+00  0.26958034441E+04  0.26958034441E+04  0.50400001928E-02 0. -1.
        1   -1    0    0  501    0  0.00000000000E+00  0.00000000000E+00 -0.91123192444E+03  0.91123192446E+03  0.50400001928E-02 0.  1.
    10030    2    1    2    0    0  0.00000000000E+00  0.00000000000E+00  0.17845715197E+04  0.36070353686E+04  0.31346464938E+04 0.  0.
        1    1    3    3  502    0  0.92695483381E+03 -0.12429376657E+04  0.11555994815E+04  0.19337914744E+04  0.50400001928E-02 0.  1.
       -1    1    3    3    0  502 -0.92695483381E+03  0.12429376657E+04  0.62897203819E+03  0.16732438942E+04  0.50400001928E-02 0. -1.
</event>
<event>
 5   0  0.6890600E-07  0.3259230E+04  0.7818609E-02  0.8173347E-01
        1   -1    0    0  501    0  0.00000000000E+00  0.00000000000E+00  0.24764187186E+04  0.24764187186E+04  0.50400001928E-02 0. -1.
       -1   -1    0    0    0  501  0.00000000000E+00  0.00000000000E+00 -0.10723731732E+04  0.10723731733E+04  0.50400001928E-02 0.  1.
    10030    2    1    2    0    0  0.00000000000E+00  0.00000000000E+00  0.14040455453E+04  0.35487918918E+04  0.32592299701E+04 0.  0.
        3    1    3    3  502    0  0.12544823909E+03  0.22937412714E+03  0.24534355817E+04  0.24673256605E+04  0.10100000352E+00 0. -1.
       -3    1    3    3    0  502 -0.12544823909E+03 -0.22937412714E+03 -0.10493900364E+04  0.10814662314E+04  0.10100000352E+00 0.  1.
</event>
<event>
 5   0  0.6630125E-07  0.3532493E+04  0.7818609E-02  0.8106132E-01
       -1   -1    0    0    0  501  0.00000000000E+00  0.00000000000E+00  0.22987434161E+04  0.22987434161E+04  0.50400001928E-02 0. -1.
        1   -1    0    0  501    0  0.00000000000E+00  0.00000000000E+00 -0.13571011308E+04  0.13571011308E+04  0.50400001928E-02 0.  1.
    10030    2    1    2    0    0  0.00000000000E+00  0.00000000000E+00  0.94164228527E+03  0.36558445469E+04  0.35324933344E+04 0.  0.
        1    1    3    3  502    0  0.72935767894E+03  0.14767135151E+04 -0.18940679172E+03  0.16578662076E+04  0.50400001928E-02 0.  1.
       -1    1    3    3    0  502 -0.72935767894E+03 -0.14767135151E+04  0.11310490770E+04  0.19979783393E+04  0.50400001928E-02 0. -1.
</event>
<event>
 5   0  0.6630125E-07  0.2271623E+04  0.7818609E-02  0.8489195E-01
       -1   -1    0    0    0  501  0.00000000000E+00  0.00000000000E+00  0.13872822349E+04  0.13872822350E+04  0.50400001928E-02 0. -1.
        1   -1    0    0  501    0  0.00000000000E+00  0.00000000000E+00 -0.92992448420E+03  0.92992448421E+03  0.50400001928E-02 0.  1.
    10030    2    1    2    0    0  0.00000000000E+00  0.00000000000E+00  0.45735775075E+03  0.23172067192E+04  0.22716229589E+04 0.  0.
        4    1    3    3  502    0  0.28517573938E+03  0.82131863379E+03 -0.51686114445E+03  0.10114526959E+04  0.12699999809E+01 0.  1.
       -4    1    3    3    0  502 -0.28517573938E+03 -0.82131863379E+03  0.97421889520E+03  0.13057540232E+04  0.12699999809E+01 0. -1.
</event>
<event>
 5   0  0.6630125E-07  0.3537718E+04  0.7818609E-02  0.8104909E-01
        1   -1    0    0  501    0  0.00000000000E+00  0.00000000000E+00  0.99443106115E+03  0.99443106117E+03  0.50400001928E-02 0. -1.
       -1   -1    0    0    0  501  0.00000000000E+00  0.00000000000E+00 -0.31463846937E+04  0.31463846937E+04  0.50400001928E-02 0.  1.
    10030    2    1    2    0    0  0.00000000000E+00  0.00000000000E+00 -0.21519536326E+04  0.41408157549E+04  0.35377182871E+04 0.  0.
        4    1    3    3  502    0  0.57794835089E+03  0.45408978579E+02 -0.30320298158E+04  0.30869552457E+04  0.12699999809E+01 0.  1.
       -4    1    3    3    0  502 -0.57794835089E+03 -0.45408978579E+02  0.88007618328E+03  0.10538605092E+04  0.12699999809E+01 0. -1.
</event>
<event>
 5   0  0.6890600E-07  0.3464416E+04  0.7818609E-02  0.8122275E-01
       -1   -1    0    0    0  501  0.00000000000E+00  0.00000000000E+00  0.10122557351E+04  0.10122557351E+04  0.50400001928E-02 0. -1.
        1   -1    0    0  501    0  0.00000000000E+00  0.00000000000E+00 -0.29642154483E+04  0.29642154483E+04  0.50400001928E-02 0.  1.
    10030    2    1    2    0    0  0.00000000000E+00  0.00000000000E+00 -0.19519597131E+04  0.39764711834E+04  0.34644157301E+04 0.  0.
        3    1    3    3  502    0  0.12328377677E+04  0.27553617829E+03  0.38441514847E+03  0.13204484706E+04  0.10100000352E+00 0. -1.
       -3    1    3    3    0  502 -0.12328377677E+04 -0.27553617829E+03 -0.23363748616E+04  0.26560227128E+04  0.10100000352E+00 0.  1.
</event>
<event>
 5   0  0.2001768E-06  0.3903749E+04  0.7818609E-02  0.8024250E-01
       -2   -1    0    0    0  501  0.00000000000E+00  0.00000000000E+00  0.26921259208E+04  0.26921259208E+04  0.25500000920E-02 0. -1.
        2   -1    0    0  501    0  0.00000000000E+00  0.00000000000E+00 -0.14151689859E+04  0.14151689859E+04  0.25500000920E-02 0.  1.
    10030    2    1    2    0    0  0.00000000000E+00  0.00000000000E+00  0.12769569349E+04  0.41072949067E+04  0.39037485110E+04 0.  0.
        2    1    3    3  502    0 -0.18799452530E+04 -0.29742503784E+03  0.18330447147E+03  0.19121339746E+04  0.25500000920E-02 0. -1.
       -2    1    3    3    0  502  0.18799452530E+04  0.29742503784E+03  0.10936524634E+04  0.21951609322E+04  0.25500000920E-02 0.  1.
</event>
<event>
 5   0  0.6630125E-07  0.3435918E+04  0.7818609E-02  0.8129147E-01
        1   -1    0    0  501    0  0.00000000000E+00  0.00000000000E+00  0.22316279250E+04  0.22316279250E+04  0.50400001928E-02 0.  1.
       -1   -1    0    0    0  501  0.00000000000E+00  0.00000000000E+00 -0.13225248418E+04  0.13225248418E+04  0.50400001928E-02 0. -1.
    10030    2    1    2    0    0  0.00000000000E+00  0.00000000000E+00  0.90910308318E+03  0.35541527668E+04  0.34359181413E+04 0.  0.
        5    1    3    3  502    0 -0.68181947859E+03  0.67352910807E+03 -0.10202891003E+04  0.13998325611E+04  0.46999998093E+01 0. -1.
       -5    1    3    3    0  502  0.68181947859E+03 -0.67352910807E+03  0.19293921835E+04  0.21543202057E+04  0.46999998093E+01 0.  1.
</event>
<event>
 5   0  0.2073287E-06  0.2926349E+04  0.7818609E-02  0.8265081E-01
        2   -1    0    0  501    0  0.00000000000E+00  0.00000000000E+00  0.21941174199E+04  0.21941174199E+04  0.25500000920E-02 0. -1.
       -2   -1    0    0    0  501  0.00000000000E+00  0.00000000000E+00 -0.97573594224E+03  0.97573594225E+03  0.25500000920E-02 0.  1.
    10030    2    1    2    0    0  0.00000000000E+00  0.00000000000E+00  0.12183814777E+04  0.31698533622E+04  0.29263487339E+04 0.  0.
        1    1    3    3  502    0  0.18725400955E+03 -0.13130214001E+04 -0.60116231483E+02  0.13276683406E+04  0.50400001928E-02 0.  1.
       -1    1    3    3    0  502 -0.18725400955E+03  0.13130214001E+04  0.12784977092E+04  0.18421850216E+04  0.50400001928E-02 0. -1.
</event>
<event>
 5   0  0.6890600E-07  0.3529915E+04  0.7818609E-02  0.8106737E-01
        1   -1    0    0  501    0  0.00000000000E+00  0.00000000000E+00  0.16498436404E+04  0.16498436404E+04  0.50400001928E-02 0. -1.
       -1   -1    0    0    0  501  0.00000000000E+00  0.00000000000E+00 -0.18881026817E+04  0.18881026817E+04  0.50400001928E-02 0.  1.
    10030    2    1    2    0    0  0.00000000000E+00  0.00000000000E+00 -0.23825904131E+03  0.35379463221E+04  0.35299145609E+04 0.  0.
        3    1    3    3  502    0  0.58361781923E+03 -0.15859340657E+04 -0.62948116837E+03  0.18033422224E+04  0.10100000352E+00 0.  1.
       -3    1    3    3    0  502 -0.58361781923E+03  0.15859340657E+04  0.39122212706E+03  0.17346040997E+04  0.10100000352E+00 0. -1.
</event>
<event>
 5   0  0.2073287E-06  0.3484807E+04  0.7818609E-02  0.8117400E-01
        2   -1    0    0  501    0  0.00000000000E+00  0.00000000000E+00  0.19285829445E+04  0.19285829445E+04  0.25500000920E-02 0. -1.
       -2   -1    0    0    0  501  0.00000000000E+00  0.00000000000E+00 -0.15741972928E+04  0.15741972928E+04  0.25500000920E-02 0.  1.
    10030    2    1    2    0    0  0.00000000000E+00  0.00000000000E+00  0.35438565167E+03  0.35027802373E+04  0.34848070536E+04 0.  0.
        1    1    3    3  502    0  0.10468235450E+04 -0.22772086860E+03 -0.12040391642E+04  0.16116471814E+04  0.50400001928E-02 0.  1.
       -1    1    3    3    0  502 -0.10468235450E+04  0.22772086860E+03  0.15584248159E+04  0.18911330559E+04  0.50400001928E-02 0. -1.
</event>
<event>
 5   0  0.6630125E-07  0.3441760E+04  0.7818609E-02  0.8127732E-01
       -1   -1    0    0    0  501  0.00000000000E+00  0.00000000000E+00  0.12931087868E+04  0.12931087868E+04  0.50400001928E-02 0.  1.
        1   -1    0    0  501    0  0.00000000000E+00  0.00000000000E+00 -0.22901615484E+04  0.22901615484E+04  0.50400001928E-02 0. -1.
    10030    2    1    2    0    0  0.00000000000E+00  0.00000000000E+00 -0.99705276155E+03  0.35832703352E+04  0.34417600273E+04 0.  0.
        1    1    3    3  502    0  0.10737929492E+04  0.11777557291E+04 -0.11742803695E+04  0.19796651842E+04  0.50400001928E-02 0. -1.
       -1    1    3    3    0  502 -0.10737929492E+04 -0.11777557291E+04  0.17722760793E+03  0.16036051510E+04  0.50400001928E-02 0.  1.
</event>
<event>
 5   0  0.2023479E-06  0.3799340E+04  0.7818609E-02  0.8046296E-01
        2   -1    0    0  501    0  0.00000000000E+00  0.00000000000E+00  0.22331690115E+04  0.22331690115E+04  0.25500000920E-02 0. -1.
       -2   -1    0    0    0  501  0.00000000000E+00  0.00000000000E+00 -0.16159757871E+04  0.16159757871E+04  0.25500000920E-02 0.  1.
    10030    2    1    2    0    0  0.00000000000E+00  0.00000000000E+00  0.61719322437E+03  0.38491447985E+04  0.37993404959E+04 0.  0.
        5    1    3    3  502    0 -0.16310950279E+02  0.26045772534E+03 -0.15977230770E+04  0.16189025278E+04  0.46999998093E+01 0.  1.
       -5    1    3    3    0  502  0.16310950279E+02 -0.26045772534E+03  0.22149163014E+04  0.22302422707E+04  0.46999998093E+01 0. -1.
</event>
<event>
 5   0  0.7378896E-07  0.3706624E+04  0.7818609E-02  0.8066495E-01
       -1   -1    0    0    0  501  0.00000000000E+00  0.00000000000E+00  0.14380444684E+04  0.14380444684E+04  0.50400001928E-02 0. -1.
        1   -1    0    0  501    0  0.00000000000E+00  0.00000000000E+00 -0.23884979117E+04  0.23884979117E+04  0.50400001928E-02 0.  1.
    10030    2    1    2    0    0  0.00000000000E+00  0.00000000000E+00 -0.95045344335E+03  0.38265423801E+04  0.37066244534E+04 0.  0.
        2    1    3    3  502    0 -0.81719653016E+03 -0.13143556559E+04 -0.15277327029E+04  0.21746972595E+04  0.25500000920E-02 0.  1.
       -2    1    3    3    0  502  0.81719653016E+03  0.13143556559E+04  0.57727925954E+03  0.16518451206E+04  0.25500000920E-02 0. -1.
</event>
<event>
 5   0  0.2020725E-06  0.3425014E+04  0.7818609E-02  0.8131794E-01
        2   -1    0    0  501    0  0.00000000000E+00  0.00000000000E+00  0.20995368158E+04  0.20995368158E+04  0.25500000920E-02 0.  1.
       -2   -1    0    0    0  501  0.00000000000E+00  0.00000000000E+00 -0.13968223111E+04  0.13968223111E+04  0.25500000920E-02 0. -1.
    10030    2    1    2    0    0  0.00000000000E+00  0.00000000000E+00  0.70271450475E+03  0.34963591269E+04  0.34250137911E+04 0.  0.
        3    1    3    3  502    0 -0.87307250261E+03  0.51442961860E+03 -0.10579017740E+04  0.14649401356E+04  0.10100000352E+00 0. -1.
       -3    1    3    3    0  502  0.87307250261E+03 -0.51442961860E+03  0.17606162787E+04  0.20314189913E+04  0.10100000352E+00 0.  1.
</event>
<event>
 5   0  0.2001768E-06  0.3463163E+04  0.7818609E-02  0.8122576E-01
        2   -1    0    0  501    0  0.00000000000E+00  0.00000000000E+00  0.23314993585E+04  0.23314993585E+04  0.25500000920E-02 0. -1.
       -2   -1    0    0    0  501  0.00000000000E+00  0.00000000000E+00 -0.12860281813E+04  0.12860281814E+04  0.25500000920E-02 0.  1.
    10030    2    1    2    0    0  0.00000000000E+00  0.00000000000E+00  0.10454711772E+04  0.36175275399E+04  0.34631626470E+04 0.  0.
        2    1    3    3  502    0  0.16518890744E+04 -0.28454113479E+03  0.97646141372E+03  0.19398912506E+04  0.25500000920E-02 0. -1.
       -2    1    3    3    0  502 -0.16518890744E+04  0.28454113479E+03  0.69009763453E+02  0.16776362893E+04  0.25500000920E-02 0.  1.
</event>
<event>
 5   0  0.7378896E-07  0.3410590E+04  0.7818609E-02  0.8135312E-01
       -1   -1    0    0    0  501  0.00000000000E+00  0.00000000000E+00  0.10572620385E+04  0.10572620385E+04  0.50400001928E-02 0. -1.
        1   -1    0    0  501    0  0.00000000000E+00  0.00000000000E+00 -0.27505306552E+04  0.27505306552E+04  0.50400001928E-02 0.  1.
    10030    2    1    2    0    0  0.00000000000E+00  0.00000000000E+00 -0.16932686167E+04  0.38077926937E+04  0.34105903580E+04 0.  0.
        2    1    3    3  502    0 -0.10526252589E+02 -0.16660265658E+04 -0.44057936626E+03  0.17233297705E+04  0.25500000920E-02 0. -1.
       -2    1    3    3    0  502  0.10526252589E+02  0.16660265658E+04 -0.12526892504E+04  0.20844629232E+04  0.25500000920E-02 0.  1.
</event>
<event>
 5   0  0.2023479E-06  0.2788433E+04  0.7818609E-02  0.8306869E-01
       -2   -1    0    0    0  501  0.00000000000E+00  0.00000000000E+00  0.17604444117E+04  0.17604444117E+04  0.25500000920E-02 0. -1.
        2   -1    0    0  501    0  0.00000000000E+00  0.00000000000E+00 -0.11041753295E+04  0.11041753295E+04  0.25500000920E-02 0.  1.
    10030    2    1    2    0    0  0.00000000000E+00  0.00000000000E+00  0.65626908219E+03  0.28646197412E+04  0.27884327415E+04 0.  0.
        5    1    3    3  502    0 -0.13373144267E+04  0.16763114171E+03  0.69468448598E+03  0.15162845052E+04  0.46999998093E+01 0.  1.
       -5    1    3    3    0  502  0.13373144267E+04 -0.16763114171E+03 -0.38415403789E+02  0.13483352361E+04  0.46999998093E+01 0. -1.
</event>
<event>
 5   0  0.2023479E-06  0.3455782E+04  0.7818609E-02  0.8124350E-01
       -2   -1    0    0    0  501  0.00000000000E+00  0.00000000000E+00  0.22714289707E+04  0.22714289707E+04  0.25500000920E-02 0.  1.
        2   -1    0    0  501    0  0.00000000000E+00  0.00000000000E+00 -0.13144184199E+04  0.13144184199E+04  0.25500000920E-02 0. -1.
    10030    2    1    2    0    0  0.00000000000E+00  0.00000000000E+00  0.95701055082E+03  0.35858473906E+04  0.34557824460E+04 0.  0.
        5    1    3    3  502    0  0.87867413253E+03  0.14806063469E+04  0.63002372531E+03  0.18333617674E+04  0.46999998093E+01 0.  1.
       -5    1    3    3    0  502 -0.87867413253E+03 -0.14806063469E+04  0.32698682551E+03  0.17524856232E+04  0.46999998093E+01 0. -1.
</event>
<event>
 5   0  0.2020725E-06  0.3669498E+04  0.7818609E-02  0.8074755E-01
        2   -1    0    0  501    0  0.00000000000E+00  0.00000000000E+00  0.24213989124E+04  0.24213989124E+04  0.25500000920E-02 0.  1.
       -2   -1    0    0    0  501  0.00000000000E+00  0.00000000000E+00 -0.13902308532E+04  0.13902308532E+04  0.25500000920E-02 0. -1.
    10030    2    1    2    0    0  0.00000000000E+00  0.00000000000E+00  0.10311680592E+04  0.38116297656E+04  0.36694977727E+04 0.  0.
        3    1    3    3  502    0 -0.59999426984E+03  0.10039997975E+04 -0.95278039821E+03  0.15085752267E+04  0.10100000352E+00 0. -1.
       -3    1    3    3    0  502  0.59999426984E+03 -0.10039997975E+04  0.19839484574E+04  0.23030545389E+04  0.10100000352E+00 0.  1.
</event>
<event>
 5   0  0.2073287E-06  0.3429737E+04  0.7818609E-02  0.8130646E-01
       -2   -1    0    0    0  501  0.00000000000E+00  0.00000000000E+00  0.16424249334E+04  0.16424249334E+04  0.25500000920E-02 0. -1.
        2   -1    0    0  501    0  0.00000000000E+00  0.00000000000E+00 -0.17905075307E+04  0.17905075307E+04  0.25500000920E-02 0.  1.
    10030    2    1    2    0    0  0.00000000000E+00  0.00000000000E+00 -0.14808259725E+03  0.34329324641E+04  0.34297371397E+04 0.  0.
        1    1    3    3  502    0 -0.10065100247E+04 -0.12736724797E+04  0.47916720264E+03  0.16926030910E+04  0.50400001928E-02 0. -1.
       -1    1    3    3    0  502  0.10065100247E+04  0.12736724797E+04 -0.62724979989E+03  0.17403293731E+04  0.50400001928E-02 0.  1.
</event>
<event>
 5   0  0.6630125E-07  0.3466841E+04  0.7818609E-02  0.8121693E-01
       -1   -1    0    0    0  501  0.00000000000E+00  0.00000000000E+00  0.13117700396E+04  0.13117700397E+04  0.50400001928E-02 0.  1.
        1   -1    0    0  501    0  0.00000000000E+00  0.00000000000E+00 -0.22906045367E+04  0.22906045367E+04  0.50400001928E-02 0. -1.
    10030    2    1    2    0    0  0.00000000000E+00  0.00000000000E+00 -0.97883449703E+03  0.36023745763E+04  0.34668408697E+04 0.  0.
        5    1    3    3  502    0 -0.12185450498E+04 -0.88518077648E+03  0.40222451730E+03  0.15589110615E+04  0.46999998093E+01 0.  1.
       -5    1    3    3    0  502  0.12185450498E+04  0.88518077648E+03 -0.13810590143E+04  0.20434635148E+04  0.46999998093E+01 0. -1.
</event>
<event>
 5   0  0.6630125E-07  0.3574975E+04  0.7818609E-02  0.8096248E-01
       -1   -1    0    0    0  501  0.00000000000E+00  0.00000000000E+00  0.17103057060E+04  0.17103057060E+04  0.50400001928E-02 0. -1.
        1   -1    0    0  501    0  0.00000000000E+00  0.00000000000E+00 -0.18681523820E+04  0.18681523820E+04  0.50400001928E-02 0.  1.
    10030    2    1    2    0    0  0.00000000000E+00  0.00000000000E+00 -0.15784667597E+03  0.35784580880E+04  0.35749750649E+04 0.  0.
        1    1    3    3  502    0  0.90273164654E+03 -0.45584271564E+03 -0.15542638989E+04  0.18543066830E+04  0.50400001928E-02 0.  1.
       -1    1    3    3    0  502 -0.90273164654E+03  0.45584271564E+03  0.13964172229E+04  0.17241514050E+04  0.50400001928E-02 0. -1.
</event>
<event>
 5   0  0.2001768E-06  0.3501587E+04  0.7818609E-02  0.8113414E-01
        2   -1    0    0  501    0  0.00000000000E+00  0.00000000000E+00  0.14237093744E+04  0.14237093744E+04  0.25500000920E-02 0. -1.
       -2   -1    0    0    0  501  0.00000000000E+00  0.00000000000E+00 -0.21530226629E+04  0.21530226629E+04  0.25500000920E-02 0.  1.
    10030    2    1    2    0    0  0.00000000000E+00  0.00000000000E+00 -0.72931328849E+03  0.35767320373E+04  0.35015873820E+04 0.  0.
        2    1    3    3  502    0  0.83199802597E+03  0.60089347125E+03 -0.18135412274E+04  0.20838007252E+04  0.25500000920E-02 0.  1.
       -2    1    3    3    0  502 -0.83199802597E+03 -0.60089347125E+03  0.10842279389E+04  0.14929313120E+04  0.25500000920E-02 0. -1.
</event>
<event>
 5   0  0.7378896E-07  0.2396879E+04  0.7818609E-02  0.8440673E-01
       -1   -1    0    0    0  501  0.00000000000E+00  0.00000000000E+00  0.12670181204E+04  0.12670181204E+04  0.50400001928E-02 0.  1.
        1   -1    0    0  501    0  0.00000000000E+00  0.00000000000E+00 -0.11335731112E+04  0.11335731112E+04  0.50400001928E-02 0. -1.
    10030    2    1    2    0    0  0.00000000000E+00  0.00000000000E+00  0.13344500916E+03  0.24005912316E+04  0.23968793651E+04 0.  0.
        2    1    3    3  502    0  0.17061876111E+03 -0.16227360573E+03  0.12436227660E+04  0.12657176102E+04  0.25500000920E-02 0.  1.
       -2    1    3    3    0  502 -0.17061876111E+03  0.16227360573E+03 -0.11101777568E+04  0.11348736214E+04  0.25500000920E-02 0. -1.
</event>
<event>
 5   0  0.2073287E-06  0.3488643E+04  0.7818609E-02  0.8116487E-01
        2   -1    0    0  501    0  0.00000000000E+00  0.00000000000E+00  0.14916019686E+04  0.14916019686E+04  0.25500000920E-02 0. -1.
       -2   -1    0    0    0  501  0.00000000000E+00  0.00000000000E+00 -0.20398589798E+04  0.20398589798E+04  0.25500000920E-02 0.  1.
    10030    2    1    2    0    0  0.00000000000E+00  0.00000000000E+00 -0.54825701125E+03  0.35314609484E+04  0.34886431001E+04 0.  0.
        1    1    3    3  502    0 -0.17031319111E+04 -0.16936483569E+03  0.66625842516E+02  0.17128285837E+04  0.50400001928E-02 0. -1.
       -1    1    3    3    0  502  0.17031319111E+04  0.16936483569E+03 -0.61488285376E+03  0.18186323647E+04  0.50400001928E-02 0.  1.
</event>
<event>
 5   0  0.2023479E-06  0.3482892E+04  0.7818609E-02  0.8117856E-01
       -2   -1    0    0    0  501  0.00000000000E+00  0.00000000000E+00  0.14419030855E+04  0.14419030855E+04  0.25500000920E-02 0. -1.
        2   -1    0    0  501    0  0.00000000000E+00  0.00000000000E+00 -0.21032166989E+04  0.21032166989E+04  0.25500000920E-02 0.  1.
    10030    2    1    2    0    0  0.00000000000E+00  0.00000000000E+00 -0.66131361341E+03  0.35451197845E+04  0.34828922738E+04 0.  0.
        5    1    3    3  502    0 -0.15717947496E+04  0.74968707507E+03 -0.32397349251E+03  0.17713131737E+04  0.46999998093E+01 0. -1.
       -5    1    3    3    0  502  0.15717947496E+04 -0.74968707507E+03 -0.33734012090E+03  0.17738066108E+04  0.46999998093E+01 0.  1.
</event>
<event>
 5   0  0.6890600E-07  0.3910325E+04  0.7818609E-02  0.8022885E-01
        1   -1    0    0  501    0  0.00000000000E+00  0.00000000000E+00  0.20978475191E+04  0.20978475191E+04  0.50400001928E-02 0. -1.
       -1   -1    0    0    0  501  0.00000000000E+00  0.00000000000E+00 -0.18221819359E+04  0.18221819359E+04  0.50400001928E-02 0.  1.
    10030    2    1    2    0    0  0.00000000000E+00  0.00000000000E+00  0.27566558317E+03  0.39200294550E+04  0.39103247198E+04 0.  0.
        3    1    3    3  502    0 -0.41063583064E+03  0.18765731918E+04  0.50275698701E+03  0.19856770451E+04  0.10100000352E+00 0. -1.
       -3    1    3    3    0  502  0.41063583064E+03 -0.18765731918E+04 -0.22709140384E+03  0.19343524098E+04  0.10100000352E+00 0.  1.
</event>
<event>
 5   0  0.6630125E-07  0.3522805E+04  0.7818609E-02  0.8108407E-01
        1   -1    0    0  501    0  0.00000000000E+00  0.00000000000E+00  0.17681159644E+04  0.17681159644E+04  0.50400001928E-02 0. -1.
       -1   -1    0    0    0  501  0.00000000000E+00  0.00000000000E+00 -0.17547149018E+04  0.17547149018E+04  0.50400001928E-02 0.  1.
    10030    2    1    2    0    0  0.00000000000E+00  0.00000000000E+00  0.13401062515E+02  0.35228308662E+04  0.35228053769E+04 0.  0.
        5    1    3    3  502    0 -0.15940080527E+04 -0.71312422170E+03  0.23715721228E+03  0.17622921043E+04  0.46999998093E+01 0.  1.
       -5    1    3    3    0  502  0.15940080527E+04  0.71312422170E+03 -0.22375614976E+03  0.17605387619E+04  0.46999998093E+01 0. -1.
</event>
<event>
 5   0  0.2073287E-06  0.3476345E+04  0.7818609E-02  0.8119419E-01
       -2   -1    0    0    0  501  0.00000000000E+00  0.00000000000E+00  0.14730744803E+04  0.14730744803E+04  0.25500000920E-02 0. -1.
        2   -1    0    0  501    0  0.00000000000E+00  0.00000000000E+00 -0.20509779107E+04  0.20509779107E+04  0.25500000920E-02 0.  1.
    10030    2    1    2    0    0  0.00000000000E+00  0.00000000000E+00 -0.57790343043E+03  0.35240523909E+04  0.34763447584E+04 0.  0.
        1    1    3    3  502    0 -0.78239560289E+03 -0.73372666223E+03 -0.16754740628E+04  0.19893996656E+04  0.50400001928E-02 0.  1.
       -1    1    3    3    0  502  0.78239560289E+03  0.73372666223E+03  0.10975706324E+04  0.15346527253E+04  0.50400001928E-02 0. -1.
</event>
<event>
 5   0  0.1999883E-06  0.3427307E+04  0.7818609E-02  0.8131237E-01
       -2   -1    0    0    0  501  0.00000000000E+00  0.00000000000E+00  0.15424817452E+04  0.15424817452E+04  0.25500000920E-02 0.  1.
        2   -1    0    0  501    0  0.00000000000E+00  0.00000000000E+00 -0.19038208931E+04  0.19038208931E+04  0.25500000920E-02 0. -1.
    10030    2    1    2    0    0  0.00000000000E+00  0.00000000000E+00 -0.36133914790E+03  0.34463026384E+04  0.34273073827E+04 0.  0.
        4    1    3    3  502    0  0.13621719586E+04 -0.26127856308E+03 -0.11926411107E+04  0.18292548659E+04  0.12699999809E+01 0.  1.
       -4    1    3    3    0  502 -0.13621719586E+04  0.26127856308E+03  0.83130196285E+03  0.16170477725E+04  0.12699999809E+01 0. -1.
</event>
<event>
 5   0  0.6630125E-07  0.3476717E+04  0.7818609E-02  0.8119330E-01
       -4   -1    0    0    0  501  0.00000000000E+00  0.00000000000E+00  0.12381750478E+04  0.12381756992E+04  0.12699999809E+01 0.  1.
        4   -1    0    0  501    0  0.00000000000E+00  0.00000000000E+00 -0.24405992777E+04  0.24405996081E+04  0.12699999809E+01 0. -1.
    10030    2    1    2    0    0  0.00000000000E+00  0.00000000000E+00 -0.12024242298E+04  0.36787753073E+04  0.34767173789E+04 0.  0.
        2    1    3    3  502    0 -0.78097407420E+03  0.12484665369E+04 -0.15786410436E+04  0.21588646884E+04  0.25500000920E-02 0. -1.
       -2    1    3    3    0  502  0.78097407420E+03 -0.12484665369E+04  0.37621681374E+03  0.15199106189E+04  0.25500000920E-02 0.  1.
</event>
<event>
 5   0  0.6630125E-07  0.3478023E+04  0.7818609E-02  0.8119018E-01
       -1   -1    0    0    0  501  0.00000000000E+00  0.00000000000E+00  0.16890938369E+04  0.16890938369E+04  0.50400001928E-02 0.  1.
        1   -1    0    0  501    0  0.00000000000E+00  0.00000000000E+00 -0.17904041728E+04  0.17904041728E+04  0.50400001928E-02 0. -1.
    10030    2    1    2    0    0  0.00000000000E+00  0.00000000000E+00 -0.10131033585E+03  0.34794980097E+04  0.34780228026E+04 0.  0.
        4    1    3    3  502    0  0.56149727994E+03 -0.15003376444E+04 -0.72760072703E+03  0.17594591992E+04  0.12699999809E+01 0. -1.
       -4    1    3    3    0  502 -0.56149727994E+03  0.15003376444E+04  0.62629039118E+03  0.17200388105E+04  0.12699999809E+01 0.  1.
</event>
<event>
 5   0  0.2020725E-06  0.3533622E+04  0.7818609E-02  0.8105868E-01
        2   -1    0    0  501    0  0.00000000000E+00  0.00000000000E+00  0.21034976311E+04  0.21034976311E+04  0.25500000920E-02 0. -1.
       -2   -1    0    0    0  501  0.00000000000E+00  0.00000000000E+00 -0.14840144564E+04  0.14840144564E+04  0.25500000920E-02 0.  1.
    10030    2    1    2    0    0  0.00000000000E+00  0.00000000000E+00  0.61948317465E+03  0.35875120875E+04  0.35336218777E+04 0.  0.
        3    1    3    3  502    0 -0.10256238507E+04 -0.39678286707E+03 -0.10941999859E+04  0.15513267051E+04  0.10100000352E+00 0.  1.
       -3    1    3    3    0  502  0.10256238507E+04  0.39678286707E+03  0.17136831605E+04  0.20361853824E+04  0.10100000352E+00 0. -1.
</event>
<event>
 5   0  0.6630125E-07  0.3298430E+04  0.7818609E-02  0.8163295E-01
       -1   -1    0    0    0  501  0.00000000000E+00  0.00000000000E+00  0.18143063041E+04  0.18143063041E+04  0.50400001928E-02 0.  1.
        1   -1    0    0  501    0  0.00000000000E+00  0.00000000000E+00 -0.14991462937E+04  0.14991462937E+04  0.50400001928E-02 0. -1.
    10030    2    1    2    0    0  0.00000000000E+00  0.00000000000E+00  0.31516001038E+03  0.33134525978E+04  0.32984302760E+04 0.  0.
        1    1    3    3  502    0  0.70995716088E+03  0.11847665004E+04  0.10629057633E+04  0.17428366225E+04  0.50400001928E-02 0.  1.
       -1    1    3    3    0  502 -0.70995716088E+03 -0.11847665004E+04 -0.74774575294E+03  0.15706159753E+04  0.50400001928E-02 0. -1.
</event>
<event>
 5   0  0.2020725E-06  0.3539247E+04  0.7818609E-02  0.8104551E-01
       -2   -1    0    0    0  501  0.00000000000E+00  0.00000000000E+00  0.20518457190E+04  0.20518457190E+04  0.25500000920E-02 0. -1.
        2   -1    0    0  501    0  0.00000000000E+00  0.00000000000E+00 -0.15262194190E+04  0.15262194190E+04  0.25500000920E-02 0.  1.
    10030    2    1    2    0    0  0.00000000000E+00  0.00000000000E+00  0.52562630001E+03  0.35780651381E+04  0.35392466889E+04 0.  0.
        3    1    3    3  502    0  0.95691661479E+03  0.40751651619E+03  0.17102311300E+04  0.20016617214E+04  0.10100000352E+00 0. -1.
       -3    1    3    3    0  502 -0.95691661479E+03 -0.40751651619E+03 -0.11846048300E+04  0.15764034167E+04  0.10100000352E+00 0.  1.
</event>
<event>
 5   0  0.7378896E-07  0.3567191E+04  0.7818609E-02  0.8098049E-01
       -1   -1    0    0    0  501  0.00000000000E+00  0.00000000000E+00  0.23826853178E+04  0.23826853178E+04  0.50400001928E-02 0. -1.
        1   -1    0    0  501    0  0.00000000000E+00  0.00000000000E+00 -0.13351374196E+04  0.13351374196E+04  0.50400001928E-02 0.  1.
    10030    2    1    2    0    0  0.00000000000E+00  0.00000000000E+00  0.10475478982E+04  0.37178227373E+04  0.35671906744E+04 0.  0.
        2    1    3    3  502    0  0.37421173583E+03 -0.13507085272E+04  0.16734238299E+04  0.21828410989E+04  0.25500000920E-02 0. -1.
       -2    1    3    3    0  502 -0.37421173583E+03  0.13507085272E+04 -0.62587593166E+03  0.15349816385E+04  0.25500000920E-02 0.  1.
</event>
<event>
 5   0  0.2073287E-06  0.3492343E+04  0.7818609E-02  0.8115607E-01
        2   -1    0    0  501    0  0.00000000000E+00  0.00000000000E+00  0.17059432248E+04  0.17059432248E+04  0.25500000920E-02 0. -1.
       -2   -1    0    0    0  501  0.00000000000E+00  0.00000000000E+00 -0.17873483583E+04  0.17873483583E+04  0.25500000920E-02 0.  1.
    10030    2    1    2    0    0  0.00000000000E+00  0.00000000000E+00 -0.81405133577E+02  0.34932915831E+04  0.34923429512E+04 0.  0.
        1    1    3    3  502    0 -0.13251834648E+04  0.10526609882E+04 -0.47082919738E+03  0.17566691506E+04  0.50400001928E-02 0. -1.
       -1    1    3    3    0  502  0.13251834648E+04 -0.10526609882E+04  0.38942406380E+03  0.17366224325E+04  0.50400001928E-02 0.  1.
</event>
<event>
 5   0  0.2001768E-06  0.3477456E+04  0.7818609E-02  0.8119153E-01
       -2   -1    0    0    0  501  0.00000000000E+00  0.00000000000E+00  0.15068604716E+04  0.15068604716E+04  0.25500000920E-02 0. -1.
        2   -1    0    0  501    0  0.00000000000E+00  0.00000000000E+00 -0.20062739154E+04  0.20062739154E+04  0.25500000920E-02 0.  1.
    10030    2    1    2    0    0  0.00000000000E+00  0.00000000000E+00 -0.49941344377E+03  0.35131343871E+04  0.34774558852E+04 0.  0.
        2    1    3    3  502    0  0.13286042379E+04 -0.45761094361E+03 -0.12842138226E+04  0.19036286768E+04  0.25500000920E-02 0.  1.
       -2    1    3    3    0  502 -0.13286042379E+04  0.45761094361E+03  0.78480037886E+03  0.16095057103E+04  0.25500000920E-02 0. -1.
</event>
<event>
 5   0  0.6630125E-07  0.2696339E+04  0.7818609E-02  0.8336194E-01
        3   -1    0    0  501    0  0.00000000000E+00  0.00000000000E+00  0.15720077854E+04  0.15720077887E+04  0.10100000352E+00 0.  1.
       -3   -1    0    0    0  501  0.00000000000E+00  0.00000000000E+00 -0.11562038247E+04  0.11562038291E+04  0.10100000352E+00 0. -1.
    10030    2    1    2    0    0  0.00000000000E+00  0.00000000000E+00  0.41580396078E+03  0.27282116177E+04  0.26963393142E+04 0.  0.
        2    1    3    3  502    0 -0.29562379724E+03  0.64532107587E+03 -0.95182658501E+03  0.11873527565E+04  0.25500000920E-02 0. -1.
       -2    1    3    3    0  502  0.29562379724E+03 -0.64532107587E+03  0.13676305458E+04  0.15408588612E+04  0.25500000920E-02 0.  1.
</event>
<event>
 5   0  0.6630125E-07  0.3430326E+04  0.7818609E-02  0.8130503E-01
        1   -1    0    0  501    0  0.00000000000E+00  0.00000000000E+00  0.27251826522E+04  0.27251826522E+04  0.50400001928E-02 0. -1.
       -1   -1    0    0    0  501  0.00000000000E+00  0.00000000000E+00 -0.10794811667E+04  0.10794811667E+04  0.50400001928E-02 0.  1.
    10030    2    1    2    0    0  0.00000000000E+00  0.00000000000E+00  0.16457014855E+04  0.38046638189E+04  0.34303255524E+04 0.  0.
        4    1    3    3  502    0  0.11564839859E+04 -0.77359322734E+03  0.19352329824E+04  0.23834911370E+04  0.12699999809E+01 0. -1.
       -4    1    3    3    0  502 -0.11564839859E+04  0.77359322734E+03 -0.28953149695E+03  0.14211726819E+04  0.12699999809E+01 0.  1.
</event>
<event>
 5   0  0.1999883E-06  0.3402496E+04  0.7818609E-02  0.8137294E-01
        2   -1    0    0  501    0  0.00000000000E+00  0.00000000000E+00  0.21295606761E+04  0.21295606761E+04  0.25500000920E-02 0. -1.
       -2   -1    0    0    0  501  0.00000000000E+00  0.00000000000E+00 -0.13590804515E+04  0.13590804515E+04  0.25500000920E-02 0.  1.
    10030    2    1    2    0    0  0.00000000000E+00  0.00000000000E+00  0.77048022464E+03  0.34886411276E+04  0.34024957223E+04 0.  0.
        4    1    3    3  502    0  0.78205772226E+03  0.10341625574E+03 -0.11602154189E+04  0.14030005823E+04  0.12699999809E+01 0.  1.
       -4    1    3    3    0  502 -0.78205772226E+03 -0.10341625574E+03  0.19306956436E+04  0.20856405452E+04  0.12699999809E+01 0. -1.
</event>
<event>
 5   0  0.2023479E-06  0.3715388E+04  0.7818609E-02  0.8064560E-01
        2   -1    0    0  501    0  0.00000000000E+00  0.00000000000E+00  0.16300358104E+04  0.16300358104E+04  0.25500000920E-02 0. -1.
       -2   -1    0    0    0  501  0.00000000000E+00  0.00000000000E+00 -0.21171478486E+04  0.21171478486E+04  0.25500000920E-02 0.  1.
    10030    2    1    2    0    0  0.00000000000E+00  0.00000000000E+00 -0.48711203815E+03  0.37471836590E+04  0.37153878986E+04 0.  0.
        5    1    3    3  502    0  0.16118355940E+04  0.75931034779E+03 -0.77382974235E+03  0.19425243233E+04  0.46999998093E+01 0.  1.
       -5    1    3    3    0  502 -0.16118355940E+04 -0.75931034779E+03  0.28671770420E+03  0.18046593358E+04  0.46999998093E+01 0. -1.
</event>
<event>
 5   0  0.6630125E-07  0.2226814E+04  0.7818609E-02  0.8507350E-01
       -1   -1    0    0    0  501  0.00000000000E+00  0.00000000000E+00  0.92623928645E+03  0.92623928647E+03  0.50400001928E-02 0.  1.
        1   -1    0    0  501    0  0.00000000000E+00  0.00000000000E+00 -0.13383962824E+04  0.13383962824E+04  0.50400001928E-02 0. -1.
    10030    2    1    2    0    0  0.00000000000E+00  0.00000000000E+00 -0.41215699597E+03  0.22646355689E+04  0.22268140629E+04 0.  0.
        1    1    3    3  502    0  0.58209841763E+03 -0.22151694416E+03 -0.11446659563E+04  0.13031379343E+04  0.50400001928E-02 0. -1.
       -1    1    3    3    0  502 -0.58209841763E+03  0.22151694416E+03  0.73250896031E+03  0.96149763458E+03  0.50400001928E-02 0.  1.
</event>
<event>
 5   0  0.1999883E-06  0.3462660E+04  0.7818609E-02  0.8122696E-01
        2   -1    0    0  501    0  0.00000000000E+00  0.00000000000E+00  0.13742432011E+04  0.13742432011E+04  0.25500000920E-02 0. -1.
       -2   -1    0    0    0  501  0.00000000000E+00  0.00000000000E+00 -0.21812034860E+04  0.21812034860E+04  0.25500000920E-02 0.  1.
    10030    2    1    2    0    0  0.00000000000E+00  0.00000000000E+00 -0.80696028492E+03  0.35554466871E+04  0.34626602841E+04 0.  0.
        4    1    3    3  502    0 -0.83277320862E+03  0.97018111184E+03  0.79516536437E+03  0.15056733299E+04  0.12699999809E+01 0. -1.
       -4    1    3    3    0  502  0.83277320862E+03 -0.97018111184E+03 -0.16021256493E+04  0.20497733572E+04  0.12699999809E+01 0.  1.
</event>
<event>
 5   0  0.6630125E-07  0.3207190E+04  0.7818609E-02  0.8186921E-01
        3   -1    0    0  501    0  0.00000000000E+00  0.00000000000E+00  0.23058047903E+04  0.23058047925E+04  0.10100000352E+00 0. -1.
       -3   -1    0    0    0  501  0.00000000000E+00  0.00000000000E+00 -0.11152361711E+04  0.11152361756E+04  0.10100000352E+00 0.  1.
    10030    2    1    2    0    0  0.00000000000E+00  0.00000000000E+00  0.11905686193E+04  0.34210409682E+04  0.32071899958E+04 0.  0.
        5    1    3    3  502    0  0.22185096926E+03 -0.15191512956E+04  0.10892570768E+04  0.18824297014E+04  0.46999998093E+01 0. -1.
       -5    1    3    3    0  502 -0.22185096926E+03  0.15191512956E+04  0.10131154245E+03  0.15386112667E+04  0.46999998093E+01 0.  1.
</event>
<event>
 5   0  0.6890600E-07  0.3508092E+04  0.7818609E-02  0.8111875E-01
       -1   -1    0    0    0  501  0.00000000000E+00  0.00000000000E+00  0.29685784666E+04  0.29685784666E+04  0.50400001928E-02 0.  1.
        1   -1    0    0  501    0  0.00000000000E+00  0.00000000000E+00 -0.10364146019E+04  0.10364146019E+04  0.50400001928E-02 0. -1.
    10030    2    1    2    0    0  0.00000000000E+00  0.00000000000E+00  0.19321638647E+04  0.40049930685E+04  0.35080923988E+04 0.  0.
        3    1    3    3  502    0  0.67874354362E+03  0.11006775934E+04 -0.38689597234E+03  0.13497675600E+04  0.10100000352E+00 0. -1.
       -3    1    3    3    0  502 -0.67874354362E+03 -0.11006775934E+04  0.23190598371E+04  0.26552255084E+04  0.10100000352E+00 0.  1.
</event>
<event>
 5   0  0.7378896E-07  0.3507308E+04  0.7818609E-02  0.8112060E-01
       -1   -1    0    0    0  501  0.00000000000E+00  0.00000000000E+00  0.23427705586E+04  0.23427705586E+04  0.50400001928E-02 0.  1.
        1   -1    0    0  501    0  0.00000000000E+00  0.00000000000E+00 -0.13126775031E+04  0.13126775031E+04  0.50400001928E-02 0. -1.
    10030    2    1    2    0    0  0.00000000000E+00  0.00000000000E+00  0.10300930555E+04  0.36554480617E+04  0.35073079176E+04 0.  0.
        2    1    3    3  502    0  0.30722616812E+03 -0.41073004491E+02 -0.12839011879E+04  0.13207865727E+04  0.25500000920E-02 0. -1.
       -2    1    3    3    0  502 -0.30722616812E+03  0.41073004491E+02  0.23139942434E+04  0.23346614891E+04  0.25500000920E-02 0.  1.
</event>
<event>
 5   0  0.7378896E-07  0.3151108E+04  0.7818609E-02  0.8201850E-01
        1   -1    0    0  501    0  0.00000000000E+00  0.00000000000E+00  0.15261695007E+04  0.15261695007E+04  0.50400001928E-02 0. -1.
       -1   -1    0    0    0  501  0.00000000000E+00  0.00000000000E+00 -0.16265362948E+04  0.16265362949E+04  0.50400001928E-02 0.  1.
    10030    2    1    2    0    0  0.00000000000E+00  0.00000000000E+00 -0.10036679411E+03  0.31527057956E+04  0.31511077957E+04 0.  0.
        2    1    3    3  502    0  0.24135264781E+03 -0.12651488071E+04 -0.95812223963E+03  0.16052572475E+04  0.25500000920E-02 0.  1.
       -2    1    3    3    0  502 -0.24135264781E+03  0.12651488071E+04  0.85775544552E+03  0.15474485481E+04  0.25500000920E-02 0. -1.
</event>
<event>
 5   0  0.6630125E-07  0.3517226E+04  0.7818609E-02  0.8109720E-01
       -1   -1    0    0    0  501  0.00000000000E+00  0.00000000000E+00  0.26994924719E+04  0.26994924719E+04  0.50400001928E-02 0.  1.
        1   -1    0    0  501    0  0.00000000000E+00  0.00000000000E+00 -0.11456672515E+04  0.11456672515E+04  0.50400001928E-02 0. -1.
    10030    2    1    2    0    0  0.00000000000E+00  0.00000000000E+00  0.15538252204E+04  0.38451597234E+04  0.35172262485E+04 0.  0.
        1    1    3    3  502    0 -0.20680953151E+03  0.14465397137E+04 -0.29282508722E+03  0.14902999220E+04  0.50400001928E-02 0. -1.
       -1    1    3    3    0  502  0.20680953151E+03 -0.14465397137E+04  0.18466503076E+04  0.23548598015E+04  0.50400001928E-02 0.  1.
</event>
<event>
 5   0  0.6630125E-07  0.3499642E+04  0.7818609E-02  0.8113875E-01
       -1   -1    0    0    0  501  0.00000000000E+00  0.00000000000E+00  0.14248648405E+04  0.14248648405E+04  0.50400001928E-02 0.  1.
        1   -1    0    0  501    0  0.00000000000E+00  0.00000000000E+00 -0.21488873904E+04  0.21488873904E+04  0.50400001928E-02 0. -1.
    10030    2    1    2    0    0  0.00000000000E+00  0.00000000000E+00 -0.72402254992E+03  0.35737522309E+04  0.34996423181E+04 0.  0.
        5    1    3    3  502    0  0.57651212516E+03  0.14096140311E+04 -0.12419276912E+04  0.19651423427E+04  0.46999998093E+01 0. -1.
       -5    1    3    3    0  502 -0.57651212516E+03 -0.14096140311E+04  0.51790514126E+03  0.16086098882E+04  0.46999998093E+01 0.  1.
</event>
<event>
 5   0  0.7378896E-07  0.3510641E+04  0.7818609E-02  0.8111273E-01
        1   -1    0    0  501    0  0.00000000000E+00  0.00000000000E+00  0.19512745889E+04  0.19512745889E+04  0.50400001928E-02 0.  1.
       -1   -1    0    0    0  501  0.00000000000E+00  0.00000000000E+00 -0.15790450321E+04  0.15790450321E+04  0.50400001928E-02 0. -1.
    10030    2    1    2    0    0  0.00000000000E+00  0.00000000000E+00  0.37222955680E+03  0.35303196209E+04  0.35106412211E+04 0.  0.
        2    1    3    3  502    0  0.33999148883E+03  0.11051327380E+04 -0.11419841723E+04  0.16251278199E+04  0.25500000920E-02 0. -1.
       -2    1    3    3    0  502 -0.33999148883E+03 -0.11051327380E+04  0.15142137291E+04  0.19051918010E+04  0.25500000920E-02 0.  1.
</event>
<event>
 5   0  0.1999883E-06  0.3366476E+04  0.7818609E-02  0.8146183E-01
        2   -1    0    0  501    0  0.00000000000E+00  0.00000000000E+00  0.20637641454E+04  0.20637641454E+04  0.25500000920E-02 0.  1.
       -2   -1    0    0    0  501  0.00000000000E+00  0.00000000000E+00 -0.13728753759E+04  0.13728753759E+04  0.25500000920E-02 0. -1.
    10030    2    1    2    0    0  0.00000000000E+00  0.00000000000E+00  0.69088876947E+03  0.34366395213E+04  0.33664764826E+04 0.  0.
        4    1    3    3  502    0 -0.62519853768E+03  0.70521480733E+03  0.17691757342E+04  0.20045412261E+04  0.12699999809E+01 0.  1.
       -4    1    3    3    0  502  0.62519853768E+03 -0.70521480733E+03 -0.10782869647E+04  0.14320982952E+04  0.12699999809E+01 0. -1.
</event>
<event>
 5   0  0.1999883E-06  0.3428825E+04  0.7818609E-02  0.8130868E-01
        2   -1    0    0  501    0  0.00000000000E+00  0.00000000000E+00  0.22249338767E+04  0.22249338767E+04  0.25500000920E-02 0. -1.
       -2   -1    0    0    0  501  0.00000000000E+00  0.00000000000E+00 -0.13210325108E+04  0.13210325108E+04  0.25500000920E-02 0.  1.
    10030    2    1    2    0    0  0.00000000000E+00  0.00000000000E+00  0.90390136592E+03  0.35459663875E+04  0.34288248632E+04 0.  0.
        4    1    3    3  502    0  0.10527799947E+04  0.13271295006E+04  0.17913925704E+03  0.17034409044E+04  0.12699999809E+01 0.  1.
       -4    1    3    3    0  502 -0.10527799947E+04 -0.13271295006E+04  0.72476210888E+03  0.18425254831E+04  0.12699999809E+01 0. -1.
</event>
<event>
 5   0  0.1999883E-06  0.2598245E+04  0.7818609E-02  0.8368798E-01
        2   -1    0    0  501    0  0.00000000000E+00  0.00000000000E+00  0.19920990640E+04  0.19920990640E+04  0.25500000920E-02 0. -1.
       -2   -1    0    0    0  501  0.00000000000E+00  0.00000000000E+00 -0.84720623880E+03  0.84720623880E+03  0.25500000920E-02 0.  1.
    10030    2    1    2    0    0  0.00000000000E+00  0.00000000000E+00  0.11448928252E+04  0.28393053028E+04  0.25982446038E+04 0.  0.
        4    1    3    3  502    0 -0.72927173058E+03  0.93363604677E+03 -0.10121902480E+02  0.11847436814E+04  0.12699999809E+01 0.  1.
       -4    1    3    3    0  502  0.72927173058E+03 -0.93363604677E+03  0.11550147276E+04  0.16545616213E+04  0.12699999809E+01 0. -1.
</event>
<event>
 5   0  0.6630125E-07  0.3124904E+04  0.7818609E-02  0.8208936E-01
        1   -1    0    0  501    0  0.00000000000E+00  0.00000000000E+00  0.18704341119E+04  0.18704341119E+04  0.50400001928E-02 0.  1.
       -1   -1    0    0    0  501  0.00000000000E+00  0.00000000000E+00 -0.13051813140E+04  0.13051813140E+04  0.50400001928E-02 0. -1.
    10030    2    1    2    0    0  0.00000000000E+00  0.00000000000E+00  0.56525279794E+03  0.31756154259E+04  0.31249036158E+04 0.  0.
        4    1    3    3  502    0  0.12027555866E+04  0.45022053531E+03 -0.62172228296E+03  0.14268355692E+04  0.12699999809E+01 0. -1.
       -4    1    3    3    0  502 -0.12027555866E+04 -0.45022053531E+03  0.11869750809E+04  0.17487798567E+04  0.12699999809E+01 0.  1.
</event>
<event>
 5   0  0.6630125E-07  0.3589158E+04  0.7818609E-02  0.8092980E-01
       -1   -1    0    0    0  501  0.00000000000E+00  0.00000000000E+00  0.10595495215E+04  0.10595495215E+04  0.50400001928E-02 0.  1.
        1   -1    0    0  501    0  0.00000000000E+00  0.00000000000E+00 -0.30395126083E+04  0.30395126083E+04  0.50400001928E-02 0. -1.
    10030    2    1    2    0    0  0.00000000000E+00  0.00000000000E+00 -0.19799630868E+04  0.40990621298E+04  0.35891581908E+04 0.  0.
        4    1    3    3  502    0  0.10932497841E+04  0.14211611457E+04 -0.90437653715E+03  0.20081814227E+04  0.12699999809E+01 0. -1.
       -4    1    3    3    0  502 -0.10932497841E+04 -0.14211611457E+04 -0.10755865497E+04  0.20908807071E+04  0.12699999809E+01 0.  1.
</event>
<event>
 5   0  0.2023479E-06  0.3707214E+04  0.7818609E-02  0.8066365E-01
        2   -1    0    0  501    0  0.00000000000E+00  0.00000000000E+00  0.24034187915E+04  0.24034187915E+04  0.25500000920E-02 0. -1.
       -2   -1    0    0    0  501  0.00000000000E+00  0.00000000000E+00 -0.14295717393E+04  0.14295717393E+04  0.25500000920E-02 0.  1.
    10030    2    1    2    0    0  0.00000000000E+00  0.00000000000E+00  0.97384705222E+03  0.38329905308E+04  0.37072143623E+04 0.  0.
        5    1    3    3  502    0 -0.13955304312E+04 -0.12195367561E+04  0.52062397703E+03  0.19250575315E+04  0.46999998093E+01 0. -1.
       -5    1    3    3    0  502  0.13955304312E+04  0.12195367561E+04  0.45322307519E+03  0.19079329993E+04  0.46999998093E+01 0.  1.
</event>
<event>
 5   0  0.6630125E-07  0.3465809E+04  0.7818609E-02  0.8121941E-01
        1   -1    0    0  501    0  0.00000000000E+00  0.00000000000E+00  0.21542820131E+04  0.21542820131E+04  0.50400001928E-02 0. -1.
       -1   -1    0    0    0  501  0.00000000000E+00  0.00000000000E+00 -0.13939487652E+04  0.13939487652E+04  0.50400001928E-02 0.  1.
    10030    2    1    2    0    0  0.00000000000E+00  0.00000000000E+00  0.76033324787E+03  0.35482307783E+04  0.34658094305E+04 0.  0.
        5    1    3    3  502    0  0.14300622712E+04  0.24062414098E+02 -0.62150777302E+03  0.15594714173E+04  0.46999998093E+01 0.  1.
       -5    1    3    3    0  502 -0.14300622712E+04 -0.24062414098E+02  0.13818410209E+04  0.19887593611E+04  0.46999998093E+01 0. -1.
</event>
<event>
 5   0  0.6630125E-07  0.3415389E+04  0.7818609E-02  0.8134140E-01
        1   -1    0    0  501    0  0.00000000000E+00  0.00000000000E+00  0.14846545423E+04  0.14846545423E+04  0.50400001928E-02 0. -1.
       -1   -1    0    0    0  501  0.00000000000E+00  0.00000000000E+00 -0.19642412751E+04  0.19642412751E+04  0.50400001928E-02 0.  1.
    10030    2    1    2    0    0  0.00000000000E+00  0.00000000000E+00 -0.47958673278E+03  0.34488958174E+04  0.34153885467E+04 0.  0.
        5    1    3    3  502    0 -0.57320809193E+03  0.13487782473E+03  0.13788793162E+04  0.14993631325E+04  0.46999998093E+01 0. -1.
       -5    1    3    3    0  502  0.57320809193E+03 -0.13487782473E+03 -0.18584660490E+04  0.19495326849E+04  0.46999998093E+01 0.  1.
</event>
<event>
 5   0  0.2001768E-06  0.3528183E+04  0.7818609E-02  0.8107143E-01
        2   -1    0    0  501    0  0.00000000000E+00  0.00000000000E+00  0.18488031253E+04  0.18488031253E+04  0.25500000920E-02 0. -1.
       -2   -1    0    0    0  501  0.00000000000E+00  0.00000000000E+00 -0.16832616400E+04  0.16832616400E+04  0.25500000920E-02 0.  1.
    10030    2    1    2    0    0  0.00000000000E+00  0.00000000000E+00  0.16554148538E+03  0.35320647653E+04  0.35281833176E+04 0.  0.
        2    1    3    3  502    0 -0.28980165136E+03 -0.17246766016E+04 -0.14883849050E+03  0.17551772769E+04  0.25500000920E-02 0.  1.
       -2    1    3    3    0  502  0.28980165136E+03  0.17246766016E+04  0.31437997587E+03  0.17768874884E+04  0.25500000920E-02 0. -1.
</event>
<event>
 5   0  0.6890600E-07  0.3572034E+04  0.7818609E-02  0.8096928E-01
       -1   -1    0    0    0  501  0.00000000000E+00  0.00000000000E+00  0.19769174813E+04  0.19769174813E+04  0.50400001928E-02 0. -1.
        1   -1    0    0  501    0  0.00000000000E+00  0.00000000000E+00 -0.16135505058E+04  0.16135505058E+04  0.50400001928E-02 0.  1.
    10030    2    1    2    0    0  0.00000000000E+00  0.00000000000E+00  0.36336697551E+03  0.35904679872E+04  0.35720337076E+04 0.  0.
        3    1    3    3  502    0 -0.70752464823E+03  0.16357291689E+04  0.64225177733E+02  0.17833468326E+04  0.10100000352E+00 0.  1.
       -3    1    3    3    0  502  0.70752464823E+03 -0.16357291689E+04  0.29914179778E+03  0.18071211545E+04  0.10100000352E+00 0. -1.
</event>
<event>
 5   0  0.2020725E-06  0.3399344E+04  0.7818609E-02  0.8138067E-01
       -2   -1    0    0    0  501  0.00000000000E+00  0.00000000000E+00  0.14510838767E+04  0.14510838767E+04  0.25500000920E-02 0. -1.
        2   -1    0    0  501    0  0.00000000000E+00  0.00000000000E+00 -0.19908467678E+04  0.19908467678E+04  0.25500000920E-02 0.  1.
    10030    2    1    2    0    0  0.00000000000E+00  0.00000000000E+00 -0.53976289114E+03  0.34419306445E+04  0.33993444343E+04 0.  0.
        3    1    3    3  502    0  0.13209506570E+03 -0.79803426620E+03  0.12436961395E+04  0.14836063811E+04  0.10100000352E+00 0. -1.
       -3    1    3    3    0  502 -0.13209506570E+03  0.79803426620E+03 -0.17834590307E+04  0.19583242634E+04  0.10100000352E+00 0.  1.
</event>
<event>
 5   0  0.1999883E-06  0.3587345E+04  0.7818609E-02  0.8093397E-01
       -2   -1    0    0    0  501  0.00000000000E+00  0.00000000000E+00  0.18527302575E+04  0.18527302575E+04  0.25500000920E-02 0.  1.
        2   -1    0    0  501    0  0.00000000000E+00  0.00000000000E+00 -0.17364969464E+04  0.17364969464E+04  0.25500000920E-02 0. -1.
    10030    2    1    2    0    0  0.00000000000E+00  0.00000000000E+00  0.11623331108E+03  0.35892272039E+04  0.35873446640E+04 0.  0.
        4    1    3    3  502    0  0.96572402810E+03  0.13970962957E+04  0.63527105424E+03  0.18133041342E+04  0.12699999809E+01 0.  1.
       -4    1    3    3    0  502 -0.96572402810E+03 -0.13970962957E+04 -0.51903774315E+03  0.17759230697E+04  0.12699999809E+01 0. -1.
</event>
<event>
 5   0  0.1999883E-06  0.3509364E+04  0.7818609E-02  0.8111574E-01
        2   -1    0    0  501    0  0.00000000000E+00  0.00000000000E+00  0.26908376147E+04  0.26908376147E+04  0.25500000920E-02 0.  1.
       -2   -1    0    0    0  501  0.00000000000E+00  0.00000000000E+00 -0.11442197662E+04  0.11442197662E+04  0.25500000920E-02 0. -1.
    10030    2    1    2    0    0  0.00000000000E+00  0.00000000000E+00  0.15466178484E+04  0.38350573809E+04  0.35093643791E+04 0.  0.
        4    1    3    3  502    0  0.44931977686E+02 -0.66201058949E+03  0.25484494495E+04  0.26334147248E+04  0.12699999809E+01 0.  1.
       -4    1    3    3    0  502 -0.44931977686E+02  0.66201058949E+03 -0.10018316010E+04  0.12016426561E+04  0.12699999809E+01 0. -1.
</event>
<event>
 5   0  0.7378896E-07  0.3433535E+04  0.7818609E-02  0.8129724E-01
        1   -1    0    0  501    0  0.00000000000E+00  0.00000000000E+00  0.13755018122E+04  0.13755018122E+04  0.50400001928E-02 0. -1.
       -1   -1    0    0    0  501  0.00000000000E+00  0.00000000000E+00 -0.21427022498E+04  0.21427022498E+04  0.50400001928E-02 0.  1.
    10030    2    1    2    0    0  0.00000000000E+00  0.00000000000E+00 -0.76720043761E+03  0.35182040620E+04  0.34335351040E+04 0.  0.
        2    1    3    3  502    0 -0.10265958268E+04 -0.56485467736E+03 -0.16692644499E+04  0.20394615961E+04  0.25500000920E-02 0.  1.
       -2    1    3    3    0  502  0.10265958268E+04  0.56485467736E+03  0.90206401234E+03  0.14787424659E+04  0.25500000920E-02 0. -1.
</event>
<event>
 5   0  0.2073287E-06  0.3119074E+04  0.7818609E-02  0.8210523E-01
        2   -1    0    0  501    0  0.00000000000E+00  0.00000000000E+00  0.19979503996E+04  0.19979503996E+04  0.25500000920E-02 0.  1.
       -2   -1    0    0    0  501  0.00000000000E+00  0.00000000000E+00 -0.12173255357E+04  0.12173255357E+04  0.25500000920E-02 0. -1.
    10030    2    1    2    0    0  0.00000000000E+00  0.00000000000E+00  0.78062486387E+03  0.32152759354E+04  0.31190742477E+04 0.  0.
        1    1    3    3  502    0  0.11554349162E+04 -0.10642422995E+03  0.14644687107E+04  0.18684283682E+04  0.50400001928E-02 0.  1.
       -1    1    3    3    0  502 -0.11554349162E+04  0.10642422995E+03 -0.68384384684E+03  0.13468475672E+04  0.50400001928E-02 0. -1.
</event>
<event>
 5   0  0.6630125E-07  0.3401935E+04  0.7818609E-02  0.8137432E-01
       -1   -1    0    0    0  501  0.00000000000E+00  0.00000000000E+00  0.12297436587E+04  0.12297436587E+04  0.50400001928E-02 0.  1.
        1   -1    0    0  501    0  0.00000000000E+00  0.00000000000E+00 -0.23527590064E+04  0.23527590064E+04  0.50400001928E-02 0. -1.
    10030    2    1    2    0    0  0.00000000000E+00  0.00000000000E+00 -0.11230153477E+04  0.35825026650E+04  0.34019350190E+04 0.  0.
        1    1    3    3  502    0  0.16432127366E+04 -0.30218352581E+03 -0.89754925731E+03  0.18965910603E+04  0.50400001928E-02 0.  1.
       -1    1    3    3    0  502 -0.16432127366E+04  0.30218352581E+03 -0.22546609038E+03  0.16859116047E+04  0.50400001928E-02 0. -1.
</event>
<event>
 5   0  0.6630125E-07  0.3565695E+04  0.7818609E-02  0.8098395E-01
        1   -1    0    0  501    0  0.00000000000E+00  0.00000000000E+00  0.23238604128E+04  0.23238604128E+04  0.50400001928E-02 0. -1.
       -1   -1    0    0    0  501  0.00000000000E+00  0.00000000000E+00 -0.13677868887E+04  0.13677868887E+04  0.50400001928E-02 0.  1.
    10030    2    1    2    0    0  0.00000000000E+00  0.00000000000E+00  0.95607352410E+03  0.36916473016E+04  0.35656953341E+04 0.  0.
        5    1    3    3  502    0  0.49196293401E+03 -0.98933068034E+03 -0.97057286789E+03  0.14706585278E+04  0.46999998093E+01 0.  1.
       -5    1    3    3    0  502 -0.49196293401E+03  0.98933068034E+03  0.19266463920E+04  0.22209887738E+04  0.46999998093E+01 0. -1.
</event>
<event>
 5   0  0.2073287E-06  0.3092400E+04  0.7818609E-02  0.8217827E-01
       -2   -1    0    0    0  501  0.00000000000E+00  0.00000000000E+00  0.17020527627E+04  0.17020527627E+04  0.25500000920E-02 0. -1.
        2   -1    0    0  501    0  0.00000000000E+00  0.00000000000E+00 -0.14046180257E+04  0.14046180257E+04  0.25500000920E-02 0.  1.
    10030    2    1    2    0    0  0.00000000000E+00  0.00000000000E+00  0.29743473699E+03  0.31066707883E+04  0.30923997097E+04 0.  0.
        1    1    3    3  502    0  0.99160140879E+03  0.33183826354E+03 -0.99554913396E+03  0.14437825547E+04  0.50400001928E-02 0.  1.
       -1    1    3    3    0  502 -0.99160140879E+03 -0.33183826354E+03  0.12929838709E+04  0.16628882337E+04  0.50400001928E-02 0. -1.
</event>
<event>
 5   0  0.6630125E-07  0.2493139E+04  0.7818609E-02  0.8405434E-01
        1   -1    0    0  501    0  0.00000000000E+00  0.00000000000E+00  0.22710549176E+04  0.22710549176E+04  0.50400001928E-02 0. -1.
       -1   -1    0    0    0  501  0.00000000000E+00  0.00000000000E+00 -0.68423483916E+03  0.68423483918E+03  0.50400001928E-02 0.  1.
    10030    2    1    2    0    0  0.00000000000E+00  0.00000000000E+00  0.15868200784E+04  0.29552897568E+04  0.24931385010E+04 0.  0.
        5    1    3    3  502    0 -0.25262774696E+03  0.14219635087E+03  0.22305314338E+04  0.22492961450E+04  0.46999998093E+01 0. -1.
       -5    1    3    3    0  502  0.25262774696E+03 -0.14219635087E+03 -0.64371135541E+03  0.70599361174E+03  0.46999998093E+01 0.  1.
</event>
<event>
 5   0  0.6890600E-07  0.2260916E+04  0.7818609E-02  0.8493493E-01
       -1   -1    0    0    0  501  0.00000000000E+00  0.00000000000E+00  0.66579766083E+03  0.66579766085E+03  0.50400001928E-02 0.  1.
        1   -1    0    0  501    0  0.00000000000E+00  0.00000000000E+00 -0.19194056773E+04  0.19194056773E+04  0.50400001928E-02 0. -1.
    10030    2    1    2    0    0  0.00000000000E+00  0.00000000000E+00 -0.12536080165E+04  0.25852033382E+04  0.22609164604E+04 0.  0.
        3    1    3    3  502    0  0.32464397425E+03  0.10797535788E+04 -0.72021823425E+03  0.13378997781E+04  0.10100000352E+00 0. -1.
       -3    1    3    3    0  502 -0.32464397425E+03 -0.10797535788E+04 -0.53338978225E+03  0.12473035601E+04  0.10100000352E+00 0.  1.
</event>
<event>
 5   0  0.6630125E-07  0.3742216E+04  0.7818609E-02  0.8058670E-01
       -1   -1    0    0    0  501  0.00000000000E+00  0.00000000000E+00  0.12599090227E+04  0.12599090227E+04  0.50400001928E-02 0.  1.
        1   -1    0    0  501    0  0.00000000000E+00  0.00000000000E+00 -0.27788082503E+04  0.27788082503E+04  0.50400001928E-02 0. -1.
    10030    2    1    2    0    0  0.00000000000E+00  0.00000000000E+00 -0.15188992276E+04  0.40387172731E+04  0.37422162348E+04 0.  0.
        4    1    3    3  502    0  0.52713340686E+03  0.18511561710E+03 -0.26866881446E+04  0.27441633005E+04  0.12699999809E+01 0. -1.
       -4    1    3    3    0  502 -0.52713340686E+03 -0.18511561710E+03  0.11677889170E+04  0.12945539726E+04  0.12699999809E+01 0.  1.
</event>
<event>
 5   0  0.2023479E-06  0.3492810E+04  0.7818609E-02  0.8115496E-01
        2   -1    0    0  501    0  0.00000000000E+00  0.00000000000E+00  0.18199281603E+04  0.18199281603E+04  0.25500000920E-02 0.  1.
       -2   -1    0    0    0  501  0.00000000000E+00  0.00000000000E+00 -0.16758520494E+04  0.16758520494E+04  0.25500000920E-02 0. -1.
    10030    2    1    2    0    0  0.00000000000E+00  0.00000000000E+00  0.14407611086E+03  0.34957802097E+04  0.34928099503E+04 0.  0.
        5    1    3    3  502    0  0.16771134572E+04  0.48315107844E+03  0.13343950841E+03  0.17504207224E+04  0.46999998093E+01 0. -1.
       -5    1    3    3    0  502 -0.16771134572E+04 -0.48315107844E+03  0.10636602456E+02  0.17453594874E+04  0.46999998093E+01 0.  1.
</event>
<event>
 5   0  0.2073287E-06  0.3259945E+04  0.7818609E-02  0.8173163E-01
        2   -1    0    0  501    0  0.00000000000E+00  0.00000000000E+00  0.15746844954E+04  0.15746844954E+04  0.25500000920E-02 0. -1.
       -2   -1    0    0    0  501  0.00000000000E+00  0.00000000000E+00 -0.16872015455E+04  0.16872015455E+04  0.25500000920E-02 0.  1.
    10030    2    1    2    0    0  0.00000000000E+00  0.00000000000E+00 -0.11251705009E+03  0.32618860408E+04  0.32599448549E+04 0.  0.
        1    1    3    3  502    0 -0.10655445374E+04  0.12156311525E+04  0.15282966824E+03  0.16237306327E+04  0.50400001928E-02 0. -1.
       -1    1    3    3    0  502  0.10655445374E+04 -0.12156311525E+04 -0.26534671833E+03  0.16381554081E+04  0.50400001928E-02 0.  1.
</event>
<event>
 5   0  0.7378896E-07  0.3053848E+04  0.7818609E-02  0.8228519E-01
        1   -1    0    0  501    0  0.00000000000E+00  0.00000000000E+00  0.12383959051E+04  0.12383959051E+04  0.50400001928E-02 0. -1.
       -1   -1    0    0    0  501  0.00000000000E+00  0.00000000000E+00 -0.18826752804E+04  0.18826752804E+04  0.50400001928E-02 0.  1.
    10030    2    1    2    0    0  0.00000000000E+00  0.00000000000E+00 -0.64427937535E+03  0.31210711855E+04  0.30538482987E+04 0.  0.
        2    1    3    3  502    0 -0.84278914579E+03 -0.80733724961E+03 -0.13283993123E+04  0.17682566872E+04  0.25500000920E-02 0.  1.
       -2    1    3    3    0  502  0.84278914579E+03  0.80733724961E+03  0.68411993692E+03  0.13528144984E+04  0.25500000920E-02 0. -1.
</event>
<event>
 5   0  0.6630125E-07  0.3618972E+04  0.7818609E-02  0.8086160E-01
        1   -1    0    0  501    0  0.00000000000E+00  0.00000000000E+00  0.18085058307E+04  0.18085058307E+04  0.50400001928E-02 0. -1.
       -1   -1    0    0    0  501  0.00000000000E+00  0.00000000000E+00 -0.18104668893E+04  0.18104668893E+04  0.50400001928E-02 0.  1.
    10030    2    1    2    0    0  0.00000000000E+00  0.00000000000E+00 -0.19610586181E+01  0.36189727201E+04  0.36189721887E+04 0.  0.
        5    1    3    3  502    0 -0.10353416027E+04 -0.90757337624E+03 -0.11751170516E+04  0.18101226043E+04  0.46999998093E+01 0.  1.
       -5    1    3    3    0  502  0.10353416027E+04  0.90757337624E+03  0.11731559930E+04  0.18088501158E+04  0.46999998093E+01 0. -1.
</event>
<event>
 5   0  0.2020725E-06  0.3424837E+04  0.7818609E-02  0.8131837E-01
       -2   -1    0    0    0  501  0.00000000000E+00  0.00000000000E+00  0.11221583371E+04  0.11221583371E+04  0.25500000920E-02 0.  1.
        2   -1    0    0  501    0  0.00000000000E+00  0.00000000000E+00 -0.26131577519E+04  0.26131577519E+04  0.25500000920E-02 0. -1.
    10030    2    1    2    0    0  0.00000000000E+00  0.00000000000E+00 -0.14909994148E+04  0.37353160890E+04  0.34248367888E+04 0.  0.
        3    1    3    3  502    0 -0.52231051893E+03 -0.24901787195E+03 -0.25033025111E+04  0.25693076209E+04  0.10100000352E+00 0. -1.
       -3    1    3    3    0  502  0.52231051893E+03  0.24901787195E+03  0.10123030963E+04  0.11660084681E+04  0.10100000352E+00 0.  1.
</event>
<event>
 5   0  0.2073287E-06  0.3059020E+04  0.7818609E-02  0.8227075E-01
       -2   -1    0    0    0  501  0.00000000000E+00  0.00000000000E+00  0.14133477581E+04  0.14133477581E+04  0.25500000920E-02 0. -1.
        2   -1    0    0  501    0  0.00000000000E+00  0.00000000000E+00 -0.16552192749E+04  0.16552192749E+04  0.25500000920E-02 0.  1.
    10030    2    1    2    0    0  0.00000000000E+00  0.00000000000E+00 -0.24187151684E+03  0.30685670330E+04  0.30590197458E+04 0.  0.
        1    1    3    3  502    0  0.67158616150E+03  0.12319165923E+04  0.48986033477E+03  0.14861391625E+04  0.50400001928E-02 0. -1.
       -1    1    3    3    0  502 -0.67158616150E+03 -0.12319165923E+04 -0.73173185160E+03  0.15824278705E+04  0.50400001928E-02 0.  1.
</event>
<event>
 5   0  0.6630125E-07  0.3525110E+04  0.7818609E-02  0.8107865E-01
        1   -1    0    0  501    0  0.00000000000E+00  0.00000000000E+00  0.27460690364E+04  0.27460690364E+04  0.50400001928E-02 0.  1.
       -1   -1    0    0    0  501  0.00000000000E+00  0.00000000000E+00 -0.11312901264E+04  0.11312901264E+04  0.50400001928E-02 0. -1.
    10030    2    1    2    0    0  0.00000000000E+00  0.00000000000E+00  0.16147789100E+04  0.38773591628E+04  0.35251103740E+04 0.  0.
        5    1    3    3  502    0 -0.13265225020E+04  0.10058475322E+04  0.14441955530E+04  0.22038861340E+04  0.46999998093E+01 0.  1.
       -5    1    3    3    0  502  0.13265225020E+04 -0.10058475322E+04  0.17058335696E+03  0.16734730288E+04  0.46999998093E+01 0. -1.
</event>
<event>
 5   0  0.7378896E-07  0.3456491E+04  0.7818609E-02  0.8124179E-01
        1   -1    0    0  501    0  0.00000000000E+00  0.00000000000E+00  0.12553219278E+04  0.12553219278E+04  0.50400001928E-02 0. -1.
       -1   -1    0    0    0  501  0.00000000000E+00  0.00000000000E+00 -0.23793362764E+04  0.23793362764E+04  0.50400001928E-02 0.  1.
    10030    2    1    2    0    0  0.00000000000E+00  0.00000000000E+00 -0.11240143486E+04  0.36346582042E+04  0.34564912853E+04 0.  0.
        2    1    3    3  502    0 -0.96123026061E+02  0.25482502248E+03 -0.23566285056E+04  0.23723139214E+04  0.25500000920E-02 0.  1.
       -2    1    3    3    0  502  0.96123026061E+02 -0.25482502248E+03  0.12326141570E+04  0.12623442828E+04  0.25500000920E-02 0. -1.
</event>
<event>
 5   0  0.6630125E-07  0.3165784E+04  0.7818609E-02  0.8197912E-01
       -1   -1    0    0    0  501  0.00000000000E+00  0.00000000000E+00  0.18876902841E+04  0.18876902841E+04  0.50400001928E-02 0.  1.
        1   -1    0    0  501    0  0.00000000000E+00  0.00000000000E+00 -0.13273085528E+04  0.13273085528E+04  0.50400001928E-02 0. -1.
    10030    2    1    2    0    0  0.00000000000E+00  0.00000000000E+00  0.56038173134E+03  0.32149988369E+04  0.31657842372E+04 0.  0.
        5    1    3    3  502    0 -0.81147452161E+02  0.25843631392E+03  0.18639706194E+04  0.18835558917E+04  0.46999998093E+01 0.  1.
       -5    1    3    3    0  502  0.81147452161E+02 -0.25843631392E+03 -0.13035888880E+04  0.13314429452E+04  0.46999998093E+01 0. -1.
</event>
<event>
 5   0  0.7378896E-07  0.3453210E+04  0.7818609E-02  0.8124969E-01
       -1   -1    0    0    0  501  0.00000000000E+00  0.00000000000E+00  0.13304763649E+04  0.13304763649E+04  0.50400001928E-02 0.  1.
        1   -1    0    0  501    0  0.00000000000E+00  0.00000000000E+00 -0.22406750046E+04  0.22406750046E+04  0.50400001928E-02 0. -1.
    10030    2    1    2    0    0  0.00000000000E+00  0.00000000000E+00 -0.91019863969E+03  0.35711513695E+04  0.34532101790E+04 0.  0.
        2    1    3    3  502    0  0.52079686905E+03 -0.20044660481E+03  0.12346454331E+04  0.13549013121E+04  0.25500000920E-02 0.  1.
       -2    1    3    3    0  502 -0.52079686905E+03  0.20044660481E+03 -0.21448440728E+04  0.22162500574E+04  0.25500000920E-02 0. -1.
</event>
<event>
 5   0  0.6630125E-07  0.3527275E+04  0.7818609E-02  0.8107356E-01
        1   -1    0    0  501    0  0.00000000000E+00  0.00000000000E+00  0.18580800446E+04  0.18580800447E+04  0.50400001928E-02 0. -1.
       -1   -1    0    0    0  501  0.00000000000E+00  0.00000000000E+00 -0.16739948934E+04  0.16739948934E+04  0.50400001928E-02 0.  1.
    10030    2    1    2    0    0  0.00000000000E+00  0.00000000000E+00  0.18408515128E+03  0.35320749380E+04  0.35272745888E+04 0.  0.
        5    1    3    3  502    0  0.15869400377E+04  0.76597170933E+02 -0.67460277805E+03  0.17260813445E+04  0.46999998093E+01 0.  1.
       -5    1    3    3    0  502 -0.15869400377E+04 -0.76597170933E+02  0.85868792934E+03  0.18059935935E+04  0.46999998093E+01 0. -1.
</event>
<event>
 5   0  0.7378896E-07  0.3445341E+04  0.7818609E-02  0.8126867E-01
       -1   -1    0    0    0  501  0.00000000000E+00  0.00000000000E+00  0.14429051836E+04  0.14429051836E+04  0.50400001928E-02 0. -1.
        1   -1    0    0  501    0  0.00000000000E+00  0.00000000000E+00 -0.20566795578E+04  0.20566795578E+04  0.50400001928E-02 0.  1.
    10030    2    1    2    0    0  0.00000000000E+00  0.00000000000E+00 -0.61377437417E+03  0.34995847415E+04  0.34453409672E+04 0.  0.
        2    1    3    3  502    0  0.62413891848E+03 -0.13683366424E+04  0.54639772998E+03  0.16001390677E+04  0.25500000920E-02 0. -1.
       -2    1    3    3    0  502 -0.62413891848E+03  0.13683366424E+04 -0.11601721041E+04  0.18994456738E+04  0.25500000920E-02 0.  1.
</event>
<event>
 5   0  0.2020725E-06  0.3477833E+04  0.7818609E-02  0.8119063E-01
        2   -1    0    0  501    0  0.00000000000E+00  0.00000000000E+00  0.12311530387E+04  0.12311530387E+04  0.25500000920E-02 0.  1.
       -2   -1    0    0    0  501  0.00000000000E+00  0.00000000000E+00 -0.24560962588E+04  0.24560962588E+04  0.25500000920E-02 0. -1.
    10030    2    1    2    0    0  0.00000000000E+00  0.00000000000E+00 -0.12249432201E+04  0.36872492975E+04  0.34778328726E+04 0.  0.
        3    1    3    3  502    0 -0.46084685938E+03 -0.16577582643E+04 -0.34575213698E+03  0.17550176185E+04  0.10100000352E+00 0.  1.
       -3    1    3    3    0  502  0.46084685938E+03  0.16577582643E+04 -0.87919108310E+03  0.19322316791E+04  0.10100000352E+00 0. -1.
</event>
<event>
 5   0  0.2001768E-06  0.3584652E+04  0.7818609E-02  0.8094016E-01
       -2   -1    0    0    0  501  0.00000000000E+00  0.00000000000E+00  0.18398642901E+04  0.18398642901E+04  0.25500000920E-02 0. -1.
        2   -1    0    0  501    0  0.00000000000E+00  0.00000000000E+00 -0.17460161325E+04  0.17460161325E+04  0.25500000920E-02 0.  1.
    10030    2    1    2    0    0  0.00000000000E+00  0.00000000000E+00  0.93848157624E+02  0.35858804226E+04  0.35846521349E+04 0.  0.
        2    1    3    3  502    0 -0.15024153779E+04  0.74566085068E+03  0.67894010713E+03  0.18094810695E+04  0.25500000920E-02 0. -1.
       -2    1    3    3    0  502  0.15024153779E+04 -0.74566085068E+03 -0.58509194951E+03  0.17763993530E+04  0.25500000920E-02 0.  1.
</event>
<event>
 5   0  0.2073287E-06  0.3461573E+04  0.7818609E-02  0.8122958E-01
        2   -1    0    0  501    0  0.00000000000E+00  0.00000000000E+00  0.19511256056E+04  0.19511256056E+04  0.25500000920E-02 0.  1.
       -2   -1    0    0    0  501  0.00000000000E+00  0.00000000000E+00 -0.15353300732E+04  0.15353300732E+04  0.25500000920E-02 0. -1.
    10030    2    1    2    0    0  0.00000000000E+00  0.00000000000E+00  0.41579553244E+03  0.34864556787E+04  0.34615729481E+04 0.  0.
        1    1    3    3  502    0  0.85159320485E+03  0.17516629924E+03  0.17152274831E+04  0.19229923395E+04  0.50400001928E-02 0.  1.
       -1    1    3    3    0  502 -0.85159320485E+03 -0.17516629924E+03 -0.12994319506E+04  0.15634633393E+04  0.50400001928E-02 0. -1.
</event>
<event>
 5   0  0.7378896E-07  0.3215647E+04  0.7818609E-02  0.8184697E-01
        1   -1    0    0  501    0  0.00000000000E+00  0.00000000000E+00  0.14624640406E+04  0.14624640406E+04  0.50400001928E-02 0. -1.
       -1   -1    0    0    0  501  0.00000000000E+00  0.00000000000E+00 -0.17676307184E+04  0.17676307184E+04  0.50400001928E-02 0.  1.
    10030    2    1    2    0    0  0.00000000000E+00  0.00000000000E+00 -0.30516667784E+03  0.32300947590E+04  0.32156469724E+04 0.  0.
        2    1    3    3  502    0 -0.10254768214E+04  0.11782034180E+04  0.23035166779E+03  0.15788691827E+04  0.25500000920E-02 0. -1.
       -2    1    3    3    0  502  0.10254768214E+04 -0.11782034180E+04 -0.53551834563E+03  0.16512255763E+04  0.25500000920E-02 0.  1.
</event>
<event>
 5   0  0.1999883E-06  0.3551441E+04  0.7818609E-02  0.8101706E-01
       -2   -1    0    0    0  501  0.00000000000E+00  0.00000000000E+00  0.17853380112E+04  0.17853380112E+04  0.25500000920E-02 0. -1.
        2   -1    0    0  501    0  0.00000000000E+00  0.00000000000E+00 -0.17661551556E+04  0.17661551556E+04  0.25500000920E-02 0.  1.
    10030    2    1    2    0    0  0.00000000000E+00  0.00000000000E+00  0.19182855574E+02  0.35514931668E+04  0.35514413598E+04 0.  0.
        4    1    3    3  502    0 -0.15812536862E+04 -0.48312639615E+03 -0.63803517891E+03  0.17722485258E+04  0.12699999809E+01 0. -1.
       -4    1    3    3    0  502  0.15812536862E+04  0.48312639615E+03  0.65721803449E+03  0.17792446410E+04  0.12699999809E+01 0.  1.
</event>
<event>
 5   0  0.6630125E-07  0.3512057E+04  0.7818609E-02  0.8110938E-01
       -1   -1    0    0    0  501  0.00000000000E+00  0.00000000000E+00  0.13836362648E+04  0.13836362648E+04  0.50400001928E-02 0. -1.
        1   -1    0    0  501    0  0.00000000000E+00  0.00000000000E+00 -0.22286468422E+04  0.22286468423E+04  0.50400001928E-02 0.  1.
    10030    2    1    2    0    0  0.00000000000E+00  0.00000000000E+00 -0.84501057750E+03  0.36122831070E+04  0.35120572844E+04 0.  0.
        1    1    3    3  502    0  0.63195763547E+02 -0.44583773004E+03  0.13232450732E+04  0.13977633955E+04  0.50400001928E-02 0. -1.
       -1    1    3    3    0  502 -0.63195763547E+02  0.44583773004E+03 -0.21682556507E+04  0.22145197115E+04  0.50400001928E-02 0.  1.
</event>
<event>
 5   0  0.6630125E-07  0.2828412E+04  0.7818609E-02  0.8294501E-01
       -1   -1    0    0    0  501  0.00000000000E+00  0.00000000000E+00  0.27543316750E+04  0.27543316750E+04  0.50400001928E-02 0.  1.
        1   -1    0    0  501    0  0.00000000000E+00  0.00000000000E+00 -0.72612115657E+03  0.72612115659E+03  0.50400001928E-02 0. -1.
    10030    2    1    2    0    0  0.00000000000E+00  0.00000000000E+00  0.20282105184E+04  0.34804528316E+04  0.28284119229E+04 0.  0.
        4    1    3    3  502    0  0.54028614074E+03  0.33437287888E+02  0.26217995066E+04  0.26770994437E+04  0.12699999809E+01 0.  1.
       -4    1    3    3    0  502 -0.54028614074E+03 -0.33437287888E+02 -0.59358898812E+03  0.80335338788E+03  0.12699999809E+01 0. -1.
</event>
<event>
 5   0  0.2020725E-06  0.3418248E+04  0.7818609E-02  0.8133442E-01
       -2   -1    0    0    0  501  0.00000000000E+00  0.00000000000E+00  0.18717081446E+04  0.18717081446E+04  0.25500000920E-02 0.  1.
        2   -1    0    0  501    0  0.00000000000E+00  0.00000000000E+00 -0.15606627319E+04  0.15606627319E+04  0.25500000920E-02 0. -1.
    10030    2    1    2    0    0  0.00000000000E+00  0.00000000000E+00  0.31104541269E+03  0.34323708765E+04  0.34182481749E+04 0.  0.
        3    1    3    3  502    0  0.44180042714E+03  0.16445825199E+04  0.30195336943E+03  0.17294551540E+04  0.10100000352E+00 0. -1.
       -3    1    3    3    0  502 -0.44180042714E+03 -0.16445825199E+04  0.90920432611E+01  0.17029157224E+04  0.10100000352E+00 0.  1.
</event>
<event>
 5   0  0.6630125E-07  0.3468056E+04  0.7818609E-02  0.8121402E-01
        1   -1    0    0  501    0  0.00000000000E+00  0.00000000000E+00  0.14817735431E+04  0.14817735432E+04  0.50400001928E-02 0. -1.
       -1   -1    0    0    0  501  0.00000000000E+00  0.00000000000E+00 -0.20292261372E+04  0.20292261373E+04  0.50400001928E-02 0.  1.
    10030    2    1    2    0    0  0.00000000000E+00  0.00000000000E+00 -0.54745259410E+03  0.35109996804E+04  0.34680562875E+04 0.  0.
        5    1    3    3  502    0  0.43285218244E+03 -0.40406834290E+03  0.13762396433E+04  0.14982289156E+04  0.46999998093E+01 0. -1.
       -5    1    3    3    0  502 -0.43285218244E+03  0.40406834290E+03 -0.19236922374E+04  0.20127707649E+04  0.46999998093E+01 0.  1.
</event>
<event>
 5   0  0.2020725E-06  0.2793044E+04  0.7818609E-02  0.8305431E-01
        2   -1    0    0  501    0  0.00000000000E+00  0.00000000000E+00  0.35239665552E+04  0.35239665552E+04  0.25500000920E-02 0.  1.
       -2   -1    0    0    0  501  0.00000000000E+00  0.00000000000E+00 -0.55343122053E+03  0.55343122053E+03  0.25500000920E-02 0. -1.
    10030    2    1    2    0    0  0.00000000000E+00  0.00000000000E+00  0.29705353347E+04  0.40773977757E+04  0.27930435813E+04 0.  0.
        3    1    3    3  502    0 -0.21222110806E+03  0.12229528463E+04  0.55094515193E+03  0.13580103216E+04  0.10100000352E+00 0. -1.
       -3    1    3    3    0  502  0.21222110806E+03 -0.12229528463E+04  0.24195901828E+04  0.27193874541E+04  0.10100000352E+00 0.  1.
</event>
<event>
 5   0  0.6630125E-07  0.2266786E+04  0.7818609E-02  0.8491133E-01
        1   -1    0    0  501    0  0.00000000000E+00  0.00000000000E+00  0.17184517553E+04  0.17184517554E+04  0.50400001928E-02 0.  1.
       -1   -1    0    0    0  501  0.00000000000E+00  0.00000000000E+00 -0.74752169177E+03  0.74752169179E+03  0.50400001928E-02 0. -1.
    10030    2    1    2    0    0  0.00000000000E+00  0.00000000000E+00  0.97093006357E+03  0.24659734471E+04  0.22667862391E+04 0.  0.
        4    1    3    3  502    0 -0.23722401725E+03 -0.84557466050E+03 -0.29394547630E+03  0.92610868519E+03  0.12699999809E+01 0. -1.
       -4    1    3    3    0  502  0.23722401725E+03  0.84557466050E+03  0.12648755399E+04  0.15398647620E+04  0.12699999809E+01 0.  1.
</event>
<event>
 5   0  0.6630125E-07  0.3392144E+04  0.7818609E-02  0.8139837E-01
       -1   -1    0    0    0  501  0.00000000000E+00  0.00000000000E+00  0.14995367491E+04  0.14995367491E+04  0.50400001928E-02 0.  1.
        1   -1    0    0  501    0  0.00000000000E+00  0.00000000000E+00 -0.19183658332E+04  0.19183658332E+04  0.50400001928E-02 0. -1.
    10030    2    1    2    0    0  0.00000000000E+00  0.00000000000E+00 -0.41882908409E+03  0.34179025823E+04  0.33921439032E+04 0.  0.
        5    1    3    3  502    0  0.72292083955E+03 -0.10610114571E+04  0.90727839853E+03  0.15721119664E+04  0.46999998093E+01 0.  1.
       -5    1    3    3    0  502 -0.72292083955E+03  0.10610114571E+04 -0.13261074826E+04  0.18457906159E+04  0.46999998093E+01 0. -1.
</event>
<event>
 5   0  0.2020725E-06  0.3477818E+04  0.7818609E-02  0.8119067E-01
       -2   -1    0    0    0  501  0.00000000000E+00  0.00000000000E+00  0.18722439704E+04  0.18722439704E+04  0.25500000920E-02 0. -1.
        2   -1    0    0  501    0  0.00000000000E+00  0.00000000000E+00 -0.16150693522E+04  0.16150693522E+04  0.25500000920E-02 0.  1.
    10030    2    1    2    0    0  0.00000000000E+00  0.00000000000E+00  0.25717461811E+03  0.34873133226E+04  0.34778176240E+04 0.  0.
        3    1    3    3  502    0 -0.11322126025E+03 -0.85819565684E+02 -0.16092401049E+04  0.16154992346E+04  0.10100000352E+00 0.  1.
       -3    1    3    3    0  502  0.11322126025E+03  0.85819565684E+02  0.18664147230E+04  0.18718140880E+04  0.10100000352E+00 0. -1.
</event>
<event>
 5   0  0.6630125E-07  0.3576566E+04  0.7818609E-02  0.8095881E-01
        1   -1    0    0  501    0  0.00000000000E+00  0.00000000000E+00  0.20674552543E+04  0.20674552543E+04  0.50400001928E-02 0. -1.
       -1   -1    0    0    0  501  0.00000000000E+00  0.00000000000E+00 -0.15468077507E+04  0.15468077507E+04  0.50400001928E-02 0.  1.
    10030    2    1    2    0    0  0.00000000000E+00  0.00000000000E+00  0.52064750358E+03  0.36142630050E+04  0.35765658453E+04 0.  0.
        1    1    3    3  502    0  0.19386745732E+03 -0.17333584802E+04  0.65924984093E+03  0.18645982314E+04  0.50400001928E-02 0. -1.
       -1    1    3    3    0  502 -0.19386745732E+03  0.17333584802E+04 -0.13860233734E+03  0.17496647735E+04  0.50400001928E-02 0.  1.
</event>
<event>
 5   0  0.2023479E-06  0.3575590E+04  0.7818609E-02  0.8096106E-01
       -2   -1    0    0    0  501  0.00000000000E+00  0.00000000000E+00  0.19820278315E+04  0.19820278315E+04  0.25500000920E-02 0.  1.
        2   -1    0    0  501    0  0.00000000000E+00  0.00000000000E+00 -0.16125962453E+04  0.16125962454E+04  0.25500000920E-02 0. -1.
    10030    2    1    2    0    0  0.00000000000E+00  0.00000000000E+00  0.36943158618E+03  0.35946240769E+04  0.35755898195E+04 0.  0.
        5    1    3    3  502    0  0.52325972967E+03 -0.16068767444E+04 -0.40177209977E+03  0.17370367084E+04  0.46999998093E+01 0. -1.
       -5    1    3    3    0  502 -0.52325972967E+03  0.16068767444E+04  0.77120368596E+03  0.18575873685E+04  0.46999998093E+01 0.  1.
</event>
<event>
 5   0  0.7378896E-07  0.3514383E+04  0.7818609E-02  0.8110390E-01
       -1   -1    0    0    0  501  0.00000000000E+00  0.00000000000E+00  0.23922942163E+04  0.23922942163E+04  0.50400001928E-02 0. -1.
        1   -1    0    0  501    0  0.00000000000E+00  0.00000000000E+00 -0.12906946056E+04  0.12906946056E+04  0.50400001928E-02 0.  1.
    10030    2    1    2    0    0  0.00000000000E+00  0.00000000000E+00  0.11015996107E+04  0.36829888219E+04  0.35143825859E+04 0.  0.
        2    1    3    3  502    0  0.28457236139E+03  0.17334615367E+04  0.50571354196E+03  0.18280088935E+04  0.25500000920E-02 0. -1.
       -2    1    3    3    0  502 -0.28457236139E+03 -0.17334615367E+04  0.59588606872E+03  0.18549799284E+04  0.25500000920E-02 0.  1.
</event>
<event>
 5   0  0.6890600E-07  0.3501116E+04  0.7818609E-02  0.8113525E-01
        1   -1    0    0  501    0  0.00000000000E+00  0.00000000000E+00  0.16097916321E+04  0.16097916321E+04  0.50400001928E-02 0.  1.
       -1   -1    0    0    0  501  0.00000000000E+00  0.00000000000E+00 -0.19036336441E+04  0.19036336441E+04  0.50400001928E-02 0. -1.
    10030    2    1    2    0    0  0.00000000000E+00  0.00000000000E+00 -0.29384201196E+03  0.35134252762E+04  0.35011161139E+04 0.  0.
        3    1    3    3  502    0 -0.10641163597E+04 -0.66806253586E+03  0.10762994167E+04  0.16544097508E+04  0.10100000352E+00 0.  1.
       -3    1    3    3    0  502  0.10641163597E+04  0.66806253586E+03 -0.13701414287E+04  0.18590155254E+04  0.10100000352E+00 0. -1.
</event>
<event>
 5   0  0.6630125E-07  0.3562629E+04  0.7818609E-02  0.8099106E-01
        1   -1    0    0  501    0  0.00000000000E+00  0.00000000000E+00  0.18019136633E+04  0.18019136633E+04  0.50400001928E-02 0.  1.
       -1   -1    0    0    0  501  0.00000000000E+00  0.00000000000E+00 -0.17609508163E+04  0.17609508163E+04  0.50400001928E-02 0. -1.
    10030    2    1    2    0    0  0.00000000000E+00  0.00000000000E+00  0.40962846999E+02  0.35628644796E+04  0.35626289935E+04 0.  0.
        5    1    3    3  502    0  0.94089566412E+03  0.29669294353E+03  0.15037341682E+04  0.17984854439E+04  0.46999998093E+01 0.  1.
       -5    1    3    3    0  502 -0.94089566412E+03 -0.29669294353E+03 -0.14627713212E+04  0.17643790357E+04  0.46999998093E+01 0. -1.
</event>
<event>
 5   0  0.2001768E-06  0.2518923E+04  0.7818609E-02  0.8396275E-01
        2   -1    0    0  501    0  0.00000000000E+00  0.00000000000E+00  0.13372345336E+04  0.13372345336E+04  0.25500000920E-02 0. -1.
       -2   -1    0    0    0  501  0.00000000000E+00  0.00000000000E+00 -0.11862115023E+04  0.11862115023E+04  0.25500000920E-02 0.  1.
    10030    2    1    2    0    0  0.00000000000E+00  0.00000000000E+00  0.15102303131E+03  0.25234460358E+04  0.25189227737E+04 0.  0.
        2    1    3    3  502    0  0.60262918469E+03 -0.10059341951E+04 -0.38485415965E+03  0.12341710834E+04  0.25500000920E-02 0.  1.
       -2    1    3    3    0  502 -0.60262918469E+03  0.10059341951E+04  0.53587719096E+03  0.12892749524E+04  0.25500000920E-02 0. -1.
</event>
<event>
 5   0  0.2073287E-06  0.3606390E+04  0.7818609E-02  0.8089029E-01
       -2   -1    0    0    0  501  0.00000000000E+00  0.00000000000E+00  0.14732375550E+04  0.14732375550E+04  0.25500000920E-02 0. -1.
        2   -1    0    0  501    0  0.00000000000E+00  0.00000000000E+00 -0.22070527985E+04  0.22070527985E+04  0.25500000920E-02 0.  1.
    10030    2    1    2    0    0  0.00000000000E+00  0.00000000000E+00 -0.73381524354E+03  0.36802903535E+04  0.36063904772E+04 0.  0.
        1    1    3    3  502    0  0.88948249158E+03 -0.62015858101E+03  0.11033570789E+04  0.15469882392E+04  0.50400001928E-02 0. -1.
       -1    1    3    3    0  502 -0.88948249158E+03  0.62015858101E+03 -0.18371723225E+04  0.21333021143E+04  0.50400001928E-02 0.  1.
</event>
<event>
 5   0  0.6630125E-07  0.3450306E+04  0.7818609E-02  0.8125669E-01
       -1   -1    0    0    0  501  0.00000000000E+00  0.00000000000E+00  0.21534786963E+04  0.21534786963E+04  0.50400001928E-02 0.  1.
        1   -1    0    0  501    0  0.00000000000E+00  0.00000000000E+00 -0.13820213473E+04  0.13820213474E+04  0.50400001928E-02 0. -1.
    10030    2    1    2    0    0  0.00000000000E+00  0.00000000000E+00  0.77145734897E+03  0.35355000437E+04  0.34503063802E+04 0.  0.
        1    1    3    3  502    0  0.69687727952E+03 -0.14117563563E+04  0.11084520204E+04  0.19254505535E+04  0.50400001928E-02 0.  1.
       -1    1    3    3    0  502 -0.69687727952E+03  0.14117563563E+04 -0.33699467139E+03  0.16100494902E+04  0.50400001928E-02 0. -1.
</event>
<event>
 5   0  0.6890600E-07  0.3458322E+04  0.7818609E-02  0.8123739E-01
        1   -1    0    0  501    0  0.00000000000E+00  0.00000000000E+00  0.29145237543E+04  0.29145237543E+04  0.50400001928E-02 0. -1.
       -1   -1    0    0    0  501  0.00000000000E+00  0.00000000000E+00 -0.10258957092E+04  0.10258957092E+04  0.50400001928E-02 0.  1.
    10030    2    1    2    0    0  0.00000000000E+00  0.00000000000E+00  0.18886280451E+04  0.39404194635E+04  0.34583217976E+04 0.  0.
        3    1    3    3  502    0  0.62703047937E+03 -0.16090907605E+04  0.84461075672E+03  0.19224223361E+04  0.10100000352E+00 0.  1.
       -3    1    3    3    0  502 -0.62703047937E+03  0.16090907605E+04  0.10440172884E+04  0.20179971275E+04  0.10100000352E+00 0. -1.
</event>
<event>
 5   0  0.6890600E-07  0.3463447E+04  0.7818609E-02  0.8122508E-01
       -1   -1    0    0    0  501  0.00000000000E+00  0.00000000000E+00  0.11583387840E+04  0.11583387841E+04  0.50400001928E-02 0.  1.
        1   -1    0    0  501    0  0.00000000000E+00  0.00000000000E+00 -0.25889365341E+04  0.25889365341E+04  0.50400001928E-02 0. -1.
    10030    2    1    2    0    0  0.00000000000E+00  0.00000000000E+00 -0.14305977501E+04  0.37472753182E+04  0.34634466053E+04 0.  0.
        3    1    3    3  502    0 -0.10075818721E+04 -0.11029532135E+04  0.23234250008E+03  0.15118564971E+04  0.10100000352E+00 0.  1.
       -3    1    3    3    0  502  0.10075818721E+04  0.11029532135E+04 -0.16629402502E+04  0.22354188212E+04  0.10100000352E+00 0. -1.
</event>
<event>
 5   0  0.7378896E-07  0.3205713E+04  0.7818609E-02  0.8187310E-01
        1   -1    0    0  501    0  0.00000000000E+00  0.00000000000E+00  0.19282707852E+04  0.19282707852E+04  0.50400001928E-02 0. -1.
       -1   -1    0    0    0  501  0.00000000000E+00  0.00000000000E+00 -0.13323592204E+04  0.13323592204E+04  0.50400001928E-02 0.  1.
    10030    2    1    2    0    0  0.00000000000E+00  0.00000000000E+00  0.59591156483E+03  0.32606300056E+04  0.32057132499E+04 0.  0.
        2    1    3    3  502    0  0.83277255712E+03  0.73137574035E+03  0.14756900470E+04  0.18455572926E+04  0.25500000920E-02 0. -1.
       -2    1    3    3    0  502 -0.83277255712E+03 -0.73137574035E+03 -0.87977848218E+03  0.14150727130E+04  0.25500000920E-02 0.  1.
</event>
<event>
 5   0  0.2073287E-06  0.3512102E+04  0.7818609E-02  0.8110928E-01
        2   -1    0    0  501    0  0.00000000000E+00  0.00000000000E+00  0.26488715635E+04  0.26488715635E+04  0.25500000920E-02 0.  1.
       -2   -1    0    0    0  501  0.00000000000E+00  0.00000000000E+00 -0.11641619726E+04  0.11641619726E+04  0.25500000920E-02 0. -1.
    10030    2    1    2    0    0  0.00000000000E+00  0.00000000000E+00  0.14847095909E+04  0.38130335361E+04  0.35121022448E+04 0.  0.
        1    1    3    3  502    0  0.14753347545E+03 -0.16795038412E+04  0.20913437999E+03  0.16988927182E+04  0.50400001928E-02 0.  1.
       -1    1    3    3    0  502 -0.14753347545E+03  0.16795038412E+04  0.12755752109E+04  0.21141408178E+04  0.50400001928E-02 0. -1.
</event>
<event>
 5   0  0.2020725E-06  0.2969077E+04  0.7818609E-02  0.8252617E-01
       -2   -1    0    0    0  501  0.00000000000E+00  0.00000000000E+00  0.13120953543E+04  0.13120953543E+04  0.25500000920E-02 0. -1.
        2   -1    0    0  501    0  0.00000000000E+00  0.00000000000E+00 -0.16796447209E+04  0.16796447209E+04  0.25500000920E-02 0.  1.
    10030    2    1    2    0    0  0.00000000000E+00  0.00000000000E+00 -0.36754936661E+03  0.29917400752E+04  0.29690766479E+04 0.  0.
        3    1    3    3  502    0 -0.87284199248E+02 -0.10115013035E+04 -0.12751398280E+04  0.16299493886E+04  0.10100000352E+00 0.  1.
       -3    1    3    3    0  502  0.87284199248E+02  0.10115013035E+04  0.90759046135E+03  0.13617906866E+04  0.10100000352E+00 0. -1.
</event>
<event>
 5   0  0.6890600E-07  0.3525370E+04  0.7818609E-02  0.8107804E-01
       -1   -1    0    0    0  501  0.00000000000E+00  0.00000000000E+00  0.32591579241E+04  0.32591579241E+04  0.50400001928E-02 0. -1.
        1   -1    0    0  501    0  0.00000000000E+00  0.00000000000E+00 -0.95333192264E+03  0.95333192265E+03  0.50400001928E-02 0.  1.
    10030    2    1    2    0    0  0.00000000000E+00  0.00000000000E+00  0.23058260014E+04  0.42124898467E+04  0.35253704997E+04 0.  0.
        3    1    3    3  502    0 -0.14180234464E+04  0.13305748757E+03 -0.88045219016E+02  0.14269711841E+04  0.10100000352E+00 0.  1.
       -3    1    3    3    0  502  0.14180234464E+04 -0.13305748757E+03  0.23938712204E+04  0.27855186626E+04  0.10100000352E+00 0. -1.
</event>
<event>
 5   0  0.1999883E-06  0.3428963E+04  0.7818609E-02  0.8130834E-01
        2   -1    0    0  501    0  0.00000000000E+00  0.00000000000E+00  0.28209392568E+04  0.28209392568E+04  0.25500000920E-02 0.  1.
       -2   -1    0    0    0  501  0.00000000000E+00  0.00000000000E+00 -0.10420100670E+04  0.10420100670E+04  0.25500000920E-02 0. -1.
    10030    2    1    2    0    0  0.00000000000E+00  0.00000000000E+00  0.17789291898E+04  0.38629493238E+04  0.34289631692E+04 0.  0.
        4    1    3    3  502    0  0.16893822255E+04 -0.79237759412E+02  0.57251210100E+03  0.17855146723E+04  0.12699999809E+01 0. -1.
       -4    1    3    3    0  502 -0.16893822255E+04  0.79237759412E+02  0.12064170888E+04  0.20774346515E+04  0.12699999809E+01 0.  1.
</event>
<event>
 5   0  0.6890600E-07  0.3498480E+04  0.7818609E-02  0.8114150E-01
       -1   -1    0    0    0  501  0.00000000000E+00  0.00000000000E+00  0.13436989128E+04  0.13436989128E+04  0.50400001928E-02 0. -1.
        1   -1    0    0  501    0  0.00000000000E+00  0.00000000000E+00 -0.22771768303E+04  0.22771768303E+04  0.50400001928E-02 0.  1.
    10030    2    1    2    0    0  0.00000000000E+00  0.00000000000E+00 -0.93347791754E+03  0.36208757432E+04  0.34984796876E+04 0.  0.
        3    1    3    3  502    0 -0.84626710683E+03  0.17092630264E+03  0.11078193512E+04  0.14045097159E+04  0.10100000352E+00 0. -1.
       -3    1    3    3    0  502  0.84626710683E+03 -0.17092630264E+03 -0.20412972687E+04  0.22163660272E+04  0.10100000352E+00 0.  1.
</event>
<event>
 5   0  0.6890600E-07  0.3202450E+04  0.7818609E-02  0.8188170E-01
        1   -1    0    0  501    0  0.00000000000E+00  0.00000000000E+00  0.27087474621E+04  0.27087474621E+04  0.50400001928E-02 0. -1.
       -1   -1    0    0    0  501  0.00000000000E+00  0.00000000000E+00 -0.94653406451E+03  0.94653406452E+03  0.50400001928E-02 0.  1.
    10030    2    1    2    0    0  0.00000000000E+00  0.00000000000E+00  0.17622133976E+04  0.36552815266E+04  0.32024501526E+04 0.  0.
        3    1    3    3  502    0  0.75268156789E+03  0.34190589043E+03 -0.68410924154E+03  0.10730492277E+04  0.10100000352E+00 0.  1.
       -3    1    3    3    0  502 -0.75268156789E+03 -0.34190589043E+03  0.24463226391E+04  0.25822322989E+04  0.10100000352E+00 0. -1.
</event>
<event>
 5   0  0.2020725E-06  0.2855931E+04  0.7818609E-02  0.8286111E-01
       -2   -1    0    0    0  501  0.00000000000E+00  0.00000000000E+00  0.13897555150E+04  0.13897555150E+04  0.25500000920E-02 0. -1.
        2   -1    0    0  501    0  0.00000000000E+00  0.00000000000E+00 -0.14672262682E+04  0.14672262682E+04  0.25500000920E-02 0.  1.
    10030    2    1    2    0    0  0.00000000000E+00  0.00000000000E+00 -0.77470753238E+02  0.28569817832E+04  0.28559312303E+04 0.  0.
        3    1    3    3  502    0  0.74594501708E+02  0.94223891684E+03 -0.11095062777E+04  0.14575262284E+04  0.10100000352E+00 0.  1.
       -3    1    3    3    0  502 -0.74594501708E+02 -0.94223891684E+03  0.10320355244E+04  0.13994555548E+04  0.10100000352E+00 0. -1.
</event>
<event>
 5   0  0.6630125E-07  0.3531088E+04  0.7818609E-02  0.8106462E-01
        1   -1    0    0  501    0  0.00000000000E+00  0.00000000000E+00  0.11594653236E+04  0.11594653236E+04  0.50400001928E-02 0.  1.
       -1   -1    0    0    0  501  0.00000000000E+00  0.00000000000E+00 -0.26884331554E+04  0.26884331554E+04  0.50400001928E-02 0. -1.
    10030    2    1    2    0    0  0.00000000000E+00  0.00000000000E+00 -0.15289678318E+04  0.38478984790E+04  0.35310876616E+04 0.  0.
        4    1    3    3  502    0  0.17181283590E+04  0.35281595639E+03 -0.54464311263E+03  0.18365951895E+04  0.12699999809E+01 0. -1.
       -4    1    3    3    0  502 -0.17181283590E+04 -0.35281595639E+03 -0.98432471915E+03  0.20113032895E+04  0.12699999809E+01 0.  1.
</event>
<event>
 5   0  0.6890600E-07  0.3028734E+04  0.7818609E-02  0.8235573E-01
        1   -1    0    0  501    0  0.00000000000E+00  0.00000000000E+00  0.18759305044E+04  0.18759305044E+04  0.50400001928E-02 0.  1.
       -1   -1    0    0    0  501  0.00000000000E+00  0.00000000000E+00 -0.12224903343E+04  0.12224903343E+04  0.50400001928E-02 0. -1.
    10030    2    1    2    0    0  0.00000000000E+00  0.00000000000E+00  0.65344017009E+03  0.30984208387E+04  0.30287336690E+04 0.  0.
        3    1    3    3  502    0 -0.28336851561E+03  0.12842372646E+04  0.10948244286E+04  0.17111994644E+04  0.10100000352E+00 0.  1.
       -3    1    3    3    0  502  0.28336851561E+03 -0.12842372646E+04 -0.44138425848E+03  0.13872213743E+04  0.10100000352E+00 0. -1.
</event>
<event>
 5   0  0.2001768E-06  0.3163719E+04  0.7818609E-02  0.8198465E-01
        2   -1    0    0  501    0  0.00000000000E+00  0.00000000000E+00  0.13431573963E+04  0.13431573964E+04  0.25500000920E-02 0.  1.
       -2   -1    0    0    0  501  0.00000000000E+00  0.00000000000E+00 -0.18629834247E+04  0.18629834247E+04  0.25500000920E-02 0. -1.
    10030    2    1    2    0    0  0.00000000000E+00  0.00000000000E+00 -0.51982602832E+03  0.32061408210E+04  0.31637193087E+04 0.  0.
        2    1    3    3  502    0 -0.15239787450E+04  0.34265909265E+03 -0.68579359852E+01  0.15620414528E+04  0.25500000920E-02 0. -1.
       -2    1    3    3    0  502  0.15239787450E+04 -0.34265909265E+03 -0.51296809233E+03  0.16440993682E+04  0.25500000920E-02 0.  1.
</event>
<event>
 5   0  0.6630125E-07  0.3493739E+04  0.7818609E-02  0.8115275E-01
       -1   -1    0    0    0  501  0.00000000000E+00  0.00000000000E+00  0.12618211108E+04  0.12618211108E+04  0.50400001928E-02 0.  1.
        1   -1    0    0  501    0  0.00000000000E+00  0.00000000000E+00 -0.24183717929E+04  0.24183717929E+04  0.50400001928E-02 0. -1.
    10030    2    1    2    0    0  0.00000000000E+00  0.00000000000E+00 -0.11565506821E+04  0.36801929038E+04  0.34937387322E+04 0.  0.
        4    1    3    3  502    0 -0.78860977449E+03 -0.87148577208E+03  0.78304068269E+03  0.14122843733E+04  0.12699999809E+01 0.  1.
       -4    1    3    3    0  502  0.78860977449E+03  0.87148577208E+03 -0.19395913648E+04  0.22679085305E+04  0.12699999809E+01 0. -1.
</event>
<event>
 5   0  0.2073287E-06  0.3511320E+04  0.7818609E-02  0.8111112E-01
        2   -1    0    0  501    0  0.00000000000E+00  0.00000000000E+00  0.22763354805E+04  0.22763354805E+04  0.25500000920E-02 0. -1.
       -2   -1    0    0    0  501  0.00000000000E+00  0.00000000000E+00 -0.13540808153E+04  0.13540808153E+04  0.25500000920E-02 0.  1.
    10030    2    1    2    0    0  0.00000000000E+00  0.00000000000E+00  0.92225466516E+03  0.36304162958E+04  0.35113200956E+04 0.  0.
        1    1    3    3  502    0 -0.17101597315E+04 -0.10621600557E+03  0.65508103643E+02  0.17147068142E+04  0.50400001928E-02 0.  1.
       -1    1    3    3    0  502  0.17101597315E+04  0.10621600557E+03  0.85674656152E+03  0.19157094816E+04  0.50400001928E-02 0. -1.
</event>
<event>
 5   0  0.7378896E-07  0.3566319E+04  0.7818609E-02  0.8098251E-01
       -1   -1    0    0    0  501  0.00000000000E+00  0.00000000000E+00  0.22730702377E+04  0.22730702377E+04  0.50400001928E-02 0. -1.
        1   -1    0    0  501    0  0.00000000000E+00  0.00000000000E+00 -0.13988383343E+04  0.13988383343E+04  0.50400001928E-02 0.  1.
    10030    2    1    2    0    0  0.00000000000E+00  0.00000000000E+00  0.87423190341E+03  0.36719085719E+04  0.35663189902E+04 0.  0.
        2    1    3    3  502    0 -0.11060752096E+04 -0.16654074243E+03  0.18669436342E+04  0.21763769713E+04  0.25500000920E-02 0.  1.
       -2    1    3    3    0  502  0.11060752096E+04  0.16654074243E+03 -0.99271173075E+03  0.14955316006E+04  0.25500000920E-02 0. -1.
</event>
<event>
 5   0  0.6630125E-07  0.3662521E+04  0.7818609E-02  0.8076319E-01
       -1   -1    0    0    0  501  0.00000000000E+00  0.00000000000E+00  0.28918968738E+04  0.28918968738E+04  0.50400001928E-02 0. -1.
        1   -1    0    0  501    0  0.00000000000E+00  0.00000000000E+00 -0.11596245500E+04  0.11596245500E+04  0.50400001928E-02 0.  1.
    10030    2    1    2    0    0  0.00000000000E+00  0.00000000000E+00  0.17322723238E+04  0.40515214239E+04  0.36625207773E+04 0.  0.
        4    1    3    3  502    0 -0.15422285632E+04 -0.47479697687E+02  0.19571933938E+04  0.24922541717E+04  0.12699999809E+01 0. -1.
       -4    1    3    3    0  502  0.15422285632E+04  0.47479697687E+02 -0.22492107000E+03  0.15592672521E+04  0.12699999809E+01 0.  1.
</event>
<event>
 5   0  0.2020725E-06  0.2597022E+04  0.7818609E-02  0.8369214E-01
        2   -1    0    0  501    0  0.00000000000E+00  0.00000000000E+00  0.14006804146E+04  0.14006804146E+04  0.25500000920E-02 0.  1.
       -2   -1    0    0    0  501  0.00000000000E+00  0.00000000000E+00 -0.12037939384E+04  0.12037939384E+04  0.25500000920E-02 0. -1.
    10030    2    1    2    0    0  0.00000000000E+00  0.00000000000E+00  0.19688647617E+03  0.26044743530E+04  0.25970218272E+04 0.  0.
        3    1    3    3  502    0 -0.11119434232E+04  0.28759676690E+03  0.70598735089E+03  0.13481647624E+04  0.10100000352E+00 0.  1.
       -3    1    3    3    0  502  0.11119434232E+04 -0.28759676690E+03 -0.50910087472E+03  0.12563095907E+04  0.10100000352E+00 0. -1.
</event>
<event>
 5   0  0.6890600E-07  0.3550319E+04  0.7818609E-02  0.8101967E-01
        1   -1    0    0  501    0  0.00000000000E+00  0.00000000000E+00  0.11324375180E+04  0.11324375180E+04  0.50400001928E-02 0. -1.
       -1   -1    0    0    0  501  0.00000000000E+00  0.00000000000E+00 -0.27826623170E+04  0.27826623170E+04  0.50400001928E-02 0.  1.
    10030    2    1    2    0    0  0.00000000000E+00  0.00000000000E+00 -0.16502247990E+04  0.39150998350E+04  0.35503189759E+04 0.  0.
        3    1    3    3  502    0  0.18814665258E+03  0.76327888526E+03  0.93002039988E+03  0.12177568616E+04  0.10100000352E+00 0. -1.
       -3    1    3    3    0  502 -0.18814665258E+03 -0.76327888526E+03 -0.25802451989E+04  0.26973429734E+04  0.10100000352E+00 0.  1.
</event>
<event>
 5   0  0.2001768E-06  0.3544670E+04  0.7818609E-02  0.8103285E-01
        2   -1    0    0  501    0  0.00000000000E+00  0.00000000000E+00  0.18122767779E+04  0.18122767779E+04  0.25500000920E-02 0. -1.
       -2   -1    0    0    0  501  0.00000000000E+00  0.00000000000E+00 -0.17332736992E+04  0.17332736992E+04  0.25500000920E-02 0.  1.
    10030    2    1    2    0    0  0.00000000000E+00  0.00000000000E+00  0.79003078721E+02  0.35455504770E+04  0.35446701819E+04 0.  0.
        2    1    3    3  502    0  0.83614793842E+03 -0.12530823037E+04 -0.89443963202E+03  0.17519648655E+04  0.25500000920E-02 0.  1.
       -2    1    3    3    0  502 -0.83614793842E+03  0.12530823037E+04  0.97344271074E+03  0.17935856115E+04  0.25500000920E-02 0. -1.
</event>
<event>
 5   0  0.2020725E-06  0.2989431E+04  0.7818609E-02  0.8246755E-01
       -2   -1    0    0    0  501  0.00000000000E+00  0.00000000000E+00  0.14385730836E+04  0.14385730836E+04  0.25500000920E-02 0.  1.
        2   -1    0    0  501    0  0.00000000000E+00  0.00000000000E+00 -0.15530492591E+04  0.15530492591E+04  0.25500000920E-02 0. -1.
    10030    2    1    2    0    0  0.00000000000E+00  0.00000000000E+00 -0.11447617551E+03  0.29916223428E+04  0.29894312916E+04 0.  0.
        3    1    3    3  502    0  0.14248993678E+04 -0.21302811241E+03  0.34111856940E+03  0.14805678213E+04  0.10100000352E+00 0.  1.
       -3    1    3    3    0  502 -0.14248993678E+04  0.21302811241E+03 -0.45559474492E+03  0.15110545214E+04  0.10100000352E+00 0. -1.
</event>
<event>
 5   0  0.2001768E-06  0.3377940E+04  0.7818609E-02  0.8143342E-01
       -2   -1    0    0    0  501  0.00000000000E+00  0.00000000000E+00  0.14605031111E+04  0.14605031111E+04  0.25500000920E-02 0. -1.
        2   -1    0    0  501    0  0.00000000000E+00  0.00000000000E+00 -0.19531760618E+04  0.19531760618E+04  0.25500000920E-02 0.  1.
    10030    2    1    2    0    0  0.00000000000E+00  0.00000000000E+00 -0.49267295074E+03  0.34136791729E+04  0.33779400319E+04 0.  0.
        2    1    3    3  502    0 -0.11696924529E+04 -0.76550705307E+03 -0.12042247992E+04  0.18450850521E+04  0.25500000920E-02 0.  1.
       -2    1    3    3    0  502  0.11696924529E+04  0.76550705307E+03  0.71155184843E+03  0.15685941208E+04  0.25500000920E-02 0. -1.
</event>
<event>
 5   0  0.2001768E-06  0.3055305E+04  0.7818609E-02  0.8228112E-01
        2   -1    0    0  501    0  0.00000000000E+00  0.00000000000E+00  0.20278015579E+04  0.20278015579E+04  0.25500000920E-02 0. -1.
       -2   -1    0    0    0  501  0.00000000000E+00  0.00000000000E+00 -0.11508632469E+04  0.11508632469E+04  0.25500000920E-02 0.  1.
    10030    2    1    2    0    0  0.00000000000E+00  0.00000000000E+00  0.87693831098E+03  0.31786648048E+04  0.30553050813E+04 0.  0.
        2    1    3    3  502    0 -0.23718967103E+03 -0.11284354408E+04  0.14809736659E+04  0.18769412573E+04  0.25500000920E-02 0. -1.
       -2    1    3    3    0  502  0.23718967103E+03  0.11284354408E+04 -0.60403535488E+03  0.13017235475E+04  0.25500000920E-02 0.  1.
</event>
<event>
 5   0  0.6630125E-07  0.3526554E+04  0.7818609E-02  0.8107526E-01
       -1   -1    0    0    0  501  0.00000000000E+00  0.00000000000E+00  0.17253629112E+04  0.17253629112E+04  0.50400001928E-02 0.  1.
        1   -1    0    0  501    0  0.00000000000E+00  0.00000000000E+00 -0.18020241585E+04  0.18020241585E+04  0.50400001928E-02 0. -1.
    10030    2    1    2    0    0  0.00000000000E+00  0.00000000000E+00 -0.76661247253E+02  0.35273870697E+04  0.35265539260E+04 0.  0.
        5    1    3    3  502    0  0.67597829734E+02 -0.65005903229E+03  0.15997306460E+04  0.17280932966E+04  0.46999998093E+01 0.  1.
       -5    1    3    3    0  502 -0.67597829734E+02  0.65005903229E+03 -0.16763918933E+04  0.17992937731E+04  0.46999998093E+01 0. -1.
</event>
<event>
 5   0  0.6630125E-07  0.3529410E+04  0.7818609E-02  0.8106855E-01
        1   -1    0    0  501    0  0.00000000000E+00  0.00000000000E+00  0.14786260128E+04  0.14786260128E+04  0.50400001928E-02 0.  1.
       -1   -1    0    0    0  501  0.00000000000E+00  0.00000000000E+00 -0.21061329188E+04  0.21061329188E+04  0.50400001928E-02 0. -1.
    10030    2    1    2    0    0  0.00000000000E+00  0.00000000000E+00 -0.62750690606E+03  0.35847589316E+04  0.35294095371E+04 0.  0.
        4    1    3    3  502    0  0.77873459498E+03 -0.45858600763E+02  0.12939952464E+04  0.15109453634E+04  0.12699999809E+01 0.  1.
       -4    1    3    3    0  502 -0.77873459498E+03  0.45858600763E+02 -0.19215021524E+04  0.20738135682E+04  0.12699999809E+01 0. -1.
</event>
<event>
 5   0  0.2001768E-06  0.3225730E+04  0.7818609E-02  0.8182055E-01
       -2   -1    0    0    0  501  0.00000000000E+00  0.00000000000E+00  0.15037001217E+04  0.15037001217E+04  0.25500000920E-02 0. -1.
        2   -1    0    0  501    0  0.00000000000E+00  0.00000000000E+00 -0.17299547836E+04  0.17299547836E+04  0.25500000920E-02 0.  1.
    10030    2    1    2    0    0  0.00000000000E+00  0.00000000000E+00 -0.22625466190E+03  0.32336549053E+04  0.32257298205E+04 0.  0.
        2    1    3    3  502    0  0.52283709689E+02 -0.96139130087E+03  0.11840093587E+04  0.15260684720E+04  0.25500000920E-02 0. -1.
       -2    1    3    3    0  502 -0.52283709689E+02  0.96139130087E+03 -0.14102640206E+04  0.17075864334E+04  0.25500000920E-02 0.  1.
</event>
<event>
 5   0  0.2001768E-06  0.3122582E+04  0.7818609E-02  0.8209568E-01
        2   -1    0    0  501    0  0.00000000000E+00  0.00000000000E+00  0.22416503801E+04  0.22416503801E+04  0.25500000920E-02 0. -1.
       -2   -1    0    0    0  501  0.00000000000E+00  0.00000000000E+00 -0.10874263872E+04  0.10874263872E+04  0.25500000920E-02 0.  1.
    10030    2    1    2    0    0  0.00000000000E+00  0.00000000000E+00  0.11542239929E+04  0.33290767674E+04  0.31225821202E+04 0.  0.
        2    1    3    3  502    0 -0.94313193149E+03 -0.11686195557E+04  0.12171087491E+03  0.15066462900E+04  0.25500000920E-02 0.  1.
       -2    1    3    3    0  502  0.94313193149E+03  0.11686195557E+04  0.10325131180E+04  0.18224304774E+04  0.25500000920E-02 0. -1.
</event>
<event>
 5   0  0.6630125E-07  0.2812536E+04  0.7818609E-02  0.8299387E-01
       -3   -1    0    0    0  501  0.00000000000E+00  0.00000000000E+00  0.15270474914E+04  0.15270474948E+04  0.10100000352E+00 0. -1.
        3   -1    0    0  501    0  0.00000000000E+00  0.00000000000E+00 -0.12950413555E+04  0.12950413594E+04  0.10100000352E+00 0.  1.
    10030    2    1    2    0    0  0.00000000000E+00  0.00000000000E+00  0.23200613594E+03  0.28220888542E+04  0.28125359826E+04 0.  0.
        3    1    3    3  502    0  0.86864447191E+03  0.11006961927E+04  0.83337757490E+01  0.14021928502E+04  0.10100000352E+00 0. -1.
       -3    1    3    3    0  502 -0.86864447191E+03 -0.11006961927E+04  0.22367236019E+03  0.14198960040E+04  0.10100000352E+00 0.  1.
</event>
<event>
 5   0  0.2020725E-06  0.3265785E+04  0.7818609E-02  0.8171656E-01
       -2   -1    0    0    0  501  0.00000000000E+00  0.00000000000E+00  0.93676057347E+03  0.93676057348E+03  0.25500000920E-02 0. -1.
        2   -1    0    0  501    0  0.00000000000E+00  0.00000000000E+00 -0.28463388022E+04  0.28463388022E+04  0.25500000920E-02 0.  1.
    10030    2    1    2    0    0  0.00000000000E+00  0.00000000000E+00 -0.19095782288E+04  0.37830993757E+04  0.32657850319E+04 0.  0.
        3    1    3    3  502    0 -0.39256099440E+03  0.14366608663E+04 -0.17922954742E+03  0.15000739382E+04  0.10100000352E+00 0.  1.
       -3    1    3    3    0  502  0.39256099440E+03 -0.14366608663E+04 -0.17303486813E+04  0.22830254375E+04  0.10100000352E+00 0. -1.
</event>
<event>
 5   0  0.6630125E-07  0.3442679E+04  0.7818609E-02  0.8127510E-01
        4   -1    0    0  501    0  0.00000000000E+00  0.00000000000E+00  0.17977943037E+04  0.17977947523E+04  0.12699999809E+01 0.  1.
       -4   -1    0    0    0  501  0.00000000000E+00  0.00000000000E+00 -0.16481350110E+04  0.16481355003E+04  0.12699999809E+01 0. -1.
    10030    2    1    2    0    0  0.00000000000E+00  0.00000000000E+00  0.14965929278E+03  0.34459302526E+04  0.34426788119E+04 0.  0.
        1    1    3    3  502    0  0.13809964594E+04  0.96525354113E+03  0.42750277665E+03  0.17382819805E+04  0.50400001928E-02 0. -1.
       -1    1    3    3    0  502 -0.13809964594E+04 -0.96525354113E+03 -0.27784348386E+03  0.17076482721E+04  0.50400001928E-02 0.  1.
</event>
<event>
 5   0  0.6630125E-07  0.3498843E+04  0.7818609E-02  0.8114064E-01
        1   -1    0    0  501    0  0.00000000000E+00  0.00000000000E+00  0.21929703286E+04  0.21929703286E+04  0.50400001928E-02 0.  1.
       -1   -1    0    0    0  501  0.00000000000E+00  0.00000000000E+00 -0.13955846970E+04  0.13955846970E+04  0.50400001928E-02 0. -1.
    10030    2    1    2    0    0  0.00000000000E+00  0.00000000000E+00  0.79738563163E+03  0.35885550256E+04  0.34988431411E+04 0.  0.
        1    1    3    3  502    0 -0.75804607818E+03 -0.15419916502E+04  0.61471151338E+02  0.17193460409E+04  0.50400001928E-02 0. -1.
       -1    1    3    3    0  502  0.75804607818E+03  0.15419916502E+04  0.73591448029E+03  0.18692089847E+04  0.50400001928E-02 0.  1.
</event>
<event>
 5   0  0.2001768E-06  0.2333408E+04  0.7818609E-02  0.8464864E-01
       -2   -1    0    0    0  501  0.00000000000E+00  0.00000000000E+00  0.65450199378E+03  0.65450199378E+03  0.25500000920E-02 0. -1.
        2   -1    0    0  501    0  0.00000000000E+00  0.00000000000E+00 -0.20797461321E+04  0.20797461321E+04  0.25500000920E-02 0.  1.
    10030    2    1    2    0    0  0.00000000000E+00  0.00000000000E+00 -0.14252441383E+04  0.27342481259E+04  0.23334077998E+04 0.  0.
        2    1    3    3  502    0 -0.65651301218E+03 -0.36307699971E+02 -0.18419624081E+04  0.19557998613E+04  0.25500000920E-02 0.  1.
       -2    1    3    3    0  502  0.65651301218E+03  0.36307699971E+02  0.41671826984E+03  0.77844826461E+03  0.25500000920E-02 0. -1.
</event>
<event>
 5   0  0.2020725E-06  0.3512165E+04  0.7818609E-02  0.8110913E-01
       -2   -1    0    0    0  501  0.00000000000E+00  0.00000000000E+00  0.16137672809E+04  0.16137672809E+04  0.25500000920E-02 0. -1.
        2   -1    0    0  501    0  0.00000000000E+00  0.00000000000E+00 -0.19109476995E+04  0.19109476995E+04  0.25500000920E-02 0.  1.
    10030    2    1    2    0    0  0.00000000000E+00  0.00000000000E+00 -0.29718041867E+03  0.35247149804E+04  0.35121645024E+04 0.  0.
        3    1    3    3  502    0  0.73841664203E+03  0.27713815599E+03  0.14260162380E+04  0.16295971944E+04  0.10100000352E+00 0. -1.
       -3    1    3    3    0  502 -0.73841664203E+03 -0.27713815599E+03 -0.17231966567E+04  0.18951177860E+04  0.10100000352E+00 0.  1.
</event>
<event>
 5   0  0.6630125E-07  0.3511830E+04  0.7818609E-02  0.8110992E-01
       -4   -1    0    0    0  501  0.00000000000E+00  0.00000000000E+00  0.13325401371E+04  0.13325407423E+04  0.12699999809E+01 0. -1.
        4   -1    0    0  501    0  0.00000000000E+00  0.00000000000E+00 -0.23138031627E+04  0.23138035113E+04  0.12699999809E+01 0.  1.
    10030    2    1    2    0    0  0.00000000000E+00  0.00000000000E+00 -0.98126302557E+03  0.36463442536E+04  0.35118299062E+04 0.  0.
        2    1    3    3  502    0 -0.66408638314E+03  0.18940238386E+03  0.11856264003E+04  0.13720765096E+04  0.25500000920E-02 0. -1.
       -2    1    3    3    0  502  0.66408638314E+03 -0.18940238386E+03 -0.21668894259E+04  0.22742677439E+04  0.25500000920E-02 0.  1.
</event>
<event>
 5   0  0.6630125E-07  0.3526149E+04  0.7818609E-02  0.8107621E-01
        1   -1    0    0  501    0  0.00000000000E+00  0.00000000000E+00  0.19449803405E+04  0.19449803405E+04  0.50400001928E-02 0. -1.
       -1   -1    0    0    0  501  0.00000000000E+00  0.00000000000E+00 -0.15981811165E+04  0.15981811165E+04  0.50400001928E-02 0.  1.
    10030    2    1    2    0    0  0.00000000000E+00  0.00000000000E+00  0.34679922400E+03  0.35431614571E+04  0.35261485234E+04 0.  0.
        5    1    3    3  502    0  0.15106663574E+04  0.78877591061E+03 -0.28058605814E+03  0.17271453055E+04  0.46999998093E+01 0. -1.
       -5    1    3    3    0  502 -0.15106663574E+04 -0.78877591061E+03  0.62738528213E+03  0.18160161515E+04  0.46999998093E+01 0.  1.
</event>
<event>
 5   0  0.1999883E-06  0.3518245E+04  0.7818609E-02  0.8109480E-01
        2   -1    0    0  501    0  0.00000000000E+00  0.00000000000E+00  0.17861070429E+04  0.17861070429E+04  0.25500000920E-02 0.  1.
       -2   -1    0    0    0  501  0.00000000000E+00  0.00000000000E+00 -0.17325456328E+04  0.17325456328E+04  0.25500000920E-02 0. -1.
    10030    2    1    2    0    0  0.00000000000E+00  0.00000000000E+00  0.53561410140E+02  0.35186526756E+04  0.35182449925E+04 0.  0.
        4    1    3    3  502    0 -0.10558104218E+04 -0.99232975826E+03 -0.97085999642E+03  0.17441401152E+04  0.12699999809E+01 0. -1.
       -4    1    3    3    0  502  0.10558104218E+04  0.99232975826E+03  0.10244214066E+04  0.17745125604E+04  0.12699999809E+01 0.  1.
</event>
<event>
 5   0  0.6890600E-07  0.3531797E+04  0.7818609E-02  0.8106296E-01
        1   -1    0    0  501    0  0.00000000000E+00  0.00000000000E+00  0.22652149776E+04  0.22652149776E+04  0.50400001928E-02 0. -1.
       -1   -1    0    0    0  501  0.00000000000E+00  0.00000000000E+00 -0.13766451049E+04  0.13766451049E+04  0.50400001928E-02 0.  1.
    10030    2    1    2    0    0  0.00000000000E+00  0.00000000000E+00  0.88856987265E+03  0.36418600825E+04  0.35317967725E+04 0.  0.
        3    1    3    3  502    0 -0.59652554941E+03 -0.36005147425E+03 -0.12289085324E+04  0.14126910442E+04  0.10100000352E+00 0.  1.
       -3    1    3    3    0  502  0.59652554941E+03  0.36005147425E+03  0.21174784051E+04  0.22291690383E+04  0.10100000352E+00 0. -1.
</event>
<event>
 5   0  0.7378896E-07  0.2948739E+04  0.7818609E-02  0.8258522E-01
       -1   -1    0    0    0  501  0.00000000000E+00  0.00000000000E+00  0.70500504693E+03  0.70500504695E+03  0.50400001928E-02 0.  1.
        1   -1    0    0  501    0  0.00000000000E+00  0.00000000000E+00 -0.30833322866E+04  0.30833322866E+04  0.50400001928E-02 0. -1.
    10030    2    1    2    0    0  0.00000000000E+00  0.00000000000E+00 -0.23783272396E+04  0.37883373335E+04  0.29487385937E+04 0.  0.
        2    1    3    3  502    0  0.95768397377E+03 -0.79895806419E+03 -0.17897552919E+03  0.12599701671E+04  0.25500000920E-02 0.  1.
       -2    1    3    3    0  502 -0.95768397377E+03  0.79895806419E+03 -0.21993517104E+04  0.25283671664E+04  0.25500000920E-02 0. -1.
</event>
<event>
 5   0  0.2001768E-06  0.3437255E+04  0.7818609E-02  0.8128823E-01
        2   -1    0    0  501    0  0.00000000000E+00  0.00000000000E+00  0.15096001336E+04  0.15096001336E+04  0.25500000920E-02 0.  1.
       -2   -1    0    0    0  501  0.00000000000E+00  0.00000000000E+00 -0.19565983267E+04  0.19565983267E+04  0.25500000920E-02 0. -1.
    10030    2    1    2    0    0  0.00000000000E+00  0.00000000000E+00 -0.44699819306E+03  0.34661984603E+04  0.34372553559E+04 0.  0.
        2    1    3    3  502    0 -0.14207412949E+04 -0.77910939268E+01  0.75165677238E+03  0.16073439059E+04  0.25500000920E-02 0.  1.
       -2    1    3    3    0  502  0.14207412949E+04  0.77910939268E+01 -0.11986549654E+04  0.18588545544E+04  0.25500000920E-02 0. -1.
</event>
<event>
 5   0  0.2020725E-06  0.3491280E+04  0.7818609E-02  0.8115860E-01
        2   -1    0    0  501    0  0.00000000000E+00  0.00000000000E+00  0.23394728589E+04  0.23394728589E+04  0.25500000920E-02 0. -1.
       -2   -1    0    0    0  501  0.00000000000E+00  0.00000000000E+00 -0.13025410409E+04  0.13025410409E+04  0.25500000920E-02 0.  1.
    10030    2    1    2    0    0  0.00000000000E+00  0.00000000000E+00  0.10369318180E+04  0.36420138998E+04  0.34912802310E+04 0.  0.
        3    1    3    3  502    0 -0.15790954021E+04  0.70227534790E+03  0.26182287067E+03  0.17479371211E+04  0.10100000352E+00 0.  1.
       -3    1    3    3    0  502  0.15790954021E+04 -0.70227534790E+03  0.77510894728E+03  0.18940767787E+04  0.10100000352E+00 0. -1.
</event>
<event>
 5   0  0.6630125E-07  0.3630490E+04  0.7818609E-02  0.8083543E-01
        1   -1    0    0  501    0  0.00000000000E+00  0.00000000000E+00  0.22019337365E+04  0.22019337365E+04  0.50400001928E-02 0.  1.
       -1   -1    0    0    0  501  0.00000000000E+00  0.00000000000E+00 -0.14964640945E+04  0.14964640945E+04  0.50400001928E-02 0. -1.
    10030    2    1    2    0    0  0.00000000000E+00  0.00000000000E+00  0.70546964196E+03  0.36983978310E+04  0.36304902012E+04 0.  0.
        4    1    3    3  502    0  0.26305805041E+03  0.11740500174E+04 -0.10319245600E+04  0.15850750429E+04  0.12699999809E+01 0. -1.
       -4    1    3    3    0  502 -0.26305805041E+03 -0.11740500174E+04  0.17373942019E+04  0.21133227882E+04  0.12699999809E+01 0.  1.
</event>
<event>
 5   0  0.2020725E-06  0.3538869E+04  0.7818609E-02  0.8104640E-01
        2   -1    0    0  501    0  0.00000000000E+00  0.00000000000E+00  0.14396618844E+04  0.14396618844E+04  0.25500000920E-02 0.  1.
       -2   -1    0    0    0  501  0.00000000000E+00  0.00000000000E+00 -0.21747452866E+04  0.21747452866E+04  0.25500000920E-02 0. -1.
    10030    2    1    2    0    0  0.00000000000E+00  0.00000000000E+00 -0.73508340215E+03  0.36144071710E+04  0.35388686878E+04 0.  0.
        3    1    3    3  502    0  0.82615814312E+03  0.15054604920E+04  0.68118453959E+02  0.17186007984E+04  0.10100000352E+00 0.  1.
       -3    1    3    3    0  502 -0.82615814312E+03 -0.15054604920E+04 -0.80320185611E+03  0.18958063726E+04  0.10100000352E+00 0. -1.
</event>
<event>
 5   0  0.6890600E-07  0.3357555E+04  0.7818609E-02  0.8148403E-01
        1   -1    0    0  501    0  0.00000000000E+00  0.00000000000E+00  0.19582496407E+04  0.19582496407E+04  0.50400001928E-02 0.  1.
       -1   -1    0    0    0  501  0.00000000000E+00  0.00000000000E+00 -0.14391902287E+04  0.14391902287E+04  0.50400001928E-02 0. -1.
    10030    2    1    2    0    0  0.00000000000E+00  0.00000000000E+00  0.51905941198E+03  0.33974398694E+04  0.33575549129E+04 0.  0.
        3    1    3    3  502    0  0.41184216663E+03 -0.15856140103E+04 -0.11158031117E+03  0.16420219048E+04  0.10100000352E+00 0. -1.
       -3    1    3    3    0  502 -0.41184216663E+03  0.15856140103E+04  0.63063972315E+03  0.17554179646E+04  0.10100000352E+00 0.  1.
</event>
<event>
 5   0  0.2001768E-06  0.3574610E+04  0.7818609E-02  0.8096332E-01
        2   -1    0    0  501    0  0.00000000000E+00  0.00000000000E+00  0.25762710887E+04  0.25762710887E+04  0.25500000920E-02 0.  1.
       -2   -1    0    0    0  501  0.00000000000E+00  0.00000000000E+00 -0.12399545774E+04  0.12399545774E+04  0.25500000920E-02 0. -1.
    10030    2    1    2    0    0  0.00000000000E+00  0.00000000000E+00  0.13363165113E+04  0.38162256661E+04  0.35746099810E+04 0.  0.
        2    1    3    3  502    0 -0.17260633028E+04 -0.10530444091E+03  0.11504400885E+04  0.20769920432E+04  0.25500000920E-02 0. -1.
       -2    1    3    3    0  502  0.17260633028E+04  0.10530444091E+03  0.18587642278E+03  0.17392336229E+04  0.25500000920E-02 0.  1.
</event>
<event>
 5   0  0.2020725E-06  0.3276008E+04  0.7818609E-02  0.8169027E-01
        2   -1    0    0  501    0  0.00000000000E+00  0.00000000000E+00  0.18230213638E+04  0.18230213638E+04  0.25500000920E-02 0.  1.
       -2   -1    0    0    0  501  0.00000000000E+00  0.00000000000E+00 -0.14717635155E+04  0.14717635155E+04  0.25500000920E-02 0. -1.
    10030    2    1    2    0    0  0.00000000000E+00  0.00000000000E+00  0.35125784831E+03  0.32947848793E+04  0.32760075283E+04 0.  0.
        3    1    3    3  502    0 -0.12366485641E+03  0.11272888559E+04  0.13643439668E+04  0.17741216507E+04  0.10100000352E+00 0.  1.
       -3    1    3    3    0  502  0.12366485641E+03 -0.11272888559E+04 -0.10130861185E+04  0.15206632287E+04  0.10100000352E+00 0. -1.
</event>
<event>
 5   0  0.2073287E-06  0.3809327E+04  0.7818609E-02  0.8044156E-01
        2   -1    0    0  501    0  0.00000000000E+00  0.00000000000E+00  0.31222789565E+04  0.31222789565E+04  0.25500000920E-02 0.  1.
       -2   -1    0    0    0  501  0.00000000000E+00  0.00000000000E+00 -0.11618893610E+04  0.11618893610E+04  0.25500000920E-02 0. -1.
    10030    2    1    2    0    0  0.00000000000E+00  0.00000000000E+00  0.19603895955E+04  0.42841683175E+04  0.38093268180E+04 0.  0.
        1    1    3    3  502    0  0.11224768100E+04  0.14786296926E+04  0.14592527949E+04  0.23612959739E+04  0.50400001928E-02 0.  1.
       -1    1    3    3    0  502 -0.11224768100E+04 -0.14786296926E+04  0.50113680062E+03  0.19228723436E+04  0.50400001928E-02 0. -1.
</event>
<event>
 5   0  0.6630125E-07  0.3531212E+04  0.7818609E-02  0.8106433E-01
       -1   -1    0    0    0  501  0.00000000000E+00  0.00000000000E+00  0.22617916453E+04  0.22617916453E+04  0.50400001928E-02 0. -1.
        1   -1    0    0  501    0  0.00000000000E+00  0.00000000000E+00 -0.13782720317E+04  0.13782720317E+04  0.50400001928E-02 0.  1.
    10030    2    1    2    0    0  0.00000000000E+00  0.00000000000E+00  0.88351961360E+03  0.36400636770E+04  0.35312117842E+04 0.  0.
        1    1    3    3  502    0  0.72394181616E+03  0.12721483899E+04  0.14595720625E+04  0.20670761681E+04  0.50400001928E-02 0. -1.
       -1    1    3    3    0  502 -0.72394181616E+03 -0.12721483899E+04 -0.57605244895E+03  0.15729875089E+04  0.50400001928E-02 0.  1.
</event>
<event>
 5   0  0.2020725E-06  0.2489476E+04  0.7818609E-02  0.8406744E-01
        2   -1    0    0  501    0  0.00000000000E+00  0.00000000000E+00  0.13208371178E+04  0.13208371178E+04  0.25500000920E-02 0. -1.
       -2   -1    0    0    0  501  0.00000000000E+00  0.00000000000E+00 -0.11730230094E+04  0.11730230094E+04  0.25500000920E-02 0.  1.
    10030    2    1    2    0    0  0.00000000000E+00  0.00000000000E+00  0.14781410842E+03  0.24938601272E+04  0.24894757125E+04 0.  0.
        3    1    3    3  502    0 -0.44750871799E+03 -0.21957451729E+03  0.12164837719E+04  0.13146519687E+04  0.10100000352E+00 0. -1.
       -3    1    3    3    0  502  0.44750871799E+03  0.21957451729E+03 -0.10686696634E+04  0.11792081585E+04  0.10100000352E+00 0.  1.
</event>
<event>
 5   0  0.6630125E-07  0.2308510E+04  0.7818609E-02  0.8474573E-01
       -1   -1    0    0    0  501  0.00000000000E+00  0.00000000000E+00  0.10080285095E+04  0.10080285096E+04  0.50400001928E-02 0.  1.
        1   -1    0    0  501    0  0.00000000000E+00  0.00000000000E+00 -0.13216933738E+04  0.13216933738E+04  0.50400001928E-02 0. -1.
    10030    2    1    2    0    0  0.00000000000E+00  0.00000000000E+00 -0.31366486423E+03  0.23297218834E+04  0.23085099971E+04 0.  0.
        4    1    3    3  502    0  0.88331070476E+02  0.90355963704E+03 -0.87617974029E+03  0.12617111182E+04  0.12699999809E+01 0. -1.
       -4    1    3    3    0  502 -0.88331070476E+02 -0.90355963704E+03  0.56251487605E+03  0.10680107651E+04  0.12699999809E+01 0.  1.
</event>
<event>
 5   0  0.2023479E-06  0.3200454E+04  0.7818609E-02  0.8188697E-01
        2   -1    0    0  501    0  0.00000000000E+00  0.00000000000E+00  0.12889224712E+04  0.12889224712E+04  0.25500000920E-02 0. -1.
       -2   -1    0    0    0  501  0.00000000000E+00  0.00000000000E+00 -0.19867190059E+04  0.19867190059E+04  0.25500000920E-02 0.  1.
    10030    2    1    2    0    0  0.00000000000E+00  0.00000000000E+00 -0.69779653474E+03  0.32756414771E+04  0.32004541995E+04 0.  0.
        5    1    3    3  502    0  0.11229639349E+04 -0.10897521320E+04 -0.62238469179E+01  0.15648222054E+04  0.46999998093E+01 0. -1.
       -5    1    3    3    0  502 -0.11229639349E+04  0.10897521320E+04 -0.69157268783E+03  0.17108192718E+04  0.46999998093E+01 0.  1.
</event>
<event>
 5   0  0.6630125E-07  0.3485869E+04  0.7818609E-02  0.8117147E-01
       -1   -1    0    0    0  501  0.00000000000E+00  0.00000000000E+00  0.25817679685E+04  0.25817679685E+04  0.50400001928E-02 0. -1.
        1   -1    0    0  501    0  0.00000000000E+00  0.00000000000E+00 -0.11766436738E+04  0.11766436739E+04  0.50400001928E-02 0.  1.
    10030    2    1    2    0    0  0.00000000000E+00  0.00000000000E+00  0.14051242947E+04  0.37584116424E+04  0.34858691585E+04 0.  0.
        4    1    3    3  502    0  0.16164313598E+04 -0.57316353261E+03  0.36771227383E+03  0.17540184449E+04  0.12699999809E+01 0. -1.
       -4    1    3    3    0  502 -0.16164313598E+04  0.57316353261E+03  0.10374120208E+04  0.20043931974E+04  0.12699999809E+01 0.  1.
</event>
<event>
 5   0  0.6890600E-07  0.2313640E+04  0.7818609E-02  0.8472562E-01
        1   -1    0    0  501    0  0.00000000000E+00  0.00000000000E+00  0.13858106796E+04  0.13858106797E+04  0.50400001928E-02 0.  1.
       -1   -1    0    0    0  501  0.00000000000E+00  0.00000000000E+00 -0.96566774928E+03  0.96566774929E+03  0.50400001928E-02 0. -1.
    10030    2    1    2    0    0  0.00000000000E+00  0.00000000000E+00  0.42014293037E+03  0.23514784289E+04  0.23136401448E+04 0.  0.
        3    1    3    3  502    0 -0.92898702140E+03  0.33796452067E+03  0.82072692204E+03  0.12848461363E+04  0.10100000352E+00 0.  1.
       -3    1    3    3    0  502  0.92898702140E+03 -0.33796452067E+03 -0.40058399167E+03  0.10666322927E+04  0.10100000352E+00 0. -1.
</event>
<event>
 5   0  0.2073287E-06  0.3516785E+04  0.7818609E-02  0.8109824E-01
       -2   -1    0    0    0  501  0.00000000000E+00  0.00000000000E+00  0.16682017620E+04  0.16682017620E+04  0.25500000920E-02 0.  1.
        2   -1    0    0  501    0  0.00000000000E+00  0.00000000000E+00 -0.18534588651E+04  0.18534588651E+04  0.25500000920E-02 0. -1.
    10030    2    1    2    0    0  0.00000000000E+00  0.00000000000E+00 -0.18525710308E+03  0.35216606271E+04  0.35167845225E+04 0.  0.
        1    1    3    3  502    0  0.87462050599E+02 -0.56157868823E+03 -0.17589438843E+04  0.18484869006E+04  0.50400001928E-02 0. -1.
       -1    1    3    3    0  502 -0.87462050599E+02  0.56157868823E+03  0.15736867813E+04  0.16731737265E+04  0.50400001928E-02 0.  1.
</event>
<event>
 5   0  0.1999883E-06  0.3026088E+04  0.7818609E-02  0.8236320E-01
       -2   -1    0    0    0  501  0.00000000000E+00  0.00000000000E+00  0.13251538519E+04  0.13251538519E+04  0.25500000920E-02 0. -1.
        2   -1    0    0  501    0  0.00000000000E+00  0.00000000000E+00 -0.17275747109E+04  0.17275747109E+04  0.25500000920E-02 0.  1.
    10030    2    1    2    0    0  0.00000000000E+00  0.00000000000E+00 -0.40242085897E+03  0.30527285628E+04  0.30260880903E+04 0.  0.
        4    1    3    3  502    0 -0.13091076094E+04 -0.61670137943E+03  0.24451337129E+03  0.14676074836E+04  0.12699999809E+01 0.  1.
       -4    1    3    3    0  502  0.13091076094E+04  0.61670137943E+03 -0.64693423027E+03  0.15851210791E+04  0.12699999809E+01 0. -1.
</event>
<event>
 5   0  0.2020725E-06  0.3188384E+04  0.7818609E-02  0.8191892E-01
        2   -1    0    0  501    0  0.00000000000E+00  0.00000000000E+00  0.21904709200E+04  0.21904709201E+04  0.25500000920E-02 0.  1.
       -2   -1    0    0    0  501  0.00000000000E+00  0.00000000000E+00 -0.11602292482E+04  0.11602292482E+04  0.25500000920E-02 0. -1.
    10030    2    1    2    0    0  0.00000000000E+00  0.00000000000E+00  0.10302416719E+04  0.33507001682E+04  0.31883841856E+04 0.  0.
        3    1    3    3  502    0  0.15474132724E+04 -0.41105960932E+01  0.11227360196E+03  0.15514864177E+04  0.10100000352E+00 0. -1.
       -3    1    3    3    0  502 -0.15474132724E+04  0.41105960932E+01  0.91796806990E+03  0.17992137505E+04  0.10100000352E+00 0.  1.
</event>
<event>
 5   0  0.6630125E-07  0.3566990E+04  0.7818609E-02  0.8098095E-01
        1   -1    0    0  501    0  0.00000000000E+00  0.00000000000E+00  0.18133054901E+04  0.18133054901E+04  0.50400001928E-02 0. -1.
       -1   -1    0    0    0  501  0.00000000000E+00  0.00000000000E+00 -0.17541750427E+04  0.17541750427E+04  0.50400001928E-02 0.  1.
    10030    2    1    2    0    0  0.00000000000E+00  0.00000000000E+00  0.59130447397E+02  0.35674805328E+04  0.35669904600E+04 0.  0.
        4    1    3    3  502    0 -0.11602282133E+04 -0.12526866280E+04 -0.48577280855E+03  0.17751986168E+04  0.12699999809E+01 0.  1.
       -4    1    3    3    0  502  0.11602282133E+04  0.12526866280E+04  0.54490325594E+03  0.17922819159E+04  0.12699999809E+01 0. -1.
</event>
<event>
 5   0  0.7378896E-07  0.3607238E+04  0.7818609E-02  0.8088836E-01
        1   -1    0    0  501    0  0.00000000000E+00  0.00000000000E+00  0.23589131508E+04  0.23589131508E+04  0.50400001928E-02 0.  1.
       -1   -1    0    0    0  501  0.00000000000E+00  0.00000000000E+00 -0.13790425104E+04  0.13790425104E+04  0.50400001928E-02 0. -1.
    10030    2    1    2    0    0  0.00000000000E+00  0.00000000000E+00  0.97987064033E+03  0.37379556612E+04  0.36072380090E+04 0.  0.
        2    1    3    3  502    0 -0.81344985213E+03 -0.73101071544E+03 -0.99624912720E+03  0.14793882693E+04  0.25500000920E-02 0. -1.
       -2    1    3    3    0  502  0.81344985213E+03  0.73101071544E+03  0.19761197675E+04  0.22585673919E+04  0.25500000920E-02 0.  1.
</event>
<event>
 5   0  0.2023479E-06  0.3513854E+04  0.7818609E-02  0.8110514E-01
        2   -1    0    0  501    0  0.00000000000E+00  0.00000000000E+00  0.23832861695E+04  0.23832861695E+04  0.25500000920E-02 0.  1.
       -2   -1    0    0    0  501  0.00000000000E+00  0.00000000000E+00 -0.12951835969E+04  0.12951835969E+04  0.25500000920E-02 0. -1.
    10030    2    1    2    0    0  0.00000000000E+00  0.00000000000E+00  0.10881025726E+04  0.36784697664E+04  0.35138543814E+04 0.  0.
        5    1    3    3  502    0  0.42268912003E+02 -0.94294662008E+03 -0.10072044086E+04  0.13803687188E+04  0.46999998093E+01 0. -1.
       -5    1    3    3    0  502 -0.42268912003E+02  0.94294662008E+03  0.20953069812E+04  0.22981010475E+04  0.46999998093E+01 0.  1.
</event>
<event>
 5   0  0.6630125E-07  0.3475972E+04  0.7818609E-02  0.8119508E-01
        1   -1    0    0  501    0  0.00000000000E+00  0.00000000000E+00  0.30376511577E+04  0.30376511577E+04  0.50400001928E-02 0. -1.
       -1   -1    0    0    0  501  0.00000000000E+00  0.00000000000E+00 -0.99438510318E+03  0.99438510319E+03  0.50400001928E-02 0.  1.
    10030    2    1    2    0    0  0.00000000000E+00  0.00000000000E+00  0.20432660545E+04  0.40320362609E+04  0.34759718410E+04 0.  0.
        1    1    3    3  502    0  0.30244999937E+03 -0.12588545193E+04 -0.32333863846E+03  0.13344431715E+04  0.50400001928E-02 0.  1.
       -1    1    3    3    0  502 -0.30244999937E+03  0.12588545193E+04  0.23666046930E+04  0.26975930894E+04  0.50400001928E-02 0. -1.
</event>
<event>
 5   0  0.2073287E-06  0.3467144E+04  0.7818609E-02  0.8121621E-01
       -2   -1    0    0    0  501  0.00000000000E+00  0.00000000000E+00  0.10914671829E+04  0.10914671829E+04  0.25500000920E-02 0.  1.
        2   -1    0    0  501    0  0.00000000000E+00  0.00000000000E+00 -0.27534239445E+04  0.27534239445E+04  0.25500000920E-02 0. -1.
    10030    2    1    2    0    0  0.00000000000E+00  0.00000000000E+00 -0.16619567616E+04  0.38448911274E+04  0.34671439982E+04 0.  0.
        1    1    3    3  502    0 -0.28026173849E+03  0.16701647944E+04 -0.12418513466E+04  0.21000456780E+04  0.50400001928E-02 0. -1.
       -1    1    3    3    0  502  0.28026173849E+03 -0.16701647944E+04 -0.42010541500E+03  0.17448454494E+04  0.50400001928E-02 0.  1.
</event>
<event>
 5   0  0.7378896E-07  0.3487930E+04  0.7818609E-02  0.8116656E-01
       -1   -1    0    0    0  501  0.00000000000E+00  0.00000000000E+00  0.11458662728E+04  0.11458662728E+04  0.50400001928E-02 0.  1.
        1   -1    0    0  501    0  0.00000000000E+00  0.00000000000E+00 -0.26542478489E+04  0.26542478489E+04  0.50400001928E-02 0. -1.
    10030    2    1    2    0    0  0.00000000000E+00  0.00000000000E+00 -0.15083815761E+04  0.38001141217E+04  0.34879295231E+04 0.  0.
        2    1    3    3  502    0  0.26361905046E+03 -0.14371573632E+04  0.28312759792E+03  0.14883136521E+04  0.25500000920E-02 0.  1.
       -2    1    3    3    0  502 -0.26361905046E+03  0.14371573632E+04 -0.17915091740E+04  0.23118004695E+04  0.25500000920E-02 0. -1.
</event>
<event>
 5   0  0.6630125E-07  0.3494718E+04  0.7818609E-02  0.8115043E-01
        1   -1    0    0  501    0  0.00000000000E+00  0.00000000000E+00  0.11742387329E+04  0.11742387329E+04  0.50400001928E-02 0.  1.
       -1   -1    0    0    0  501  0.00000000000E+00  0.00000000000E+00 -0.26002061742E+04  0.26002061742E+04  0.50400001928E-02 0. -1.
    10030    2    1    2    0    0  0.00000000000E+00  0.00000000000E+00 -0.14259674413E+04  0.37744449071E+04  0.34947176157E+04 0.  0.
        4    1    3    3  502    0  0.11971938413E+04 -0.10196712199E+04  0.10973585691E+03  0.15764028868E+04  0.12699999809E+01 0.  1.
       -4    1    3    3    0  502 -0.11971938413E+04  0.10196712199E+04 -0.15357032982E+04  0.21980420203E+04  0.12699999809E+01 0. -1.
</event>
<event>
 5   0  0.6630125E-07  0.3467236E+04  0.7818609E-02  0.8121599E-01
       -1   -1    0    0    0  501  0.00000000000E+00  0.00000000000E+00  0.17076332164E+04  0.17076332164E+04  0.50400001928E-02 0.  1.
        1   -1    0    0  501    0  0.00000000000E+00  0.00000000000E+00 -0.17599977939E+04  0.17599977939E+04  0.50400001928E-02 0. -1.
    10030    2    1    2    0    0  0.00000000000E+00  0.00000000000E+00 -0.52364577528E+02  0.34676310103E+04  0.34672356099E+04 0.  0.
        5    1    3    3  502    0  0.13274733028E+04 -0.55653893361E+03 -0.99246411603E+03  0.17484072941E+04  0.46999998093E+01 0. -1.
       -5    1    3    3    0  502 -0.13274733028E+04  0.55653893361E+03  0.94009953850E+03  0.17192237163E+04  0.46999998093E+01 0.  1.
</event>
<event>
 5   0  0.1999883E-06  0.3520624E+04  0.7818609E-02  0.8108920E-01
        2   -1    0    0  501    0  0.00000000000E+00  0.00000000000E+00  0.19303601897E+04  0.19303601897E+04  0.25500000920E-02 0. -1.
       -2   -1    0    0    0  501  0.00000000000E+00  0.00000000000E+00 -0.16052434146E+04  0.16052434146E+04  0.25500000920E-02 0.  1.
    10030    2    1    2    0    0  0.00000000000E+00  0.00000000000E+00  0.32511677513E+03  0.35356036042E+04  0.35206237983E+04 0.  0.
        4    1    3    3  502    0  0.62376980128E+03 -0.23744164714E+03  0.17983625953E+04  0.19182223380E+04  0.12699999809E+01 0. -1.
       -4    1    3    3    0  502 -0.62376980128E+03  0.23744164714E+03 -0.14732458202E+04  0.16173812662E+04  0.12699999809E+01 0.  1.
</event>
<event>
 5   0  0.6630125E-07  0.3476457E+04  0.7818609E-02  0.8119392E-01
        1   -1    0    0  501    0  0.00000000000E+00  0.00000000000E+00  0.25616726241E+04  0.25616726241E+04  0.50400001928E-02 0.  1.
       -1   -1    0    0    0  501  0.00000000000E+00  0.00000000000E+00 -0.11794789997E+04  0.11794789997E+04  0.50400001928E-02 0. -1.
    10030    2    1    2    0    0  0.00000000000E+00  0.00000000000E+00  0.13821936244E+04  0.37411516238E+04  0.34764574292E+04 0.  0.
        5    1    3    3  502    0  0.14132651178E+04  0.62133823510E+03 -0.16849345476E+03  0.15529944076E+04  0.46999998093E+01 0. -1.
       -5    1    3    3    0  502 -0.14132651178E+04 -0.62133823510E+03  0.15506870791E+04  0.21881572163E+04  0.46999998093E+01 0.  1.
</event>
<event>
 5   0  0.2001768E-06  0.3262083E+04  0.7818609E-02  0.8172611E-01
        2   -1    0    0  501    0  0.00000000000E+00  0.00000000000E+00  0.20826413656E+04  0.20826413656E+04  0.25500000920E-02 0. -1.
       -2   -1    0    0    0  501  0.00000000000E+00  0.00000000000E+00 -0.12773661646E+04  0.12773661646E+04  0.25500000920E-02 0.  1.
    10030    2    1    2    0    0  0.00000000000E+00  0.00000000000E+00  0.80527520100E+03  0.33600075302E+04  0.32620825332E+04 0.  0.
        2    1    3    3  502    0 -0.24835146727E+03 -0.42918816270E+03 -0.11978460338E+04  0.12964243330E+04  0.25500000920E-02 0.  1.
       -2    1    3    3    0  502  0.24835146727E+03  0.42918816270E+03  0.20031212348E+04  0.20635831972E+04  0.25500000920E-02 0. -1.
</event>
<event>
 5   0  0.6630125E-07  0.3020387E+04  0.7818609E-02  0.8237933E-01
       -1   -1    0    0    0  501  0.00000000000E+00  0.00000000000E+00  0.13661679136E+04  0.13661679136E+04  0.50400001928E-02 0.  1.
        1   -1    0    0  501    0  0.00000000000E+00  0.00000000000E+00 -0.16694026346E+04  0.16694026347E+04  0.50400001928E-02 0. -1.
    10030    2    1    2    0    0  0.00000000000E+00  0.00000000000E+00 -0.30323472108E+03  0.30355705482E+04  0.30203869383E+04 0.  0.
        4    1    3    3  502    0 -0.74717079249E+02  0.31385648429E+03  0.13311276713E+04  0.13696682170E+04  0.12699999809E+01 0.  1.
       -4    1    3    3    0  502  0.74717079249E+02 -0.31385648429E+03 -0.16343623923E+04  0.16659023312E+04  0.12699999809E+01 0. -1.
</event>
<event>
 5   0  0.6630125E-07  0.2985558E+04  0.7818609E-02  0.8247867E-01
        1   -1    0    0  501    0  0.00000000000E+00  0.00000000000E+00  0.22684561037E+04  0.22684561037E+04  0.50400001928E-02 0. -1.
       -1   -1    0    0    0  501  0.00000000000E+00  0.00000000000E+00 -0.98233716038E+03  0.98233716039E+03  0.50400001928E-02 0.  1.
    10030    2    1    2    0    0  0.00000000000E+00  0.00000000000E+00  0.12861189433E+04  0.32507932641E+04  0.29855577217E+04 0.  0.
        1    1    3    3  502    0 -0.71466511400E+03  0.13497351056E+02  0.20700044766E+04  0.21899422222E+04  0.50400001928E-02 0. -1.
       -1    1    3    3    0  502  0.71466511400E+03 -0.13497351056E+02 -0.78388553328E+03  0.10608510418E+04  0.50400001928E-02 0.  1.
</event>
<event>
 5   0  0.2001768E-06  0.3588551E+04  0.7818609E-02  0.8093119E-01
       -2   -1    0    0    0  501  0.00000000000E+00  0.00000000000E+00  0.22189991068E+04  0.22189991068E+04  0.25500000920E-02 0.  1.
        2   -1    0    0  501    0  0.00000000000E+00  0.00000000000E+00 -0.14508451417E+04  0.14508451417E+04  0.25500000920E-02 0. -1.
    10030    2    1    2    0    0  0.00000000000E+00  0.00000000000E+00  0.76815396508E+03  0.36698442485E+04  0.35885507233E+04 0.  0.
        2    1    3    3  502    0 -0.15232066699E+04 -0.25164699586E+03 -0.55093228622E+03  0.16392105276E+04  0.25500000920E-02 0. -1.
       -2    1    3    3    0  502  0.15232066699E+04  0.25164699586E+03  0.13190862513E+04  0.20306337209E+04  0.25500000920E-02 0.  1.
</event>
<event>
 5   0  0.1999883E-06  0.2292631E+04  0.7818609E-02  0.8480832E-01
        2   -1    0    0  501    0  0.00000000000E+00  0.00000000000E+00  0.15664136854E+04  0.15664136854E+04  0.25500000920E-02 0.  1.
       -2   -1    0    0    0  501  0.00000000000E+00  0.00000000000E+00 -0.83888420220E+03  0.83888420220E+03  0.25500000920E-02 0. -1.
    10030    2    1    2    0    0  0.00000000000E+00  0.00000000000E+00  0.72752948319E+03  0.24052978876E+04  0.22926314094E+04 0.  0.
        4    1    3    3  502    0 -0.43226332753E+03 -0.10471389730E+04  0.54754890678E+03  0.12582380662E+04  0.12699999809E+01 0.  1.
       -4    1    3    3    0  502  0.43226332753E+03  0.10471389730E+04  0.17998057641E+03  0.11470598214E+04  0.12699999809E+01 0. -1.
</event>
<event>
 5   0  0.7378896E-07  0.3565001E+04  0.7818609E-02  0.8098556E-01
        1   -1    0    0  501    0  0.00000000000E+00  0.00000000000E+00  0.17541193254E+04  0.17541193255E+04  0.50400001928E-02 0.  1.
       -1   -1    0    0    0  501  0.00000000000E+00  0.00000000000E+00 -0.18113412567E+04  0.18113412567E+04  0.50400001928E-02 0. -1.
    10030    2    1    2    0    0  0.00000000000E+00  0.00000000000E+00 -0.57221931247E+02  0.35654605821E+04  0.35650013764E+04 0.  0.
        2    1    3    3  502    0 -0.34557424795E+03 -0.21866224474E+03  0.17065689867E+04  0.17548824589E+04  0.25500000920E-02 0.  1.
       -2    1    3    3    0  502  0.34557424795E+03  0.21866224474E+03 -0.17637909180E+04  0.18105781233E+04  0.25500000920E-02 0. -1.
</event>
<event>
 5   0  0.6630125E-07  0.3270655E+04  0.7818609E-02  0.8170403E-01
        1   -1    0    0  501    0  0.00000000000E+00  0.00000000000E+00  0.29626142485E+04  0.29626142485E+04  0.50400001928E-02 0.  1.
       -1   -1    0    0    0  501  0.00000000000E+00  0.00000000000E+00 -0.90268135639E+03  0.90268135640E+03  0.50400001928E-02 0. -1.
    10030    2    1    2    0    0  0.00000000000E+00  0.00000000000E+00  0.20599328921E+04  0.38652956049E+04  0.32706553767E+04 0.  0.
        1    1    3    3  502    0  0.11326374528E+04  0.86208371422E+03  0.19814824141E+04  0.24397394302E+04  0.50400001928E-02 0.  1.
       -1    1    3    3    0  502 -0.11326374528E+04 -0.86208371422E+03  0.78450477980E+02  0.14255561747E+04  0.50400001928E-02 0. -1.
</event>
<event>
 5   0  0.6630125E-07  0.3524083E+04  0.7818609E-02  0.8108106E-01
       -1   -1    0    0    0  501  0.00000000000E+00  0.00000000000E+00  0.13918143214E+04  0.13918143214E+04  0.50400001928E-02 0.  1.
        1   -1    0    0  501    0  0.00000000000E+00  0.00000000000E+00 -0.22307500416E+04  0.22307500416E+04  0.50400001928E-02 0. -1.
    10030    2    1    2    0    0  0.00000000000E+00  0.00000000000E+00 -0.83893572021E+03  0.36225643630E+04  0.35240827773E+04 0.  0.
        4    1    3    3  502    0 -0.15194871809E+04 -0.82961709700E+03 -0.82147607493E+02  0.17331634842E+04  0.12699999809E+01 0.  1.
       -4    1    3    3    0  502  0.15194871809E+04  0.82961709700E+03 -0.75678811271E+03  0.18894008788E+04  0.12699999809E+01 0. -1.
</event>
<event>
 5   0  0.1999883E-06  0.3537416E+04  0.7818609E-02  0.8104980E-01
       -2   -1    0    0    0  501  0.00000000000E+00  0.00000000000E+00  0.11708404009E+04  0.11708404009E+04  0.25500000920E-02 0. -1.
        2   -1    0    0  501    0  0.00000000000E+00  0.00000000000E+00 -0.26718661222E+04  0.26718661222E+04  0.25500000920E-02 0.  1.
    10030    2    1    2    0    0  0.00000000000E+00  0.00000000000E+00 -0.15010257213E+04  0.38427065231E+04  0.35374164593E+04 0.  0.
        4    1    3    3  502    0  0.10218313922E+04 -0.33308871917E+03  0.77543940235E+03  0.13252906733E+04  0.12699999809E+01 0. -1.
       -4    1    3    3    0  502 -0.10218313922E+04  0.33308871917E+03 -0.22764651237E+04  0.25174158499E+04  0.12699999809E+01 0.  1.
</event>
<event>
 5   0  0.6890600E-07  0.2554302E+04  0.7818609E-02  0.8383892E-01
       -1   -1    0    0    0  501  0.00000000000E+00  0.00000000000E+00  0.77611233687E+03  0.77611233688E+03  0.50400001928E-02 0.  1.
        1   -1    0    0  501    0  0.00000000000E+00  0.00000000000E+00 -0.21016475228E+04  0.21016475229E+04  0.50400001928E-02 0. -1.
    10030    2    1    2    0    0  0.00000000000E+00  0.00000000000E+00 -0.13255351860E+04  0.28777598597E+04  0.25543019166E+04 0.  0.
        3    1    3    3  502    0 -0.25298578483E+03  0.11282497560E+04 -0.12738193518E+04  0.17203386499E+04  0.10100000352E+00 0. -1.
       -3    1    3    3    0  502  0.25298578483E+03 -0.11282497560E+04 -0.51715834150E+02  0.11574212098E+04  0.10100000352E+00 0.  1.
</event>
<event>
 5   0  0.6630125E-07  0.2876009E+04  0.7818609E-02  0.8280052E-01
        1   -1    0    0  501    0  0.00000000000E+00  0.00000000000E+00  0.13096350962E+04  0.13096350962E+04  0.50400001928E-02 0.  1.
       -1   -1    0    0    0  501  0.00000000000E+00  0.00000000000E+00 -0.15789563257E+04  0.15789563257E+04  0.50400001928E-02 0. -1.
    10030    2    1    2    0    0  0.00000000000E+00  0.00000000000E+00 -0.26932122949E+03  0.28885914219E+04  0.28760087757E+04 0.  0.
        1    1    3    3  502    0  0.30264263756E+03 -0.65416432059E+03 -0.13844248974E+04  0.15608189585E+04  0.50400001928E-02 0. -1.
       -1    1    3    3    0  502 -0.30264263756E+03  0.65416432059E+03  0.11151036679E+04  0.13277724635E+04  0.50400001928E-02 0.  1.
</event>
<event>
 5   0  0.6630125E-07  0.3534365E+04  0.7818609E-02  0.8105694E-01
       -1   -1    0    0    0  501  0.00000000000E+00  0.00000000000E+00  0.23455089726E+04  0.23455089726E+04  0.50400001928E-02 0. -1.
        1   -1    0    0  501    0  0.00000000000E+00  0.00000000000E+00 -0.13314526970E+04  0.13314526970E+04  0.50400001928E-02 0.  1.
    10030    2    1    2    0    0  0.00000000000E+00  0.00000000000E+00  0.10140562757E+04  0.36769616696E+04  0.35343651466E+04 0.  0.
        1    1    3    3  502    0  0.64965499676E+03 -0.12175982998E+04  0.16553441108E+04  0.21551708423E+04  0.50400001928E-02 0. -1.
       -1    1    3    3    0  502 -0.64965499676E+03  0.12175982998E+04 -0.64128783514E+03  0.15217908273E+04  0.50400001928E-02 0.  1.
</event>
<event>
 5   0  0.1999883E-06  0.3539356E+04  0.7818609E-02  0.8104526E-01
        2   -1    0    0  501    0  0.00000000000E+00  0.00000000000E+00  0.20060019595E+04  0.20060019595E+04  0.25500000920E-02 0.  1.
       -2   -1    0    0    0  501  0.00000000000E+00  0.00000000000E+00 -0.15611953104E+04  0.15611953104E+04  0.25500000920E-02 0. -1.
    10030    2    1    2    0    0  0.00000000000E+00  0.00000000000E+00  0.44480664903E+03  0.35671972699E+04  0.35393563550E+04 0.  0.
        4    1    3    3  502    0  0.12052681151E+04  0.10683360486E+04  0.96148335699E+03  0.18757571807E+04  0.12699999809E+01 0.  1.
       -4    1    3    3    0  502 -0.12052681151E+04 -0.10683360486E+04 -0.51667670796E+03  0.16914400893E+04  0.12699999809E+01 0. -1.
</event>
<event>
 5   0  0.2020725E-06  0.3411511E+04  0.7818609E-02  0.8135087E-01
       -2   -1    0    0    0  501  0.00000000000E+00  0.00000000000E+00  0.13030729912E+04  0.13030729912E+04  0.25500000920E-02 0.  1.
        2   -1    0    0  501    0  0.00000000000E+00  0.00000000000E+00 -0.22328765254E+04  0.22328765254E+04  0.25500000920E-02 0. -1.
    10030    2    1    2    0    0  0.00000000000E+00  0.00000000000E+00 -0.92980353420E+03  0.35359495167E+04  0.34115105704E+04 0.  0.
        3    1    3    3  502    0 -0.19715145614E+03  0.91090881781E+03  0.10158369919E+04  0.13786037775E+04  0.10100000352E+00 0.  1.
       -3    1    3    3    0  502  0.19715145614E+03 -0.91090881781E+03 -0.19456405261E+04  0.21573457391E+04  0.10100000352E+00 0. -1.
</event>
<event>
 5   0  0.2023479E-06  0.2803799E+04  0.7818609E-02  0.8302090E-01
       -2   -1    0    0    0  501  0.00000000000E+00  0.00000000000E+00  0.13391165303E+04  0.13391165303E+04  0.25500000920E-02 0. -1.
        2   -1    0    0  501    0  0.00000000000E+00  0.00000000000E+00 -0.14676257946E+04  0.14676257946E+04  0.25500000920E-02 0.  1.
    10030    2    1    2    0    0  0.00000000000E+00  0.00000000000E+00 -0.12850926426E+03  0.28067423249E+04  0.28037988244E+04 0.  0.
        5    1    3    3  502    0  0.10585342319E+04  0.85585687261E+03  0.27123025550E+03  0.13880106801E+04  0.46999998093E+01 0. -1.
       -5    1    3    3    0  502 -0.10585342319E+04 -0.85585687261E+03 -0.39973951977E+03  0.14187316449E+04  0.46999998093E+01 0.  1.
</event>
<event>
 5   0  0.2020725E-06  0.3632372E+04  0.7818609E-02  0.8083117E-01
       -2   -1    0    0    0  501  0.00000000000E+00  0.00000000000E+00  0.12858533263E+04  0.12858533263E+04  0.25500000920E-02 0.  1.
        2   -1    0    0  501    0  0.00000000000E+00  0.00000000000E+00 -0.25652469780E+04  0.25652469780E+04  0.25500000920E-02 0. -1.
    10030    2    1    2    0    0  0.00000000000E+00  0.00000000000E+00 -0.12793936517E+04  0.38511003044E+04  0.36323718750E+04 0.  0.
        3    1    3    3  502    0 -0.40023943845E+03 -0.11624901518E+04 -0.20569632632E+04  0.23963874557E+04  0.10100000352E+00 0. -1.
       -3    1    3    3    0  502  0.40023943845E+03  0.11624901518E+04  0.77756961154E+03  0.14547128487E+04  0.10100000352E+00 0.  1.
</event>
<event>
 5   0  0.6630125E-07  0.3501545E+04  0.7818609E-02  0.8113424E-01
       -1   -1    0    0    0  501  0.00000000000E+00  0.00000000000E+00  0.20018999229E+04  0.20018999229E+04  0.50400001928E-02 0.  1.
        1   -1    0    0  501    0  0.00000000000E+00  0.00000000000E+00 -0.15311476324E+04  0.15311476324E+04  0.50400001928E-02 0. -1.
    10030    2    1    2    0    0  0.00000000000E+00  0.00000000000E+00  0.47075229050E+03  0.35330475554E+04  0.35015449890E+04 0.  0.
        5    1    3    3  502    0  0.11104364569E+03 -0.24392565850E+03  0.19810722968E+04  0.19991247968E+04  0.46999998093E+01 0.  1.
       -5    1    3    3    0  502 -0.11104364569E+03  0.24392565850E+03 -0.15103200063E+04  0.15339227586E+04  0.46999998093E+01 0. -1.
</event>
<event>
 5   0  0.2023479E-06  0.2212800E+04  0.7818609E-02  0.8513119E-01
        2   -1    0    0  501    0  0.00000000000E+00  0.00000000000E+00  0.13234703651E+04  0.13234703651E+04  0.25500000920E-02 0. -1.
       -2   -1    0    0    0  501  0.00000000000E+00  0.00000000000E+00 -0.92493270966E+03  0.92493270966E+03  0.25500000920E-02 0.  1.
    10030    2    1    2    0    0  0.00000000000E+00  0.00000000000E+00  0.39853765546E+03  0.22484030748E+04  0.22128000641E+04 0.  0.
        5    1    3    3  502    0 -0.22280853934E+03  0.10782306664E+04  0.30998961352E+03  0.11438272010E+04  0.46999998093E+01 0.  1.
       -5    1    3    3    0  502  0.22280853934E+03 -0.10782306664E+04  0.88548041945E+02  0.11045758738E+04  0.46999998093E+01 0. -1.
</event>
<event>
 5   0  0.2001768E-06  0.3417700E+04  0.7818609E-02  0.8133576E-01
       -2   -1    0    0    0  501  0.00000000000E+00  0.00000000000E+00  0.21771081188E+04  0.21771081188E+04  0.25500000920E-02 0. -1.
        2   -1    0    0  501    0  0.00000000000E+00  0.00000000000E+00 -0.13413060775E+04  0.13413060775E+04  0.25500000920E-02 0.  1.
    10030    2    1    2    0    0  0.00000000000E+00  0.00000000000E+00  0.83580204133E+03  0.35184141963E+04  0.34177000167E+04 0.  0.
        2    1    3    3  502    0 -0.84955699636E+03  0.13991189122E+04 -0.87365105636E+02  0.16391807351E+04  0.25500000920E-02 0.  1.
       -2    1    3    3    0  502  0.84955699636E+03 -0.13991189122E+04  0.92316714697E+03  0.18792334612E+04  0.25500000920E-02 0. -1.
</event>
<event>
 5   0  0.2023479E-06  0.3470355E+04  0.7818609E-02  0.8120852E-01
        2   -1    0    0  501    0  0.00000000000E+00  0.00000000000E+00  0.24256850117E+04  0.24256850117E+04  0.25500000920E-02 0. -1.
       -2   -1    0    0    0  501  0.00000000000E+00  0.00000000000E+00 -0.12412329683E+04  0.12412329683E+04  0.25500000920E-02 0.  1.
    10030    2    1    2    0    0  0.00000000000E+00  0.00000000000E+00  0.11844520435E+04  0.36669179800E+04  0.34703545682E+04 0.  0.
        5    1    3    3  502    0 -0.78916389909E+03  0.25997852945E+03  0.22018091786E+04  0.23533708260E+04  0.46999998093E+01 0. -1.
       -5    1    3    3    0  502  0.78916389909E+03 -0.25997852945E+03 -0.10173571351E+04  0.13135471540E+04  0.46999998093E+01 0.  1.
</event>
<event>
 5   0  0.6630125E-07  0.3383203E+04  0.7818609E-02  0.8142041E-01
        1   -1    0    0  501    0  0.00000000000E+00  0.00000000000E+00  0.21286177013E+04  0.21286177013E+04  0.50400001928E-02 0. -1.
       -1   -1    0    0    0  501  0.00000000000E+00  0.00000000000E+00 -0.13443068582E+04  0.13443068582E+04  0.50400001928E-02 0.  1.
    10030    2    1    2    0    0  0.00000000000E+00  0.00000000000E+00  0.78431084315E+03  0.34729245595E+04  0.33832028460E+04 0.  0.
        1    1    3    3  502    0  0.78133646371E+03  0.11756969540E+03  0.19275510743E+04  0.20832096502E+04  0.50400001928E-02 0. -1.
       -1    1    3    3    0  502 -0.78133646371E+03 -0.11756969540E+03 -0.11432402311E+04  0.13897149092E+04  0.50400001928E-02 0.  1.
</event>
<event>
 5   0  0.2001768E-06  0.3560964E+04  0.7818609E-02  0.8099492E-01
       -2   -1    0    0    0  501  0.00000000000E+00  0.00000000000E+00  0.18581070425E+04  0.18581070425E+04  0.25500000920E-02 0. -1.
        2   -1    0    0  501    0  0.00000000000E+00  0.00000000000E+00 -0.17060999655E+04  0.17060999655E+04  0.25500000920E-02 0.  1.
    10030    2    1    2    0    0  0.00000000000E+00  0.00000000000E+00  0.15200707693E+03  0.35642070080E+04  0.35609641173E+04 0.  0.
        2    1    3    3  502    0 -0.61323819871E+03  0.43424275187E+03 -0.15396190000E+04  0.17132000820E+04  0.25500000920E-02 0.  1.
       -2    1    3    3    0  502  0.61323819871E+03 -0.43424275187E+03  0.16916260769E+04  0.18510069260E+04  0.25500000920E-02 0. -1.
</event>
<event>
 5   0  0.6630125E-07  0.2148899E+04  0.7818609E-02  0.8540004E-01
        1   -1    0    0  501    0  0.00000000000E+00  0.00000000000E+00  0.20780699912E+04  0.20780699912E+04  0.50400001928E-02 0.  1.
       -1   -1    0    0    0  501  0.00000000000E+00  0.00000000000E+00 -0.55553559713E+03  0.55553559715E+03  0.50400001928E-02 0. -1.
    10030    2    1    2    0    0  0.00000000000E+00  0.00000000000E+00  0.15225343941E+04  0.26336055884E+04  0.21488991167E+04 0.  0.
        5    1    3    3  502    0 -0.80391323399E+03 -0.46904933133E+03  0.14191271801E+04  0.16971233916E+04  0.46999998093E+01 0.  1.
       -5    1    3    3    0  502  0.80391323399E+03  0.46904933133E+03  0.10340721402E+03  0.93648219680E+03  0.46999998093E+01 0. -1.
</event>
<event>
 5   0  0.6890600E-07  0.3659595E+04  0.7818609E-02  0.8076975E-01
        1   -1    0    0  501    0  0.00000000000E+00  0.00000000000E+00  0.21577227810E+04  0.21577227810E+04  0.50400001928E-02 0. -1.
       -1   -1    0    0    0  501  0.00000000000E+00  0.00000000000E+00 -0.15517095248E+04  0.15517095248E+04  0.50400001928E-02 0.  1.
    10030    2    1    2    0    0  0.00000000000E+00  0.00000000000E+00  0.60601325616E+03  0.37094323058E+04  0.36595950547E+04 0.  0.
        3    1    3    3  502    0 -0.96410670886E+03 -0.15102864289E+04 -0.73115590443E+02  0.17932687314E+04  0.10100000352E+00 0.  1.
       -3    1    3    3    0  502  0.96410670886E+03  0.15102864289E+04  0.67912884661E+03  0.19161635744E+04  0.10100000352E+00 0. -1.
</event>
<event>
 5   0  0.1999883E-06  0.2422985E+04  0.7818609E-02  0.8430948E-01
        2   -1    0    0  501    0  0.00000000000E+00  0.00000000000E+00  0.17291058266E+04  0.17291058266E+04  0.25500000920E-02 0.  1.
       -2   -1    0    0    0  501  0.00000000000E+00  0.00000000000E+00 -0.84882818823E+03  0.84882818824E+03  0.25500000920E-02 0. -1.
    10030    2    1    2    0    0  0.00000000000E+00  0.00000000000E+00  0.88027763834E+03  0.25779340148E+04  0.24229847429E+04 0.  0.
        4    1    3    3  502    0 -0.63791843885E+03  0.39362514836E+03  0.14527548947E+04  0.16347412911E+04  0.12699999809E+01 0.  1.
       -4    1    3    3    0  502  0.63791843885E+03 -0.39362514836E+03 -0.57247725634E+03  0.94319272367E+03  0.12699999809E+01 0. -1.
</event>
<event>
 5   0  0.6890600E-07  0.3529031E+04  0.7818609E-02  0.8106944E-01
        1   -1    0    0  501    0  0.00000000000E+00  0.00000000000E+00  0.13053714250E+04  0.13053714250E+04  0.50400001928E-02 0.  1.
       -1   -1    0    0    0  501  0.00000000000E+00  0.00000000000E+00 -0.23851564181E+04  0.23851564181E+04  0.50400001928E-02 0. -1.
    10030    2    1    2    0    0  0.00000000000E+00  0.00000000000E+00 -0.10797849931E+04  0.36905278431E+04  0.35290310468E+04 0.  0.
        3    1    3    3  502    0 -0.26942645308E+03 -0.85317026193E+03 -0.21303540025E+04  0.23106056123E+04  0.10100000352E+00 0. -1.
       -3    1    3    3    0  502  0.26942645308E+03  0.85317026193E+03  0.10505690094E+04  0.13799222308E+04  0.10100000352E+00 0.  1.
</event>
<event>
 5   0  0.6630125E-07  0.2793634E+04  0.7818609E-02  0.8305247E-01
        1   -1    0    0  501    0  0.00000000000E+00  0.00000000000E+00  0.11057069532E+04  0.11057069532E+04  0.50400001928E-02 0. -1.
       -1   -1    0    0    0  501  0.00000000000E+00  0.00000000000E+00 -0.17645703453E+04  0.17645703453E+04  0.50400001928E-02 0.  1.
    10030    2    1    2    0    0  0.00000000000E+00  0.00000000000E+00 -0.65886339210E+03  0.28702772986E+04  0.27936339777E+04 0.  0.
        4    1    3    3  502    0 -0.63749341846E+03 -0.93273922506E+03  0.51450203331E+03  0.12414162379E+04  0.12699999809E+01 0. -1.
       -4    1    3    3    0  502  0.63749341846E+03  0.93273922506E+03 -0.11733654254E+04  0.16288610607E+04  0.12699999809E+01 0.  1.
</event>
<event>
 5   0  0.6890600E-07  0.3538122E+04  0.7818609E-02  0.8104814E-01
       -1   -1    0    0    0  501  0.00000000000E+00  0.00000000000E+00  0.30360227960E+04  0.30360227960E+04  0.50400001928E-02 0. -1.
        1   -1    0    0  501    0  0.00000000000E+00  0.00000000000E+00 -0.10308147218E+04  0.10308147218E+04  0.50400001928E-02 0.  1.
    10030    2    1    2    0    0  0.00000000000E+00  0.00000000000E+00  0.20052080742E+04  0.40668375178E+04  0.35381220973E+04 0.  0.
        3    1    3    3  502    0  0.16948176394E+04 -0.23439442191E+03  0.48570447959E+03  0.17785545895E+04  0.10100000352E+00 0. -1.
       -3    1    3    3    0  502 -0.16948176394E+04  0.23439442191E+03  0.15195035946E+04  0.22882829284E+04  0.10100000352E+00 0.  1.
</event>
<event>
 5   0  0.2020725E-06  0.3466551E+04  0.7818609E-02  0.8121763E-01
        2   -1    0    0  501    0  0.00000000000E+00  0.00000000000E+00  0.19825282153E+04  0.19825282153E+04  0.25500000920E-02 0. -1.
       -2   -1    0    0    0  501  0.00000000000E+00  0.00000000000E+00 -0.15153602241E+04  0.15153602241E+04  0.25500000920E-02 0.  1.
    10030    2    1    2    0    0  0.00000000000E+00  0.00000000000E+00  0.46716799120E+03  0.34978884394E+04  0.34665512548E+04 0.  0.
        3    1    3    3  502    0 -0.16445661360E+04  0.45414077081E+03 -0.74797434301E+02  0.17077576766E+04  0.10100000352E+00 0. -1.
       -3    1    3    3    0  502  0.16445661360E+04 -0.45414077081E+03  0.54196542550E+03  0.17901307628E+04  0.10100000352E+00 0.  1.
</event>
<event>
 5   0  0.6630125E-07  0.3516190E+04  0.7818609E-02  0.8109964E-01
       -1   -1    0    0    0  501  0.00000000000E+00  0.00000000000E+00  0.12979865536E+04  0.12979865536E+04  0.50400001928E-02 0.  1.
        1   -1    0    0  501    0  0.00000000000E+00  0.00000000000E+00 -0.23813018868E+04  0.23813018868E+04  0.50400001928E-02 0. -1.
    10030    2    1    2    0    0  0.00000000000E+00  0.00000000000E+00 -0.10833153331E+04  0.36792884404E+04  0.35161898863E+04 0.  0.
        4    1    3    3  502    0 -0.13684926622E+04  0.10024057387E+04 -0.58383199774E+02  0.16973507718E+04  0.12699999809E+01 0. -1.
       -4    1    3    3    0  502  0.13684926622E+04 -0.10024057387E+04 -0.10249321333E+04  0.19819376686E+04  0.12699999809E+01 0.  1.
</event>
<event>
 5   0  0.6630125E-07  0.3449638E+04  0.7818609E-02  0.8125830E-01
       -1   -1    0    0    0  501  0.00000000000E+00  0.00000000000E+00  0.23701685152E+04  0.23701685152E+04  0.50400001928E-02 0. -1.
        1   -1    0    0  501    0  0.00000000000E+00  0.00000000000E+00 -0.12551849432E+04  0.12551849432E+04  0.50400001928E-02 0.  1.
    10030    2    1    2    0    0  0.00000000000E+00  0.00000000000E+00  0.11149835721E+04  0.36253534584E+04  0.34496375654E+04 0.  0.
        5    1    3    3  502    0  0.26102576174E+03  0.12916901857E+04  0.17270014344E+04  0.21723613945E+04  0.46999998093E+01 0. -1.
       -5    1    3    3    0  502 -0.26102576174E+03 -0.12916901857E+04 -0.61201786230E+03  0.14529920639E+04  0.46999998093E+01 0.  1.
</event>
<event>
 5   0  0.2023479E-06  0.3473726E+04  0.7818609E-02  0.8120045E-01
        2   -1    0    0  501    0  0.00000000000E+00  0.00000000000E+00  0.19382027301E+04  0.19382027301E+04  0.25500000920E-02 0.  1.
       -2   -1    0    0    0  501  0.00000000000E+00  0.00000000000E+00 -0.15564382735E+04  0.15564382735E+04  0.25500000920E-02 0. -1.
    10030    2    1    2    0    0  0.00000000000E+00  0.00000000000E+00  0.38176445659E+03  0.34946410036E+04  0.34737259022E+04 0.  0.
        5    1    3    3  502    0 -0.16319789996E+04 -0.32865278868E+03  0.68914471890E+03  0.18017521040E+04  0.46999998093E+01 0.  1.
       -5    1    3    3    0  502  0.16319789996E+04  0.32865278868E+03 -0.30738026231E+03  0.16928888996E+04  0.46999998093E+01 0. -1.
</event>
<event>
 5   0  0.6630125E-07  0.3540008E+04  0.7818609E-02  0.8104374E-01
       -1   -1    0    0    0  501  0.00000000000E+00  0.00000000000E+00  0.23072682134E+04  0.23072682134E+04  0.50400001928E-02 0. -1.
        1   -1    0    0  501    0  0.00000000000E+00  0.00000000000E+00 -0.13578453260E+04  0.13578453260E+04  0.50400001928E-02 0.  1.
    10030    2    1    2    0    0  0.00000000000E+00  0.00000000000E+00  0.94942288745E+03  0.36651135394E+04  0.35400075477E+04 0.  0.
        5    1    3    3  502    0  0.70591868480E+03  0.84455318120E+03 -0.96038416910E+03  0.14608049520E+04  0.46999998093E+01 0.  1.
       -5    1    3    3    0  502 -0.70591868480E+03 -0.84455318120E+03  0.19098070566E+04  0.22043085874E+04  0.46999998093E+01 0. -1.
</event>
<event>
 5   0  0.1999883E-06  0.3511190E+04  0.7818609E-02  0.8111143E-01
        2   -1    0    0  501    0  0.00000000000E+00  0.00000000000E+00  0.22869208355E+04  0.22869208355E+04  0.25500000920E-02 0.  1.
       -2   -1    0    0    0  501  0.00000000000E+00  0.00000000000E+00 -0.13477131689E+04  0.13477131689E+04  0.25500000920E-02 0. -1.
    10030    2    1    2    0    0  0.00000000000E+00  0.00000000000E+00  0.93920766662E+03  0.36346340044E+04  0.35111897279E+04 0.  0.
        4    1    3    3  502    0 -0.57772372714E+03 -0.72797990245E+03 -0.10721873567E+04  0.14189104215E+04  0.12699999809E+01 0. -1.
       -4    1    3    3    0  502  0.57772372714E+03  0.72797990245E+03  0.20113950234E+04  0.22157235830E+04  0.12699999809E+01 0.  1.
</event>
<event>
 5   0  0.6630125E-07  0.2864704E+04  0.7818609E-02  0.8283457E-01
        1   -1    0    0  501    0  0.00000000000E+00  0.00000000000E+00  0.22672076099E+04  0.22672076099E+04  0.50400001928E-02 0.  1.
       -1   -1    0    0    0  501  0.00000000000E+00  0.00000000000E+00 -0.90491568835E+03  0.90491568836E+03  0.50400001928E-02 0. -1.
    10030    2    1    2    0    0  0.00000000000E+00  0.00000000000E+00  0.13622919215E+04  0.31721232983E+04  0.28647036391E+04 0.  0.
        4    1    3    3  502    0 -0.13244908417E+04 -0.48051255798E+03  0.96661331841E+03  0.17086577271E+04  0.12699999809E+01 0. -1.
       -4    1    3    3    0  502  0.13244908417E+04  0.48051255798E+03  0.39567860313E+03  0.14634655712E+04  0.12699999809E+01 0.  1.
</event>
<event>
 5   0  0.7378896E-07  0.2383184E+04  0.7818609E-02  0.8445826E-01
        1   -1    0    0  501    0  0.00000000000E+00  0.00000000000E+00  0.14013214958E+04  0.14013214958E+04  0.50400001928E-02 0.  1.
       -1   -1    0    0    0  501  0.00000000000E+00  0.00000000000E+00 -0.10132521806E+04  0.10132521807E+04  0.50400001928E-02 0. -1.
    10030    2    1    2    0    0  0.00000000000E+00  0.00000000000E+00  0.38806931516E+03  0.24145736765E+04  0.23831844758E+04 0.  0.
        2    1    3    3  502    0 -0.11785141381E+04  0.33823246168E+02  0.18980279274E+02  0.11791521686E+04  0.25500000920E-02 0. -1.
       -2    1    3    3    0  502  0.11785141381E+04 -0.33823246168E+02  0.36908903588E+03  0.12354215079E+04  0.25500000920E-02 0.  1.
</event>
<event>
 5   0  0.6890600E-07  0.2832736E+04  0.7818609E-02  0.8293176E-01
       -1   -1    0    0    0  501  0.00000000000E+00  0.00000000000E+00  0.14841453162E+04  0.14841453163E+04  0.50400001928E-02 0. -1.
        1   -1    0    0  501    0  0.00000000000E+00  0.00000000000E+00 -0.13516863823E+04  0.13516863823E+04  0.50400001928E-02 0.  1.
    10030    2    1    2    0    0  0.00000000000E+00  0.00000000000E+00  0.13245893393E+03  0.28358316986E+04  0.28327364956E+04 0.  0.
        3    1    3    3  502    0 -0.56369663874E+02  0.33589277897E+03  0.14425398280E+04  0.14822019645E+04  0.10100000352E+00 0. -1.
       -3    1    3    3    0  502  0.56369663874E+02 -0.33589277897E+03 -0.13100808940E+04  0.13536297341E+04  0.10100000352E+00 0.  1.
</event>
<event>
 5   0  0.2020725E-06  0.2870951E+04  0.7818609E-02  0.8281573E-01
       -2   -1    0    0    0  501  0.00000000000E+00  0.00000000000E+00  0.98596842310E+03  0.98596842311E+03  0.25500000920E-02 0.  1.
        2   -1    0    0  501    0  0.00000000000E+00  0.00000000000E+00 -0.20899152455E+04  0.20899152455E+04  0.25500000920E-02 0. -1.
    10030    2    1    2    0    0  0.00000000000E+00  0.00000000000E+00 -0.11039468224E+04  0.30758836686E+04  0.28709513678E+04 0.  0.
        3    1    3    3  502    0  0.38978749810E+03 -0.97560767424E+02  0.92448879929E+03  0.10080337034E+04  0.10100000352E+00 0.  1.
       -3    1    3    3    0  502 -0.38978749810E+03  0.97560767424E+02 -0.20284356217E+04  0.20678499652E+04  0.10100000352E+00 0. -1.
</event>
<event>
 5   0  0.7378896E-07  0.2189537E+04  0.7818609E-02  0.8522796E-01
        1   -1    0    0  501    0  0.00000000000E+00  0.00000000000E+00  0.30462155781E+04  0.30462155781E+04  0.50400001928E-02 0.  1.
       -1   -1    0    0    0  501  0.00000000000E+00  0.00000000000E+00 -0.39344496313E+03  0.39344496316E+03  0.50400001928E-02 0. -1.
    10030    2    1    2    0    0  0.00000000000E+00  0.00000000000E+00  0.26527706150E+04  0.34396605413E+04  0.21895370980E+04 0.  0.
        2    1    3    3  502    0  0.34231500823E+03 -0.93998226512E+02  0.29532915402E+04  0.29745497395E+04  0.25500000920E-02 0.  1.
       -2    1    3    3    0  502 -0.34231500823E+03  0.93998226512E+02 -0.30052092520E+03  0.46511080178E+03  0.25500000920E-02 0. -1.
</event>
<event>
 5   0  0.7378896E-07  0.3494063E+04  0.7818609E-02  0.8115198E-01
        1   -1    0    0  501    0  0.00000000000E+00  0.00000000000E+00  0.23340831640E+04  0.23340831640E+04  0.50400001928E-02 0.  1.
       -1   -1    0    0    0  501  0.00000000000E+00  0.00000000000E+00 -0.13076305710E+04  0.13076305710E+04  0.50400001928E-02 0. -1.
    10030    2    1    2    0    0  0.00000000000E+00  0.00000000000E+00  0.10264525930E+04  0.36417137350E+04  0.34940626787E+04 0.  0.
        2    1    3    3  502    0  0.11663566070E+04 -0.51744139140E+03 -0.73050867575E+03  0.14702980153E+04  0.25500000920E-02 0. -1.
       -2    1    3    3    0  502 -0.11663566070E+04  0.51744139140E+03  0.17569612687E+04  0.21714157198E+04  0.25500000920E-02 0.  1.
</event>
<event>
 5   0  0.2023479E-06  0.3524833E+04  0.7818609E-02  0.8107930E-01
        2   -1    0    0  501    0  0.00000000000E+00  0.00000000000E+00  0.24417074500E+04  0.24417074500E+04  0.25500000920E-02 0.  1.
       -2   -1    0    0    0  501  0.00000000000E+00  0.00000000000E+00 -0.12721065964E+04  0.12721065964E+04  0.25500000920E-02 0. -1.
    10030    2    1    2    0    0  0.00000000000E+00  0.00000000000E+00  0.11696008536E+04  0.37138140464E+04  0.35248331329E+04 0.  0.
        5    1    3    3  502    0 -0.15016447309E+04  0.17151607293E+03  0.15398976696E+04  0.21576982143E+04  0.46999998093E+01 0.  1.
       -5    1    3    3    0  502  0.15016447309E+04 -0.17151607293E+03 -0.37029681603E+03  0.15561158321E+04  0.46999998093E+01 0. -1.
</event>
<event>
 5   0  0.1999883E-06  0.2174519E+04  0.7818609E-02  0.8529109E-01
       -2   -1    0    0    0  501  0.00000000000E+00  0.00000000000E+00  0.93260174458E+03  0.93260174459E+03  0.25500000920E-02 0. -1.
        2   -1    0    0  501    0  0.00000000000E+00  0.00000000000E+00 -0.12675652521E+04  0.12675652521E+04  0.25500000920E-02 0.  1.
    10030    2    1    2    0    0  0.00000000000E+00  0.00000000000E+00 -0.33496350752E+03  0.22001669967E+04  0.21745193175E+04 0.  0.
        4    1    3    3  502    0  0.74497704180E+03  0.67208938469E+03 -0.59127398881E+03  0.11646035706E+04  0.12699999809E+01 0.  1.
       -4    1    3    3    0  502 -0.74497704180E+03 -0.67208938469E+03  0.25631048129E+03  0.10355634261E+04  0.12699999809E+01 0. -1.
</event>
<event>
 5   0  0.7378896E-07  0.3135093E+04  0.7818609E-02  0.8206172E-01
       -1   -1    0    0    0  501  0.00000000000E+00  0.00000000000E+00  0.19259736736E+04  0.19259736736E+04  0.50400001928E-02 0.  1.
        1   -1    0    0  501    0  0.00000000000E+00  0.00000000000E+00 -0.12758233563E+04  0.12758233563E+04  0.50400001928E-02 0. -1.
    10030    2    1    2    0    0  0.00000000000E+00  0.00000000000E+00  0.65015031731E+03  0.32017970299E+04  0.31350931063E+04 0.  0.
        2    1    3    3  502    0  0.77497285792E+01 -0.12720744431E+04 -0.61036550843E+03  0.14109498577E+04  0.25500000920E-02 0. -1.
       -2    1    3    3    0  502 -0.77497285792E+01  0.12720744431E+04  0.12605158257E+04  0.17908471722E+04  0.25500000920E-02 0.  1.
</event>
<event>
 5   0  0.6630125E-07  0.3341730E+04  0.7818609E-02  0.8152358E-01
       -1   -1    0    0    0  501  0.00000000000E+00  0.00000000000E+00  0.13518924442E+04  0.13518924442E+04  0.50400001928E-02 0.  1.
        1   -1    0    0  501    0  0.00000000000E+00  0.00000000000E+00 -0.20650974770E+04  0.20650974770E+04  0.50400001928E-02 0. -1.
    10030    2    1    2    0    0  0.00000000000E+00  0.00000000000E+00 -0.71320503283E+03  0.34169899212E+04  0.33417298967E+04 0.  0.
        1    1    3    3  502    0  0.11859484839E+04 -0.11768498490E+04 -0.37546524999E+03  0.17124320505E+04  0.50400001928E-02 0.  1.
       -1    1    3    3    0  502 -0.11859484839E+04  0.11768498490E+04 -0.33773978283E+03  0.17045578707E+04  0.50400001928E-02 0. -1.
</event>
<event>
 5   0  0.6890600E-07  0.3475896E+04  0.7818609E-02  0.8119526E-01
       -1   -1    0    0    0  501  0.00000000000E+00  0.00000000000E+00  0.15835878278E+04  0.15835878278E+04  0.50400001928E-02 0. -1.
        1   -1    0    0  501    0  0.00000000000E+00  0.00000000000E+00 -0.19073538830E+04  0.19073538830E+04  0.50400001928E-02 0.  1.
    10030    2    1    2    0    0  0.00000000000E+00  0.00000000000E+00 -0.32376605522E+03  0.34909417108E+04  0.34758955061E+04 0.  0.
        3    1    3    3  502    0 -0.15764776156E+03 -0.60947068919E+03 -0.17888196336E+04  0.18963604693E+04  0.10100000352E+00 0.  1.
       -3    1    3    3    0  502  0.15764776156E+03  0.60947068919E+03  0.14650535784E+04  0.15945812414E+04  0.10100000352E+00 0. -1.
</event>
<event>
 5   0  0.2001768E-06  0.2953802E+04  0.7818609E-02  0.8257048E-01
       -2   -1    0    0    0  501  0.00000000000E+00  0.00000000000E+00  0.87143850615E+03  0.87143850615E+03  0.25500000920E-02 0. -1.
        2   -1    0    0  501    0  0.00000000000E+00  0.00000000000E+00 -0.25030290063E+04  0.25030290063E+04  0.25500000920E-02 0.  1.
    10030    2    1    2    0    0  0.00000000000E+00  0.00000000000E+00 -0.16315905001E+04  0.33744675124E+04  0.29538015222E+04 0.  0.
        2    1    3    3  502    0  0.78626078505E+03 -0.70230353077E+03 -0.19974079613E+04  0.22585559181E+04  0.25500000920E-02 0. -1.
       -2    1    3    3    0  502 -0.78626078505E+03  0.70230353077E+03  0.36581746115E+03  0.11159115943E+04  0.25500000920E-02 0.  1.
</event>
<event>
 5   0  0.6630125E-07  0.3227079E+04  0.7818609E-02  0.8181702E-01
       -1   -1    0    0    0  501  0.00000000000E+00  0.00000000000E+00  0.21434774319E+04  0.21434774319E+04  0.50400001928E-02 0. -1.
        1   -1    0    0  501    0  0.00000000000E+00  0.00000000000E+00 -0.12146194518E+04  0.12146194518E+04  0.50400001928E-02 0.  1.
    10030    2    1    2    0    0  0.00000000000E+00  0.00000000000E+00  0.92885798007E+03  0.33580968838E+04  0.32270787926E+04 0.  0.
        1    1    3    3  502    0  0.16047563232E+04 -0.39719301440E+02  0.29442895161E+03  0.16320260069E+04  0.50400001928E-02 0. -1.
       -1    1    3    3    0  502 -0.16047563232E+04  0.39719301440E+02  0.63442902846E+03  0.17260708768E+04  0.50400001928E-02 0.  1.
</event>
<event>
 5   0  0.2023479E-06  0.3556456E+04  0.7818609E-02  0.8100539E-01
       -2   -1    0    0    0  501  0.00000000000E+00  0.00000000000E+00  0.24912589693E+04  0.24912589693E+04  0.25500000920E-02 0.  1.
        2   -1    0    0  501    0  0.00000000000E+00  0.00000000000E+00 -0.12692757547E+04  0.12692757547E+04  0.25500000920E-02 0. -1.
    10030    2    1    2    0    0  0.00000000000E+00  0.00000000000E+00  0.12219832146E+04  0.37605347239E+04  0.35564558809E+04 0.  0.
        5    1    3    3  502    0 -0.10738172993E+04 -0.13214802552E+04  0.69059677003E+02  0.17041669478E+04  0.46999998093E+01 0. -1.
       -5    1    3    3    0  502  0.10738172993E+04  0.13214802552E+04  0.11529235376E+04  0.20563677761E+04  0.46999998093E+01 0.  1.
</event>
<event>
 5   0  0.6890600E-07  0.3471955E+04  0.7818609E-02  0.8120469E-01
       -1   -1    0    0    0  501  0.00000000000E+00  0.00000000000E+00  0.16719993721E+04  0.16719993721E+04  0.50400001928E-02 0.  1.
        1   -1    0    0  501    0  0.00000000000E+00  0.00000000000E+00 -0.18024039025E+04  0.18024039025E+04  0.50400001928E-02 0. -1.
    10030    2    1    2    0    0  0.00000000000E+00  0.00000000000E+00 -0.13040453037E+03  0.34744032746E+04  0.34719551801E+04 0.  0.
        3    1    3    3  502    0 -0.86634886798E+03 -0.11238786401E+04  0.93548013611E+03  0.16996430961E+04  0.10100000352E+00 0.  1.
       -3    1    3    3    0  502  0.86634886798E+03  0.11238786401E+04 -0.10658846665E+04  0.17747601785E+04  0.10100000352E+00 0. -1.
</event>
<event>
 5   0  0.2001768E-06  0.3468440E+04  0.7818609E-02  0.8121310E-01
        2   -1    0    0  501    0  0.00000000000E+00  0.00000000000E+00  0.19510934031E+04  0.19510934031E+04  0.25500000920E-02 0. -1.
       -2   -1    0    0    0  501  0.00000000000E+00  0.00000000000E+00 -0.15414534486E+04  0.15414534486E+04  0.25500000920E-02 0.  1.
    10030    2    1    2    0    0  0.00000000000E+00  0.00000000000E+00  0.40963995446E+03  0.34925468517E+04  0.34684403727E+04 0.  0.
        2    1    3    3  502    0  0.12562252173E+04  0.11955685349E+04  0.19897130316E+03  0.17455874363E+04  0.25500000920E-02 0.  1.
       -2    1    3    3    0  502 -0.12562252173E+04 -0.11955685349E+04  0.21066865130E+03  0.17469594154E+04  0.25500000920E-02 0. -1.
</event>
<event>
 5   0  0.6630125E-07  0.3579151E+04  0.7818609E-02  0.8095284E-01
        3   -1    0    0  501    0  0.00000000000E+00  0.00000000000E+00  0.29705155839E+04  0.29705155856E+04  0.10100000352E+00 0. -1.
       -3   -1    0    0    0  501  0.00000000000E+00  0.00000000000E+00 -0.10781230492E+04  0.10781230539E+04  0.10100000352E+00 0.  1.
    10030    2    1    2    0    0  0.00000000000E+00  0.00000000000E+00  0.18923925347E+04  0.40486386395E+04  0.35791514815E+04 0.  0.
        1    1    3    3  502    0 -0.11550201505E+04 -0.31614504790E+03 -0.55811979289E+03  0.13211801325E+04  0.50400001928E-02 0.  1.
       -1    1    3    3    0  502  0.11550201505E+04  0.31614504790E+03  0.24505123276E+04  0.27274585069E+04  0.50400001928E-02 0. -1.
</event>
<event>
 5   0  0.2020725E-06  0.3506242E+04  0.7818609E-02  0.8112312E-01
        2   -1    0    0  501    0  0.00000000000E+00  0.00000000000E+00  0.23658779634E+04  0.23658779634E+04  0.25500000920E-02 0. -1.
       -2   -1    0    0    0  501  0.00000000000E+00  0.00000000000E+00 -0.12990669115E+04  0.12990669115E+04  0.25500000920E-02 0.  1.
    10030    2    1    2    0    0  0.00000000000E+00  0.00000000000E+00  0.10668110519E+04  0.36649448749E+04  0.35062423070E+04 0.  0.
        3    1    3    3  502    0 -0.15029256038E+04  0.48030332866E+03  0.13321649524E+04  0.20649794499E+04  0.10100000352E+00 0. -1.
       -3    1    3    3    0  502  0.15029256038E+04 -0.48030332866E+03 -0.26535390043E+03  0.15999654249E+04  0.10100000352E+00 0.  1.
</event>
<event>
 5   0  0.6630125E-07  0.3616628E+04  0.7818609E-02  0.8086693E-01
        1   -1    0    0  501    0  0.00000000000E+00  0.00000000000E+00  0.23518907953E+04  0.23518907953E+04  0.50400001928E-02 0. -1.
       -1   -1    0    0    0  501  0.00000000000E+00  0.00000000000E+00 -0.13903702941E+04  0.13903702941E+04  0.50400001928E-02 0.  1.
    10030    2    1    2    0    0  0.00000000000E+00  0.00000000000E+00  0.96152050123E+03  0.37422610895E+04  0.36166277646E+04 0.  0.
        1    1    3    3  502    0  0.16673249954E+04  0.69997745025E+03  0.48864232200E+03  0.18731557303E+04  0.50400001928E-02 0. -1.
       -1    1    3    3    0  502 -0.16673249954E+04 -0.69997745025E+03  0.47287817924E+03  0.18691053591E+04  0.50400001928E-02 0.  1.
</event>
<event>
 5   0  0.6630125E-07  0.3027823E+04  0.7818609E-02  0.8235830E-01
        1   -1    0    0  501    0  0.00000000000E+00  0.00000000000E+00  0.11769616586E+04  0.11769616586E+04  0.50400001928E-02 0.  1.
       -1   -1    0    0    0  501  0.00000000000E+00  0.00000000000E+00 -0.19473256306E+04  0.19473256306E+04  0.50400001928E-02 0. -1.
    10030    2    1    2    0    0  0.00000000000E+00  0.00000000000E+00 -0.77036397198E+03  0.31242872892E+04  0.30278227187E+04 0.  0.
        4    1    3    3  502    0 -0.15013227278E+04  0.11068453389E+03 -0.21974627729E+03  0.15213517142E+04  0.12699999809E+01 0.  1.
       -4    1    3    3    0  502  0.15013227278E+04 -0.11068453389E+03 -0.55061769469E+03  0.16029355750E+04  0.12699999809E+01 0. -1.
</event>
<event>
 5   0  0.2020725E-06  0.3494336E+04  0.7818609E-02  0.8115134E-01
        2   -1    0    0  501    0  0.00000000000E+00  0.00000000000E+00  0.22689895286E+04  0.22689895286E+04  0.25500000920E-02 0. -1.
       -2   -1    0    0    0  501  0.00000000000E+00  0.00000000000E+00 -0.13453545751E+04  0.13453545751E+04  0.25500000920E-02 0.  1.
    10030    2    1    2    0    0  0.00000000000E+00  0.00000000000E+00  0.92363495356E+03  0.36143441037E+04  0.34943356697E+04 0.  0.
        3    1    3    3  502    0 -0.78268213620E+03 -0.14040279538E+03  0.20709754564E+04  0.22183876177E+04  0.10100000352E+00 0. -1.
       -3    1    3    3    0  502  0.78268213620E+03  0.14040279538E+03 -0.11473405028E+04  0.13959564860E+04  0.10100000352E+00 0.  1.
</event>
<event>
 5   0  0.6630125E-07  0.3473081E+04  0.7818609E-02  0.8120199E-01
        1   -1    0    0  501    0  0.00000000000E+00  0.00000000000E+00  0.24469776720E+04  0.24469776721E+04  0.50400001928E-02 0.  1.
       -1   -1    0    0    0  501  0.00000000000E+00  0.00000000000E+00 -0.12323659989E+04  0.12323659989E+04  0.50400001928E-02 0. -1.
    10030    2    1    2    0    0  0.00000000000E+00  0.00000000000E+00  0.12146116731E+04  0.36793436710E+04  0.34730805249E+04 0.  0.
        5    1    3    3  502    0 -0.11754453705E+04  0.41274223165E+03 -0.67430193921E+03  0.14165920952E+04  0.46999998093E+01 0. -1.
       -5    1    3    3    0  502  0.11754453705E+04 -0.41274223165E+03  0.18889136123E+04  0.22627515758E+04  0.46999998093E+01 0.  1.
</event>
<event>
 5   0  0.2073287E-06  0.3101114E+04  0.7818609E-02  0.8215432E-01
        2   -1    0    0  501    0  0.00000000000E+00  0.00000000000E+00  0.15465372326E+04  0.15465372326E+04  0.25500000920E-02 0. -1.
       -2   -1    0    0    0  501  0.00000000000E+00  0.00000000000E+00 -0.15545876403E+04  0.15545876403E+04  0.25500000920E-02 0.  1.
    10030    2    1    2    0    0  0.00000000000E+00  0.00000000000E+00 -0.80504076488E+01  0.31011248729E+04  0.31011144236E+04 0.  0.
        1    1    3    3  502    0  0.44167542165E+03 -0.14858781923E+04 -0.40308747689E+02  0.15506566272E+04  0.50400001928E-02 0. -1.
       -1    1    3    3    0  502 -0.44167542165E+03  0.14858781923E+04  0.32258340040E+02  0.15504682457E+04  0.50400001928E-02 0.  1.
</event>
<event>
 5   0  0.6630125E-07  0.3480780E+04  0.7818609E-02  0.8118360E-01
        1   -1    0    0  501    0  0.00000000000E+00  0.00000000000E+00  0.15555195703E+04  0.15555195703E+04  0.50400001928E-02 0. -1.
       -1   -1    0    0    0  501  0.00000000000E+00  0.00000000000E+00 -0.19472314560E+04  0.19472314560E+04  0.50400001928E-02 0.  1.
    10030    2    1    2    0    0  0.00000000000E+00  0.00000000000E+00 -0.39171188568E+03  0.35027510263E+04  0.34807795895E+04 0.  0.
        1    1    3    3  502    0 -0.48973376885E+03  0.41219905359E+03  0.14327569059E+04  0.15692480924E+04  0.50400001928E-02 0. -1.
       -1    1    3    3    0  502  0.48973376885E+03 -0.41219905359E+03 -0.18244687915E+04  0.19335029339E+04  0.50400001928E-02 0.  1.
</event>
<event>
 5   0  0.2001768E-06  0.3317475E+04  0.7818609E-02  0.8158463E-01
       -2   -1    0    0    0  501  0.00000000000E+00  0.00000000000E+00  0.13936238874E+04  0.13936238874E+04  0.25500000920E-02 0.  1.
        2   -1    0    0  501    0  0.00000000000E+00  0.00000000000E+00 -0.19742850851E+04  0.19742850851E+04  0.25500000920E-02 0. -1.
    10030    2    1    2    0    0  0.00000000000E+00  0.00000000000E+00 -0.58066119774E+03  0.33679089725E+04  0.33174754589E+04 0.  0.
        2    1    3    3  502    0  0.74301300262E+03 -0.12191483715E+04 -0.11475725487E+04  0.18317515738E+04  0.25500000920E-02 0. -1.
       -2    1    3    3    0  502 -0.74301300262E+03  0.12191483715E+04  0.56691135094E+03  0.15361573987E+04  0.25500000920E-02 0.  1.
</event>
<event>
 5   0  0.6890600E-07  0.3445301E+04  0.7818609E-02  0.8126877E-01
       -1   -1    0    0    0  501  0.00000000000E+00  0.00000000000E+00  0.14508305411E+04  0.14508305411E+04  0.50400001928E-02 0. -1.
        1   -1    0    0  501    0  0.00000000000E+00  0.00000000000E+00 -0.20453970224E+04  0.20453970224E+04  0.50400001928E-02 0.  1.
    10030    2    1    2    0    0  0.00000000000E+00  0.00000000000E+00 -0.59456648130E+03  0.34962275635E+04  0.34453008396E+04 0.  0.
        3    1    3    3  502    0  0.12807155831E+04  0.37788416989E+03  0.80714949251E+03  0.15602945760E+04  0.10100000352E+00 0. -1.
       -3    1    3    3    0  502 -0.12807155831E+04 -0.37788416989E+03 -0.14017159738E+04  0.19359329875E+04  0.10100000352E+00 0.  1.
</event>
<event>
 5   0  0.1999883E-06  0.2248773E+04  0.7818609E-02  0.8498398E-01
        2   -1    0    0  501    0  0.00000000000E+00  0.00000000000E+00  0.23345929384E+04  0.23345929384E+04  0.25500000920E-02 0.  1.
       -2   -1    0    0    0  501  0.00000000000E+00  0.00000000000E+00 -0.54152701959E+03  0.54152701960E+03  0.25500000920E-02 0. -1.
    10030    2    1    2    0    0  0.00000000000E+00  0.00000000000E+00  0.17930659188E+04  0.28761199580E+04  0.22487731374E+04 0.  0.
        4    1    3    3  502    0 -0.19732033453E+03  0.20259423943E+03 -0.49529507080E+03  0.57034950717E+03  0.12699999809E+01 0. -1.
       -4    1    3    3    0  502  0.19732033453E+03 -0.20259423943E+03  0.22883609896E+04  0.23057704508E+04  0.12699999809E+01 0.  1.
</event>
<event>
 5   0  0.2073287E-06  0.3490918E+04  0.7818609E-02  0.8115946E-01
       -2   -1    0    0    0  501  0.00000000000E+00  0.00000000000E+00  0.15731189832E+04  0.15731189832E+04  0.25500000920E-02 0. -1.
        2   -1    0    0  501    0  0.00000000000E+00  0.00000000000E+00 -0.19366788873E+04  0.19366788873E+04  0.25500000920E-02 0.  1.
    10030    2    1    2    0    0  0.00000000000E+00  0.00000000000E+00 -0.36355990412E+03  0.35097978704E+04  0.34909175424E+04 0.  0.
        1    1    3    3  502    0  0.14937921630E+04 -0.37929435116E+03 -0.10055691088E+04  0.18402305463E+04  0.50400001928E-02 0.  1.
       -1    1    3    3    0  502 -0.14937921630E+04  0.37929435116E+03  0.64200920468E+03  0.16695673241E+04  0.50400001928E-02 0. -1.
</event>
<event>
 5   0  0.6890600E-07  0.3468815E+04  0.7818609E-02  0.8121220E-01
       -1   -1    0    0    0  501  0.00000000000E+00  0.00000000000E+00  0.17758769425E+04  0.17758769425E+04  0.50400001928E-02 0. -1.
        1   -1    0    0  501    0  0.00000000000E+00  0.00000000000E+00 -0.16939063419E+04  0.16939063419E+04  0.50400001928E-02 0.  1.
    10030    2    1    2    0    0  0.00000000000E+00  0.00000000000E+00  0.81970600666E+02  0.34697832844E+04  0.34688149074E+04 0.  0.
        3    1    3    3  502    0  0.13870432058E+04  0.93525534230E+03 -0.41693917570E+03  0.17240735763E+04  0.10100000352E+00 0. -1.
       -3    1    3    3    0  502 -0.13870432058E+04 -0.93525534230E+03  0.49890977637E+03  0.17457097081E+04  0.10100000352E+00 0.  1.
</event>
<event>
 5   0  0.6630125E-07  0.3163971E+04  0.7818609E-02  0.8198398E-01
        1   -1    0    0  501    0  0.00000000000E+00  0.00000000000E+00  0.16717703622E+04  0.16717703622E+04  0.50400001928E-02 0.  1.
       -1   -1    0    0    0  501  0.00000000000E+00  0.00000000000E+00 -0.14970231256E+04  0.14970231256E+04  0.50400001928E-02 0. -1.
    10030    2    1    2    0    0  0.00000000000E+00  0.00000000000E+00  0.17474723661E+03  0.31687934878E+04  0.31639714872E+04 0.  0.
        5    1    3    3  502    0  0.10857965050E+03 -0.13841176305E+04  0.84687337710E+03  0.16262803455E+04  0.46999998093E+01 0.  1.
       -5    1    3    3    0  502 -0.10857965050E+03  0.13841176305E+04 -0.67212614048E+03  0.15425131423E+04  0.46999998093E+01 0. -1.
</event>
<event>
 5   0  0.6890600E-07  0.3451683E+04  0.7818609E-02  0.8125337E-01
        1   -1    0    0  501    0  0.00000000000E+00  0.00000000000E+00  0.22705660410E+04  0.22705660410E+04  0.50400001928E-02 0. -1.
       -1   -1    0    0    0  501  0.00000000000E+00  0.00000000000E+00 -0.13118003457E+04  0.13118003457E+04  0.50400001928E-02 0.  1.
    10030    2    1    2    0    0  0.00000000000E+00  0.00000000000E+00  0.95876569535E+03  0.35823663867E+04  0.34516832517E+04 0.  0.
        3    1    3    3  502    0 -0.72480572489E+03 -0.12126265124E+04 -0.54947318017E+03  0.15158255782E+04  0.10100000352E+00 0.  1.
       -3    1    3    3    0  502  0.72480572489E+03  0.12126265124E+04  0.15082388755E+04  0.20665408085E+04  0.10100000352E+00 0. -1.
</event>
<event>
 5   0  0.6630125E-07  0.3459151E+04  0.7818609E-02  0.8123539E-01
        1   -1    0    0  501    0  0.00000000000E+00  0.00000000000E+00  0.21913301387E+04  0.21913301387E+04  0.50400001928E-02 0. -1.
       -1   -1    0    0    0  501  0.00000000000E+00  0.00000000000E+00 -0.13651213756E+04  0.13651213756E+04  0.50400001928E-02 0.  1.
    10030    2    1    2    0    0  0.00000000000E+00  0.00000000000E+00  0.82620876307E+03  0.35564515143E+04  0.34591511175E+04 0.  0.
        5    1    3    3  502    0 -0.15110166465E+04  0.41382036416E+03 -0.34030466336E+03  0.16031992869E+04  0.46999998093E+01 0.  1.
       -5    1    3    3    0  502  0.15110166465E+04 -0.41382036416E+03  0.11665134264E+04  0.19532522274E+04  0.46999998093E+01 0. -1.
</event>
<event>
 5   0  0.2001768E-06  0.3345226E+04  0.7818609E-02  0.8151482E-01
        2   -1    0    0  501    0  0.00000000000E+00  0.00000000000E+00  0.22389135547E+04  0.22389135547E+04  0.25500000920E-02 0. -1.
       -2   -1    0    0    0  501  0.00000000000E+00  0.00000000000E+00 -0.12495499348E+04  0.12495499348E+04  0.25500000920E-02 0.  1.
    10030    2    1    2    0    0  0.00000000000E+00  0.00000000000E+00  0.98936361987E+03  0.34884634895E+04  0.33452260230E+04 0.  0.
        2    1    3    3  502    0  0.22665144379E+03 -0.96053194979E+03  0.19029276676E+04  0.21436245501E+04  0.25500000920E-02 0. -1.
       -2    1    3    3    0  502 -0.22665144379E+03  0.96053194979E+03 -0.91356404776E+03  0.13448389394E+04  0.25500000920E-02 0.  1.
</event>
<event>
 5   0  0.6890600E-07  0.3475130E+04  0.7818609E-02  0.8119709E-01
       -1   -1    0    0    0  501  0.00000000000E+00  0.00000000000E+00  0.13268744810E+04  0.13268744810E+04  0.50400001928E-02 0. -1.
        1   -1    0    0  501    0  0.00000000000E+00  0.00000000000E+00 -0.22753715934E+04  0.22753715934E+04  0.50400001928E-02 0.  1.
    10030    2    1    2    0    0  0.00000000000E+00  0.00000000000E+00 -0.94849711239E+03  0.36022460745E+04  0.34751302146E+04 0.  0.
        3    1    3    3  502    0  0.12847126181E+04 -0.37969600100E+01 -0.16869267554E+04  0.21204298659E+04  0.10100000352E+00 0.  1.
       -3    1    3    3    0  502 -0.12847126181E+04  0.37969600100E+01  0.73842964301E+03  0.14818162085E+04  0.10100000352E+00 0. -1.
</event>
<event>
 5   0  0.2073287E-06  0.3485230E+04  0.7818609E-02  0.8117299E-01
       -2   -1    0    0    0  501  0.00000000000E+00  0.00000000000E+00  0.14258274352E+04  0.14258274352E+04  0.25500000920E-02 0.  1.
        2   -1    0    0  501    0  0.00000000000E+00  0.00000000000E+00 -0.21297859910E+04  0.21297859910E+04  0.25500000920E-02 0. -1.
    10030    2    1    2    0    0  0.00000000000E+00  0.00000000000E+00 -0.70395855584E+03  0.35556134262E+04  0.34852301485E+04 0.  0.
        1    1    3    3  502    0 -0.57799462729E+03 -0.78066081725E+03 -0.18279857139E+04  0.20700340265E+04  0.50400001928E-02 0. -1.
       -1    1    3    3    0  502  0.57799462729E+03  0.78066081725E+03  0.11240271580E+04  0.14855793997E+04  0.50400001928E-02 0.  1.
</event>
<event>
 5   0  0.1999883E-06  0.3866298E+04  0.7818609E-02  0.8032075E-01
        2   -1    0    0  501    0  0.00000000000E+00  0.00000000000E+00  0.14320150622E+04  0.14320150622E+04  0.25500000920E-02 0. -1.
       -2   -1    0    0    0  501  0.00000000000E+00  0.00000000000E+00 -0.26096553854E+04  0.26096553854E+04  0.25500000920E-02 0.  1.
    10030    2    1    2    0    0  0.00000000000E+00  0.00000000000E+00 -0.11776403232E+04  0.40416704476E+04  0.38662983946E+04 0.  0.
        4    1    3    3  502    0 -0.81881850568E+03 -0.10112655755E+04  0.90569338449E+03  0.15853718583E+04  0.12699999809E+01 0. -1.
       -4    1    3    3    0  502  0.81881850568E+03  0.10112655755E+04 -0.20833337077E+04  0.24562985894E+04  0.12699999809E+01 0.  1.
</event>
<event>
 5   0  0.6890600E-07  0.2218862E+04  0.7818609E-02  0.8510618E-01
       -1   -1    0    0    0  501  0.00000000000E+00  0.00000000000E+00  0.13850901592E+04  0.13850901592E+04  0.50400001928E-02 0. -1.
        1   -1    0    0  501    0  0.00000000000E+00  0.00000000000E+00 -0.88863326138E+03  0.88863326140E+03  0.50400001928E-02 0.  1.
    10030    2    1    2    0    0  0.00000000000E+00  0.00000000000E+00  0.49645689780E+03  0.22737234206E+04  0.22188620376E+04 0.  0.
        3    1    3    3  502    0  0.67640716965E+03 -0.84982075778E+03  0.47990514418E+03  0.11874472355E+04  0.10100000352E+00 0. -1.
       -3    1    3    3    0  502 -0.67640716965E+03  0.84982075778E+03  0.16551753626E+02  0.10862761851E+04  0.10100000352E+00 0.  1.
</event>
<event>
 5   0  0.2020725E-06  0.3248991E+04  0.7818609E-02  0.8175997E-01
       -2   -1    0    0    0  501  0.00000000000E+00  0.00000000000E+00  0.17790420427E+04  0.17790420427E+04  0.25500000920E-02 0. -1.
        2   -1    0    0  501    0  0.00000000000E+00  0.00000000000E+00 -0.14833745751E+04  0.14833745751E+04  0.25500000920E-02 0.  1.
    10030    2    1    2    0    0  0.00000000000E+00  0.00000000000E+00  0.29566746758E+03  0.32624166178E+04  0.32489910644E+04 0.  0.
        3    1    3    3  502    0 -0.29780268008E+03  0.37121617268E+01 -0.14557266011E+04  0.14858802657E+04  0.10100000352E+00 0.  1.
       -3    1    3    3    0  502  0.29780268008E+03 -0.37121617268E+01  0.17513940687E+04  0.17765363522E+04  0.10100000352E+00 0. -1.
</event>
<event>
 5   0  0.2073287E-06  0.3030102E+04  0.7818609E-02  0.8235187E-01
        2   -1    0    0  501    0  0.00000000000E+00  0.00000000000E+00  0.29820998331E+04  0.29820998331E+04  0.25500000920E-02 0.  1.
       -2   -1    0    0    0  501  0.00000000000E+00  0.00000000000E+00 -0.76971921108E+03  0.76971921109E+03  0.25500000920E-02 0. -1.
    10030    2    1    2    0    0  0.00000000000E+00  0.00000000000E+00  0.22123806221E+04  0.37518190442E+04  0.30301019989E+04 0.  0.
        1    1    3    3  502    0  0.78585621491E+03 -0.10867183202E+04  0.23342290119E+03  0.13612541823E+04  0.50400001928E-02 0. -1.
       -1    1    3    3    0  502 -0.78585621491E+03  0.10867183202E+04  0.19789577209E+04  0.23905648619E+04  0.50400001928E-02 0.  1.
</event>
<event>
 5   0  0.7378896E-07  0.2240503E+04  0.7818609E-02  0.8501757E-01
       -1   -1    0    0    0  501  0.00000000000E+00  0.00000000000E+00  0.10967059239E+04  0.10967059239E+04  0.50400001928E-02 0. -1.
        1   -1    0    0  501    0  0.00000000000E+00  0.00000000000E+00 -0.11443025618E+04  0.11443025618E+04  0.50400001928E-02 0.  1.
    10030    2    1    2    0    0  0.00000000000E+00  0.00000000000E+00 -0.47596637830E+02  0.22410084857E+04  0.22405029777E+04 0.  0.
        2    1    3    3  502    0 -0.86190674414E+03 -0.36708165563E+03  0.59061319536E+03  0.11074547955E+04  0.25500000920E-02 0. -1.
       -2    1    3    3    0  502  0.86190674414E+03  0.36708165563E+03 -0.63820983319E+03  0.11335536902E+04  0.25500000920E-02 0.  1.
</event>
<event>
 5   0  0.6630125E-07  0.3425008E+04  0.7818609E-02  0.8131796E-01
        1   -1    0    0  501    0  0.00000000000E+00  0.00000000000E+00  0.24452954796E+04  0.24452954796E+04  0.50400001928E-02 0.  1.
       -1   -1    0    0    0  501  0.00000000000E+00  0.00000000000E+00 -0.11993112546E+04  0.11993112546E+04  0.50400001928E-02 0. -1.
    10030    2    1    2    0    0  0.00000000000E+00  0.00000000000E+00  0.12459842251E+04  0.36446067342E+04  0.34250082566E+04 0.  0.
        5    1    3    3  502    0 -0.11263059884E+04 -0.96655288412E+03 -0.28610112658E+03  0.15115110327E+04  0.46999998093E+01 0. -1.
       -5    1    3    3    0  502  0.11263059884E+04  0.96655288412E+03  0.15320853516E+04  0.21330957015E+04  0.46999998093E+01 0.  1.
</event>
<event>
 5   0  0.6630125E-07  0.3423170E+04  0.7818609E-02  0.8132243E-01
        1   -1    0    0  501    0  0.00000000000E+00  0.00000000000E+00  0.95149194221E+03  0.95149194222E+03  0.50400001928E-02 0. -1.
       -1   -1    0    0    0  501  0.00000000000E+00  0.00000000000E+00 -0.30788726447E+04  0.30788726447E+04  0.50400001928E-02 0.  1.
    10030    2    1    2    0    0  0.00000000000E+00  0.00000000000E+00 -0.21273807024E+04  0.40303645869E+04  0.34231695912E+04 0.  0.
        1    1    3    3  502    0 -0.28505339804E+03 -0.32906240183E+03  0.88521169671E+03  0.98647719286E+03  0.50400001928E-02 0. -1.
       -1    1    3    3    0  502  0.28505339804E+03  0.32906240183E+03 -0.30125923992E+04  0.30438873940E+04  0.50400001928E-02 0.  1.
</event>
<event>
 5   0  0.2023479E-06  0.3486587E+04  0.7818609E-02  0.8116976E-01
       -2   -1    0    0    0  501  0.00000000000E+00  0.00000000000E+00  0.13509594346E+04  0.13509594346E+04  0.25500000920E-02 0. -1.
        2   -1    0    0  501    0  0.00000000000E+00  0.00000000000E+00 -0.22495656976E+04  0.22495656976E+04  0.25500000920E-02 0.  1.
    10030    2    1    2    0    0  0.00000000000E+00  0.00000000000E+00 -0.89860626296E+03  0.36005251322E+04  0.34865868714E+04 0.  0.
        5    1    3    3  502    0 -0.99572838780E+02  0.90352383006E+03  0.10868498225E+04  0.14168749727E+04  0.46999998093E+01 0. -1.
       -5    1    3    3    0  502  0.99572838780E+02 -0.90352383006E+03 -0.19854560855E+04  0.21836501595E+04  0.46999998093E+01 0.  1.
</event>
<event>
 5   0  0.2020725E-06  0.3489510E+04  0.7818609E-02  0.8116280E-01
        2   -1    0    0  501    0  0.00000000000E+00  0.00000000000E+00  0.25672983040E+04  0.25672983040E+04  0.25500000920E-02 0.  1.
       -2   -1    0    0    0  501  0.00000000000E+00  0.00000000000E+00 -0.11857483638E+04  0.11857483638E+04  0.25500000920E-02 0. -1.
    10030    2    1    2    0    0  0.00000000000E+00  0.00000000000E+00  0.13815499402E+04  0.37530466679E+04  0.34895098587E+04 0.  0.
        3    1    3    3  502    0 -0.11179502676E+04  0.13078055021E+04  0.10024942234E+04  0.19912716315E+04  0.10100000352E+00 0. -1.
       -3    1    3    3    0  502  0.11179502676E+04 -0.13078055021E+04  0.37905571686E+03  0.17617750364E+04  0.10100000352E+00 0.  1.
</event>
<event>
 5   0  0.1999883E-06  0.3244366E+04  0.7818609E-02  0.8177198E-01
        2   -1    0    0  501    0  0.00000000000E+00  0.00000000000E+00  0.26848731337E+04  0.26848731337E+04  0.25500000920E-02 0. -1.
       -2   -1    0    0    0  501  0.00000000000E+00  0.00000000000E+00 -0.98011243724E+03  0.98011243724E+03  0.25500000920E-02 0.  1.
    10030    2    1    2    0    0  0.00000000000E+00  0.00000000000E+00  0.17047606964E+04  0.36649855709E+04  0.32443659169E+04 0.  0.
        4    1    3    3  502    0  0.11833234450E+04 -0.10802187012E+04  0.11389391446E+04  0.19657850355E+04  0.12699999809E+01 0. -1.
       -4    1    3    3    0  502 -0.11833234450E+04  0.10802187012E+04  0.56582155185E+03  0.16992005354E+04  0.12699999809E+01 0.  1.
</event>
<event>
 5   0  0.2020725E-06  0.3496111E+04  0.7818609E-02  0.8114712E-01
        2   -1    0    0  501    0  0.00000000000E+00  0.00000000000E+00  0.18445077095E+04  0.18445077095E+04  0.25500000920E-02 0. -1.
       -2   -1    0    0    0  501  0.00000000000E+00  0.00000000000E+00 -0.16566472393E+04  0.16566472393E+04  0.25500000920E-02 0.  1.
    10030    2    1    2    0    0  0.00000000000E+00  0.00000000000E+00  0.18786047014E+03  0.35011549488E+04  0.34961113282E+04 0.  0.
        3    1    3    3  502    0  0.56218465035E+03  0.39090214333E+03  0.17046169404E+04  0.18370016305E+04  0.10100000352E+00 0. -1.
       -3    1    3    3    0  502 -0.56218465035E+03 -0.39090214333E+03 -0.15167564702E+04  0.16641533183E+04  0.10100000352E+00 0.  1.
</event>
<event>
 5   0  0.6630125E-07  0.3543226E+04  0.7818609E-02  0.8103622E-01
        1   -1    0    0  501    0  0.00000000000E+00  0.00000000000E+00  0.25020111272E+04  0.25020111272E+04  0.50400001928E-02 0.  1.
       -1   -1    0    0    0  501  0.00000000000E+00  0.00000000000E+00 -0.12544357002E+04  0.12544357002E+04  0.50400001928E-02 0. -1.
    10030    2    1    2    0    0  0.00000000000E+00  0.00000000000E+00  0.12475754270E+04  0.37564468275E+04  0.35432256944E+04 0.  0.
        5    1    3    3  502    0  0.12204844223E+04  0.71824144686E+03 -0.50475925215E+03  0.15034151102E+04  0.46999998093E+01 0.  1.
       -5    1    3    3    0  502 -0.12204844223E+04 -0.71824144686E+03  0.17523346792E+04  0.22530317172E+04  0.46999998093E+01 0. -1.
</event>
<event>
 5   0  0.6630125E-07  0.3506972E+04  0.7818609E-02  0.8112140E-01
       -1   -1    0    0    0  501  0.00000000000E+00  0.00000000000E+00  0.10634892862E+04  0.10634892862E+04  0.50400001928E-02 0. -1.
        1   -1    0    0  501    0  0.00000000000E+00  0.00000000000E+00 -0.28911560953E+04  0.28911560953E+04  0.50400001928E-02 0.  1.
    10030    2    1    2    0    0  0.00000000000E+00  0.00000000000E+00 -0.18276668091E+04  0.39546453814E+04  0.35069722166E+04 0.  0.
        4    1    3    3  502    0 -0.96545078884E+03 -0.14353332111E+04 -0.59006702902E+03  0.18276918133E+04  0.12699999809E+01 0.  1.
       -4    1    3    3    0  502  0.96545078884E+03  0.14353332111E+04 -0.12375997801E+04  0.21269535682E+04  0.12699999809E+01 0. -1.
</event>
<event>
 5   0  0.6630125E-07  0.3073405E+04  0.7818609E-02  0.8223075E-01
        1   -1    0    0  501    0  0.00000000000E+00  0.00000000000E+00  0.17465289351E+04  0.17465289351E+04  0.50400001928E-02 0.  1.
       -1   -1    0    0    0  501  0.00000000000E+00  0.00000000000E+00 -0.13520843560E+04  0.13520843560E+04  0.50400001928E-02 0. -1.
    10030    2    1    2    0    0  0.00000000000E+00  0.00000000000E+00  0.39444457915E+03  0.30986132911E+04  0.30734049200E+04 0.  0.
        5    1    3    3  502    0  0.45268961228E+03  0.13379596000E+04  0.80747077518E+03  0.16269895264E+04  0.46999998093E+01 0.  1.
       -5    1    3    3    0  502 -0.45268961228E+03 -0.13379596000E+04 -0.41302619603E+03  0.14716237647E+04  0.46999998093E+01 0. -1.
</event>
<event>
 5   0  0.6630125E-07  0.3455569E+04  0.7818609E-02  0.8124401E-01
       -1   -1    0    0    0  501  0.00000000000E+00  0.00000000000E+00  0.15515694373E+04  0.15515694373E+04  0.50400001928E-02 0.  1.
        1   -1    0    0  501    0  0.00000000000E+00  0.00000000000E+00 -0.19240123467E+04  0.19240123467E+04  0.50400001928E-02 0. -1.
    10030    2    1    2    0    0  0.00000000000E+00  0.00000000000E+00 -0.37244290943E+03  0.34755817840E+04  0.34555686966E+04 0.  0.
        4    1    3    3  502    0  0.99419225195E+03 -0.13638270380E+04 -0.55822120223E+03  0.17776543384E+04  0.12699999809E+01 0. -1.
       -4    1    3    3    0  502 -0.99419225195E+03  0.13638270380E+04  0.18577829280E+03  0.16979274456E+04  0.12699999809E+01 0.  1.
</event>
<event>
 5   0  0.2020725E-06  0.3519012E+04  0.7818609E-02  0.8109299E-01
        2   -1    0    0  501    0  0.00000000000E+00  0.00000000000E+00  0.22875454304E+04  0.22875454304E+04  0.25500000920E-02 0. -1.
       -2   -1    0    0    0  501  0.00000000000E+00  0.00000000000E+00 -0.13533551793E+04  0.13533551793E+04  0.25500000920E-02 0.  1.
    10030    2    1    2    0    0  0.00000000000E+00  0.00000000000E+00  0.93419025111E+03  0.36409006096E+04  0.35190120523E+04 0.  0.
        3    1    3    3  502    0  0.92596787767E+03 -0.14046388056E+04  0.10001439230E+04  0.19572211325E+04  0.10100000352E+00 0. -1.
       -3    1    3    3    0  502 -0.92596787767E+03  0.14046388056E+04 -0.65953671842E+02  0.16836794771E+04  0.10100000352E+00 0.  1.
</event>
<event>
 5   0  0.6890600E-07  0.3023649E+04  0.7818609E-02  0.8237010E-01
        1   -1    0    0  501    0  0.00000000000E+00  0.00000000000E+00  0.18087959276E+04  0.18087959276E+04  0.50400001928E-02 0. -1.
       -1   -1    0    0    0  501  0.00000000000E+00  0.00000000000E+00 -0.12636104047E+04  0.12636104047E+04  0.50400001928E-02 0.  1.
    10030    2    1    2    0    0  0.00000000000E+00  0.00000000000E+00  0.54518552295E+03  0.30724063323E+04  0.30236490234E+04 0.  0.
        3    1    3    3  502    0 -0.47284702699E+03  0.12568844602E+04 -0.43306255222E+03  0.14109876121E+04  0.10100000352E+00 0.  1.
       -3    1    3    3    0  502  0.47284702699E+03 -0.12568844602E+04  0.97824807518E+03  0.16614187202E+04  0.10100000352E+00 0. -1.
</event>
<event>
 5   0  0.2023479E-06  0.3519414E+04  0.7818609E-02  0.8109204E-01
        2   -1    0    0  501    0  0.00000000000E+00  0.00000000000E+00  0.27359818585E+04  0.27359818585E+04  0.25500000920E-02 0. -1.
       -2   -1    0    0    0  501  0.00000000000E+00  0.00000000000E+00 -0.11317941957E+04  0.11317941957E+04  0.25500000920E-02 0.  1.
    10030    2    1    2    0    0  0.00000000000E+00  0.00000000000E+00  0.16041876628E+04  0.38677760542E+04  0.35194138075E+04 0.  0.
        5    1    3    3  502    0  0.11739554681E+04  0.24702962491E+03  0.22169042947E+04  0.25206907423E+04  0.46999998093E+01 0. -1.
       -5    1    3    3    0  502 -0.11739554681E+04 -0.24702962491E+03 -0.61271663189E+03  0.13470853119E+04  0.46999998093E+01 0.  1.
</event>
<event>
 5   0  0.2020725E-06  0.3412118E+04  0.7818609E-02  0.8134939E-01
       -2   -1    0    0    0  501  0.00000000000E+00  0.00000000000E+00  0.19242355667E+04  0.19242355667E+04  0.25500000920E-02 0.  1.
        2   -1    0    0  501    0  0.00000000000E+00  0.00000000000E+00 -0.15126197672E+04  0.15126197672E+04  0.25500000920E-02 0. -1.
    10030    2    1    2    0    0  0.00000000000E+00  0.00000000000E+00  0.41161579955E+03  0.34368553339E+04  0.34121176737E+04 0.  0.
        3    1    3    3  502    0  0.41492763935E+03 -0.10860452492E+04  0.14634503193E+04  0.18690495116E+04  0.10100000352E+00 0.  1.
       -3    1    3    3    0  502 -0.41492763935E+03  0.10860452492E+04 -0.10518345198E+04  0.15678058223E+04  0.10100000352E+00 0. -1.
</event>
<event>
 5   0  0.6890600E-07  0.2179364E+04  0.7818609E-02  0.8527067E-01
        1   -1    0    0  501    0  0.00000000000E+00  0.00000000000E+00  0.12391078981E+04  0.12391078981E+04  0.50400001928E-02 0. -1.
       -1   -1    0    0    0  501  0.00000000000E+00  0.00000000000E+00 -0.95827583648E+03  0.95827583649E+03  0.50400001928E-02 0.  1.
    10030    2    1    2    0    0  0.00000000000E+00  0.00000000000E+00  0.28083206164E+03  0.21973837346E+04  0.21793642721E+04 0.  0.
        3    1    3    3  502    0  0.55065031957E+03 -0.54931236691E+01 -0.80765702591E+03  0.97752536057E+03  0.10100000352E+00 0.  1.
       -3    1    3    3    0  502 -0.55065031957E+03  0.54931236691E+01  0.10884890875E+04  0.12198583741E+04  0.10100000352E+00 0. -1.
</event>
<event>
 5   0  0.1999883E-06  0.3514677E+04  0.7818609E-02  0.8110321E-01
       -2   -1    0    0    0  501  0.00000000000E+00  0.00000000000E+00  0.15103038805E+04  0.15103038805E+04  0.25500000920E-02 0. -1.
        2   -1    0    0  501    0  0.00000000000E+00  0.00000000000E+00 -0.20447794688E+04  0.20447794688E+04  0.25500000920E-02 0.  1.
    10030    2    1    2    0    0  0.00000000000E+00  0.00000000000E+00 -0.53447558830E+03  0.35550833492E+04  0.35146768650E+04 0.  0.
        4    1    3    3  502    0  0.16073245068E+04 -0.66631152053E+03 -0.17880537072E+02  0.17400529989E+04  0.12699999809E+01 0. -1.
       -4    1    3    3    0  502 -0.16073245068E+04  0.66631152053E+03 -0.51659505123E+03  0.18150303503E+04  0.12699999809E+01 0.  1.
</event>
<event>
 5   0  0.2023479E-06  0.3487097E+04  0.7818609E-02  0.8116855E-01
       -2   -1    0    0    0  501  0.00000000000E+00  0.00000000000E+00  0.10511121587E+04  0.10511121587E+04  0.25500000920E-02 0.  1.
        2   -1    0    0  501    0  0.00000000000E+00  0.00000000000E+00 -0.28921379224E+04  0.28921379224E+04  0.25500000920E-02 0. -1.
    10030    2    1    2    0    0  0.00000000000E+00  0.00000000000E+00 -0.18410257637E+04  0.39432500811E+04  0.34870969787E+04 0.  0.
        5    1    3    3  502    0  0.50474822694E+03 -0.12736279704E+04 -0.21400293535E+04  0.25409932514E+04  0.46999998093E+01 0. -1.
       -5    1    3    3    0  502 -0.50474822694E+03  0.12736279704E+04  0.29900358979E+03  0.14022568297E+04  0.46999998093E+01 0.  1.
</event>
<event>
 5   0  0.7378896E-07  0.3078276E+04  0.7818609E-02  0.8221725E-01
        1   -1    0    0  501    0  0.00000000000E+00  0.00000000000E+00  0.21492303081E+04  0.21492303082E+04  0.50400001928E-02 0. -1.
       -1   -1    0    0    0  501  0.00000000000E+00  0.00000000000E+00 -0.11022295494E+04  0.11022295494E+04  0.50400001928E-02 0.  1.
    10030    2    1    2    0    0  0.00000000000E+00  0.00000000000E+00  0.10470007587E+04  0.32514598576E+04  0.30782755914E+04 0.  0.
        2    1    3    3  502    0 -0.27115212296E+02  0.12285982779E+04  0.15023271494E+04  0.19409213861E+04  0.25500000920E-02 0. -1.
       -2    1    3    3    0  502  0.27115212296E+02 -0.12285982779E+04 -0.45532639064E+03  0.13105384715E+04  0.25500000920E-02 0.  1.
</event>
<event>
 5   0  0.6630125E-07  0.3258386E+04  0.7818609E-02  0.8173566E-01
       -1   -1    0    0    0  501  0.00000000000E+00  0.00000000000E+00  0.17474918547E+04  0.17474918547E+04  0.50400001928E-02 0.  1.
        1   -1    0    0  501    0  0.00000000000E+00  0.00000000000E+00 -0.15189024225E+04  0.15189024225E+04  0.50400001928E-02 0. -1.
    10030    2    1    2    0    0  0.00000000000E+00  0.00000000000E+00  0.22858943220E+03  0.32663942771E+04  0.32583858650E+04 0.  0.
        4    1    3    3  502    0 -0.64958263028E+03 -0.14913198481E+04  0.23101271150E+02  0.16268152214E+04  0.12699999809E+01 0. -1.
       -4    1    3    3    0  502  0.64958263028E+03  0.14913198481E+04  0.20548816105E+03  0.16395790558E+04  0.12699999809E+01 0.  1.
</event>
<event>
 5   0  0.6890600E-07  0.3539132E+04  0.7818609E-02  0.8104578E-01
       -1   -1    0    0    0  501  0.00000000000E+00  0.00000000000E+00  0.13962522099E+04  0.13962522099E+04  0.50400001928E-02 0. -1.
        1   -1    0    0  501    0  0.00000000000E+00  0.00000000000E+00 -0.22426924544E+04  0.22426924544E+04  0.50400001928E-02 0.  1.
    10030    2    1    2    0    0  0.00000000000E+00  0.00000000000E+00 -0.84644024453E+03  0.36389446643E+04  0.35391322641E+04 0.  0.
        3    1    3    3  502    0  0.15461574759E+03 -0.81148491700E+03 -0.20322668644E+04  0.21937462065E+04  0.10100000352E+00 0.  1.
       -3    1    3    3    0  502 -0.15461574759E+03  0.81148491700E+03  0.11858266199E+04  0.14451984579E+04  0.10100000352E+00 0. -1.
</event>
<event>
 5   0  0.6630125E-07  0.2506773E+04  0.7818609E-02  0.8400577E-01
        1   -1    0    0  501    0  0.00000000000E+00  0.00000000000E+00  0.84057888827E+03  0.84057888828E+03  0.50400001928E-02 0.  1.
       -1   -1    0    0    0  501  0.00000000000E+00  0.00000000000E+00 -0.18689228799E+04  0.18689228799E+04  0.50400001928E-02 0. -1.
    10030    2    1    2    0    0  0.00000000000E+00  0.00000000000E+00 -0.10283439916E+04  0.27095017682E+04  0.25067725199E+04 0.  0.
        5    1    3    3  502    0  0.53881596596E+02 -0.64551684440E+03 -0.16739638262E+04  0.17949295820E+04  0.46999998093E+01 0. -1.
       -5    1    3    3    0  502 -0.53881596596E+02  0.64551684440E+03  0.64561983461E+03  0.91457218616E+03  0.46999998093E+01 0.  1.
</event>
<event>
 5   0  0.2073287E-06  0.2964716E+04  0.7818609E-02  0.8253879E-01
        2   -1    0    0  501    0  0.00000000000E+00  0.00000000000E+00  0.16340107417E+04  0.16340107417E+04  0.25500000920E-02 0.  1.
       -2   -1    0    0    0  501  0.00000000000E+00  0.00000000000E+00 -0.13447800828E+04  0.13447800828E+04  0.25500000920E-02 0. -1.
    10030    2    1    2    0    0  0.00000000000E+00  0.00000000000E+00  0.28923065894E+03  0.29787908245E+04  0.29647159058E+04 0.  0.
        1    1    3    3  502    0 -0.69886163301E+02  0.80226341238E+03  0.13950615862E+04  0.16108095753E+04  0.50400001928E-02 0.  1.
       -1    1    3    3    0  502  0.69886163301E+02 -0.80226341238E+03 -0.11058309272E+04  0.13679812492E+04  0.50400001928E-02 0. -1.
</event>
<event>
 5   0  0.6630125E-07  0.3462930E+04  0.7818609E-02  0.8122632E-01
        1   -1    0    0  501    0  0.00000000000E+00  0.00000000000E+00  0.21220389810E+04  0.21220389810E+04  0.50400001928E-02 0. -1.
       -1   -1    0    0    0  501  0.00000000000E+00  0.00000000000E+00 -0.14127785428E+04  0.14127785428E+04  0.50400001928E-02 0.  1.
    10030    2    1    2    0    0  0.00000000000E+00  0.00000000000E+00  0.70926043817E+03  0.35348175239E+04  0.34629300538E+04 0.  0.
        1    1    3    3  502    0  0.64479416998E+03  0.13632867647E+04  0.12229722206E+04  0.19416414131E+04  0.50400001928E-02 0. -1.
       -1    1    3    3    0  502 -0.64479416998E+03 -0.13632867647E+04 -0.51371178243E+03  0.15931761108E+04  0.50400001928E-02 0.  1.
</event>
<event>
 5   0  0.2073287E-06  0.3452970E+04  0.7818609E-02  0.8125027E-01
        2   -1    0    0  501    0  0.00000000000E+00  0.00000000000E+00  0.11405721513E+04  0.11405721513E+04  0.25500000920E-02 0.  1.
       -2   -1    0    0    0  501  0.00000000000E+00  0.00000000000E+00 -0.26133817530E+04  0.26133817530E+04  0.25500000920E-02 0. -1.
    10030    2    1    2    0    0  0.00000000000E+00  0.00000000000E+00 -0.14728096017E+04  0.37539539043E+04  0.34529699959E+04 0.  0.
        1    1    3    3  502    0 -0.12739898864E+04  0.10071625947E+04 -0.99392176864E+02  0.16270542485E+04  0.50400001928E-02 0.  1.
       -1    1    3    3    0  502  0.12739898864E+04 -0.10071625947E+04 -0.13734174248E+04  0.21268996557E+04  0.50400001928E-02 0. -1.
</event>
<event>
 5   0  0.6890600E-07  0.3476457E+04  0.7818609E-02  0.8119392E-01
       -1   -1    0    0    0  501  0.00000000000E+00  0.00000000000E+00  0.15936800648E+04  0.15936800648E+04  0.50400001928E-02 0. -1.
        1   -1    0    0  501    0  0.00000000000E+00  0.00000000000E+00 -0.18958873744E+04  0.18958873744E+04  0.50400001928E-02 0.  1.
    10030    2    1    2    0    0  0.00000000000E+00  0.00000000000E+00 -0.30220730966E+03  0.34895674392E+04  0.34764567673E+04 0.  0.
        3    1    3    3  502    0  0.23452691454E+03 -0.35661068258E+03  0.15402625142E+04  0.15983061895E+04  0.10100000352E+00 0. -1.
       -3    1    3    3    0  502 -0.23452691454E+03  0.35661068258E+03 -0.18424698238E+04  0.18912612497E+04  0.10100000352E+00 0.  1.
</event>
<event>
 5   0  0.7378896E-07  0.3522919E+04  0.7818609E-02  0.8108380E-01
        1   -1    0    0  501    0  0.00000000000E+00  0.00000000000E+00  0.16914834143E+04  0.16914834143E+04  0.50400001928E-02 0.  1.
       -1   -1    0    0    0  501  0.00000000000E+00  0.00000000000E+00 -0.18343302689E+04  0.18343302689E+04  0.50400001928E-02 0. -1.
    10030    2    1    2    0    0  0.00000000000E+00  0.00000000000E+00 -0.14284685463E+03  0.35258136832E+04  0.35229188047E+04 0.  0.
        2    1    3    3  502    0 -0.65781447130E+03  0.16018755058E+04  0.25135393310E+03  0.17498296530E+04  0.25500000920E-02 0.  1.
       -2    1    3    3    0  502  0.65781447130E+03 -0.16018755058E+04 -0.39420078773E+03  0.17759840303E+04  0.25500000920E-02 0. -1.
</event>
<event>
 5   0  0.6630125E-07  0.3536060E+04  0.7818609E-02  0.8105297E-01
       -1   -1    0    0    0  501  0.00000000000E+00  0.00000000000E+00  0.12001485672E+04  0.12001485672E+04  0.50400001928E-02 0. -1.
        1   -1    0    0  501    0  0.00000000000E+00  0.00000000000E+00 -0.26046195787E+04  0.26046195787E+04  0.50400001928E-02 0.  1.
    10030    2    1    2    0    0  0.00000000000E+00  0.00000000000E+00 -0.14044710114E+04  0.38047681459E+04  0.35360602119E+04 0.  0.
        5    1    3    3  502    0 -0.12724277381E+03  0.20710833817E+02 -0.25995488880E+04  0.26027478120E+04  0.46999998093E+01 0.  1.
       -5    1    3    3    0  502  0.12724277381E+03 -0.20710833817E+02  0.11950778765E+04  0.12020203339E+04  0.46999998093E+01 0. -1.
</event>
<event>
 5   0  0.2023479E-06  0.3569727E+04  0.7818609E-02  0.8097462E-01
       -2   -1    0    0    0  501  0.00000000000E+00  0.00000000000E+00  0.11383468702E+04  0.11383468702E+04  0.25500000920E-02 0. -1.
        2   -1    0    0  501    0  0.00000000000E+00  0.00000000000E+00 -0.27985644992E+04  0.27985644992E+04  0.25500000920E-02 0.  1.
    10030    2    1    2    0    0  0.00000000000E+00  0.00000000000E+00 -0.16602176290E+04  0.39369113694E+04  0.35697266779E+04 0.  0.
        5    1    3    3  502    0  0.14719716873E+04 -0.69173082628E+03 -0.16409348916E+04  0.23103855939E+04  0.46999998093E+01 0.  1.
       -5    1    3    3    0  502 -0.14719716873E+04  0.69173082628E+03 -0.19282737449E+02  0.16265257755E+04  0.46999998093E+01 0. -1.
</event>
<event>
 5   0  0.2023479E-06  0.2178449E+04  0.7818609E-02  0.8527452E-01
        2   -1    0    0  501    0  0.00000000000E+00  0.00000000000E+00  0.12333271476E+04  0.12333271476E+04  0.25500000920E-02 0. -1.
       -2   -1    0    0    0  501  0.00000000000E+00  0.00000000000E+00 -0.96195910297E+03  0.96195910297E+03  0.25500000920E-02 0.  1.
    10030    2    1    2    0    0  0.00000000000E+00  0.00000000000E+00  0.27136804461E+03  0.21952862506E+04  0.21784492434E+04 0.  0.
        5    1    3    3  502    0 -0.69120101881E+03  0.57451460885E+03  0.75571358068E+03  0.11742874393E+04  0.46999998093E+01 0. -1.
       -5    1    3    3    0  502  0.69120101881E+03 -0.57451460885E+03 -0.48434553607E+03  0.10209988112E+04  0.46999998093E+01 0.  1.
</event>
<event>
 5   0  0.2023479E-06  0.3479848E+04  0.7818609E-02  0.8118582E-01
       -2   -1    0    0    0  501  0.00000000000E+00  0.00000000000E+00  0.10216277530E+04  0.10216277530E+04  0.25500000920E-02 0.  1.
        2   -1    0    0  501    0  0.00000000000E+00  0.00000000000E+00 -0.29632478031E+04  0.29632478031E+04  0.25500000920E-02 0. -1.
    10030    2    1    2    0    0  0.00000000000E+00  0.00000000000E+00 -0.19416200502E+04  0.39848755561E+04  0.34798483844E+04 0.  0.
        5    1    3    3  502    0 -0.40164477059E+02  0.36678434663E+03  0.97630347370E+03  0.10437118879E+04  0.46999998093E+01 0.  1.
       -5    1    3    3    0  502  0.40164477059E+02 -0.36678434663E+03 -0.29179235239E+04  0.29411636682E+04  0.46999998093E+01 0. -1.
</event>
<event>
 5   0  0.6630125E-07  0.2928112E+04  0.7818609E-02  0.8264562E-01
       -1   -1    0    0    0  501  0.00000000000E+00  0.00000000000E+00  0.12757669872E+04  0.12757669872E+04  0.50400001928E-02 0.  1.
        1   -1    0    0  501    0  0.00000000000E+00  0.00000000000E+00 -0.16801340564E+04  0.16801340564E+04  0.50400001928E-02 0. -1.
    10030    2    1    2    0    0  0.00000000000E+00  0.00000000000E+00 -0.40436706921E+03  0.29559010436E+04  0.29281117213E+04 0.  0.
        4    1    3    3  502    0 -0.51170344390E+03 -0.15944227833E+03  0.11731693047E+04  0.12898023434E+04  0.12699999809E+01 0.  1.
       -4    1    3    3    0  502  0.51170344390E+03  0.15944227833E+03 -0.15775363739E+04  0.16660987001E+04  0.12699999809E+01 0. -1.
</event>
<event>
 5   0  0.2001768E-06  0.3526489E+04  0.7818609E-02  0.8107541E-01
       -2   -1    0    0    0  501  0.00000000000E+00  0.00000000000E+00  0.12766276536E+04  0.12766276537E+04  0.25500000920E-02 0. -1.
        2   -1    0    0  501    0  0.00000000000E+00  0.00000000000E+00 -0.24353469513E+04  0.24353469513E+04  0.25500000920E-02 0.  1.
    10030    2    1    2    0    0  0.00000000000E+00  0.00000000000E+00 -0.11587192977E+04  0.37119746050E+04  0.35264890553E+04 0.  0.
        2    1    3    3  502    0 -0.62598869013E+03  0.33990270996E+03  0.11184370588E+04  0.13260079739E+04  0.25500000920E-02 0. -1.
       -2    1    3    3    0  502  0.62598869013E+03 -0.33990270996E+03 -0.22771563565E+04  0.23859666310E+04  0.25500000920E-02 0.  1.
</event>
<event>
 5   0  0.2020725E-06  0.3277265E+04  0.7818609E-02  0.8168705E-01
       -2   -1    0    0    0  501  0.00000000000E+00  0.00000000000E+00  0.13674065134E+04  0.13674065134E+04  0.25500000920E-02 0. -1.
        2   -1    0    0  501    0  0.00000000000E+00  0.00000000000E+00 -0.19636559490E+04  0.19636559490E+04  0.25500000920E-02 0.  1.
    10030    2    1    2    0    0  0.00000000000E+00  0.00000000000E+00 -0.59624943565E+03  0.33310624624E+04  0.32772646733E+04 0.  0.
        3    1    3    3  502    0 -0.85789799211E+03  0.98368745693E+03  0.70883779425E+03  0.14852881897E+04  0.10100000352E+00 0.  1.
       -3    1    3    3    0  502  0.85789799211E+03 -0.98368745693E+03 -0.13050872299E+04  0.18457742727E+04  0.10100000352E+00 0. -1.
</event>
<event>
 5   0  0.6630125E-07  0.2924537E+04  0.7818609E-02  0.8265614E-01
        1   -1    0    0  501    0  0.00000000000E+00  0.00000000000E+00  0.11760368719E+04  0.11760368719E+04  0.50400001928E-02 0.  1.
       -1   -1    0    0    0  501  0.00000000000E+00  0.00000000000E+00 -0.18181647306E+04  0.18181647306E+04  0.50400001928E-02 0. -1.
    10030    2    1    2    0    0  0.00000000000E+00  0.00000000000E+00 -0.64212785872E+03  0.29942016025E+04  0.29245367239E+04 0.  0.
        1    1    3    3  502    0  0.21614904453E+02 -0.13384432283E+04  0.28145378495E+03  0.13678865862E+04  0.50400001928E-02 0.  1.
       -1    1    3    3    0  502 -0.21614904453E+02  0.13384432283E+04 -0.92358164366E+03  0.16263150163E+04  0.50400001928E-02 0. -1.
</event>
<event>
 5   0  0.2020725E-06  0.3522974E+04  0.7818609E-02  0.8108367E-01
       -2   -1    0    0    0  501  0.00000000000E+00  0.00000000000E+00  0.10953686349E+04  0.10953686349E+04  0.25500000920E-02 0.  1.
        2   -1    0    0  501    0  0.00000000000E+00  0.00000000000E+00 -0.28326875847E+04  0.28326875847E+04  0.25500000920E-02 0. -1.
    10030    2    1    2    0    0  0.00000000000E+00  0.00000000000E+00 -0.17373189498E+04  0.39280562196E+04  0.35229743869E+04 0.  0.
        3    1    3    3  502    0 -0.14351128959E+04 -0.96380424614E+03 -0.49158835563E+03  0.17972553437E+04  0.10100000352E+00 0. -1.
       -3    1    3    3    0  502  0.14351128959E+04  0.96380424614E+03 -0.12457305942E+04  0.21308008758E+04  0.10100000352E+00 0.  1.
</event>
<event>
 5   0  0.6630125E-07  0.3412015E+04  0.7818609E-02  0.8134964E-01
        1   -1    0    0  501    0  0.00000000000E+00  0.00000000000E+00  0.18598213680E+04  0.18598213680E+04  0.50400001928E-02 0.  1.
       -1   -1    0    0    0  501  0.00000000000E+00  0.00000000000E+00 -0.15649149624E+04  0.15649149624E+04  0.50400001928E-02 0. -1.
    10030    2    1    2    0    0  0.00000000000E+00  0.00000000000E+00  0.29490640559E+03  0.34247363305E+04  0.34120154081E+04 0.  0.
        4    1    3    3  502    0 -0.15134063895E+04 -0.27163178338E+03  0.88931497363E+03  0.17762503936E+04  0.12699999809E+01 0.  1.
       -4    1    3    3    0  502  0.15134063895E+04  0.27163178338E+03 -0.59440856804E+03  0.16484859369E+04  0.12699999809E+01 0. -1.
</event>
<event>
 5   0  0.2023479E-06  0.3489534E+04  0.7818609E-02  0.8116275E-01
       -2   -1    0    0    0  501  0.00000000000E+00  0.00000000000E+00  0.14036073023E+04  0.14036073023E+04  0.25500000920E-02 0. -1.
        2   -1    0    0  501    0  0.00000000000E+00  0.00000000000E+00 -0.21688491880E+04  0.21688491880E+04  0.25500000920E-02 0.  1.
    10030    2    1    2    0    0  0.00000000000E+00  0.00000000000E+00 -0.76524188574E+03  0.35724564903E+04  0.34895343860E+04 0.  0.
        5    1    3    3  502    0  0.14088353042E+04  0.98459952618E+03 -0.68964291161E+03  0.18519942162E+04  0.46999998093E+01 0. -1.
       -5    1    3    3    0  502 -0.14088353042E+04 -0.98459952618E+03 -0.75598974125E+02  0.17204622740E+04  0.46999998093E+01 0.  1.
</event>
<event>
 5   0  0.6890600E-07  0.3547256E+04  0.7818609E-02  0.8102681E-01
       -1   -1    0    0    0  501  0.00000000000E+00  0.00000000000E+00  0.12581300728E+04  0.12581300728E+04  0.50400001928E-02 0.  1.
        1   -1    0    0  501    0  0.00000000000E+00  0.00000000000E+00 -0.25003420148E+04  0.25003420148E+04  0.50400001928E-02 0. -1.
    10030    2    1    2    0    0  0.00000000000E+00  0.00000000000E+00 -0.12422119420E+04  0.37584720876E+04  0.35472555482E+04 0.  0.
        3    1    3    3  502    0 -0.12249822797E+04  0.36138729453E+03 -0.19250650828E+04  0.23102073382E+04  0.10100000352E+00 0. -1.
       -3    1    3    3    0  502  0.12249822797E+04 -0.36138729453E+03  0.68285314087E+03  0.14482647494E+04  0.10100000352E+00 0.  1.
</event>
<event>
 5   0  0.2001768E-06  0.3000007E+04  0.7818609E-02  0.8243729E-01
       -2   -1    0    0    0  501  0.00000000000E+00  0.00000000000E+00  0.91102565482E+03  0.91102565482E+03  0.25500000920E-02 0.  1.
        2   -1    0    0  501    0  0.00000000000E+00  0.00000000000E+00 -0.24697561211E+04  0.24697561211E+04  0.25500000920E-02 0. -1.
    10030    2    1    2    0    0  0.00000000000E+00  0.00000000000E+00 -0.15587304663E+04  0.33807817759E+04  0.30000074583E+04 0.  0.
        2    1    3    3  502    0  0.54762362073E+03  0.51462108408E+03 -0.22423218343E+04  0.23648961285E+04  0.25500000920E-02 0. -1.
       -2    1    3    3    0  502 -0.54762362073E+03 -0.51462108408E+03  0.68359136802E+03  0.10158856474E+04  0.25500000920E-02 0.  1.
</event>
<event>
 5   0  0.6630125E-07  0.3498452E+04  0.7818609E-02  0.8114157E-01
        1   -1    0    0  501    0  0.00000000000E+00  0.00000000000E+00  0.19646671589E+04  0.19646671589E+04  0.50400001928E-02 0.  1.
       -1   -1    0    0    0  501  0.00000000000E+00  0.00000000000E+00 -0.15574098777E+04  0.15574098777E+04  0.50400001928E-02 0. -1.
    10030    2    1    2    0    0  0.00000000000E+00  0.00000000000E+00  0.40725728123E+03  0.35220770366E+04  0.34984522519E+04 0.  0.
        5    1    3    3  502    0 -0.14027510420E+02 -0.67542591518E+03  0.18280216025E+04  0.19488668521E+04  0.46999998093E+01 0.  1.
       -5    1    3    3    0  502  0.14027510420E+02  0.67542591518E+03 -0.14207643213E+04  0.15732101845E+04  0.46999998093E+01 0. -1.
</event>
<event>
 5   0  0.7378896E-07  0.3489073E+04  0.7818609E-02  0.8116384E-01
       -1   -1    0    0    0  501  0.00000000000E+00  0.00000000000E+00  0.18333992956E+04  0.18333992956E+04  0.50400001928E-02 0.  1.
        1   -1    0    0  501    0  0.00000000000E+00  0.00000000000E+00 -0.16599804803E+04  0.16599804803E+04  0.50400001928E-02 0. -1.
    10030    2    1    2    0    0  0.00000000000E+00  0.00000000000E+00  0.17341881529E+03  0.34933797760E+04  0.34890726811E+04 0.  0.
        2    1    3    3  502    0  0.17503102800E+03  0.12665841476E+04 -0.11015731629E+04  0.16877010094E+04  0.25500000920E-02 0. -1.
       -2    1    3    3    0  502 -0.17503102800E+03 -0.12665841476E+04  0.12749919782E+04  0.18056787666E+04  0.25500000920E-02 0.  1.
</event>
<event>
 5   0  0.6630125E-07  0.3479499E+04  0.7818609E-02  0.8118666E-01
       -1   -1    0    0    0  501  0.00000000000E+00  0.00000000000E+00  0.12053375991E+04  0.12053375991E+04  0.50400001928E-02 0. -1.
        1   -1    0    0  501    0  0.00000000000E+00  0.00000000000E+00 -0.25111049269E+04  0.25111049269E+04  0.50400001928E-02 0.  1.
    10030    2    1    2    0    0  0.00000000000E+00  0.00000000000E+00 -0.13057673278E+04  0.37164425260E+04  0.34794994949E+04 0.  0.
        5    1    3    3  502    0 -0.98155799382E+03  0.13083873475E+04 -0.19750336782E+02  0.16357706784E+04  0.46999998093E+01 0. -1.
       -5    1    3    3    0  502  0.98155799382E+03 -0.13083873475E+04 -0.12860169910E+04  0.20806718477E+04  0.46999998093E+01 0.  1.
</event>
<event>
 5   0  0.2020725E-06  0.3647863E+04  0.7818609E-02  0.8079615E-01
       -2   -1    0    0    0  501  0.00000000000E+00  0.00000000000E+00  0.19140697532E+04  0.19140697532E+04  0.25500000920E-02 0.  1.
        2   -1    0    0  501    0  0.00000000000E+00  0.00000000000E+00 -0.17380383049E+04  0.17380383049E+04  0.25500000920E-02 0. -1.
    10030    2    1    2    0    0  0.00000000000E+00  0.00000000000E+00  0.17603144827E+03  0.36521080581E+04  0.36478632372E+04 0.  0.
        3    1    3    3  502    0  0.17328349271E+04 -0.22980605287E+03 -0.43335780660E+03  0.18009238477E+04  0.10100000352E+00 0. -1.
       -3    1    3    3    0  502 -0.17328349271E+04  0.22980605287E+03  0.60938925486E+03  0.18511842104E+04  0.10100000352E+00 0.  1.
</event>
<event>
 5   0  0.6630125E-07  0.3469270E+04  0.7818609E-02  0.8121111E-01
       -1   -1    0    0    0  501  0.00000000000E+00  0.00000000000E+00  0.30070137632E+04  0.30070137632E+04  0.50400001928E-02 0.  1.
        1   -1    0    0  501    0  0.00000000000E+00  0.00000000000E+00 -0.10006465339E+04  0.10006465339E+04  0.50400001928E-02 0. -1.
    10030    2    1    2    0    0  0.00000000000E+00  0.00000000000E+00  0.20063672292E+04  0.40076602971E+04  0.34692696059E+04 0.  0.
        5    1    3    3  502    0 -0.10008656050E+04  0.64385933484E+03  0.24610337733E+04  0.27336781313E+04  0.46999998093E+01 0.  1.
       -5    1    3    3    0  502  0.10008656050E+04 -0.64385933484E+03 -0.45466654404E+03  0.12739821658E+04  0.46999998093E+01 0. -1.
</event>
<event>
 5   0  0.2073287E-06  0.3503110E+04  0.7818609E-02  0.8113053E-01
       -2   -1    0    0    0  501  0.00000000000E+00  0.00000000000E+00  0.27849948531E+04  0.27849948531E+04  0.25500000920E-02 0. -1.
        2   -1    0    0  501    0  0.00000000000E+00  0.00000000000E+00 -0.11015982086E+04  0.11015982086E+04  0.25500000920E-02 0.  1.
    10030    2    1    2    0    0  0.00000000000E+00  0.00000000000E+00  0.16833966445E+04  0.38865930617E+04  0.35031102416E+04 0.  0.
        1    1    3    3  502    0 -0.12173264992E+04  0.72727311646E+03  0.19824222835E+04  0.24373772998E+04  0.50400001928E-02 0. -1.
       -1    1    3    3    0  502  0.12173264992E+04 -0.72727311646E+03 -0.29902563900E+03  0.14492157619E+04  0.50400001928E-02 0.  1.
</event>
<event>
 5   0  0.2023479E-06  0.3218723E+04  0.7818609E-02  0.8183890E-01
        2   -1    0    0  501    0  0.00000000000E+00  0.00000000000E+00  0.98972949286E+03  0.98972949286E+03  0.25500000920E-02 0.  1.
       -2   -1    0    0    0  501  0.00000000000E+00  0.00000000000E+00 -0.26169218090E+04  0.26169218090E+04  0.25500000920E-02 0. -1.
    10030    2    1    2    0    0  0.00000000000E+00  0.00000000000E+00 -0.16271923162E+04  0.36066513019E+04  0.32187231598E+04 0.  0.
        5    1    3    3  502    0  0.15479896707E+04  0.39255288793E+03 -0.10367259400E+04  0.19039938432E+04  0.46999998093E+01 0.  1.
       -5    1    3    3    0  502 -0.15479896707E+04 -0.39255288793E+03 -0.59046637622E+03  0.17026574587E+04  0.46999998093E+01 0. -1.
</event>
<event>
 5   0  0.2023479E-06  0.3231407E+04  0.7818609E-02  0.8180572E-01
        2   -1    0    0  501    0  0.00000000000E+00  0.00000000000E+00  0.21935294726E+04  0.21935294726E+04  0.25500000920E-02 0.  1.
       -2   -1    0    0    0  501  0.00000000000E+00  0.00000000000E+00 -0.11900897935E+04  0.11900897935E+04  0.25500000920E-02 0. -1.
    10030    2    1    2    0    0  0.00000000000E+00  0.00000000000E+00  0.10034396791E+04  0.33836192660E+04  0.32314065278E+04 0.  0.
        5    1    3    3  502    0 -0.89244341961E+03  0.16486633403E+03 -0.89797246891E+03  0.12767195503E+04  0.46999998093E+01 0. -1.
       -5    1    3    3    0  502  0.89244341961E+03 -0.16486633403E+03  0.19014121480E+04  0.21068997157E+04  0.46999998093E+01 0.  1.
</event>
<event>
 5   0  0.6630125E-07  0.2993084E+04  0.7818609E-02  0.8245708E-01
       -1   -1    0    0    0  501  0.00000000000E+00  0.00000000000E+00  0.89700628039E+03  0.89700628041E+03  0.50400001928E-02 0.  1.
        1   -1    0    0  501    0  0.00000000000E+00  0.00000000000E+00 -0.24967923955E+04  0.24967923955E+04  0.50400001928E-02 0. -1.
    10030    2    1    2    0    0  0.00000000000E+00  0.00000000000E+00 -0.15997861151E+04  0.33937986759E+04  0.29930843353E+04 0.  0.
        5    1    3    3  502    0  0.11922298492E+04  0.74985509441E+03 -0.13735082860E+04  0.19672930076E+04  0.46999998093E+01 0. -1.
       -5    1    3    3    0  502 -0.11922298492E+04 -0.74985509441E+03 -0.22627782909E+03  0.14265056683E+04  0.46999998093E+01 0.  1.
</event>
<event>
 5   0  0.6630125E-07  0.3883346E+04  0.7818609E-02  0.8028502E-01
        1   -1    0    0  501    0  0.00000000000E+00  0.00000000000E+00  0.24568351515E+04  0.24568351515E+04  0.50400001928E-02 0.  1.
       -1   -1    0    0    0  501  0.00000000000E+00  0.00000000000E+00 -0.15345325764E+04  0.15345325764E+04  0.50400001928E-02 0. -1.
    10030    2    1    2    0    0  0.00000000000E+00  0.00000000000E+00  0.92230257513E+03  0.39913677280E+04  0.38833457610E+04 0.  0.
        5    1    3    3  502    0 -0.17234856812E+04 -0.39346391758E+03  0.12865173896E+04  0.21864047730E+04  0.46999998093E+01 0.  1.
       -5    1    3    3    0  502  0.17234856812E+04  0.39346391758E+03 -0.36421481442E+03  0.18049629550E+04  0.46999998093E+01 0. -1.
</event>
<event>
 5   0  0.2023479E-06  0.3552737E+04  0.7818609E-02  0.8101404E-01
        2   -1    0    0  501    0  0.00000000000E+00  0.00000000000E+00  0.24081009497E+04  0.24081009497E+04  0.25500000920E-02 0.  1.
       -2   -1    0    0    0  501  0.00000000000E+00  0.00000000000E+00 -0.13103624802E+04  0.13103624802E+04  0.25500000920E-02 0. -1.
    10030    2    1    2    0    0  0.00000000000E+00  0.00000000000E+00  0.10977384695E+04  0.37184634299E+04  0.35527370479E+04 0.  0.
        5    1    3    3  502    0  0.79479436852E+03 -0.15853333599E+04  0.44170616031E+03  0.18275957902E+04  0.46999998093E+01 0. -1.
       -5    1    3    3    0  502 -0.79479436852E+03  0.15853333599E+04  0.65603230921E+03  0.18908676397E+04  0.46999998093E+01 0.  1.
</event>
<event>
 5   0  0.6630125E-07  0.3433203E+04  0.7818609E-02  0.8129805E-01
       -1   -1    0    0    0  501  0.00000000000E+00  0.00000000000E+00  0.12795562875E+04  0.12795562875E+04  0.50400001928E-02 0. -1.
        1   -1    0    0  501    0  0.00000000000E+00  0.00000000000E+00 -0.23029244075E+04  0.23029244075E+04  0.50400001928E-02 0.  1.
    10030    2    1    2    0    0  0.00000000000E+00  0.00000000000E+00 -0.10233681200E+04  0.35824806950E+04  0.34332034051E+04 0.  0.
        4    1    3    3  502    0  0.15487114471E+04  0.32621619875E+03 -0.12052616235E+04  0.19893670724E+04  0.12699999809E+01 0.  1.
       -4    1    3    3    0  502 -0.15487114471E+04 -0.32621619875E+03  0.18189350353E+03  0.15931136226E+04  0.12699999809E+01 0. -1.
</event>
<event>
 5   0  0.2073287E-06  0.3497397E+04  0.7818609E-02  0.8114407E-01
        2   -1    0    0  501    0  0.00000000000E+00  0.00000000000E+00  0.10238949531E+04  0.10238949531E+04  0.25500000920E-02 0.  1.
       -2   -1    0    0    0  501  0.00000000000E+00  0.00000000000E+00 -0.29865816232E+04  0.29865816232E+04  0.25500000920E-02 0. -1.
    10030    2    1    2    0    0  0.00000000000E+00  0.00000000000E+00 -0.19626866702E+04  0.40104765763E+04  0.34973966609E+04 0.  0.
        1    1    3    3  502    0 -0.11933888811E+03 -0.41657200384E+03 -0.29240402170E+04  0.29559744916E+04  0.50400001928E-02 0. -1.
       -1    1    3    3    0  502  0.11933888811E+03  0.41657200384E+03  0.96135354683E+03  0.10545020847E+04  0.50400001928E-02 0.  1.
</event>
<event>
 5   0  0.6630125E-07  0.3466736E+04  0.7818609E-02  0.8121719E-01
       -1   -1    0    0    0  501  0.00000000000E+00  0.00000000000E+00  0.17302315090E+04  0.17302315090E+04  0.50400001928E-02 0.  1.
        1   -1    0    0  501    0  0.00000000000E+00  0.00000000000E+00 -0.17365104591E+04  0.17365104591E+04  0.50400001928E-02 0. -1.
    10030    2    1    2    0    0  0.00000000000E+00  0.00000000000E+00 -0.62789500529E+01  0.34667419681E+04  0.34667362819E+04 0.  0.
        5    1    3    3  502    0  0.73133555696E+03 -0.11041813543E+04  0.11151086924E+04  0.17313456171E+04  0.46999998093E+01 0.  1.
       -5    1    3    3    0  502 -0.73133555696E+03  0.11041813543E+04 -0.11213876425E+04  0.17353963509E+04  0.46999998093E+01 0. -1.
</event>
<event>
 5   0  0.6630125E-07  0.3517042E+04  0.7818609E-02  0.8109763E-01
        1   -1    0    0  501    0  0.00000000000E+00  0.00000000000E+00  0.11385150505E+04  0.11385150505E+04  0.50400001928E-02 0.  1.
       -1   -1    0    0    0  501  0.00000000000E+00  0.00000000000E+00 -0.27161665188E+04  0.27161665188E+04  0.50400001928E-02 0. -1.
    10030    2    1    2    0    0  0.00000000000E+00  0.00000000000E+00 -0.15776514683E+04  0.38546815693E+04  0.35170422012E+04 0.  0.
        1    1    3    3  502    0 -0.22312057942E+03 -0.15202667687E+04 -0.17261485397E+04  0.23109700609E+04  0.50400001928E-02 0. -1.
       -1    1    3    3    0  502  0.22312057942E+03  0.15202667687E+04  0.14849707137E+03  0.15437115085E+04  0.50400001928E-02 0.  1.
</event>
<event>
 5   0  0.6630125E-07  0.2278415E+04  0.7818609E-02  0.8486481E-01
        1   -1    0    0  501    0  0.00000000000E+00  0.00000000000E+00  0.72149685212E+03  0.72149685214E+03  0.50400001928E-02 0.  1.
       -1   -1    0    0    0  501  0.00000000000E+00  0.00000000000E+00 -0.17987518355E+04  0.17987518355E+04  0.50400001928E-02 0. -1.
    10030    2    1    2    0    0  0.00000000000E+00  0.00000000000E+00 -0.10772549834E+04  0.25202486876E+04  0.22784150518E+04 0.  0.
        1    1    3    3  502    0  0.94966111796E+03  0.28070554638E+03 -0.11615548405E+04  0.15263883812E+04  0.50400001928E-02 0. -1.
       -1    1    3    3    0  502 -0.94966111796E+03 -0.28070554638E+03  0.84299857152E+02  0.99386030642E+03  0.50400001928E-02 0.  1.
</event>
<event>
 5   0  0.6630125E-07  0.2463435E+04  0.7818609E-02  0.8416129E-01
       -1   -1    0    0    0  501  0.00000000000E+00  0.00000000000E+00  0.12112567684E+04  0.12112567684E+04  0.50400001928E-02 0.  1.
        1   -1    0    0  501    0  0.00000000000E+00  0.00000000000E+00 -0.12525236884E+04  0.12525236884E+04  0.50400001928E-02 0. -1.
    10030    2    1    2    0    0  0.00000000000E+00  0.00000000000E+00 -0.41266920029E+02  0.24637804568E+04  0.24634348338E+04 0.  0.
        4    1    3    3  502    0  0.12209707750E+04  0.33082269767E+01 -0.18296952411E+03  0.12346092650E+04  0.12699999809E+01 0.  1.
       -4    1    3    3    0  502 -0.12209707750E+04 -0.33082269767E+01  0.14170260408E+03  0.12291711917E+04  0.12699999809E+01 0. -1.
</event>
<event>
 5   0  0.1999883E-06  0.3528206E+04  0.7818609E-02  0.8107138E-01
        2   -1    0    0  501    0  0.00000000000E+00  0.00000000000E+00  0.17937580761E+04  0.17937580761E+04  0.25500000920E-02 0.  1.
       -2   -1    0    0    0  501  0.00000000000E+00  0.00000000000E+00 -0.17349382143E+04  0.17349382143E+04  0.25500000920E-02 0. -1.
    10030    2    1    2    0    0  0.00000000000E+00  0.00000000000E+00  0.58819861739E+02  0.35286962904E+04  0.35282060220E+04 0.  0.
        4    1    3    3  502    0  0.15575579575E+04  0.39670397473E+03  0.75662649301E+03  0.17764701229E+04  0.12699999809E+01 0.  1.
       -4    1    3    3    0  502 -0.15575579575E+04 -0.39670397473E+03 -0.69780663127E+03  0.17522261675E+04  0.12699999809E+01 0. -1.
</event>
<event>
 5   0  0.2073287E-06  0.3042553E+04  0.7818609E-02  0.8231683E-01
       -2   -1    0    0    0  501  0.00000000000E+00  0.00000000000E+00  0.11061154176E+04  0.11061154176E+04  0.25500000920E-02 0. -1.
        2   -1    0    0  501    0  0.00000000000E+00  0.00000000000E+00 -0.20922612553E+04  0.20922612553E+04  0.25500000920E-02 0.  1.
    10030    2    1    2    0    0  0.00000000000E+00  0.00000000000E+00 -0.98614583767E+03  0.31983766729E+04  0.30425531596E+04 0.  0.
        1    1    3    3  502    0  0.90513162604E+03 -0.80842406020E+03  0.47122377606E+03  0.13018696435E+04  0.50400001928E-02 0. -1.
       -1    1    3    3    0  502 -0.90513162604E+03  0.80842406020E+03 -0.14573696137E+04  0.18965070294E+04  0.50400001928E-02 0.  1.
</event>
<event>
 5   0  0.6630125E-07  0.2795581E+04  0.7818609E-02  0.8304642E-01
       -1   -1    0    0    0  501  0.00000000000E+00  0.00000000000E+00  0.21932198827E+04  0.21932198827E+04  0.50400001928E-02 0.  1.
        1   -1    0    0  501    0  0.00000000000E+00  0.00000000000E+00 -0.89084451608E+03  0.89084451609E+03  0.50400001928E-02 0. -1.
    10030    2    1    2    0    0  0.00000000000E+00  0.00000000000E+00  0.13023753666E+04  0.30840643988E+04  0.27955807304E+04 0.  0.
        4    1    3    3  502    0 -0.11963907460E+04  0.46492387119E+03  0.12617540637E+04  0.17998694267E+04  0.12699999809E+01 0.  1.
       -4    1    3    3    0  502  0.11963907460E+04 -0.46492387119E+03  0.40621302924E+02  0.12841949721E+04  0.12699999809E+01 0. -1.
</event>
<event>
 5   0  0.2023479E-06  0.3783536E+04  0.7818609E-02  0.8049697E-01
       -2   -1    0    0    0  501  0.00000000000E+00  0.00000000000E+00  0.14646383848E+04  0.14646383848E+04  0.25500000920E-02 0. -1.
        2   -1    0    0  501    0  0.00000000000E+00  0.00000000000E+00 -0.24434607600E+04  0.24434607600E+04  0.25500000920E-02 0.  1.
    10030    2    1    2    0    0  0.00000000000E+00  0.00000000000E+00 -0.97882237524E+03  0.39080991448E+04  0.37835361348E+04 0.  0.
        5    1    3    3  502    0 -0.54400623870E+03  0.53665121682E+03 -0.22769420869E+04  0.24017544990E+04  0.46999998093E+01 0.  1.
       -5    1    3    3    0  502  0.54400623870E+03 -0.53665121682E+03  0.12981197117E+04  0.15063446459E+04  0.46999998093E+01 0. -1.
</event>
<event>
 5   0  0.2020725E-06  0.3589575E+04  0.7818609E-02  0.8092884E-01
       -2   -1    0    0    0  501  0.00000000000E+00  0.00000000000E+00  0.12067758050E+04  0.12067758050E+04  0.25500000920E-02 0. -1.
        2   -1    0    0  501    0  0.00000000000E+00  0.00000000000E+00 -0.26693124720E+04  0.26693124720E+04  0.25500000920E-02 0.  1.
    10030    2    1    2    0    0  0.00000000000E+00  0.00000000000E+00 -0.14625366669E+04  0.38760882770E+04  0.35895747421E+04 0.  0.
        3    1    3    3  502    0 -0.30218105460E+03 -0.15164399744E+04  0.25270510459E+03  0.15667684787E+04  0.10100000352E+00 0. -1.
       -3    1    3    3    0  502  0.30218105460E+03  0.15164399744E+04 -0.17152417715E+04  0.23093197983E+04  0.10100000352E+00 0.  1.
</event>
<event>
 5   0  0.1999883E-06  0.2797856E+04  0.7818609E-02  0.8303934E-01
       -2   -1    0    0    0  501  0.00000000000E+00  0.00000000000E+00  0.16075776111E+04  0.16075776111E+04  0.25500000920E-02 0.  1.
        2   -1    0    0  501    0  0.00000000000E+00  0.00000000000E+00 -0.12173595591E+04  0.12173595591E+04  0.25500000920E-02 0. -1.
    10030    2    1    2    0    0  0.00000000000E+00  0.00000000000E+00  0.39021805196E+03  0.28249371702E+04  0.27978563021E+04 0.  0.
        4    1    3    3  502    0  0.11812129061E+04 -0.40665133134E+03  0.83078133938E+03  0.15002761351E+04  0.12699999809E+01 0.  1.
       -4    1    3    3    0  502 -0.11812129061E+04  0.40665133134E+03 -0.44056328742E+03  0.13246610351E+04  0.12699999809E+01 0. -1.
</event>
<event>
 5   0  0.2001768E-06  0.3070122E+04  0.7818609E-02  0.8223986E-01
        2   -1    0    0  501    0  0.00000000000E+00  0.00000000000E+00  0.30371389691E+04  0.30371389691E+04  0.25500000920E-02 0.  1.
       -2   -1    0    0    0  501  0.00000000000E+00  0.00000000000E+00 -0.77586571217E+03  0.77586571218E+03  0.25500000920E-02 0. -1.
    10030    2    1    2    0    0  0.00000000000E+00  0.00000000000E+00  0.22612732569E+04  0.38130046813E+04  0.30701218147E+04 0.  0.
        2    1    3    3  502    0  0.12914855429E+04  0.62240742418E+03  0.18121228344E+04  0.23106525217E+04  0.25500000920E-02 0.  1.
       -2    1    3    3    0  502 -0.12914855429E+04 -0.62240742418E+03  0.44915042252E+03  0.15023521595E+04  0.25500000920E-02 0. -1.
</event>
<event>
 5   0  0.2001768E-06  0.3541448E+04  0.7818609E-02  0.8104037E-01
        2   -1    0    0  501    0  0.00000000000E+00  0.00000000000E+00  0.27997836585E+04  0.27997836585E+04  0.25500000920E-02 0.  1.
       -2   -1    0    0    0  501  0.00000000000E+00  0.00000000000E+00 -0.11198950347E+04  0.11198950347E+04  0.25500000920E-02 0. -1.
    10030    2    1    2    0    0  0.00000000000E+00  0.00000000000E+00  0.16798886238E+04  0.39196786931E+04  0.35414481881E+04 0.  0.
        2    1    3    3  502    0  0.47081122934E+03  0.16444326387E+04  0.13467116539E+04  0.21770287540E+04  0.25500000920E-02 0.  1.
       -2    1    3    3    0  502 -0.47081122934E+03 -0.16444326387E+04  0.33317696988E+03  0.17426499391E+04  0.25500000920E-02 0. -1.
</event>
<event>
 5   0  0.2001768E-06  0.3588085E+04  0.7818609E-02  0.8093226E-01
       -2   -1    0    0    0  501  0.00000000000E+00  0.00000000000E+00  0.16204032888E+04  0.16204032888E+04  0.25500000920E-02 0. -1.
        2   -1    0    0  501    0  0.00000000000E+00  0.00000000000E+00 -0.19862887220E+04  0.19862887220E+04  0.25500000920E-02 0.  1.
    10030    2    1    2    0    0  0.00000000000E+00  0.00000000000E+00 -0.36588543319E+03  0.36066920109E+04  0.35880851594E+04 0.  0.
        2    1    3    3  502    0  0.81247249206E+02  0.79907678531E+03  0.14295782142E+04  0.16397617799E+04  0.25500000920E-02 0. -1.
       -2    1    3    3    0  502 -0.81247249206E+02 -0.79907678531E+03 -0.17954636474E+04  0.19669302310E+04  0.25500000920E-02 0.  1.
</event>
<event>
 5   0  0.2020725E-06  0.3560339E+04  0.7818609E-02  0.8099638E-01
       -2   -1    0    0    0  501  0.00000000000E+00  0.00000000000E+00  0.16891730638E+04  0.16891730638E+04  0.25500000920E-02 0.  1.
        2   -1    0    0  501    0  0.00000000000E+00  0.00000000000E+00 -0.18760674907E+04  0.18760674907E+04  0.25500000920E-02 0. -1.
    10030    2    1    2    0    0  0.00000000000E+00  0.00000000000E+00 -0.18689442687E+03  0.35652405544E+04  0.35603385631E+04 0.  0.
        3    1    3    3  502    0 -0.11615881808E+04  0.10981177546E+04  0.69111920556E+03  0.17414923115E+04  0.10100000352E+00 0. -1.
       -3    1    3    3    0  502  0.11615881808E+04 -0.10981177546E+04 -0.87801363243E+03  0.18237482429E+04  0.10100000352E+00 0.  1.
</event>
<event>
 5   0  0.1999883E-06  0.2356427E+04  0.7818609E-02  0.8455999E-01
       -2   -1    0    0    0  501  0.00000000000E+00  0.00000000000E+00  0.13321229516E+04  0.13321229516E+04  0.25500000920E-02 0. -1.
        2   -1    0    0  501    0  0.00000000000E+00  0.00000000000E+00 -0.10420865402E+04  0.10420865402E+04  0.25500000920E-02 0.  1.
    10030    2    1    2    0    0  0.00000000000E+00  0.00000000000E+00  0.29003641136E+03  0.23742094918E+04  0.23564272938E+04 0.  0.
        4    1    3    3  502    0 -0.11070153196E+04 -0.40049279241E+03  0.19342648057E+03  0.11930183615E+04  0.12699999809E+01 0. -1.
       -4    1    3    3    0  502  0.11070153196E+04  0.40049279241E+03  0.96609930783E+02  0.11811911303E+04  0.12699999809E+01 0.  1.
</event>
<event>
 5   0  0.2073287E-06  0.3523348E+04  0.7818609E-02  0.8108279E-01
       -2   -1    0    0    0  501  0.00000000000E+00  0.00000000000E+00  0.10236770490E+04  0.10236770490E+04  0.25500000920E-02 0. -1.
        2   -1    0    0  501    0  0.00000000000E+00  0.00000000000E+00 -0.30317136367E+04  0.30317136367E+04  0.25500000920E-02 0.  1.
    10030    2    1    2    0    0  0.00000000000E+00  0.00000000000E+00 -0.20080365877E+04  0.40553906856E+04  0.35233482194E+04 0.  0.
        1    1    3    3  502    0  0.73006941544E+03 -0.49660433911E+03  0.75060477921E+03  0.11588894492E+04  0.50400001928E-02 0. -1.
       -1    1    3    3    0  502 -0.73006941544E+03  0.49660433911E+03 -0.27586413669E+04  0.28965012364E+04  0.50400001928E-02 0.  1.
</event>
<event>
 5   0  0.6630125E-07  0.2183295E+04  0.7818609E-02  0.8525414E-01
       -1   -1    0    0    0  501  0.00000000000E+00  0.00000000000E+00  0.78227697315E+03  0.78227697316E+03  0.50400001928E-02 0.  1.
        1   -1    0    0  501    0  0.00000000000E+00  0.00000000000E+00 -0.15233657209E+04  0.15233657209E+04  0.50400001928E-02 0. -1.
    10030    2    1    2    0    0  0.00000000000E+00  0.00000000000E+00 -0.74108874777E+03  0.23056426941E+04  0.21832946894E+04 0.  0.
        1    1    3    3  502    0 -0.10154897573E+04 -0.37741752516E+03 -0.22874203052E+03  0.11072426798E+04  0.50400001928E-02 0. -1.
       -1    1    3    3    0  502  0.10154897573E+04  0.37741752516E+03 -0.51234671724E+03  0.11984000143E+04  0.50400001928E-02 0.  1.
</event>
<event>
 5   0  0.6890600E-07  0.2371445E+04  0.7818609E-02  0.8450272E-01
       -1   -1    0    0    0  501  0.00000000000E+00  0.00000000000E+00  0.15785417757E+04  0.15785417757E+04  0.50400001928E-02 0. -1.
        1   -1    0    0  501    0  0.00000000000E+00  0.00000000000E+00 -0.89065638505E+03  0.89065638507E+03  0.50400001928E-02 0.  1.
    10030    2    1    2    0    0  0.00000000000E+00  0.00000000000E+00  0.68788539067E+03  0.24691981608E+04  0.23714453919E+04 0.  0.
        3    1    3    3  502    0 -0.32589938728E+03 -0.27043259593E+03 -0.80922708373E+03  0.91334149299E+03  0.10100000352E+00 0.  1.
       -3    1    3    3    0  502  0.32589938728E+03  0.27043259593E+03  0.14971124744E+04  0.15558566678E+04  0.10100000352E+00 0. -1.
</event>
<event>
 5   0  0.6630125E-07  0.3548729E+04  0.7818609E-02  0.8102338E-01
        1   -1    0    0  501    0  0.00000000000E+00  0.00000000000E+00  0.15950297459E+04  0.15950297459E+04  0.50400001928E-02 0. -1.
       -1   -1    0    0    0  501  0.00000000000E+00  0.00000000000E+00 -0.19738623307E+04  0.19738623307E+04  0.50400001928E-02 0.  1.
    10030    2    1    2    0    0  0.00000000000E+00  0.00000000000E+00 -0.37883258480E+03  0.35688920765E+04  0.35487288607E+04 0.  0.
        1    1    3    3  502    0 -0.10630535197E+03 -0.12274447563E+04 -0.14735611865E+04  0.19207561085E+04  0.50400001928E-02 0.  1.
       -1    1    3    3    0  502  0.10630535197E+03  0.12274447563E+04  0.10947286017E+04  0.16481359681E+04  0.50400001928E-02 0. -1.
</event>
<event>
 5   0  0.1999883E-06  0.3496365E+04  0.7818609E-02  0.8114652E-01
       -2   -1    0    0    0  501  0.00000000000E+00  0.00000000000E+00  0.11261736406E+04  0.11261736406E+04  0.25500000920E-02 0. -1.
        2   -1    0    0  501    0  0.00000000000E+00  0.00000000000E+00 -0.27137392918E+04  0.27137392918E+04  0.25500000920E-02 0.  1.
    10030    2    1    2    0    0  0.00000000000E+00  0.00000000000E+00 -0.15875656513E+04  0.38399129324E+04  0.34963647738E+04 0.  0.
        4    1    3    3  502    0  0.16550967600E+04 -0.31574007234E+03 -0.28205678234E+03  0.17083895105E+04  0.12699999809E+01 0. -1.
       -4    1    3    3    0  502 -0.16550967600E+04  0.31574007234E+03 -0.13055088689E+04  0.21315234219E+04  0.12699999809E+01 0.  1.
</event>
<event>
 5   0  0.2001768E-06  0.2754544E+04  0.7818609E-02  0.8317521E-01
        2   -1    0    0  501    0  0.00000000000E+00  0.00000000000E+00  0.28369451784E+04  0.28369451784E+04  0.25500000920E-02 0.  1.
       -2   -1    0    0    0  501  0.00000000000E+00  0.00000000000E+00 -0.66863394378E+03  0.66863394379E+03  0.25500000920E-02 0. -1.
    10030    2    1    2    0    0  0.00000000000E+00  0.00000000000E+00  0.21683112346E+04  0.35055791222E+04  0.27545437683E+04 0.  0.
        2    1    3    3  502    0 -0.74387018343E+02 -0.10609433802E+04  0.21978134408E+04  0.24416220438E+04  0.25500000920E-02 0.  1.
       -2    1    3    3    0  502  0.74387018343E+02  0.10609433802E+04 -0.29502206141E+02  0.10639570784E+04  0.25500000920E-02 0. -1.
</event>
<event>
 5   0  0.2001768E-06  0.3379461E+04  0.7818609E-02  0.8142966E-01
        2   -1    0    0  501    0  0.00000000000E+00  0.00000000000E+00  0.20521220178E+04  0.20521220178E+04  0.25500000920E-02 0. -1.
       -2   -1    0    0    0  501  0.00000000000E+00  0.00000000000E+00 -0.13913345956E+04  0.13913345956E+04  0.25500000920E-02 0.  1.
    10030    2    1    2    0    0  0.00000000000E+00  0.00000000000E+00  0.66078742217E+03  0.34434566134E+04  0.33794605236E+04 0.  0.
        2    1    3    3  502    0  0.53475272023E+02  0.84582239818E+03 -0.11591068836E+04  0.14358982908E+04  0.25500000920E-02 0.  1.
       -2    1    3    3    0  502 -0.53475272023E+02 -0.84582239818E+03  0.18198943058E+04  0.20075583225E+04  0.25500000920E-02 0. -1.
</event>
<event>
 5   0  0.2073287E-06  0.2197356E+04  0.7818609E-02  0.8519529E-01
        2   -1    0    0  501    0  0.00000000000E+00  0.00000000000E+00  0.94849493391E+03  0.94849493391E+03  0.25500000920E-02 0.  1.
       -2   -1    0    0    0  501  0.00000000000E+00  0.00000000000E+00 -0.12726408731E+04  0.12726408731E+04  0.25500000920E-02 0. -1.
    10030    2    1    2    0    0  0.00000000000E+00  0.00000000000E+00 -0.32414593919E+03  0.22211358070E+04  0.21973560666E+04 0.  0.
        1    1    3    3  502    0 -0.95212326733E+03 -0.53816924064E+03 -0.26774411281E+03  0.11259892352E+04  0.50400001928E-02 0. -1.
       -1    1    3    3    0  502  0.95212326733E+03  0.53816924064E+03 -0.56401826380E+02  0.10951465718E+04  0.50400001928E-02 0.  1.
</event>
<event>
 5   0  0.2023479E-06  0.3510679E+04  0.7818609E-02  0.8111264E-01
       -2   -1    0    0    0  501  0.00000000000E+00  0.00000000000E+00  0.18167056470E+04  0.18167056470E+04  0.25500000920E-02 0.  1.
        2   -1    0    0  501    0  0.00000000000E+00  0.00000000000E+00 -0.16960457567E+04  0.16960457567E+04  0.25500000920E-02 0. -1.
    10030    2    1    2    0    0  0.00000000000E+00  0.00000000000E+00  0.12065989034E+03  0.35127514037E+04  0.35106785121E+04 0.  0.
        5    1    3    3  502    0  0.16763998772E+04  0.44809490529E+03 -0.20456817380E+03  0.17472766868E+04  0.46999998093E+01 0. -1.
       -5    1    3    3    0  502 -0.16763998772E+04 -0.44809490529E+03  0.32522806414E+03  0.17654747169E+04  0.46999998093E+01 0.  1.
</event>
<event>
 5   0  0.7378896E-07  0.2945750E+04  0.7818609E-02  0.8259394E-01
        1   -1    0    0  501    0  0.00000000000E+00  0.00000000000E+00  0.19620104558E+04  0.19620104558E+04  0.50400001928E-02 0.  1.
       -1   -1    0    0    0  501  0.00000000000E+00  0.00000000000E+00 -0.11056821987E+04  0.11056821987E+04  0.50400001928E-02 0. -1.
    10030    2    1    2    0    0  0.00000000000E+00  0.00000000000E+00  0.85632825709E+03  0.30676926546E+04  0.29457495038E+04 0.  0.
        2    1    3    3  502    0  0.41148434323E+03 -0.25799743661E+03 -0.10198928464E+04  0.11296297890E+04  0.25500000920E-02 0. -1.
       -2    1    3    3    0  502 -0.41148434323E+03  0.25799743661E+03  0.18762211035E+04  0.19380628656E+04  0.25500000920E-02 0.  1.
</event>
<event>
 5   0  0.6890600E-07  0.3704884E+04  0.7818609E-02  0.8066880E-01
        1   -1    0    0  501    0  0.00000000000E+00  0.00000000000E+00  0.27317472391E+04  0.27317472391E+04  0.50400001928E-02 0.  1.
       -1   -1    0    0    0  501  0.00000000000E+00  0.00000000000E+00 -0.12561706440E+04  0.12561706441E+04  0.50400001928E-02 0. -1.
    10030    2    1    2    0    0  0.00000000000E+00  0.00000000000E+00  0.14755765951E+04  0.39879178832E+04  0.37048836358E+04 0.  0.
        3    1    3    3  502    0  0.11453867253E+04  0.10273055366E+03 -0.82542336683E+03  0.14155522109E+04  0.10100000352E+00 0. -1.
       -3    1    3    3    0  502 -0.11453867253E+04 -0.10273055366E+03  0.23009999619E+04  0.25723656723E+04  0.10100000352E+00 0.  1.
</event>
<event>
 5   0  0.6630125E-07  0.2945635E+04  0.7818609E-02  0.8259428E-01
        1   -1    0    0  501    0  0.00000000000E+00  0.00000000000E+00  0.12130800355E+04  0.12130800356E+04  0.50400001928E-02 0. -1.
       -1   -1    0    0    0  501  0.00000000000E+00  0.00000000000E+00 -0.17881683307E+04  0.17881683307E+04  0.50400001928E-02 0.  1.
    10030    2    1    2    0    0  0.00000000000E+00  0.00000000000E+00 -0.57508829512E+03  0.30012483662E+04  0.29456349415E+04 0.  0.
        1    1    3    3  502    0 -0.89953732664E+03  0.11647263978E+04 -0.22781728378E+03  0.14891795387E+04  0.50400001928E-02 0.  1.
       -1    1    3    3    0  502  0.89953732664E+03 -0.11647263978E+04 -0.34727101134E+03  0.15120688275E+04  0.50400001928E-02 0. -1.
</event>
<event>
 5   0  0.7378896E-07  0.3493286E+04  0.7818609E-02  0.8115383E-01
       -1   -1    0    0    0  501  0.00000000000E+00  0.00000000000E+00  0.11950490663E+04  0.11950490663E+04  0.50400001928E-02 0. -1.
        1   -1    0    0  501    0  0.00000000000E+00  0.00000000000E+00 -0.25528336504E+04  0.25528336504E+04  0.50400001928E-02 0.  1.
    10030    2    1    2    0    0  0.00000000000E+00  0.00000000000E+00 -0.13577845841E+04  0.37478827167E+04  0.34932858287E+04 0.  0.
        2    1    3    3  502    0  0.13849473201E+04 -0.31310431590E+03 -0.17702024499E+04  0.22693016780E+04  0.25500000920E-02 0.  1.
       -2    1    3    3    0  502 -0.13849473201E+04  0.31310431590E+03  0.41241786580E+03  0.14785810387E+04  0.25500000920E-02 0. -1.
</event>
<event>
 5   0  0.2020725E-06  0.3419046E+04  0.7818609E-02  0.8133248E-01
       -2   -1    0    0    0  501  0.00000000000E+00  0.00000000000E+00  0.12368022091E+04  0.12368022091E+04  0.25500000920E-02 0. -1.
        2   -1    0    0  501    0  0.00000000000E+00  0.00000000000E+00 -0.23629236883E+04  0.23629236883E+04  0.25500000920E-02 0.  1.
    10030    2    1    2    0    0  0.00000000000E+00  0.00000000000E+00 -0.11261214792E+04  0.35997258974E+04  0.34190462048E+04 0.  0.
        3    1    3    3  502    0  0.13360173825E+04  0.42964772828E+03 -0.15908282238E+04  0.21213849403E+04  0.10100000352E+00 0.  1.
       -3    1    3    3    0  502 -0.13360173825E+04 -0.42964772828E+03  0.46470674459E+03  0.14783409571E+04  0.10100000352E+00 0. -1.
</event>
<event>
 5   0  0.7378896E-07  0.3567066E+04  0.7818609E-02  0.8098078E-01
        1   -1    0    0  501    0  0.00000000000E+00  0.00000000000E+00  0.18062454526E+04  0.18062454526E+04  0.50400001928E-02 0. -1.
       -1   -1    0    0    0  501  0.00000000000E+00  0.00000000000E+00 -0.17611061713E+04  0.17611061713E+04  0.50400001928E-02 0.  1.
    10030    2    1    2    0    0  0.00000000000E+00  0.00000000000E+00  0.45139281241E+02  0.35673516239E+04  0.35670660288E+04 0.  0.
        2    1    3    3  502    0 -0.13357665953E+04 -0.44394607061E+03  0.11179333271E+04  0.17975359342E+04  0.25500000920E-02 0. -1.
       -2    1    3    3    0  502  0.13357665953E+04  0.44394607061E+03 -0.10727940459E+04  0.17698156897E+04  0.25500000920E-02 0.  1.
</event>
<event>
 5   0  0.2023479E-06  0.2508452E+04  0.7818609E-02  0.8399981E-01
       -2   -1    0    0    0  501  0.00000000000E+00  0.00000000000E+00  0.84425374157E+03  0.84425374157E+03  0.25500000920E-02 0.  1.
        2   -1    0    0  501    0  0.00000000000E+00  0.00000000000E+00 -0.18632819887E+04  0.18632819887E+04  0.25500000920E-02 0. -1.
    10030    2    1    2    0    0  0.00000000000E+00  0.00000000000E+00 -0.10190282471E+04  0.27075357303E+04  0.25084519454E+04 0.  0.
        5    1    3    3  502    0 -0.29903104269E+03  0.53659620654E+03 -0.16897819024E+04  0.17979822082E+04  0.46999998093E+01 0. -1.
       -5    1    3    3    0  502  0.29903104269E+03 -0.53659620654E+03  0.67075365529E+03  0.90955352204E+03  0.46999998093E+01 0.  1.
</event>
<event>
 5   0  0.1999883E-06  0.3464688E+04  0.7818609E-02  0.8122210E-01
       -2   -1    0    0    0  501  0.00000000000E+00  0.00000000000E+00  0.11107503284E+04  0.11107503284E+04  0.25500000920E-02 0. -1.
        2   -1    0    0  501    0  0.00000000000E+00  0.00000000000E+00 -0.27017913960E+04  0.27017913960E+04  0.25500000920E-02 0.  1.
    10030    2    1    2    0    0  0.00000000000E+00  0.00000000000E+00 -0.15910410676E+04  0.38125417244E+04  0.34646879688E+04 0.  0.
        4    1    3    3  502    0  0.40120136708E+03 -0.16525752184E+04 -0.43214415110E+03  0.17546274732E+04  0.12699999809E+01 0. -1.
       -4    1    3    3    0  502 -0.40120136708E+03  0.16525752184E+04 -0.11588969165E+04  0.20579142512E+04  0.12699999809E+01 0.  1.
</event>
<event>
 5   0  0.6630125E-07  0.3528074E+04  0.7818609E-02  0.8107169E-01
        1   -1    0    0  501    0  0.00000000000E+00  0.00000000000E+00  0.22264351077E+04  0.22264351077E+04  0.50400001928E-02 0.  1.
       -1   -1    0    0    0  501  0.00000000000E+00  0.00000000000E+00 -0.13976721087E+04  0.13976721087E+04  0.50400001928E-02 0. -1.
    10030    2    1    2    0    0  0.00000000000E+00  0.00000000000E+00  0.82876299898E+03  0.36241072165E+04  0.35280738382E+04 0.  0.
        5    1    3    3  502    0  0.12787731681E+04  0.14050639694E+03  0.16542154704E+04  0.20955795799E+04  0.46999998093E+01 0.  1.
       -5    1    3    3    0  502 -0.12787731681E+04 -0.14050639694E+03 -0.82545247143E+03  0.15285276366E+04  0.46999998093E+01 0. -1.
</event>
<event>
 5   0  0.6890600E-07  0.3539445E+04  0.7818609E-02  0.8104505E-01
        1   -1    0    0  501    0  0.00000000000E+00  0.00000000000E+00  0.13173882841E+04  0.13173882841E+04  0.50400001928E-02 0.  1.
       -1   -1    0    0    0  501  0.00000000000E+00  0.00000000000E+00 -0.23773681165E+04  0.23773681165E+04  0.50400001928E-02 0. -1.
    10030    2    1    2    0    0  0.00000000000E+00  0.00000000000E+00 -0.10599798324E+04  0.36947564006E+04  0.35394445348E+04 0.  0.
        3    1    3    3  502    0 -0.62831949830E+03 -0.59828928289E+03  0.10801532025E+04  0.13854480896E+04  0.10100000352E+00 0.  1.
       -3    1    3    3    0  502  0.62831949830E+03  0.59828928289E+03 -0.21401330349E+04  0.23093083110E+04  0.10100000352E+00 0. -1.
</event>
<event>
 5   0  0.6630125E-07  0.3484227E+04  0.7818609E-02  0.8117538E-01
       -1   -1    0    0    0  501  0.00000000000E+00  0.00000000000E+00  0.10012235292E+04  0.10012235292E+04  0.50400001928E-02 0. -1.
        1   -1    0    0  501    0  0.00000000000E+00  0.00000000000E+00 -0.30312509829E+04  0.30312509829E+04  0.50400001928E-02 0.  1.
    10030    2    1    2    0    0  0.00000000000E+00  0.00000000000E+00 -0.20300274537E+04  0.40324745121E+04  0.34842272067E+04 0.  0.
        4    1    3    3  502    0 -0.11320137028E+04  0.13236472598E+04 -0.10592527460E+04  0.20385080535E+04  0.12699999809E+01 0.  1.
       -4    1    3    3    0  502  0.11320137028E+04 -0.13236472598E+04 -0.97077470780E+03  0.19939664586E+04  0.12699999809E+01 0. -1.
</event>
<event>
 5   0  0.6630125E-07  0.3440760E+04  0.7818609E-02  0.8127974E-01
        1   -1    0    0  501    0  0.00000000000E+00  0.00000000000E+00  0.25497898433E+04  0.25497898434E+04  0.50400001928E-02 0. -1.
       -1   -1    0    0    0  501  0.00000000000E+00  0.00000000000E+00 -0.11607648858E+04  0.11607648858E+04  0.50400001928E-02 0.  1.
    10030    2    1    2    0    0  0.00000000000E+00  0.00000000000E+00  0.13890249575E+04  0.37105547292E+04  0.34407595187E+04 0.  0.
        5    1    3    3  502    0  0.25825443354E+03  0.15926035401E+04  0.13384993907E+04  0.20963501848E+04  0.46999998093E+01 0. -1.
       -5    1    3    3    0  502 -0.25825443354E+03 -0.15926035401E+04  0.50525566820E+02  0.16142045444E+04  0.46999998093E+01 0.  1.
</event>
<event>
 5   0  0.2001768E-06  0.3495725E+04  0.7818609E-02  0.8114804E-01
        2   -1    0    0  501    0  0.00000000000E+00  0.00000000000E+00  0.23290671788E+04  0.23290671788E+04  0.25500000920E-02 0.  1.
       -2   -1    0    0    0  501  0.00000000000E+00  0.00000000000E+00 -0.13116936517E+04  0.13116936517E+04  0.25500000920E-02 0. -1.
    10030    2    1    2    0    0  0.00000000000E+00  0.00000000000E+00  0.10173735271E+04  0.36407608305E+04  0.34957246075E+04 0.  0.
        2    1    3    3  502    0  0.10774649085E+04 -0.10226286634E+04 -0.45057130823E+03  0.15523255187E+04  0.25500000920E-02 0.  1.
       -2    1    3    3    0  502 -0.10774649085E+04  0.10226286634E+04  0.14679448353E+04  0.20884353118E+04  0.25500000920E-02 0. -1.
</event>
<event>
 5   0  0.7378896E-07  0.3669916E+04  0.7818609E-02  0.8074662E-01
       -1   -1    0    0    0  501  0.00000000000E+00  0.00000000000E+00  0.17481218109E+04  0.17481218109E+04  0.50400001928E-02 0.  1.
        1   -1    0    0  501    0  0.00000000000E+00  0.00000000000E+00 -0.19261077265E+04  0.19261077265E+04  0.50400001928E-02 0. -1.
    10030    2    1    2    0    0  0.00000000000E+00  0.00000000000E+00 -0.17798591567E+03  0.36742295374E+04  0.36699160355E+04 0.  0.
        2    1    3    3  502    0 -0.10208189167E+04 -0.61101028125E+03  0.13096694926E+04  0.17693611854E+04  0.25500000920E-02 0.  1.
       -2    1    3    3    0  502  0.10208189167E+04  0.61101028125E+03 -0.14876554083E+04  0.19048683520E+04  0.25500000920E-02 0. -1.
</event>
<event>
 5   0  0.2023479E-06  0.3501255E+04  0.7818609E-02  0.8113493E-01
        2   -1    0    0  501    0  0.00000000000E+00  0.00000000000E+00  0.25182766023E+04  0.25182766023E+04  0.25500000920E-02 0. -1.
       -2   -1    0    0    0  501  0.00000000000E+00  0.00000000000E+00 -0.12169816797E+04  0.12169816797E+04  0.25500000920E-02 0.  1.
    10030    2    1    2    0    0  0.00000000000E+00  0.00000000000E+00  0.13012949227E+04  0.37352582820E+04  0.35012549118E+04 0.  0.
        5    1    3    3  502    0 -0.11806508140E+03  0.34031023096E+02  0.25136639674E+04  0.25166696456E+04  0.46999998093E+01 0. -1.
       -5    1    3    3    0  502  0.11806508140E+03 -0.34031023096E+02 -0.12123690448E+04  0.12185886364E+04  0.46999998093E+01 0.  1.
</event>
<event>
 5   0  0.6630125E-07  0.3293478E+04  0.7818609E-02  0.8164557E-01
        1   -1    0    0  501    0  0.00000000000E+00  0.00000000000E+00  0.12679959355E+04  0.12679959355E+04  0.50400001928E-02 0. -1.
       -1   -1    0    0    0  501  0.00000000000E+00  0.00000000000E+00 -0.21386104927E+04  0.21386104927E+04  0.50400001928E-02 0.  1.
    10030    2    1    2    0    0  0.00000000000E+00  0.00000000000E+00 -0.87061455720E+03  0.34066064283E+04  0.32934780476E+04 0.  0.
        1    1    3    3  502    0 -0.16123518547E+04  0.27901756599E+03 -0.62664820398E+03  0.17522035490E+04  0.50400001928E-02 0.  1.
       -1    1    3    3    0  502  0.16123518547E+04 -0.27901756599E+03 -0.24396635322E+03  0.16544028793E+04  0.50400001928E-02 0. -1.
</event>
<event>
 5   0  0.2020725E-06  0.3489331E+04  0.7818609E-02  0.8116323E-01
        2   -1    0    0  501    0  0.00000000000E+00  0.00000000000E+00  0.25955300408E+04  0.25955300408E+04  0.25500000920E-02 0. -1.
       -2   -1    0    0    0  501  0.00000000000E+00  0.00000000000E+00 -0.11727309288E+04  0.11727309288E+04  0.25500000920E-02 0.  1.
    10030    2    1    2    0    0  0.00000000000E+00  0.00000000000E+00  0.14227991120E+04  0.37682609695E+04  0.34893313717E+04 0.  0.
        3    1    3    3  502    0 -0.15739816731E+04 -0.43469327626E+03  0.47890641973E+02  0.16336064629E+04  0.10100000352E+00 0.  1.
       -3    1    3    3    0  502  0.15739816731E+04  0.43469327626E+03  0.13749084700E+04  0.21346545067E+04  0.10100000352E+00 0. -1.
</event>
<event>
 5   0  0.2023479E-06  0.2490640E+04  0.7818609E-02  0.8406328E-01
       -2   -1    0    0    0  501  0.00000000000E+00  0.00000000000E+00  0.59074892397E+03  0.59074892398E+03  0.25500000920E-02 0. -1.
        2   -1    0    0  501    0  0.00000000000E+00  0.00000000000E+00 -0.26251803778E+04  0.26251803778E+04  0.25500000920E-02 0.  1.
    10030    2    1    2    0    0  0.00000000000E+00  0.00000000000E+00 -0.20344314539E+04  0.32159293018E+04  0.24906404666E+04 0.  0.
        5    1    3    3  502    0  0.85922346695E+03  0.47567947095E+02 -0.21794965195E+04  0.23432359771E+04  0.46999998093E+01 0.  1.
       -5    1    3    3    0  502 -0.85922346695E+03 -0.47567947095E+02  0.14506506565E+03  0.87269332472E+03  0.46999998093E+01 0. -1.
</event>
<event>
 5   0  0.2023479E-06  0.3356299E+04  0.7818609E-02  0.8148716E-01
       -2   -1    0    0    0  501  0.00000000000E+00  0.00000000000E+00  0.13650236271E+04  0.13650236271E+04  0.25500000920E-02 0. -1.
        2   -1    0    0  501    0  0.00000000000E+00  0.00000000000E+00 -0.20631042450E+04  0.20631042450E+04  0.25500000920E-02 0.  1.
    10030    2    1    2    0    0  0.00000000000E+00  0.00000000000E+00 -0.69808061791E+03  0.34281278721E+04  0.33562991759E+04 0.  0.
        5    1    3    3  502    0 -0.11230609761E+04  0.58880301918E+03 -0.14717497630E+04  0.19426848448E+04  0.46999998093E+01 0.  1.
       -5    1    3    3    0  502  0.11230609761E+04 -0.58880301918E+03  0.77366914507E+03  0.14854430273E+04  0.46999998093E+01 0. -1.
</event>
<event>
 5   0  0.2020725E-06  0.3518686E+04  0.7818609E-02  0.8109376E-01
       -2   -1    0    0    0  501  0.00000000000E+00  0.00000000000E+00  0.22760117908E+04  0.22760117908E+04  0.25500000920E-02 0.  1.
        2   -1    0    0  501    0  0.00000000000E+00  0.00000000000E+00 -0.13599614255E+04  0.13599614255E+04  0.25500000920E-02 0. -1.
    10030    2    1    2    0    0  0.00000000000E+00  0.00000000000E+00  0.91605036538E+03  0.36359732163E+04  0.35186862545E+04 0.  0.
        3    1    3    3  502    0 -0.13475811737E+04  0.35857310419E+03  0.15665067097E+04  0.20972584420E+04  0.10100000352E+00 0.  1.
       -3    1    3    3    0  502  0.13475811737E+04 -0.35857310419E+03 -0.65045634432E+03  0.15387147743E+04  0.10100000352E+00 0. -1.
</event>
<event>
 5   0  0.6630125E-07  0.3526670E+04  0.7818609E-02  0.8107498E-01
        1   -1    0    0  501    0  0.00000000000E+00  0.00000000000E+00  0.21109721937E+04  0.21109721937E+04  0.50400001928E-02 0.  1.
       -1   -1    0    0    0  501  0.00000000000E+00  0.00000000000E+00 -0.14729471738E+04  0.14729471738E+04  0.50400001928E-02 0. -1.
    10030    2    1    2    0    0  0.00000000000E+00  0.00000000000E+00  0.63802501991E+03  0.35839193675E+04  0.35266701159E+04 0.  0.
        1    1    3    3  502    0 -0.35134908502E+03  0.50909491390E+03  0.19970984516E+04  0.20906998915E+04  0.50400001928E-02 0.  1.
       -1    1    3    3    0  502  0.35134908502E+03 -0.50909491390E+03 -0.13590734317E+04  0.14932194760E+04  0.50400001928E-02 0. -1.
</event>
<event>
 5   0  0.6630125E-07  0.2451789E+04  0.7818609E-02  0.8420365E-01
        1   -1    0    0  501    0  0.00000000000E+00  0.00000000000E+00  0.13724157284E+04  0.13724157284E+04  0.50400001928E-02 0.  1.
       -1   -1    0    0    0  501  0.00000000000E+00  0.00000000000E+00 -0.10950157261E+04  0.10950157261E+04  0.50400001928E-02 0. -1.
    10030    2    1    2    0    0  0.00000000000E+00  0.00000000000E+00  0.27740000225E+03  0.24674314545E+04  0.24517885760E+04 0.  0.
        4    1    3    3  502    0  0.77007178128E+03  0.93510592594E+03  0.32799995834E+03  0.12549976998E+04  0.12699999809E+01 0.  1.
       -4    1    3    3    0  502 -0.77007178128E+03 -0.93510592594E+03 -0.50599956093E+02  0.12124337547E+04  0.12699999809E+01 0. -1.
</event>
<event>
 5   0  0.6630125E-07  0.3349443E+04  0.7818609E-02  0.8150427E-01
        1   -1    0    0  501    0  0.00000000000E+00  0.00000000000E+00  0.17465487245E+04  0.17465487245E+04  0.50400001928E-02 0.  1.
       -1   -1    0    0    0  501  0.00000000000E+00  0.00000000000E+00 -0.16058485950E+04  0.16058485950E+04  0.50400001928E-02 0. -1.
    10030    2    1    2    0    0  0.00000000000E+00  0.00000000000E+00  0.14070012956E+03  0.33523973195E+04  0.33494434256E+04 0.  0.
        5    1    3    3  502    0  0.14468696132E+04 -0.84180542970E+03  0.12141139056E+03  0.16783417038E+04  0.46999998093E+01 0. -1.
       -5    1    3    3    0  502 -0.14468696132E+04  0.84180542970E+03  0.19288739005E+02  0.16740556157E+04  0.46999998093E+01 0.  1.
</event>
<event>
 5   0  0.2001768E-06  0.3372400E+04  0.7818609E-02  0.8144714E-01
        2   -1    0    0  501    0  0.00000000000E+00  0.00000000000E+00  0.18687315592E+04  0.18687315592E+04  0.25500000920E-02 0.  1.
       -2   -1    0    0    0  501  0.00000000000E+00  0.00000000000E+00 -0.15214973645E+04  0.15214973645E+04  0.25500000920E-02 0. -1.
    10030    2    1    2    0    0  0.00000000000E+00  0.00000000000E+00  0.34723419467E+03  0.33902289237E+04  0.33723998234E+04 0.  0.
        2    1    3    3  502    0  0.18248887188E+03 -0.35214199848E+03  0.18211726149E+04  0.18638604746E+04  0.25500000920E-02 0.  1.
       -2    1    3    3    0  502 -0.18248887188E+03  0.35214199848E+03 -0.14739384203E+04  0.15263684490E+04  0.25500000920E-02 0. -1.
</event>
<event>
 5   0  0.6890600E-07  0.3440799E+04  0.7818609E-02  0.8127965E-01
       -1   -1    0    0    0  501  0.00000000000E+00  0.00000000000E+00  0.26092344075E+04  0.26092344075E+04  0.50400001928E-02 0. -1.
        1   -1    0    0  501    0  0.00000000000E+00  0.00000000000E+00 -0.11343461482E+04  0.11343461482E+04  0.50400001928E-02 0.  1.
    10030    2    1    2    0    0  0.00000000000E+00  0.00000000000E+00  0.14748882593E+04  0.37435805557E+04  0.34407993257E+04 0.  0.
        3    1    3    3  502    0  0.10280388255E+04  0.72070978998E+02 -0.76135542459E+03  0.12812962754E+04  0.10100000352E+00 0.  1.
       -3    1    3    3    0  502 -0.10280388255E+04 -0.72070978998E+02  0.22362436839E+04  0.24622842802E+04  0.10100000352E+00 0. -1.
</event>
<event>
 5   0  0.6630125E-07  0.3670840E+04  0.7818609E-02  0.8074455E-01
        1   -1    0    0  501    0  0.00000000000E+00  0.00000000000E+00  0.21571904100E+04  0.21571904100E+04  0.50400001928E-02 0.  1.
       -1   -1    0    0    0  501  0.00000000000E+00  0.00000000000E+00 -0.15616452866E+04  0.15616452866E+04  0.50400001928E-02 0. -1.
    10030    2    1    2    0    0  0.00000000000E+00  0.00000000000E+00  0.59554512333E+03  0.37188356966E+04  0.36708398146E+04 0.  0.
        4    1    3    3  502    0  0.15509581983E+04 -0.72342261839E+03  0.96973454297E+03  0.19670277869E+04  0.12699999809E+01 0.  1.
       -4    1    3    3    0  502 -0.15509581983E+04  0.72342261839E+03 -0.37418941963E+03  0.17518079097E+04  0.12699999809E+01 0. -1.
</event>
<event>
 5   0  0.1999883E-06  0.3481561E+04  0.7818609E-02  0.8118174E-01
        2   -1    0    0  501    0  0.00000000000E+00  0.00000000000E+00  0.13456911692E+04  0.13456911692E+04  0.25500000920E-02 0.  1.
       -2   -1    0    0    0  501  0.00000000000E+00  0.00000000000E+00 -0.22518670470E+04  0.22518670470E+04  0.25500000920E-02 0. -1.
    10030    2    1    2    0    0  0.00000000000E+00  0.00000000000E+00 -0.90617587779E+03  0.35975582162E+04  0.34815614884E+04 0.  0.
        4    1    3    3  502    0 -0.14663929601E+04  0.73877997679E+03 -0.10504596643E+04  0.19492489032E+04  0.12699999809E+01 0.  1.
       -4    1    3    3    0  502  0.14663929601E+04 -0.73877997679E+03  0.14428378649E+03  0.16483093130E+04  0.12699999809E+01 0. -1.
</event>
<event>
 5   0  0.6630125E-07  0.3646909E+04  0.7818609E-02  0.8079830E-01
        1   -1    0    0  501    0  0.00000000000E+00  0.00000000000E+00  0.15636388698E+04  0.15636388698E+04  0.50400001928E-02 0. -1.
       -1   -1    0    0    0  501  0.00000000000E+00  0.00000000000E+00 -0.21264418924E+04  0.21264418924E+04  0.50400001928E-02 0.  1.
    10030    2    1    2    0    0  0.00000000000E+00  0.00000000000E+00 -0.56280302266E+03  0.36900807622E+04  0.36469094846E+04 0.  0.
        4    1    3    3  502    0 -0.50348386800E+02  0.86525146676E+03  0.13418936187E+04  0.15974589690E+04  0.12699999809E+01 0. -1.
       -4    1    3    3    0  502  0.50348386800E+02 -0.86525146676E+03 -0.19046966414E+04  0.20926217932E+04  0.12699999809E+01 0.  1.
</event>
<event>
 5   0  0.6630125E-07  0.3475961E+04  0.7818609E-02  0.8119511E-01
       -1   -1    0    0    0  501  0.00000000000E+00  0.00000000000E+00  0.18092706324E+04  0.18092706324E+04  0.50400001928E-02 0. -1.
        1   -1    0    0  501    0  0.00000000000E+00  0.00000000000E+00 -0.16694991093E+04  0.16694991094E+04  0.50400001928E-02 0.  1.
    10030    2    1    2    0    0  0.00000000000E+00  0.00000000000E+00  0.13977152301E+03  0.34787697417E+04  0.34759607071E+04 0.  0.
        4    1    3    3  502    0 -0.47063662500E+03 -0.36717473251E+03 -0.15636888046E+04  0.16737504018E+04  0.12699999809E+01 0.  1.
       -4    1    3    3    0  502  0.47063662500E+03  0.36717473251E+03  0.17034603276E+04  0.18050193399E+04  0.12699999809E+01 0. -1.
</event>
<event>
 5   0  0.6630125E-07  0.3523873E+04  0.7818609E-02  0.8108155E-01
        1   -1    0    0  501    0  0.00000000000E+00  0.00000000000E+00  0.16271180290E+04  0.16271180290E+04  0.50400001928E-02 0. -1.
       -1   -1    0    0    0  501  0.00000000000E+00  0.00000000000E+00 -0.19079260281E+04  0.19079260281E+04  0.50400001928E-02 0.  1.
    10030    2    1    2    0    0  0.00000000000E+00  0.00000000000E+00 -0.28080799911E+03  0.35350440572E+04  0.35238733453E+04 0.  0.
        1    1    3    3  502    0 -0.22134610167E+03 -0.91846705336E+03  0.13515378155E+04  0.16490088816E+04  0.50400001928E-02 0. -1.
       -1    1    3    3    0  502  0.22134610167E+03  0.91846705336E+03 -0.16323458146E+04  0.18860351756E+04  0.50400001928E-02 0.  1.
</event>
<event>
 5   0  0.2073287E-06  0.3525492E+04  0.7818609E-02  0.8107775E-01
       -2   -1    0    0    0  501  0.00000000000E+00  0.00000000000E+00  0.15065627920E+04  0.15065627920E+04  0.25500000920E-02 0. -1.
        2   -1    0    0  501    0  0.00000000000E+00  0.00000000000E+00 -0.20624922499E+04  0.20624922499E+04  0.25500000920E-02 0.  1.
    10030    2    1    2    0    0  0.00000000000E+00  0.00000000000E+00 -0.55592945783E+03  0.35690550419E+04  0.35254923529E+04 0.  0.
        1    1    3    3  502    0 -0.82843919185E+03 -0.14066100600E+04  0.39539368794E+03  0.16796426774E+04  0.50400001928E-02 0. -1.
       -1    1    3    3    0  502  0.82843919185E+03  0.14066100600E+04 -0.95132314577E+03  0.18894123645E+04  0.50400001928E-02 0.  1.
</event>
<event>
 5   0  0.6890600E-07  0.3177597E+04  0.7818609E-02  0.8194759E-01
        1   -1    0    0  501    0  0.00000000000E+00  0.00000000000E+00  0.13061100382E+04  0.13061100382E+04  0.50400001928E-02 0.  1.
       -1   -1    0    0    0  501  0.00000000000E+00  0.00000000000E+00 -0.19326704787E+04  0.19326704787E+04  0.50400001928E-02 0. -1.
    10030    2    1    2    0    0  0.00000000000E+00  0.00000000000E+00 -0.62656044056E+03  0.32387805169E+04  0.31775967729E+04 0.  0.
        3    1    3    3  502    0 -0.10423330294E+04 -0.10561362220E+04  0.26545404635E+03  0.15074308357E+04  0.10100000352E+00 0.  1.
       -3    1    3    3    0  502  0.10423330294E+04  0.10561362220E+04 -0.89201448691E+03  0.17313496812E+04  0.10100000352E+00 0. -1.
</event>
<event>
 5   0  0.2001768E-06  0.3541890E+04  0.7818609E-02  0.8103934E-01
       -2   -1    0    0    0  501  0.00000000000E+00  0.00000000000E+00  0.18993603122E+04  0.18993603122E+04  0.25500000920E-02 0. -1.
        2   -1    0    0  501    0  0.00000000000E+00  0.00000000000E+00 -0.16512120949E+04  0.16512120949E+04  0.25500000920E-02 0.  1.
    10030    2    1    2    0    0  0.00000000000E+00  0.00000000000E+00  0.24814821730E+03  0.35505724071E+04  0.35418902976E+04 0.  0.
        2    1    3    3  502    0  0.14471799422E+04 -0.88724471974E+03 -0.38185475411E+03  0.17399270189E+04  0.25500000920E-02 0. -1.
       -2    1    3    3    0  502 -0.14471799422E+04  0.88724471974E+03  0.63000297141E+03  0.18106453882E+04  0.25500000920E-02 0.  1.
</event>
<event>
 5   0  0.2020725E-06  0.3436406E+04  0.7818609E-02  0.8129028E-01
       -2   -1    0    0    0  501  0.00000000000E+00  0.00000000000E+00  0.18720750864E+04  0.18720750864E+04  0.25500000920E-02 0.  1.
        2   -1    0    0  501    0  0.00000000000E+00  0.00000000000E+00 -0.15769782735E+04  0.15769782735E+04  0.25500000920E-02 0. -1.
    10030    2    1    2    0    0  0.00000000000E+00  0.00000000000E+00  0.29509681296E+03  0.34490533599E+04  0.34364061096E+04 0.  0.
        3    1    3    3  502    0  0.17042039641E+03 -0.42979554495E+03 -0.15133695794E+04  0.15824205560E+04  0.10100000352E+00 0. -1.
       -3    1    3    3    0  502 -0.17042039641E+03  0.42979554495E+03  0.18084663924E+04  0.18666328039E+04  0.10100000352E+00 0.  1.
</event>
<event>
 5   0  0.6630125E-07  0.3514148E+04  0.7818609E-02  0.8110445E-01
        3   -1    0    0  501    0  0.00000000000E+00  0.00000000000E+00  0.15714276664E+04  0.15714276696E+04  0.10100000352E+00 0.  1.
       -3   -1    0    0    0  501  0.00000000000E+00  0.00000000000E+00 -0.19646521363E+04  0.19646521389E+04  0.10100000352E+00 0. -1.
    10030    2    1    2    0    0  0.00000000000E+00  0.00000000000E+00 -0.39322446992E+03  0.35360798085E+04  0.35141478239E+04 0.  0.
        3    1    3    3  502    0  0.15894679202E+03  0.10694998198E+04  0.11970279096E+04  0.16130622350E+04  0.10100000352E+00 0.  1.
       -3    1    3    3    0  502 -0.15894679202E+03 -0.10694998198E+04 -0.15902523795E+04  0.19230175735E+04  0.10100000352E+00 0. -1.
</event>
<event>
 5   0  0.6630125E-07  0.3486224E+04  0.7818609E-02  0.8117062E-01
       -1   -1    0    0    0  501  0.00000000000E+00  0.00000000000E+00  0.94944290929E+03  0.94944290931E+03  0.50400001928E-02 0. -1.
        1   -1    0    0  501    0  0.00000000000E+00  0.00000000000E+00 -0.32002336599E+04  0.32002336599E+04  0.50400001928E-02 0.  1.
    10030    2    1    2    0    0  0.00000000000E+00  0.00000000000E+00 -0.22507907506E+04  0.41496765692E+04  0.34862238347E+04 0.  0.
        5    1    3    3  502    0 -0.34006530474E+03  0.13933271327E+04 -0.23045878456E+04  0.27144340365E+04  0.46999998093E+01 0.  1.
       -5    1    3    3    0  502  0.34006530474E+03 -0.13933271327E+04  0.53797095018E+02  0.14352425327E+04  0.46999998093E+01 0. -1.
</event>
<event>
 5   0  0.1999883E-06  0.3519816E+04  0.7818609E-02  0.8109110E-01
        2   -1    0    0  501    0  0.00000000000E+00  0.00000000000E+00  0.18912774959E+04  0.18912774959E+04  0.25500000920E-02 0. -1.
       -2   -1    0    0    0  501  0.00000000000E+00  0.00000000000E+00 -0.16376634077E+04  0.16376634077E+04  0.25500000920E-02 0.  1.
    10030    2    1    2    0    0  0.00000000000E+00  0.00000000000E+00  0.25361408823E+03  0.35289409037E+04  0.35198158753E+04 0.  0.
        4    1    3    3  502    0 -0.12140859294E+04  0.69867531880E+03  0.11949903942E+04  0.18412374915E+04  0.12699999809E+01 0. -1.
       -4    1    3    3    0  502  0.12140859294E+04 -0.69867531880E+03 -0.94137630595E+03  0.16877034121E+04  0.12699999809E+01 0.  1.
</event>
<event>
 5   0  0.1999883E-06  0.3513044E+04  0.7818609E-02  0.8110706E-01
       -2   -1    0    0    0  501  0.00000000000E+00  0.00000000000E+00  0.11494949182E+04  0.11494949182E+04  0.25500000920E-02 0. -1.
        2   -1    0    0  501    0  0.00000000000E+00  0.00000000000E+00 -0.26841093927E+04  0.26841093927E+04  0.25500000920E-02 0.  1.
    10030    2    1    2    0    0  0.00000000000E+00  0.00000000000E+00 -0.15346144745E+04  0.38336043110E+04  0.35130443247E+04 0.  0.
        4    1    3    3  502    0  0.11052279858E+04  0.27221753118E+03  0.69257656159E+03  0.13324020382E+04  0.12699999809E+01 0. -1.
       -4    1    3    3    0  502 -0.11052279858E+04 -0.27221753118E+03 -0.22271910361E+04  0.25012022727E+04  0.12699999809E+01 0.  1.
</event>
<event>
 5   0  0.2001768E-06  0.3468896E+04  0.7818609E-02  0.8121201E-01
        2   -1    0    0  501    0  0.00000000000E+00  0.00000000000E+00  0.15850973469E+04  0.15850973469E+04  0.25500000920E-02 0.  1.
       -2   -1    0    0    0  501  0.00000000000E+00  0.00000000000E+00 -0.18978703897E+04  0.18978703897E+04  0.25500000920E-02 0. -1.
    10030    2    1    2    0    0  0.00000000000E+00  0.00000000000E+00 -0.31277304282E+03  0.34829677366E+04  0.34688956857E+04 0.  0.
        2    1    3    3  502    0 -0.67930603737E+03 -0.86501947506E+03 -0.15029436197E+04  0.18624056778E+04  0.25500000920E-02 0. -1.
       -2    1    3    3    0  502  0.67930603737E+03  0.86501947506E+03  0.11901705769E+04  0.16205620589E+04  0.25500000920E-02 0.  1.
</event>
<event>
 5   0  0.6630125E-07  0.3846617E+04  0.7818609E-02  0.8036224E-01
        1   -1    0    0  501    0  0.00000000000E+00  0.00000000000E+00  0.14415709063E+04  0.14415709063E+04  0.50400001928E-02 0. -1.
       -1   -1    0    0    0  501  0.00000000000E+00  0.00000000000E+00 -0.25660315577E+04  0.25660315577E+04  0.50400001928E-02 0.  1.
    10030    2    1    2    0    0  0.00000000000E+00  0.00000000000E+00 -0.11244606514E+04  0.40076024640E+04  0.38466174430E+04 0.  0.
        5    1    3    3  502    0 -0.14749447260E+04 -0.67493493148E+03 -0.16389697839E+04  0.23059148182E+04  0.46999998093E+01 0.  1.
       -5    1    3    3    0  502  0.14749447260E+04  0.67493493148E+03  0.51450913247E+03  0.17016876458E+04  0.46999998093E+01 0. -1.
</event>
<event>
 5   0  0.2020725E-06  0.3513760E+04  0.7818609E-02  0.8110537E-01
        2   -1    0    0  501    0  0.00000000000E+00  0.00000000000E+00  0.25245169682E+04  0.25245169682E+04  0.25500000920E-02 0.  1.
       -2   -1    0    0    0  501  0.00000000000E+00  0.00000000000E+00 -0.12226608229E+04  0.12226608229E+04  0.25500000920E-02 0. -1.
    10030    2    1    2    0    0  0.00000000000E+00  0.00000000000E+00  0.13018561453E+04  0.37471777912E+04  0.35137603754E+04 0.  0.
        3    1    3    3  502    0 -0.14418733671E+04  0.96689373525E+03  0.93855912337E+03  0.19735185685E+04  0.10100000352E+00 0.  1.
       -3    1    3    3    0  502  0.14418733671E+04 -0.96689373525E+03  0.36329702195E+03  0.17736592227E+04  0.10100000352E+00 0. -1.
</event>
<event>
 5   0  0.6630125E-07  0.3523434E+04  0.7818609E-02  0.8108259E-01
        3   -1    0    0  501    0  0.00000000000E+00  0.00000000000E+00  0.21139446765E+04  0.21139446789E+04  0.10100000352E+00 0.  1.
       -3   -1    0    0    0  501  0.00000000000E+00  0.00000000000E+00 -0.14681778119E+04  0.14681778154E+04  0.10100000352E+00 0. -1.
    10030    2    1    2    0    0  0.00000000000E+00  0.00000000000E+00  0.64576686460E+03  0.35821224943E+04  0.35234339388E+04 0.  0.
        2    1    3    3  502    0 -0.14505869008E+04  0.13292765829E+03 -0.68446609520E+03  0.16094613865E+04  0.25500000920E-02 0. -1.
       -2    1    3    3    0  502  0.14505869008E+04 -0.13292765829E+03  0.13302329598E+04  0.19726611079E+04  0.25500000920E-02 0.  1.
</event>
<event>
 5   0  0.6890600E-07  0.3526781E+04  0.7818609E-02  0.8107472E-01
       -1   -1    0    0    0  501  0.00000000000E+00  0.00000000000E+00  0.16525898973E+04  0.16525898973E+04  0.50400001928E-02 0. -1.
        1   -1    0    0  501    0  0.00000000000E+00  0.00000000000E+00 -0.18816198501E+04  0.18816198501E+04  0.50400001928E-02 0.  1.
    10030    2    1    2    0    0  0.00000000000E+00  0.00000000000E+00 -0.22902995276E+03  0.35342097474E+04  0.35267809429E+04 0.  0.
        3    1    3    3  502    0 -0.16497290240E+04 -0.46884191604E+03 -0.52541202179E+03  0.17937325324E+04  0.10100000352E+00 0. -1.
       -3    1    3    3    0  502  0.16497290240E+04  0.46884191604E+03  0.29638206903E+03  0.17404772150E+04  0.10100000352E+00 0.  1.
</event>
<event>
 5   0  0.6630125E-07  0.3480217E+04  0.7818609E-02  0.8118494E-01
       -3   -1    0    0    0  501  0.00000000000E+00  0.00000000000E+00  0.15093489800E+04  0.15093489834E+04  0.10100000352E+00 0. -1.
        3   -1    0    0  501    0  0.00000000000E+00  0.00000000000E+00 -0.20061486169E+04  0.20061486195E+04  0.10100000352E+00 0.  1.
    10030    2    1    2    0    0  0.00000000000E+00  0.00000000000E+00 -0.49679963694E+03  0.35154976029E+04  0.34802174525E+04 0.  0.
        4    1    3    3  502    0 -0.24838270198E+03  0.11555578155E+04  0.10416404592E+04  0.15754441567E+04  0.12699999809E+01 0. -1.
       -4    1    3    3    0  502  0.24838270198E+03 -0.11555578155E+04 -0.15384400962E+04  0.19400534462E+04  0.12699999809E+01 0.  1.
</event>
<event>
 5   0  0.1999883E-06  0.3521107E+04  0.7818609E-02  0.8108806E-01
        2   -1    0    0  501    0  0.00000000000E+00  0.00000000000E+00  0.13823673503E+04  0.13823673503E+04  0.25500000920E-02 0. -1.
       -2   -1    0    0    0  501  0.00000000000E+00  0.00000000000E+00 -0.22422030074E+04  0.22422030074E+04  0.25500000920E-02 0.  1.
    10030    2    1    2    0    0  0.00000000000E+00  0.00000000000E+00 -0.85983565706E+03  0.36245703577E+04  0.35211067750E+04 0.  0.
        4    1    3    3  502    0 -0.12640672763E+04  0.11023873552E+04 -0.98082829617E+03  0.19429744516E+04  0.12699999809E+01 0.  1.
       -4    1    3    3    0  502  0.12640672763E+04 -0.11023873552E+04  0.12099263911E+03  0.16815959062E+04  0.12699999809E+01 0. -1.
</event>
<event>
 5   0  0.6630125E-07  0.3244492E+04  0.7818609E-02  0.8177165E-01
       -1   -1    0    0    0  501  0.00000000000E+00  0.00000000000E+00  0.15645480056E+04  0.15645480056E+04  0.50400001928E-02 0. -1.
        1   -1    0    0  501    0  0.00000000000E+00  0.00000000000E+00 -0.16820722387E+04  0.16820722387E+04  0.50400001928E-02 0.  1.
    10030    2    1    2    0    0  0.00000000000E+00  0.00000000000E+00 -0.11752423309E+03  0.32466202442E+04  0.32444924202E+04 0.  0.
        4    1    3    3  502    0 -0.10175460278E+04  0.10142364064E+04  0.69512812240E+03  0.15960200896E+04  0.12699999809E+01 0. -1.
       -4    1    3    3    0  502  0.10175460278E+04 -0.10142364064E+04 -0.81265235549E+03  0.16506001547E+04  0.12699999809E+01 0.  1.
</event>
<event>
 5   0  0.6890600E-07  0.2293253E+04  0.7818609E-02  0.8480586E-01
        1   -1    0    0  501    0  0.00000000000E+00  0.00000000000E+00  0.15971115577E+04  0.15971115577E+04  0.50400001928E-02 0.  1.
       -1   -1    0    0    0  501  0.00000000000E+00  0.00000000000E+00 -0.82320636874E+03  0.82320636875E+03  0.50400001928E-02 0. -1.
    10030    2    1    2    0    0  0.00000000000E+00  0.00000000000E+00  0.77390518897E+03  0.24203179265E+04  0.22932530658E+04 0.  0.
        3    1    3    3  502    0  0.13396883369E+03 -0.64083138933E+03 -0.60655587832E+03  0.89248112679E+03  0.10100000352E+00 0. -1.
       -3    1    3    3    0  502 -0.13396883369E+03  0.64083138933E+03  0.13804610673E+04  0.15278367997E+04  0.10100000352E+00 0.  1.
</event>
<event>
 5   0  0.2001768E-06  0.3489560E+04  0.7818609E-02  0.8116269E-01
       -2   -1    0    0    0  501  0.00000000000E+00  0.00000000000E+00  0.13962100690E+04  0.13962100690E+04  0.25500000920E-02 0. -1.
        2   -1    0    0  501    0  0.00000000000E+00  0.00000000000E+00 -0.21803720718E+04  0.21803720718E+04  0.25500000920E-02 0.  1.
    10030    2    1    2    0    0  0.00000000000E+00  0.00000000000E+00 -0.78416200280E+03  0.35765821408E+04  0.34895601103E+04 0.  0.
        2    1    3    3  502    0 -0.14093505232E+04  0.75930315088E+03  0.31908646919E+03  0.16323683246E+04  0.25500000920E-02 0. -1.
       -2    1    3    3    0  502  0.14093505232E+04 -0.75930315088E+03 -0.11032484720E+04  0.19442138162E+04  0.25500000920E-02 0.  1.
</event>
<event>
 5   0  0.6890600E-07  0.3461532E+04  0.7818609E-02  0.8122967E-01
        1   -1    0    0  501    0  0.00000000000E+00  0.00000000000E+00  0.12822410511E+04  0.12822410511E+04  0.50400001928E-02 0. -1.
       -1   -1    0    0    0  501  0.00000000000E+00  0.00000000000E+00 -0.23361838223E+04  0.23361838223E+04  0.50400001928E-02 0.  1.
    10030    2    1    2    0    0  0.00000000000E+00  0.00000000000E+00 -0.10539427712E+04  0.36184248734E+04  0.34615319152E+04 0.  0.
        3    1    3    3  502    0 -0.39774834949E+03  0.52757513090E+03  0.11452252319E+04  0.13221498063E+04  0.10100000352E+00 0. -1.
       -3    1    3    3    0  502  0.39774834949E+03 -0.52757513090E+03 -0.21991680030E+04  0.22962750672E+04  0.10100000352E+00 0.  1.
</event>
<event>
 5   0  0.1999883E-06  0.3472530E+04  0.7818609E-02  0.8120331E-01
       -2   -1    0    0    0  501  0.00000000000E+00  0.00000000000E+00  0.12712686561E+04  0.12712686561E+04  0.25500000920E-02 0. -1.
        2   -1    0    0  501    0  0.00000000000E+00  0.00000000000E+00 -0.23713444447E+04  0.23713444447E+04  0.25500000920E-02 0.  1.
    10030    2    1    2    0    0  0.00000000000E+00  0.00000000000E+00 -0.11000757886E+04  0.36426131008E+04  0.34725298360E+04 0.  0.
        4    1    3    3  502    0 -0.20455504947E+03  0.16467763436E+04 -0.14237043957E+02  0.16594937181E+04  0.12699999809E+01 0. -1.
       -4    1    3    3    0  502  0.20455504947E+03 -0.16467763436E+04 -0.10858387447E+04  0.19831193828E+04  0.12699999809E+01 0.  1.
</event>
<event>
 5   0  0.2073287E-06  0.3475348E+04  0.7818609E-02  0.8119657E-01
       -2   -1    0    0    0  501  0.00000000000E+00  0.00000000000E+00  0.20862498579E+04  0.20862498579E+04  0.25500000920E-02 0.  1.
        2   -1    0    0  501    0  0.00000000000E+00  0.00000000000E+00 -0.14473390935E+04  0.14473390935E+04  0.25500000920E-02 0. -1.
    10030    2    1    2    0    0  0.00000000000E+00  0.00000000000E+00  0.63891076444E+03  0.35335889514E+04  0.34753480275E+04 0.  0.
        1    1    3    3  502    0 -0.10685062011E+04  0.96057625351E+03 -0.67421389360E+03  0.15871284179E+04  0.50400001928E-02 0. -1.
       -1    1    3    3    0  502  0.10685062011E+04 -0.96057625351E+03  0.13131246580E+04  0.19464605335E+04  0.50400001928E-02 0.  1.
</event>
<event>
 5   0  0.2073287E-06  0.3101312E+04  0.7818609E-02  0.8215378E-01
        2   -1    0    0  501    0  0.00000000000E+00  0.00000000000E+00  0.22843291295E+04  0.22843291295E+04  0.25500000920E-02 0. -1.
       -2   -1    0    0    0  501  0.00000000000E+00  0.00000000000E+00 -0.10526215731E+04  0.10526215731E+04  0.25500000920E-02 0.  1.
    10030    2    1    2    0    0  0.00000000000E+00  0.00000000000E+00  0.12317075564E+04  0.33369507026E+04  0.31013120589E+04 0.  0.
        1    1    3    3  502    0  0.69332783964E+03 -0.13426856313E+04  0.99017420413E+03  0.18066414011E+04  0.50400001928E-02 0. -1.
       -1    1    3    3    0  502 -0.69332783964E+03  0.13426856313E+04  0.24153335229E+03  0.15303093014E+04  0.50400001928E-02 0.  1.
</event>
<event>
 5   0  0.2020725E-06  0.3481295E+04  0.7818609E-02  0.8118237E-01
       -2   -1    0    0    0  501  0.00000000000E+00  0.00000000000E+00  0.17006718846E+04  0.17006718846E+04  0.25500000920E-02 0.  1.
        2   -1    0    0  501    0  0.00000000000E+00  0.00000000000E+00 -0.17815625532E+04  0.17815625532E+04  0.25500000920E-02 0. -1.
    10030    2    1    2    0    0  0.00000000000E+00  0.00000000000E+00 -0.80890668551E+02  0.34822344378E+04  0.34812947849E+04 0.  0.
        3    1    3    3  502    0 -0.11509703289E+04 -0.21685050265E+02  0.12655296808E+04  0.17107800334E+04  0.10100000352E+00 0.  1.
       -3    1    3    3    0  502  0.11509703289E+04  0.21685050265E+02 -0.13464203493E+04  0.17714544044E+04  0.10100000352E+00 0. -1.
</event>
<event>
 5   0  0.2023479E-06  0.3506122E+04  0.7818609E-02  0.8112341E-01
        2   -1    0    0  501    0  0.00000000000E+00  0.00000000000E+00  0.21592577110E+04  0.21592577110E+04  0.25500000920E-02 0.  1.
       -2   -1    0    0    0  501  0.00000000000E+00  0.00000000000E+00 -0.14232777619E+04  0.14232777619E+04  0.25500000920E-02 0. -1.
    10030    2    1    2    0    0  0.00000000000E+00  0.00000000000E+00  0.73597994910E+03  0.35825354728E+04  0.35061223494E+04 0.  0.
        5    1    3    3  502    0  0.85274378526E+03  0.28343036293E+03 -0.11700382815E+04  0.14753021399E+04  0.46999998093E+01 0. -1.
       -5    1    3    3    0  502 -0.85274378526E+03 -0.28343036293E+03  0.19060182306E+04  0.21072333329E+04  0.46999998093E+01 0.  1.
</event>
<event>
 5   0  0.6890600E-07  0.2806160E+04  0.7818609E-02  0.8301358E-01
       -1   -1    0    0    0  501  0.00000000000E+00  0.00000000000E+00  0.13061898884E+04  0.13061898884E+04  0.50400001928E-02 0.  1.
        1   -1    0    0  501    0  0.00000000000E+00  0.00000000000E+00 -0.15071576951E+04  0.15071576951E+04  0.50400001928E-02 0. -1.
    10030    2    1    2    0    0  0.00000000000E+00  0.00000000000E+00 -0.20096780670E+03  0.28133475836E+04  0.28061604670E+04 0.  0.
        3    1    3    3  502    0 -0.61684175295E+03  0.26257411348E+03 -0.13361970925E+04  0.14949453480E+04  0.10100000352E+00 0. -1.
       -3    1    3    3    0  502  0.61684175295E+03 -0.26257411348E+03  0.11352292858E+04  0.13184022356E+04  0.10100000352E+00 0.  1.
</event>
<event>
 5   0  0.6630125E-07  0.3384090E+04  0.7818609E-02  0.8141822E-01
       -1   -1    0    0    0  501  0.00000000000E+00  0.00000000000E+00  0.16318341006E+04  0.16318341006E+04  0.50400001928E-02 0. -1.
        1   -1    0    0  501    0  0.00000000000E+00  0.00000000000E+00 -0.17544770370E+04  0.17544770370E+04  0.50400001928E-02 0.  1.
    10030    2    1    2    0    0  0.00000000000E+00  0.00000000000E+00 -0.12264293644E+03  0.33863111376E+04  0.33840895128E+04 0.  0.
        4    1    3    3  502    0  0.13765622202E+04  0.34274039040E+02 -0.10452856691E+04  0.17287920635E+04  0.12699999809E+01 0.  1.
       -4    1    3    3    0  502 -0.13765622202E+04 -0.34274039040E+02  0.92264273271E+03  0.16575190741E+04  0.12699999809E+01 0. -1.
</event>
<event>
 5   0  0.1999883E-06  0.2911650E+04  0.7818609E-02  0.8269420E-01
        2   -1    0    0  501    0  0.00000000000E+00  0.00000000000E+00  0.13918533702E+04  0.13918533702E+04  0.25500000920E-02 0. -1.
       -2   -1    0    0    0  501  0.00000000000E+00  0.00000000000E+00 -0.15227369976E+04  0.15227369976E+04  0.25500000920E-02 0.  1.
    10030    2    1    2    0    0  0.00000000000E+00  0.00000000000E+00 -0.13088362743E+03  0.29145903678E+04  0.29116501315E+04 0.  0.
        4    1    3    3  502    0  0.15165932418E+03 -0.54618569953E+03 -0.14077305279E+04  0.15175724763E+04  0.12699999809E+01 0.  1.
       -4    1    3    3    0  502 -0.15165932418E+03  0.54618569953E+03  0.12768469004E+04  0.13970178915E+04  0.12699999809E+01 0. -1.
</event>
<event>
 5   0  0.6890600E-07  0.2216616E+04  0.7818609E-02  0.8511544E-01
       -1   -1    0    0    0  501  0.00000000000E+00  0.00000000000E+00  0.11922408813E+04  0.11922408813E+04  0.50400001928E-02 0.  1.
        1   -1    0    0  501    0  0.00000000000E+00  0.00000000000E+00 -0.10302838133E+04  0.10302838133E+04  0.50400001928E-02 0. -1.
    10030    2    1    2    0    0  0.00000000000E+00  0.00000000000E+00  0.16195706802E+03  0.22225246946E+04  0.22166158725E+04 0.  0.
        3    1    3    3  502    0 -0.36048732667E+03 -0.53997694552E+03 -0.81964761696E+03  0.10456330334E+04  0.10100000352E+00 0. -1.
       -3    1    3    3    0  502  0.36048732667E+03  0.53997694552E+03  0.98160468499E+03  0.11768916612E+04  0.10100000352E+00 0.  1.
</event>
<event>
 5   0  0.7378896E-07  0.2973967E+04  0.7818609E-02  0.8251204E-01
        1   -1    0    0  501    0  0.00000000000E+00  0.00000000000E+00  0.21928293794E+04  0.21928293794E+04  0.50400001928E-02 0.  1.
       -1   -1    0    0    0  501  0.00000000000E+00  0.00000000000E+00 -0.10083407572E+04  0.10083407573E+04  0.50400001928E-02 0. -1.
    10030    2    1    2    0    0  0.00000000000E+00  0.00000000000E+00  0.11844886221E+04  0.32011701366E+04  0.29739665344E+04 0.  0.
        2    1    3    3  502    0 -0.12892314434E+03 -0.79783506095E+03 -0.75129522668E+03  0.11034520738E+04  0.25500000920E-02 0. -1.
       -2    1    3    3    0  502  0.12892314434E+03  0.79783506095E+03  0.19357838488E+04  0.20977180628E+04  0.25500000920E-02 0.  1.
</event>
<event>
 5   0  0.6890600E-07  0.3420500E+04  0.7818609E-02  0.8132893E-01
        1   -1    0    0  501    0  0.00000000000E+00  0.00000000000E+00  0.23519029241E+04  0.23519029241E+04  0.50400001928E-02 0.  1.
       -1   -1    0    0    0  501  0.00000000000E+00  0.00000000000E+00 -0.12436544918E+04  0.12436544918E+04  0.50400001928E-02 0. -1.
    10030    2    1    2    0    0  0.00000000000E+00  0.00000000000E+00  0.11082484324E+04  0.35955574159E+04  0.34204997505E+04 0.  0.
        3    1    3    3  502    0 -0.11457533525E+04 -0.89543596385E+03 -0.39216944272E+03  0.15061053058E+04  0.10100000352E+00 0. -1.
       -3    1    3    3    0  502  0.11457533525E+04  0.89543596385E+03  0.15004178751E+04  0.20894521101E+04  0.10100000352E+00 0.  1.
</event>
<event>
 5   0  0.6890600E-07  0.3509660E+04  0.7818609E-02  0.8111504E-01
       -1   -1    0    0    0  501  0.00000000000E+00  0.00000000000E+00  0.13291035280E+04  0.13291035280E+04  0.50400001928E-02 0.  1.
        1   -1    0    0  501    0  0.00000000000E+00  0.00000000000E+00 -0.23169218036E+04  0.23169218036E+04  0.50400001928E-02 0. -1.
    10030    2    1    2    0    0  0.00000000000E+00  0.00000000000E+00 -0.98781827554E+03  0.36460253316E+04  0.35096603501E+04 0.  0.
        3    1    3    3  502    0  0.60785145313E+03  0.46662884926E+03 -0.21339184155E+04  0.22673406639E+04  0.10100000352E+00 0. -1.
       -3    1    3    3    0  502 -0.60785145313E+03 -0.46662884926E+03  0.11461001399E+04  0.13786846677E+04  0.10100000352E+00 0.  1.
</event>
<event>
 5   0  0.6630125E-07  0.3533533E+04  0.7818609E-02  0.8105889E-01
       -1   -1    0    0    0  501  0.00000000000E+00  0.00000000000E+00  0.13857592465E+04  0.13857592465E+04  0.50400001928E-02 0.  1.
        1   -1    0    0  501    0  0.00000000000E+00  0.00000000000E+00 -0.22525302963E+04  0.22525302963E+04  0.50400001928E-02 0. -1.
    10030    2    1    2    0    0  0.00000000000E+00  0.00000000000E+00 -0.86677104975E+03  0.36382895428E+04  0.35335334645E+04 0.  0.
        5    1    3    3  502    0  0.23895147086E+03  0.12804735308E+04  0.79562241567E+03  0.15263510038E+04  0.46999998093E+01 0.  1.
       -5    1    3    3    0  502 -0.23895147086E+03 -0.12804735308E+04 -0.16623934654E+04  0.21119385390E+04  0.46999998093E+01 0. -1.
</event>
<event>
 5   0  0.7378896E-07  0.3477767E+04  0.7818609E-02  0.8119079E-01
        1   -1    0    0  501    0  0.00000000000E+00  0.00000000000E+00  0.31112917793E+04  0.31112917793E+04  0.50400001928E-02 0. -1.
       -1   -1    0    0    0  501  0.00000000000E+00  0.00000000000E+00 -0.97185246483E+03  0.97185246485E+03  0.50400001928E-02 0.  1.
    10030    2    1    2    0    0  0.00000000000E+00  0.00000000000E+00  0.21394393145E+04  0.40831442442E+04  0.34777674359E+04 0.  0.
        2    1    3    3  502    0 -0.56391756333E+03  0.27114861829E+01 -0.86151259332E+03  0.10296670913E+04  0.25500000920E-02 0.  1.
       -2    1    3    3    0  502  0.56391756333E+03 -0.27114861829E+01  0.30009519078E+04  0.30534771529E+04  0.25500000920E-02 0. -1.
</event>
<event>
 5   0  0.7378896E-07  0.3246624E+04  0.7818609E-02  0.8176611E-01
        1   -1    0    0  501    0  0.00000000000E+00  0.00000000000E+00  0.20012642340E+04  0.20012642340E+04  0.50400001928E-02 0. -1.
       -1   -1    0    0    0  501  0.00000000000E+00  0.00000000000E+00 -0.13167385298E+04  0.13167385298E+04  0.50400001928E-02 0.  1.
    10030    2    1    2    0    0  0.00000000000E+00  0.00000000000E+00  0.68452570415E+03  0.33180027638E+04  0.32466239235E+04 0.  0.
        2    1    3    3  502    0  0.18316927113E+03 -0.11052590358E+04 -0.85829538893E+03  0.14113183527E+04  0.25500000920E-02 0.  1.
       -2    1    3    3    0  502 -0.18316927113E+03  0.11052590358E+04  0.15428210931E+04  0.19066844111E+04  0.25500000920E-02 0. -1.
</event>
<event>
 5   0  0.2023479E-06  0.3516562E+04  0.7818609E-02  0.8109876E-01
       -2   -1    0    0    0  501  0.00000000000E+00  0.00000000000E+00  0.15960982052E+04  0.15960982052E+04  0.25500000920E-02 0.  1.
        2   -1    0    0  501    0  0.00000000000E+00  0.00000000000E+00 -0.19369432367E+04  0.19369432367E+04  0.25500000920E-02 0. -1.
    10030    2    1    2    0    0  0.00000000000E+00  0.00000000000E+00 -0.34084503148E+03  0.35330414419E+04  0.35165617433E+04 0.  0.
        5    1    3    3  502    0  0.63095053068E+02  0.84907323865E+03 -0.17160151587E+04  0.19156295219E+04  0.46999998093E+01 0. -1.
       -5    1    3    3    0  502 -0.63095053068E+02 -0.84907323865E+03  0.13751701272E+04  0.16174119200E+04  0.46999998093E+01 0.  1.
</event>
<event>
 5   0  0.6890600E-07  0.2964015E+04  0.7818609E-02  0.8254082E-01
        1   -1    0    0  501    0  0.00000000000E+00  0.00000000000E+00  0.13144701743E+04  0.13144701744E+04  0.50400001928E-02 0. -1.
       -1   -1    0    0    0  501  0.00000000000E+00  0.00000000000E+00 -0.16708982749E+04  0.16708982749E+04  0.50400001928E-02 0.  1.
    10030    2    1    2    0    0  0.00000000000E+00  0.00000000000E+00 -0.35642810058E+03  0.29853684493E+04  0.29640148089E+04 0.  0.
        3    1    3    3  502    0 -0.15258188878E+03  0.72721665496E+03 -0.14697235870E+04  0.16468796946E+04  0.10100000352E+00 0.  1.
       -3    1    3    3    0  502  0.15258188878E+03 -0.72721665496E+03  0.11132954865E+04  0.13384887547E+04  0.10100000352E+00 0. -1.
</event>
<event>
 5   0  0.2023479E-06  0.3463133E+04  0.7818609E-02  0.8122583E-01
        2   -1    0    0  501    0  0.00000000000E+00  0.00000000000E+00  0.19874907140E+04  0.19874907140E+04  0.25500000920E-02 0. -1.
       -2   -1    0    0    0  501  0.00000000000E+00  0.00000000000E+00 -0.15085970509E+04  0.15085970509E+04  0.25500000920E-02 0.  1.
    10030    2    1    2    0    0  0.00000000000E+00  0.00000000000E+00  0.47889366313E+03  0.34960877650E+04  0.34631330497E+04 0.  0.
        5    1    3    3  502    0  0.18267438602E+03 -0.17218831558E+04  0.23237975963E+03  0.17470758359E+04  0.46999998093E+01 0. -1.
       -5    1    3    3    0  502 -0.18267438602E+03  0.17218831558E+04  0.24651390350E+03  0.17490119291E+04  0.46999998093E+01 0.  1.
</event>
<event>
 5   0  0.6890600E-07  0.3504083E+04  0.7818609E-02  0.8112823E-01
       -1   -1    0    0    0  501  0.00000000000E+00  0.00000000000E+00  0.18783074770E+04  0.18783074771E+04  0.50400001928E-02 0.  1.
        1   -1    0    0  501    0  0.00000000000E+00  0.00000000000E+00 -0.16342637429E+04  0.16342637429E+04  0.50400001928E-02 0. -1.
    10030    2    1    2    0    0  0.00000000000E+00  0.00000000000E+00  0.24404373411E+03  0.35125712200E+04  0.35040832227E+04 0.  0.
        3    1    3    3  502    0  0.38906261354E+03 -0.11523345117E+04 -0.11421456511E+04  0.16684547470E+04  0.10100000352E+00 0. -1.
       -3    1    3    3    0  502 -0.38906261354E+03  0.11523345117E+04  0.13861893853E+04  0.18441164730E+04  0.10100000352E+00 0.  1.
</event>
<event>
 5   0  0.1999883E-06  0.3482949E+04  0.7818609E-02  0.8117843E-01
       -2   -1    0    0    0  501  0.00000000000E+00  0.00000000000E+00  0.18792463078E+04  0.18792463078E+04  0.25500000920E-02 0.  1.
        2   -1    0    0  501    0  0.00000000000E+00  0.00000000000E+00 -0.16138027546E+04  0.16138027546E+04  0.25500000920E-02 0. -1.
    10030    2    1    2    0    0  0.00000000000E+00  0.00000000000E+00  0.26544355315E+03  0.34930490624E+04  0.34829486750E+04 0.  0.
        4    1    3    3  502    0  0.72733821987E+03 -0.15759425574E+04  0.27496193128E+03  0.17573336356E+04  0.12699999809E+01 0.  1.
       -4    1    3    3    0  502 -0.72733821987E+03  0.15759425574E+04 -0.95183781268E+01  0.17357154268E+04  0.12699999809E+01 0. -1.
</event>
<event>
 5   0  0.6630125E-07  0.3036044E+04  0.7818609E-02  0.8233513E-01
       -1   -1    0    0    0  501  0.00000000000E+00  0.00000000000E+00  0.13524034030E+04  0.13524034030E+04  0.50400001928E-02 0.  1.
        1   -1    0    0  501    0  0.00000000000E+00  0.00000000000E+00 -0.17039226760E+04  0.17039226760E+04  0.50400001928E-02 0. -1.
    10030    2    1    2    0    0  0.00000000000E+00  0.00000000000E+00 -0.35151927295E+03  0.30563260790E+04  0.30360440218E+04 0.  0.
        4    1    3    3  502    0 -0.27662835940E+03 -0.69115670765E+03 -0.15075367216E+04  0.16813356070E+04  0.12699999809E+01 0. -1.
       -4    1    3    3    0  502  0.27662835940E+03  0.69115670765E+03  0.11560174486E+04  0.13749904720E+04  0.12699999809E+01 0.  1.
</event>
<event>
 5   0  0.1999883E-06  0.3429533E+04  0.7818609E-02  0.8130696E-01
        2   -1    0    0  501    0  0.00000000000E+00  0.00000000000E+00  0.25783395504E+04  0.25783395504E+04  0.25500000920E-02 0. -1.
       -2   -1    0    0    0  501  0.00000000000E+00  0.00000000000E+00 -0.11404334023E+04  0.11404334023E+04  0.25500000920E-02 0.  1.
    10030    2    1    2    0    0  0.00000000000E+00  0.00000000000E+00  0.14379061481E+04  0.37187729527E+04  0.34295332311E+04 0.  0.
        4    1    3    3  502    0 -0.73334557042E+03 -0.13065045073E+04  0.16233670780E+04  0.22090885080E+04  0.12699999809E+01 0. -1.
       -4    1    3    3    0  502  0.73334557042E+03  0.13065045073E+04 -0.18546092981E+03  0.15096844448E+04  0.12699999809E+01 0.  1.
</event>
<event>
 5   0  0.2001768E-06  0.2173540E+04  0.7818609E-02  0.8529523E-01
        2   -1    0    0  501    0  0.00000000000E+00  0.00000000000E+00  0.19284640692E+04  0.19284640692E+04  0.25500000920E-02 0. -1.
       -2   -1    0    0    0  501  0.00000000000E+00  0.00000000000E+00 -0.61244046077E+03  0.61244046078E+03  0.25500000920E-02 0.  1.
    10030    2    1    2    0    0  0.00000000000E+00  0.00000000000E+00  0.13160236084E+04  0.25409045300E+04  0.21735403591E+04 0.  0.
        2    1    3    3  502    0 -0.48425722671E+03  0.15825636153E+03 -0.46419488485E+03  0.68922204601E+03  0.25500000920E-02 0.  1.
       -2    1    3    3    0  502  0.48425722671E+03 -0.15825636153E+03  0.17802184933E+04  0.18516824840E+04  0.25500000920E-02 0. -1.
</event>
<event>
 5   0  0.6630125E-07  0.3559652E+04  0.7818609E-02  0.8099797E-01
       -1   -1    0    0    0  501  0.00000000000E+00  0.00000000000E+00  0.11465448134E+04  0.11465448135E+04  0.50400001928E-02 0. -1.
        1   -1    0    0  501    0  0.00000000000E+00  0.00000000000E+00 -0.27628933920E+04  0.27628933920E+04  0.50400001928E-02 0.  1.
    10030    2    1    2    0    0  0.00000000000E+00  0.00000000000E+00 -0.16163485785E+04  0.39094382055E+04  0.35596522801E+04 0.  0.
        1    1    3    3  502    0  0.86334367081E+03 -0.69430206457E+03 -0.23380224109E+04  0.25872314247E+04  0.50400001928E-02 0.  1.
       -1    1    3    3    0  502 -0.86334367081E+03  0.69430206457E+03  0.72167383237E+03  0.13222067808E+04  0.50400001928E-02 0. -1.
</event>
<event>
 5   0  0.6630125E-07  0.3481496E+04  0.7818609E-02  0.8118189E-01
        3   -1    0    0  501    0  0.00000000000E+00  0.00000000000E+00  0.28480922573E+04  0.28480922590E+04  0.10100000352E+00 0. -1.
       -3   -1    0    0    0  501  0.00000000000E+00  0.00000000000E+00 -0.10639413591E+04  0.10639413639E+04  0.10100000352E+00 0.  1.
    10030    2    1    2    0    0  0.00000000000E+00  0.00000000000E+00  0.17841508982E+04  0.39120336229E+04  0.34814957474E+04 0.  0.
        4    1    3    3  502    0  0.96554135950E+03  0.13461818702E+04  0.14927115617E+04  0.22299473456E+04  0.12699999809E+01 0. -1.
       -4    1    3    3    0  502 -0.96554135950E+03 -0.13461818702E+04  0.29143933648E+03  0.16820862773E+04  0.12699999809E+01 0.  1.
</event>
<event>
 5   0  0.6630125E-07  0.3521416E+04  0.7818609E-02  0.8108733E-01
       -1   -1    0    0    0  501  0.00000000000E+00  0.00000000000E+00  0.22197801707E+04  0.22197801707E+04  0.50400001928E-02 0. -1.
        1   -1    0    0  501    0  0.00000000000E+00  0.00000000000E+00 -0.13965762638E+04  0.13965762638E+04  0.50400001928E-02 0.  1.
    10030    2    1    2    0    0  0.00000000000E+00  0.00000000000E+00  0.82320390690E+03  0.36163564345E+04  0.35214157933E+04 0.  0.
        1    1    3    3  502    0  0.21719692179E+03  0.54097681389E+03  0.21177985253E+04  0.21965657309E+04  0.50400001928E-02 0. -1.
       -1    1    3    3    0  502 -0.21719692179E+03 -0.54097681389E+03 -0.12945946184E+04  0.14197907036E+04  0.50400001928E-02 0.  1.
</event>
<event>
 5   0  0.2023479E-06  0.3484587E+04  0.7818609E-02  0.8117452E-01
        2   -1    0    0  501    0  0.00000000000E+00  0.00000000000E+00  0.18007518968E+04  0.18007518968E+04  0.25500000920E-02 0. -1.
       -2   -1    0    0    0  501  0.00000000000E+00  0.00000000000E+00 -0.16857326126E+04  0.16857326126E+04  0.25500000920E-02 0.  1.
    10030    2    1    2    0    0  0.00000000000E+00  0.00000000000E+00  0.11501928422E+03  0.34864845093E+04  0.34845867471E+04 0.  0.
        5    1    3    3  502    0 -0.14978389322E+04  0.14845927108E+03 -0.82046611351E+03  0.17142777941E+04  0.46999998093E+01 0.  1.
       -5    1    3    3    0  502  0.14978389322E+04 -0.14845927108E+03  0.93548539774E+03  0.17722067152E+04  0.46999998093E+01 0. -1.
</event>
<event>
 5   0  0.2020725E-06  0.3490937E+04  0.7818609E-02  0.8115941E-01
        2   -1    0    0  501    0  0.00000000000E+00  0.00000000000E+00  0.12523455916E+04  0.12523455916E+04  0.25500000920E-02 0.  1.
       -2   -1    0    0    0  501  0.00000000000E+00  0.00000000000E+00 -0.24327632751E+04  0.24327632751E+04  0.25500000920E-02 0. -1.
    10030    2    1    2    0    0  0.00000000000E+00  0.00000000000E+00 -0.11804176836E+04  0.36851088667E+04  0.34909370449E+04 0.  0.
        3    1    3    3  502    0  0.66704171904E+01  0.16429090120E+04 -0.12124580617E+04  0.20418739133E+04  0.10100000352E+00 0. -1.
       -3    1    3    3    0  502 -0.66704171904E+01 -0.16429090120E+04  0.32040378126E+02  0.16432349534E+04  0.10100000352E+00 0.  1.
</event>
<event>
 5   0  0.2020725E-06  0.2543682E+04  0.7818609E-02  0.8387587E-01
       -2   -1    0    0    0  501  0.00000000000E+00  0.00000000000E+00  0.86913613814E+03  0.86913613814E+03  0.25500000920E-02 0. -1.
        2   -1    0    0  501    0  0.00000000000E+00  0.00000000000E+00 -0.18611346294E+04  0.18611346294E+04  0.25500000920E-02 0.  1.
    10030    2    1    2    0    0  0.00000000000E+00  0.00000000000E+00 -0.99199849123E+03  0.27302707675E+04  0.25436818703E+04 0.  0.
        3    1    3    3  502    0 -0.67992631654E+03 -0.47811571962E+03 -0.15292577101E+04  0.17405526684E+04  0.10100000352E+00 0.  1.
       -3    1    3    3    0  502  0.67992631654E+03  0.47811571962E+03  0.53725921888E+03  0.98971809913E+03  0.10100000352E+00 0. -1.
</event>
<event>
 5   0  0.7378896E-07  0.3462655E+04  0.7818609E-02  0.8122698E-01
        1   -1    0    0  501    0  0.00000000000E+00  0.00000000000E+00  0.22122926426E+04  0.22122926426E+04  0.50400001928E-02 0. -1.
       -1   -1    0    0    0  501  0.00000000000E+00  0.00000000000E+00 -0.13549268156E+04  0.13549268156E+04  0.50400001928E-02 0.  1.
    10030    2    1    2    0    0  0.00000000000E+00  0.00000000000E+00  0.85736582697E+03  0.35672194582E+04  0.34626548343E+04 0.  0.
        2    1    3    3  502    0 -0.86351205972E+03  0.14686045742E+04  0.11108418255E+03  0.17072762425E+04  0.25500000920E-02 0.  1.
       -2    1    3    3    0  502  0.86351205972E+03 -0.14686045742E+04  0.74628164442E+03  0.18599432156E+04  0.25500000920E-02 0. -1.
</event>
<event>
 5   0  0.1999883E-06  0.3482342E+04  0.7818609E-02  0.8117987E-01
        2   -1    0    0  501    0  0.00000000000E+00  0.00000000000E+00  0.18105765499E+04  0.18105765499E+04  0.25500000920E-02 0. -1.
       -2   -1    0    0    0  501  0.00000000000E+00  0.00000000000E+00 -0.16744258715E+04  0.16744258715E+04  0.25500000920E-02 0.  1.
    10030    2    1    2    0    0  0.00000000000E+00  0.00000000000E+00  0.13615067842E+03  0.34850024213E+04  0.34823418657E+04 0.  0.
        4    1    3    3  502    0 -0.77424392485E+03 -0.15537526627E+04  0.20261618845E+03  0.17477573987E+04  0.12699999809E+01 0.  1.
       -4    1    3    3    0  502  0.77424392485E+03  0.15537526627E+04 -0.66465510026E+02  0.17372450227E+04  0.12699999809E+01 0. -1.
</event>
<event>
 5   0  0.6630125E-07  0.3532148E+04  0.7818609E-02  0.8106213E-01
        1   -1    0    0  501    0  0.00000000000E+00  0.00000000000E+00  0.13728184778E+04  0.13728184778E+04  0.50400001928E-02 0.  1.
       -1   -1    0    0    0  501  0.00000000000E+00  0.00000000000E+00 -0.22719809280E+04  0.22719809280E+04  0.50400001928E-02 0. -1.
    10030    2    1    2    0    0  0.00000000000E+00  0.00000000000E+00 -0.89916245027E+03  0.36447994058E+04  0.35321480145E+04 0.  0.
        1    1    3    3  502    0 -0.10305822929E+04 -0.10806732992E+04  0.52339212763E+03  0.15823697296E+04  0.50400001928E-02 0.  1.
       -1    1    3    3    0  502  0.10305822929E+04  0.10806732992E+04 -0.14225545779E+04  0.20624296762E+04  0.50400001928E-02 0. -1.
</event>
<event>
 5   0  0.2020725E-06  0.3580763E+04  0.7818609E-02  0.8094912E-01
       -2   -1    0    0    0  501  0.00000000000E+00  0.00000000000E+00  0.27694789980E+04  0.27694789980E+04  0.25500000920E-02 0. -1.
        2   -1    0    0  501    0  0.00000000000E+00  0.00000000000E+00 -0.11574259301E+04  0.11574259301E+04  0.25500000920E-02 0.  1.
    10030    2    1    2    0    0  0.00000000000E+00  0.00000000000E+00  0.16120530679E+04  0.39269049280E+04  0.35807634968E+04 0.  0.
        3    1    3    3  502    0  0.58350239587E+03  0.14610009493E+03 -0.10432955415E+04  0.12042781576E+04  0.10100000352E+00 0.  1.
       -3    1    3    3    0  502 -0.58350239587E+03 -0.14610009493E+03  0.26553486094E+04  0.27226267705E+04  0.10100000352E+00 0. -1.
</event>
<event>
 5   0  0.6630125E-07  0.3559332E+04  0.7818609E-02  0.8099871E-01
       -1   -1    0    0    0  501  0.00000000000E+00  0.00000000000E+00  0.13418751090E+04  0.13418751090E+04  0.50400001928E-02 0.  1.
        1   -1    0    0  501    0  0.00000000000E+00  0.00000000000E+00 -0.23602872072E+04  0.23602872072E+04  0.50400001928E-02 0. -1.
    10030    2    1    2    0    0  0.00000000000E+00  0.00000000000E+00 -0.10184120981E+04  0.37021623162E+04  0.35593317651E+04 0.  0.
        1    1    3    3  502    0  0.13438124541E+04  0.72488411246E+03  0.44177048817E+03  0.15894810639E+04  0.50400001928E-02 0.  1.
       -1    1    3    3    0  502 -0.13438124541E+04 -0.72488411246E+03 -0.14601825863E+04  0.21126812523E+04  0.50400001928E-02 0. -1.
</event>
<event>
 5   0  0.2023479E-06  0.3513154E+04  0.7818609E-02  0.8110680E-01
       -2   -1    0    0    0  501  0.00000000000E+00  0.00000000000E+00  0.10662608674E+04  0.10662608674E+04  0.25500000920E-02 0. -1.
        2   -1    0    0  501    0  0.00000000000E+00  0.00000000000E+00 -0.28938154858E+04  0.28938154858E+04  0.25500000920E-02 0.  1.
    10030    2    1    2    0    0  0.00000000000E+00  0.00000000000E+00 -0.18275546184E+04  0.39600763533E+04  0.35131536887E+04 0.  0.
        5    1    3    3  502    0  0.12684951102E+04  0.17092956204E+03  0.44227734398E+03  0.13542260147E+04  0.46999998093E+01 0. -1.
       -5    1    3    3    0  502 -0.12684951102E+04 -0.17092956204E+03 -0.22698319624E+04  0.26058503386E+04  0.46999998093E+01 0.  1.
</event>
<event>
 5   0  0.6630125E-07  0.3469205E+04  0.7818609E-02  0.8121127E-01
        3   -1    0    0  501    0  0.00000000000E+00  0.00000000000E+00  0.15577781335E+04  0.15577781367E+04  0.10100000352E+00 0.  1.
       -3   -1    0    0    0  501  0.00000000000E+00  0.00000000000E+00 -0.19314980950E+04  0.19314980977E+04  0.10100000352E+00 0. -1.
    10030    2    1    2    0    0  0.00000000000E+00  0.00000000000E+00 -0.37371996155E+03  0.34892762344E+04  0.34692048124E+04 0.  0.
        3    1    3    3  502    0 -0.22146054899E+03 -0.78244255355E+03 -0.17279074524E+04  0.19096924618E+04  0.10100000352E+00 0. -1.
       -3    1    3    3    0  502  0.22146054899E+03  0.78244255355E+03  0.13541874908E+04  0.15795837727E+04  0.10100000352E+00 0.  1.
</event>
<event>
 5   0  0.6630125E-07  0.3326645E+04  0.7818609E-02  0.8156149E-01
        1   -1    0    0  501    0  0.00000000000E+00  0.00000000000E+00  0.13193526058E+04  0.13193526058E+04  0.50400001928E-02 0. -1.
       -1   -1    0    0    0  501  0.00000000000E+00  0.00000000000E+00 -0.20969687329E+04  0.20969687329E+04  0.50400001928E-02 0.  1.
    10030    2    1    2    0    0  0.00000000000E+00  0.00000000000E+00 -0.77761612712E+03  0.34163213387E+04  0.33266446531E+04 0.  0.
        4    1    3    3  502    0 -0.53796871078E+03 -0.60483963534E+03 -0.18810435980E+04  0.20478202921E+04  0.12699999809E+01 0.  1.
       -4    1    3    3    0  502  0.53796871078E+03  0.60483963534E+03  0.11034274709E+04  0.13685010466E+04  0.12699999809E+01 0. -1.
</event>
<event>
 5   0  0.2001768E-06  0.2853385E+04  0.7818609E-02  0.8286883E-01
        2   -1    0    0  501    0  0.00000000000E+00  0.00000000000E+00  0.19925145116E+04  0.19925145116E+04  0.25500000920E-02 0.  1.
       -2   -1    0    0    0  501  0.00000000000E+00  0.00000000000E+00 -0.10215493430E+04  0.10215493430E+04  0.25500000920E-02 0. -1.
    10030    2    1    2    0    0  0.00000000000E+00  0.00000000000E+00  0.97096516858E+03  0.30140638547E+04  0.28533852809E+04 0.  0.
        2    1    3    3  502    0  0.26779948844E+03 -0.13474018771E+04  0.89218792081E+03  0.16380499597E+04  0.25500000920E-02 0.  1.
       -2    1    3    3    0  502 -0.26779948844E+03  0.13474018771E+04  0.78777247764E+02  0.13760138950E+04  0.25500000920E-02 0. -1.
</event>
<event>
 5   0  0.2020725E-06  0.3481793E+04  0.7818609E-02  0.8118118E-01
        2   -1    0    0  501    0  0.00000000000E+00  0.00000000000E+00  0.12095899114E+04  0.12095899114E+04  0.25500000920E-02 0. -1.
       -2   -1    0    0    0  501  0.00000000000E+00  0.00000000000E+00 -0.25055765412E+04  0.25055765412E+04  0.25500000920E-02 0.  1.
    10030    2    1    2    0    0  0.00000000000E+00  0.00000000000E+00 -0.12959866298E+04  0.37151664525E+04  0.34817927028E+04 0.  0.
        3    1    3    3  502    0 -0.15264898364E+04 -0.77283916206E+03 -0.30509976900E+03  0.17379693525E+04  0.10100000352E+00 0. -1.
       -3    1    3    3    0  502  0.15264898364E+04  0.77283916206E+03 -0.99088686082E+03  0.19771971000E+04  0.10100000352E+00 0.  1.
</event>
<event>
 5   0  0.6630125E-07  0.3483385E+04  0.7818609E-02  0.8117739E-01
        1   -1    0    0  501    0  0.00000000000E+00  0.00000000000E+00  0.16031199877E+04  0.16031199877E+04  0.50400001928E-02 0.  1.
       -1   -1    0    0    0  501  0.00000000000E+00  0.00000000000E+00 -0.18922426069E+04  0.18922426069E+04  0.50400001928E-02 0. -1.
    10030    2    1    2    0    0  0.00000000000E+00  0.00000000000E+00 -0.28912261921E+03  0.34953625945E+04  0.34833845292E+04 0.  0.
        5    1    3    3  502    0  0.59533337283E+03 -0.15003566788E+03 -0.17800546387E+04  0.18829628603E+04  0.46999998093E+01 0. -1.
       -5    1    3    3    0  502 -0.59533337283E+03  0.15003566788E+03  0.14909320195E+04  0.16123997343E+04  0.46999998093E+01 0.  1.
</event>
<event>
 5   0  0.2023479E-06  0.3691224E+04  0.7818609E-02  0.8069909E-01
       -2   -1    0    0    0  501  0.00000000000E+00  0.00000000000E+00  0.21093466316E+04  0.21093466316E+04  0.25500000920E-02 0.  1.
        2   -1    0    0  501    0  0.00000000000E+00  0.00000000000E+00 -0.16148525224E+04  0.16148525224E+04  0.25500000920E-02 0. -1.
    10030    2    1    2    0    0  0.00000000000E+00  0.00000000000E+00  0.49449410925E+03  0.37241991540E+04  0.36912240401E+04 0.  0.
        5    1    3    3  502    0 -0.69971218886E+03 -0.21080494738E+03  0.19571512518E+04  0.20891383356E+04  0.46999998093E+01 0.  1.
       -5    1    3    3    0  502  0.69971218886E+03  0.21080494738E+03 -0.14626571425E+04  0.16350608183E+04  0.46999998093E+01 0. -1.
</event>
<event>
 5   0  0.1999883E-06  0.3480555E+04  0.7818609E-02  0.8118414E-01
        2   -1    0    0  501    0  0.00000000000E+00  0.00000000000E+00  0.15671220843E+04  0.15671220843E+04  0.25500000920E-02 0.  1.
       -2   -1    0    0    0  501  0.00000000000E+00  0.00000000000E+00 -0.19325651814E+04  0.19325651814E+04  0.25500000920E-02 0. -1.
    10030    2    1    2    0    0  0.00000000000E+00  0.00000000000E+00 -0.36544309711E+03  0.34996872657E+04  0.34805548840E+04 0.  0.
        4    1    3    3  502    0  0.12370780554E+03  0.70190297882E+03 -0.17790860983E+04  0.19165386432E+04  0.12699999809E+01 0. -1.
       -4    1    3    3    0  502 -0.12370780554E+03 -0.70190297882E+03  0.14136430012E+04  0.15831486224E+04  0.12699999809E+01 0.  1.
</event>
<event>
 5   0  0.2001768E-06  0.3978244E+04  0.7818609E-02  0.8008950E-01
       -2   -1    0    0    0  501  0.00000000000E+00  0.00000000000E+00  0.21538657412E+04  0.21538657412E+04  0.25500000920E-02 0. -1.
        2   -1    0    0  501    0  0.00000000000E+00  0.00000000000E+00 -0.18369790535E+04  0.18369790535E+04  0.25500000920E-02 0.  1.
    10030    2    1    2    0    0  0.00000000000E+00  0.00000000000E+00  0.31688668770E+03  0.39908447947E+04  0.39782439596E+04 0.  0.
        2    1    3    3  502    0  0.88307805035E+02 -0.19708484239E+04  0.41334357417E+03  0.20156623450E+04  0.25500000920E-02 0. -1.
       -2    1    3    3    0  502 -0.88307805035E+02  0.19708484239E+04 -0.96456886478E+02  0.19751824497E+04  0.25500000920E-02 0.  1.
</event>
<event>
 5   0  0.7378896E-07  0.3471200E+04  0.7818609E-02  0.8120649E-01
        1   -1    0    0  501    0  0.00000000000E+00  0.00000000000E+00  0.25302620584E+04  0.25302620584E+04  0.50400001928E-02 0.  1.
       -1   -1    0    0    0  501  0.00000000000E+00  0.00000000000E+00 -0.11905117817E+04  0.11905117817E+04  0.50400001928E-02 0. -1.
    10030    2    1    2    0    0  0.00000000000E+00  0.00000000000E+00  0.13397502767E+04  0.37207738401E+04  0.34711996724E+04 0.  0.
        2    1    3    3  502    0  0.15591208220E+04  0.69463085639E+03  0.33271742066E+03  0.17389855221E+04  0.25500000920E-02 0. -1.
       -2    1    3    3    0  502 -0.15591208220E+04 -0.69463085639E+03  0.10070328561E+04  0.19817883180E+04  0.25500000920E-02 0.  1.
</event>
<event>
 5   0  0.2001768E-06  0.3588818E+04  0.7818609E-02  0.8093058E-01
        2   -1    0    0  501    0  0.00000000000E+00  0.00000000000E+00  0.17420648079E+04  0.17420648079E+04  0.25500000920E-02 0.  1.
       -2   -1    0    0    0  501  0.00000000000E+00  0.00000000000E+00 -0.18483261049E+04  0.18483261049E+04  0.25500000920E-02 0. -1.
    10030    2    1    2    0    0  0.00000000000E+00  0.00000000000E+00 -0.10626129702E+03  0.35903909128E+04  0.35888181124E+04 0.  0.
        2    1    3    3  502    0 -0.12998587695E+04 -0.10809802977E+04  0.54859169789E+03  0.17773868672E+04  0.25500000920E-02 0.  1.
       -2    1    3    3    0  502  0.12998587695E+04  0.10809802977E+04 -0.65485299491E+03  0.18130040456E+04  0.25500000920E-02 0. -1.
</event>
<event>
 5   0  0.2023479E-06  0.3503686E+04  0.7818609E-02  0.8112917E-01
       -2   -1    0    0    0  501  0.00000000000E+00  0.00000000000E+00  0.12846582565E+04  0.12846582565E+04  0.25500000920E-02 0.  1.
        2   -1    0    0  501    0  0.00000000000E+00  0.00000000000E+00 -0.23889257144E+04  0.23889257144E+04  0.25500000920E-02 0. -1.
    10030    2    1    2    0    0  0.00000000000E+00  0.00000000000E+00 -0.11042674579E+04  0.36735839709E+04  0.35036855699E+04 0.  0.
        5    1    3    3  502    0  0.11730881275E+04 -0.11189518971E+04 -0.12482103403E+04  0.20460303631E+04  0.46999998093E+01 0. -1.
       -5    1    3    3    0  502 -0.11730881275E+04  0.11189518971E+04  0.14394288248E+03  0.16275536078E+04  0.46999998093E+01 0.  1.
</event>
<event>
 5   0  0.1999883E-06  0.3378413E+04  0.7818609E-02  0.8143225E-01
        2   -1    0    0  501    0  0.00000000000E+00  0.00000000000E+00  0.24566209925E+04  0.24566209925E+04  0.25500000920E-02 0.  1.
       -2   -1    0    0    0  501  0.00000000000E+00  0.00000000000E+00 -0.11615218244E+04  0.11615218244E+04  0.25500000920E-02 0. -1.
    10030    2    1    2    0    0  0.00000000000E+00  0.00000000000E+00  0.12950991681E+04  0.36181428169E+04  0.33784131761E+04 0.  0.
        4    1    3    3  502    0  0.11147803566E+04 -0.68556179095E+03 -0.49626651001E+03  0.13996471964E+04  0.12699999809E+01 0. -1.
       -4    1    3    3    0  502 -0.11147803566E+04  0.68556179095E+03  0.17913656781E+04  0.22184956205E+04  0.12699999809E+01 0.  1.
</event>
<event>
 5   0  0.2001768E-06  0.2493332E+04  0.7818609E-02  0.8405365E-01
        2   -1    0    0  501    0  0.00000000000E+00  0.00000000000E+00  0.13626408543E+04  0.13626408543E+04  0.25500000920E-02 0. -1.
       -2   -1    0    0    0  501  0.00000000000E+00  0.00000000000E+00 -0.11405621297E+04  0.11405621297E+04  0.25500000920E-02 0.  1.
    10030    2    1    2    0    0  0.00000000000E+00  0.00000000000E+00  0.22207872457E+03  0.25032029840E+04  0.24933323523E+04 0.  0.
        2    1    3    3  502    0 -0.71715357075E+03  0.75862804097E+03 -0.57309120840E+03  0.11909069156E+04  0.25500000920E-02 0.  1.
       -2    1    3    3    0  502  0.71715357075E+03 -0.75862804097E+03  0.79516993297E+03  0.13122960683E+04  0.25500000920E-02 0. -1.
</event>
<event>
 5   0  0.2023479E-06  0.3468525E+04  0.7818609E-02  0.8121290E-01
        2   -1    0    0  501    0  0.00000000000E+00  0.00000000000E+00  0.14677118510E+04  0.14677118510E+04  0.25500000920E-02 0. -1.
       -2   -1    0    0    0  501  0.00000000000E+00  0.00000000000E+00 -0.20492210317E+04  0.20492210317E+04  0.25500000920E-02 0.  1.
    10030    2    1    2    0    0  0.00000000000E+00  0.00000000000E+00 -0.58150918070E+03  0.35169328827E+04  0.34685247547E+04 0.  0.
        5    1    3    3  502    0 -0.12811254795E+04  0.28691108559E+03 -0.14397257824E+04  0.19484437081E+04  0.46999998093E+01 0.  1.
       -5    1    3    3    0  502  0.12811254795E+04 -0.28691108559E+03  0.85821660170E+03  0.15684891746E+04  0.46999998093E+01 0. -1.
</event>
<event>
 5   0  0.6630125E-07  0.3404106E+04  0.7818609E-02  0.8136899E-01
        1   -1    0    0  501    0  0.00000000000E+00  0.00000000000E+00  0.19191537108E+04  0.19191537109E+04  0.50400001928E-02 0. -1.
       -1   -1    0    0    0  501  0.00000000000E+00  0.00000000000E+00 -0.15095118392E+04  0.15095118392E+04  0.50400001928E-02 0.  1.
    10030    2    1    2    0    0  0.00000000000E+00  0.00000000000E+00  0.40964187166E+03  0.34286655500E+04  0.34041064894E+04 0.  0.
        1    1    3    3  502    0  0.31830924370E+03  0.16710060096E+04  0.26358039532E+03  0.17213530967E+04  0.50400001928E-02 0.  1.
       -1    1    3    3    0  502 -0.31830924370E+03 -0.16710060096E+04  0.14606147634E+03  0.17073124534E+04  0.50400001928E-02 0. -1.
</event>
<event>
 5   0  0.2020725E-06  0.2744026E+04  0.7818609E-02  0.8320860E-01
       -2   -1    0    0    0  501  0.00000000000E+00  0.00000000000E+00  0.75640480637E+03  0.75640480637E+03  0.25500000920E-02 0. -1.
        2   -1    0    0  501    0  0.00000000000E+00  0.00000000000E+00 -0.24886406055E+04  0.24886406055E+04  0.25500000920E-02 0.  1.
    10030    2    1    2    0    0  0.00000000000E+00  0.00000000000E+00 -0.17322357992E+04  0.32450454119E+04  0.27440260315E+04 0.  0.
        3    1    3    3  502    0  0.13665150194E+04 -0.10632175305E+03 -0.93855636963E+03  0.16611910434E+04  0.10100000352E+00 0. -1.
       -3    1    3    3    0  502 -0.13665150194E+04  0.10632175305E+03 -0.79367942954E+03  0.15838543685E+04  0.10100000352E+00 0.  1.
</event>
<event>
 5   0  0.6630125E-07  0.3537159E+04  0.7818609E-02  0.8105040E-01
        1   -1    0    0  501    0  0.00000000000E+00  0.00000000000E+00  0.18697769662E+04  0.18697769662E+04  0.50400001928E-02 0. -1.
       -1   -1    0    0    0  501  0.00000000000E+00  0.00000000000E+00 -0.16728593666E+04  0.16728593666E+04  0.50400001928E-02 0.  1.
    10030    2    1    2    0    0  0.00000000000E+00  0.00000000000E+00  0.19691759958E+03  0.35426363328E+04  0.35371592621E+04 0.  0.
        1    1    3    3  502    0 -0.12838410637E+04 -0.94670369669E+03  0.86343343555E+03  0.18138393158E+04  0.50400001928E-02 0. -1.
       -1    1    3    3    0  502  0.12838410637E+04  0.94670369669E+03 -0.66651583598E+03  0.17287970169E+04  0.50400001928E-02 0.  1.
</event>
<event>
 5   0  0.2001768E-06  0.3475516E+04  0.7818609E-02  0.8119617E-01
       -2   -1    0    0    0  501  0.00000000000E+00  0.00000000000E+00  0.17598204898E+04  0.17598204898E+04  0.25500000920E-02 0. -1.
        2   -1    0    0  501    0  0.00000000000E+00  0.00000000000E+00 -0.17159718758E+04  0.17159718759E+04  0.25500000920E-02 0.  1.
    10030    2    1    2    0    0  0.00000000000E+00  0.00000000000E+00  0.43848613962E+02  0.34757923657E+04  0.34755157701E+04 0.  0.
        2    1    3    3  502    0 -0.21711803035E+03  0.16091540505E+04 -0.59722549621E+03  0.17300853421E+04  0.25500000920E-02 0.  1.
       -2    1    3    3    0  502  0.21711803035E+03 -0.16091540505E+04  0.64107411017E+03  0.17457070236E+04  0.25500000920E-02 0. -1.
</event>
<event>
 5   0  0.2023479E-06  0.3518644E+04  0.7818609E-02  0.8109386E-01
       -2   -1    0    0    0  501  0.00000000000E+00  0.00000000000E+00  0.12856679175E+04  0.12856679175E+04  0.25500000920E-02 0.  1.
        2   -1    0    0  501    0  0.00000000000E+00  0.00000000000E+00 -0.24074759092E+04  0.24074759092E+04  0.25500000920E-02 0. -1.
    10030    2    1    2    0    0  0.00000000000E+00  0.00000000000E+00 -0.11218079917E+04  0.36931438267E+04  0.35186443632E+04 0.  0.
        5    1    3    3  502    0  0.54561829124E+03  0.87179059983E+03 -0.20590940675E+04  0.23016534575E+04  0.46999998093E+01 0. -1.
       -5    1    3    3    0  502 -0.54561829124E+03 -0.87179059983E+03  0.93728607581E+03  0.13914903692E+04  0.46999998093E+01 0.  1.
</event>
<event>
 5   0  0.6630125E-07  0.3509765E+04  0.7818609E-02  0.8111480E-01
        1   -1    0    0  501    0  0.00000000000E+00  0.00000000000E+00  0.16242322573E+04  0.16242322573E+04  0.50400001928E-02 0. -1.
       -1   -1    0    0    0  501  0.00000000000E+00  0.00000000000E+00 -0.18960416456E+04  0.18960416456E+04  0.50400001928E-02 0.  1.
    10030    2    1    2    0    0  0.00000000000E+00  0.00000000000E+00 -0.27180938830E+03  0.35202739029E+04  0.35097646656E+04 0.  0.
        1    1    3    3  502    0 -0.29825849869E+02  0.56039288414E+03 -0.18036167554E+04  0.18889052825E+04  0.50400001928E-02 0.  1.
       -1    1    3    3    0  502  0.29825849869E+02 -0.56039288414E+03  0.15318073671E+04  0.16313686204E+04  0.50400001928E-02 0. -1.
</event>
<event>
 5   0  0.6630125E-07  0.3484948E+04  0.7818609E-02  0.8117366E-01
        1   -1    0    0  501    0  0.00000000000E+00  0.00000000000E+00  0.21759272224E+04  0.21759272224E+04  0.50400001928E-02 0.  1.
       -1   -1    0    0    0  501  0.00000000000E+00  0.00000000000E+00 -0.13953662203E+04  0.13953662203E+04  0.50400001928E-02 0. -1.
    10030    2    1    2    0    0  0.00000000000E+00  0.00000000000E+00  0.78056100207E+03  0.35712934427E+04  0.34849478297E+04 0.  0.
        4    1    3    3  502    0 -0.12742852829E+04 -0.43866802991E+03  0.15221746323E+04  0.20330395586E+04  0.12699999809E+01 0.  1.
       -4    1    3    3    0  502  0.12742852829E+04  0.43866802991E+03 -0.74161363019E+03  0.15382538841E+04  0.12699999809E+01 0. -1.
</event>
<event>
 5   0  0.6630125E-07  0.2210168E+04  0.7818609E-02  0.8514208E-01
       -1   -1    0    0    0  501  0.00000000000E+00  0.00000000000E+00  0.12849553608E+04  0.12849553608E+04  0.50400001928E-02 0. -1.
        1   -1    0    0  501    0  0.00000000000E+00  0.00000000000E+00 -0.95039181168E+03  0.95039181169E+03  0.50400001928E-02 0.  1.
    10030    2    1    2    0    0  0.00000000000E+00  0.00000000000E+00  0.33456354916E+03  0.22353471725E+04  0.22101683676E+04 0.  0.
        5    1    3    3  502    0 -0.92906323231E+03  0.24262398157E+03  0.72047180668E+03  0.12004693250E+04  0.46999998093E+01 0. -1.
       -5    1    3    3    0  502  0.92906323231E+03 -0.24262398157E+03 -0.38590825752E+03  0.10348778475E+04  0.46999998093E+01 0.  1.
</event>
<event>
 5   0  0.6630125E-07  0.3515413E+04  0.7818609E-02  0.8110147E-01
        3   -1    0    0  501    0  0.00000000000E+00  0.00000000000E+00  0.21594825342E+04  0.21594825366E+04  0.10100000352E+00 0. -1.
       -3   -1    0    0    0  501  0.00000000000E+00  0.00000000000E+00 -0.14306815166E+04  0.14306815201E+04  0.10100000352E+00 0.  1.
    10030    2    1    2    0    0  0.00000000000E+00  0.00000000000E+00  0.72880101762E+03  0.35901640567E+04  0.35154127824E+04 0.  0.
        3    1    3    3  502    0 -0.10253660150E+04 -0.14712017071E+03  0.18146354541E+04  0.20894787989E+04  0.10100000352E+00 0. -1.
       -3    1    3    3    0  502  0.10253660150E+04  0.14712017071E+03 -0.10858344365E+04  0.15006852578E+04  0.10100000352E+00 0.  1.
</event>
<event>
 5   0  0.6630125E-07  0.2735737E+04  0.7818609E-02  0.8323502E-01
        3   -1    0    0  501    0  0.00000000000E+00  0.00000000000E+00  0.27396715137E+04  0.27396715156E+04  0.10100000352E+00 0. -1.
       -3   -1    0    0    0  501  0.00000000000E+00  0.00000000000E+00 -0.68295210462E+03  0.68295211208E+03  0.10100000352E+00 0.  1.
    10030    2    1    2    0    0  0.00000000000E+00  0.00000000000E+00  0.20567194091E+04  0.34226236276E+04  0.27357371527E+04 0.  0.
        2    1    3    3  502    0  0.30792932663E+03  0.22982539852E+02 -0.63877810887E+03  0.70949710339E+03  0.25500000920E-02 0.  1.
       -2    1    3    3    0  502 -0.30792932663E+03 -0.22982539852E+02  0.26954975179E+04  0.27131265243E+04  0.25500000920E-02 0. -1.
</event>
<event>
 5   0  0.6890600E-07  0.3269100E+04  0.7818609E-02  0.8170803E-01
        1   -1    0    0  501    0  0.00000000000E+00  0.00000000000E+00  0.22568543973E+04  0.22568543973E+04  0.50400001928E-02 0.  1.
       -1   -1    0    0    0  501  0.00000000000E+00  0.00000000000E+00 -0.11838393924E+04  0.11838393924E+04  0.50400001928E-02 0. -1.
    10030    2    1    2    0    0  0.00000000000E+00  0.00000000000E+00  0.10730150049E+04  0.34406937897E+04  0.32690996549E+04 0.  0.
        3    1    3    3  502    0 -0.44942289411E+03  0.88353793448E+01  0.21905225195E+04  0.22361681333E+04  0.10100000352E+00 0.  1.
       -3    1    3    3    0  502  0.44942289411E+03 -0.88353793448E+01 -0.11175075145E+04  0.12045256564E+04  0.10100000352E+00 0. -1.
</event>
<event>
 5   0  0.2023479E-06  0.3523006E+04  0.7818609E-02  0.8108359E-01
       -2   -1    0    0    0  501  0.00000000000E+00  0.00000000000E+00  0.14103424511E+04  0.14103424511E+04  0.25500000920E-02 0.  1.
        2   -1    0    0  501    0  0.00000000000E+00  0.00000000000E+00 -0.22000989195E+04  0.22000989195E+04  0.25500000920E-02 0. -1.
    10030    2    1    2    0    0  0.00000000000E+00  0.00000000000E+00 -0.78975646848E+03  0.36104413706E+04  0.35230060475E+04 0.  0.
        5    1    3    3  502    0 -0.14808865387E+04  0.77836864328E+03  0.17015659555E+03  0.16816236328E+04  0.46999998093E+01 0.  1.
       -5    1    3    3    0  502  0.14808865387E+04 -0.77836864328E+03 -0.95991306403E+03  0.19288177378E+04  0.46999998093E+01 0. -1.
</event>
<event>
 5   0  0.6630125E-07  0.3675997E+04  0.7818609E-02  0.8073302E-01
        3   -1    0    0  501    0  0.00000000000E+00  0.00000000000E+00  0.14469060880E+04  0.14469060915E+04  0.10100000352E+00 0.  1.
       -3   -1    0    0    0  501  0.00000000000E+00  0.00000000000E+00 -0.23348011521E+04  0.23348011543E+04  0.10100000352E+00 0. -1.
    10030    2    1    2    0    0  0.00000000000E+00  0.00000000000E+00 -0.88789506409E+03  0.37817072458E+04  0.36759967421E+04 0.  0.
        2    1    3    3  502    0 -0.58402033563E+03 -0.35251414764E+03  0.13118522140E+04  0.14786149627E+04  0.25500000920E-02 0.  1.
       -2    1    3    3    0  502  0.58402033563E+03  0.35251414764E+03 -0.21997472781E+04  0.23030922830E+04  0.25500000920E-02 0. -1.
</event>
<event>
 5   0  0.2023479E-06  0.3495080E+04  0.7818609E-02  0.8114957E-01
        2   -1    0    0  501    0  0.00000000000E+00  0.00000000000E+00  0.22430364378E+04  0.22430364378E+04  0.25500000920E-02 0. -1.
       -2   -1    0    0    0  501  0.00000000000E+00  0.00000000000E+00 -0.13615004780E+04  0.13615004780E+04  0.25500000920E-02 0.  1.
    10030    2    1    2    0    0  0.00000000000E+00  0.00000000000E+00  0.88153595973E+03  0.36045369158E+04  0.34950795026E+04 0.  0.
        5    1    3    3  502    0  0.46199984802E+02  0.11717187036E+04 -0.89550042860E+03  0.14754667962E+04  0.46999998093E+01 0.  1.
       -5    1    3    3    0  502 -0.46199984802E+02 -0.11717187036E+04  0.17770363883E+04  0.21290701197E+04  0.46999998093E+01 0. -1.
</event>
<event>
 5   0  0.6630125E-07  0.3084101E+04  0.7818609E-02  0.8220115E-01
       -1   -1    0    0    0  501  0.00000000000E+00  0.00000000000E+00  0.17421092125E+04  0.17421092125E+04  0.50400001928E-02 0.  1.
        1   -1    0    0  501    0  0.00000000000E+00  0.00000000000E+00 -0.13649659009E+04  0.13649659009E+04  0.50400001928E-02 0. -1.
    10030    2    1    2    0    0  0.00000000000E+00  0.00000000000E+00  0.37714331156E+03  0.31070751134E+04  0.30841009521E+04 0.  0.
        4    1    3    3  502    0  0.41792787551E+02 -0.94751443590E+03  0.14135188130E+04  0.17022242187E+04  0.12699999809E+01 0.  1.
       -4    1    3    3    0  502 -0.41792787551E+02  0.94751443590E+03 -0.10363755014E+04  0.14048508946E+04  0.12699999809E+01 0. -1.
</event>
<event>
 5   0  0.6630125E-07  0.3408450E+04  0.7818609E-02  0.8135835E-01
       -1   -1    0    0    0  501  0.00000000000E+00  0.00000000000E+00  0.11924480291E+04  0.11924480291E+04  0.50400001928E-02 0. -1.
        1   -1    0    0  501    0  0.00000000000E+00  0.00000000000E+00 -0.24356474821E+04  0.24356474821E+04  0.50400001928E-02 0.  1.
    10030    2    1    2    0    0  0.00000000000E+00  0.00000000000E+00 -0.12431994530E+04  0.36280955113E+04  0.34084501109E+04 0.  0.
        5    1    3    3  502    0  0.12900324251E+04  0.10888177841E+04 -0.37275452574E+03  0.17287787167E+04  0.46999998093E+01 0.  1.
       -5    1    3    3    0  502 -0.12900324251E+04 -0.10888177841E+04 -0.87044492730E+03  0.18993167946E+04  0.46999998093E+01 0. -1.
</event>
<event>
 5   0  0.2020725E-06  0.2433570E+04  0.7818609E-02  0.8427041E-01
        2   -1    0    0  501    0  0.00000000000E+00  0.00000000000E+00  0.48501145027E+03  0.48501145028E+03  0.25500000920E-02 0.  1.
       -2   -1    0    0    0  501  0.00000000000E+00  0.00000000000E+00 -0.30526420392E+04  0.30526420392E+04  0.25500000920E-02 0. -1.
    10030    2    1    2    0    0  0.00000000000E+00  0.00000000000E+00 -0.25676305890E+04  0.35376534895E+04  0.24335704984E+04 0.  0.
        3    1    3    3  502    0 -0.43049415207E+03 -0.48589008509E+03  0.21224981110E+03  0.68298197800E+03  0.10100000352E+00 0.  1.
       -3    1    3    3    0  502  0.43049415207E+03  0.48589008509E+03 -0.27798804001E+04  0.28546715115E+04  0.10100000352E+00 0. -1.
</event>
<event>
 5   0  0.2023479E-06  0.3495868E+04  0.7818609E-02  0.8114770E-01
       -2   -1    0    0    0  501  0.00000000000E+00  0.00000000000E+00  0.14269391716E+04  0.14269391716E+04  0.25500000920E-02 0. -1.
        2   -1    0    0  501    0  0.00000000000E+00  0.00000000000E+00 -0.21411372957E+04  0.21411372957E+04  0.25500000920E-02 0.  1.
    10030    2    1    2    0    0  0.00000000000E+00  0.00000000000E+00 -0.71419812416E+03  0.35680764673E+04  0.34958676628E+04 0.  0.
        5    1    3    3  502    0 -0.51991251131E+03  0.71749918873E+03 -0.18949178179E+04  0.20918531812E+04  0.46999998093E+01 0.  1.
       -5    1    3    3    0  502  0.51991251131E+03 -0.71749918873E+03  0.11807196937E+04  0.14762232861E+04  0.46999998093E+01 0. -1.
</event>
<event>
 5   0  0.6630125E-07  0.3556908E+04  0.7818609E-02  0.8100434E-01
       -3   -1    0    0    0  501  0.00000000000E+00  0.00000000000E+00  0.24115091394E+04  0.24115091415E+04  0.10100000352E+00 0.  1.
        3   -1    0    0  501    0  0.00000000000E+00  0.00000000000E+00 -0.13115843932E+04  0.13115843970E+04  0.10100000352E+00 0. -1.
    10030    2    1    2    0    0  0.00000000000E+00  0.00000000000E+00  0.10999247462E+04  0.37230935385E+04  0.35569075121E+04 0.  0.
        4    1    3    3  502    0 -0.80969323602E+03 -0.94210088456E+03 -0.78218994835E+03  0.14679849936E+04  0.12699999809E+01 0. -1.
       -4    1    3    3    0  502  0.80969323602E+03  0.94210088456E+03  0.18821146946E+04  0.22551085450E+04  0.12699999809E+01 0.  1.
</event>
<event>
 5   0  0.1999883E-06  0.3365104E+04  0.7818609E-02  0.8146524E-01
        2   -1    0    0  501    0  0.00000000000E+00  0.00000000000E+00  0.22639123155E+04  0.22639123155E+04  0.25500000920E-02 0. -1.
       -2   -1    0    0    0  501  0.00000000000E+00  0.00000000000E+00 -0.12504816780E+04  0.12504816780E+04  0.25500000920E-02 0.  1.
    10030    2    1    2    0    0  0.00000000000E+00  0.00000000000E+00  0.10134306375E+04  0.35143939936E+04  0.33651037852E+04 0.  0.
        4    1    3    3  502    0  0.59702156474E+03 -0.26328793783E+03 -0.11129666473E+04  0.12901362943E+04  0.12699999809E+01 0.  1.
       -4    1    3    3    0  502 -0.59702156474E+03  0.26328793783E+03  0.21263972848E+04  0.22242576993E+04  0.12699999809E+01 0. -1.
</event>
<event>
 5   0  0.6630125E-07  0.3788976E+04  0.7818609E-02  0.8048525E-01
        1   -1    0    0  501    0  0.00000000000E+00  0.00000000000E+00  0.18248531724E+04  0.18248531724E+04  0.50400001928E-02 0. -1.
       -1   -1    0    0    0  501  0.00000000000E+00  0.00000000000E+00 -0.19667797521E+04  0.19667797521E+04  0.50400001928E-02 0.  1.
    10030    2    1    2    0    0  0.00000000000E+00  0.00000000000E+00 -0.14192657963E+03  0.37916329245E+04  0.37889757297E+04 0.  0.
        1    1    3    3  502    0  0.15868045633E+04 -0.10345847508E+04 -0.98730570101E+02  0.18968558337E+04  0.50400001928E-02 0. -1.
       -1    1    3    3    0  502 -0.15868045633E+04  0.10345847508E+04 -0.43196009526E+02  0.18947770908E+04  0.50400001928E-02 0.  1.
</event>
<event>
 5   0  0.6630125E-07  0.3064612E+04  0.7818609E-02  0.8225517E-01
        1   -1    0    0  501    0  0.00000000000E+00  0.00000000000E+00  0.80880182545E+03  0.80880182546E+03  0.50400001928E-02 0.  1.
       -1   -1    0    0    0  501  0.00000000000E+00  0.00000000000E+00 -0.29030126037E+04  0.29030126037E+04  0.50400001928E-02 0. -1.
    10030    2    1    2    0    0  0.00000000000E+00  0.00000000000E+00 -0.20942107782E+04  0.37118144292E+04  0.30646121407E+04 0.  0.
        4    1    3    3  502    0 -0.53082581827E+01  0.33038677072E+03  0.76513633693E+03  0.83343795381E+03  0.12699999809E+01 0.  1.
       -4    1    3    3    0  502  0.53082581827E+01 -0.33038677072E+03 -0.28593471152E+04  0.28783764753E+04  0.12699999809E+01 0. -1.
</event>
<event>
 5   0  0.6630125E-07  0.3505623E+04  0.7818609E-02  0.8112459E-01
       -1   -1    0    0    0  501  0.00000000000E+00  0.00000000000E+00  0.12423824378E+04  0.12423824378E+04  0.50400001928E-02 0. -1.
        1   -1    0    0  501    0  0.00000000000E+00  0.00000000000E+00 -0.24729492368E+04  0.24729492368E+04  0.50400001928E-02 0.  1.
    10030    2    1    2    0    0  0.00000000000E+00  0.00000000000E+00 -0.12305667990E+04  0.37153316746E+04  0.35056233120E+04 0.  0.
        4    1    3    3  502    0 -0.51232903884E+03  0.15985364082E+04 -0.80575412547E+02  0.16805635074E+04  0.12699999809E+01 0.  1.
       -4    1    3    3    0  502  0.51232903884E+03 -0.15985364082E+04 -0.11499913864E+04  0.20347681672E+04  0.12699999809E+01 0. -1.
</event>
<event>
 5   0  0.6630125E-07  0.3476047E+04  0.7818609E-02  0.8119490E-01
       -1   -1    0    0    0  501  0.00000000000E+00  0.00000000000E+00  0.15002728723E+04  0.15002728724E+04  0.50400001928E-02 0. -1.
        1   -1    0    0  501    0  0.00000000000E+00  0.00000000000E+00 -0.20134509678E+04  0.20134509679E+04  0.50400001928E-02 0.  1.
    10030    2    1    2    0    0  0.00000000000E+00  0.00000000000E+00 -0.51317809550E+03  0.35137238402E+04  0.34760471038E+04 0.  0.
        4    1    3    3  502    0 -0.41899893899E+03  0.48015316852E+03  0.13779150704E+04  0.15181431851E+04  0.12699999809E+01 0. -1.
       -4    1    3    3    0  502  0.41899893899E+03 -0.48015316852E+03 -0.18910931659E+04  0.19955806552E+04  0.12699999809E+01 0.  1.
</event>
<event>
 5   0  0.6630125E-07  0.2504859E+04  0.7818609E-02  0.8401257E-01
       -1   -1    0    0    0  501  0.00000000000E+00  0.00000000000E+00  0.97479961461E+03  0.97479961462E+03  0.50400001928E-02 0.  1.
        1   -1    0    0  501    0  0.00000000000E+00  0.00000000000E+00 -0.16091302258E+04  0.16091302258E+04  0.50400001928E-02 0. -1.
    10030    2    1    2    0    0  0.00000000000E+00  0.00000000000E+00 -0.63433061118E+03  0.25839298404E+04  0.25048588974E+04 0.  0.
        1    1    3    3  502    0  0.82315229881E+03  0.64843420520E+03  0.39044222763E+03  0.11182538883E+04  0.50400001928E-02 0.  1.
       -1    1    3    3    0  502 -0.82315229881E+03 -0.64843420520E+03 -0.10247728388E+04  0.14656759521E+04  0.50400001928E-02 0. -1.
</event>
<event>
 5   0  0.6630125E-07  0.2745596E+04  0.7818609E-02  0.8320360E-01
       -1   -1    0    0    0  501  0.00000000000E+00  0.00000000000E+00  0.17235636653E+04  0.17235636653E+04  0.50400001928E-02 0. -1.
        1   -1    0    0  501    0  0.00000000000E+00  0.00000000000E+00 -0.10934176505E+04  0.10934176505E+04  0.50400001928E-02 0.  1.
    10030    2    1    2    0    0  0.00000000000E+00  0.00000000000E+00  0.63014601481E+03  0.28169813159E+04  0.27455964259E+04 0.  0.
        5    1    3    3  502    0  0.11004791378E+04 -0.74282075634E+03 -0.42875706484E+02  0.13284191451E+04  0.46999998093E+01 0.  1.
       -5    1    3    3    0  502 -0.11004791378E+04  0.74282075634E+03  0.67302172129E+03  0.14885621708E+04  0.46999998093E+01 0. -1.
</event>
<event>
 5   0  0.1999883E-06  0.3356065E+04  0.7818609E-02  0.8148774E-01
        2   -1    0    0  501    0  0.00000000000E+00  0.00000000000E+00  0.18375674278E+04  0.18375674278E+04  0.25500000920E-02 0.  1.
       -2   -1    0    0    0  501  0.00000000000E+00  0.00000000000E+00 -0.15323484503E+04  0.15323484503E+04  0.25500000920E-02 0. -1.
    10030    2    1    2    0    0  0.00000000000E+00  0.00000000000E+00  0.30521897743E+03  0.33699158781E+04  0.33560653154E+04 0.  0.
        4    1    3    3  502    0  0.62994610559E+03  0.11579424029E+04  0.11952247472E+04  0.17793893654E+04  0.12699999809E+01 0. -1.
       -4    1    3    3    0  502 -0.62994610559E+03 -0.11579424029E+04 -0.89000576977E+03  0.15905265127E+04  0.12699999809E+01 0.  1.
</event>
<event>
 5   0  0.6630125E-07  0.3618740E+04  0.7818609E-02  0.8086212E-01
       -1   -1    0    0    0  501  0.00000000000E+00  0.00000000000E+00  0.15121173518E+04  0.15121173518E+04  0.50400001928E-02 0. -1.
        1   -1    0    0  501    0  0.00000000000E+00  0.00000000000E+00 -0.21650567914E+04  0.21650567915E+04  0.50400001928E-02 0.  1.
    10030    2    1    2    0    0  0.00000000000E+00  0.00000000000E+00 -0.65293943961E+03  0.36771741433E+04  0.36187400802E+04 0.  0.
        5    1    3    3  502    0  0.76797491009E+03  0.16379919762E+04 -0.35851746801E+03  0.18442776476E+04  0.46999998093E+01 0. -1.
       -5    1    3    3    0  502 -0.76797491009E+03 -0.16379919762E+04 -0.29442197160E+03  0.18328964957E+04  0.46999998093E+01 0.  1.
</event>
<event>
 5   0  0.1999883E-06  0.3399192E+04  0.7818609E-02  0.8138105E-01
        2   -1    0    0  501    0  0.00000000000E+00  0.00000000000E+00  0.23115170408E+04  0.23115170408E+04  0.25500000920E-02 0.  1.
       -2   -1    0    0    0  501  0.00000000000E+00  0.00000000000E+00 -0.12496672739E+04  0.12496672739E+04  0.25500000920E-02 0. -1.
    10030    2    1    2    0    0  0.00000000000E+00  0.00000000000E+00  0.10618497669E+04  0.35611843146E+04  0.33991923740E+04 0.  0.
        4    1    3    3  502    0  0.50567861557E+03  0.43584514894E+03 -0.11065563402E+04  0.12923391207E+04  0.12699999809E+01 0. -1.
       -4    1    3    3    0  502 -0.50567861557E+03 -0.43584514894E+03  0.21684061070E+04  0.22688451939E+04  0.12699999809E+01 0.  1.
</event>
<event>
 5   0  0.6630125E-07  0.3301635E+04  0.7818609E-02  0.8162480E-01
        1   -1    0    0  501    0  0.00000000000E+00  0.00000000000E+00  0.18737079495E+04  0.18737079495E+04  0.50400001928E-02 0. -1.
       -1   -1    0    0    0  501  0.00000000000E+00  0.00000000000E+00 -0.14544409804E+04  0.14544409804E+04  0.50400001928E-02 0.  1.
    10030    2    1    2    0    0  0.00000000000E+00  0.00000000000E+00  0.41926696904E+03  0.33281489299E+04  0.33016345207E+04 0.  0.
        1    1    3    3  502    0 -0.99872154468E+03 -0.16115741191E+03  0.15246330676E+04  0.18297328838E+04  0.50400001928E-02 0.  1.
       -1    1    3    3    0  502  0.99872154468E+03  0.16115741191E+03 -0.11053660986E+04  0.14984160461E+04  0.50400001928E-02 0. -1.
</event>
<event>
 5   0  0.2073287E-06  0.2878910E+04  0.7818609E-02  0.8279180E-01
        2   -1    0    0  501    0  0.00000000000E+00  0.00000000000E+00  0.18367710496E+04  0.18367710496E+04  0.25500000920E-02 0. -1.
       -2   -1    0    0    0  501  0.00000000000E+00  0.00000000000E+00 -0.11280835709E+04  0.11280835709E+04  0.25500000920E-02 0.  1.
    10030    2    1    2    0    0  0.00000000000E+00  0.00000000000E+00  0.70868747868E+03  0.29648546205E+04  0.28789103804E+04 0.  0.
        1    1    3    3  502    0  0.12069706353E+04 -0.49570240752E+03 -0.27169532310E+03  0.13327855566E+04  0.50400001928E-02 0.  1.
       -1    1    3    3    0  502 -0.12069706353E+04  0.49570240752E+03  0.98038280178E+03  0.16320690639E+04  0.50400001928E-02 0. -1.
</event>
<event>
 5   0  0.6890600E-07  0.3451288E+04  0.7818609E-02  0.8125432E-01
        1   -1    0    0  501    0  0.00000000000E+00  0.00000000000E+00  0.31765643051E+04  0.31765643051E+04  0.50400001928E-02 0.  1.
       -1   -1    0    0    0  501  0.00000000000E+00  0.00000000000E+00 -0.93744256416E+03  0.93744256418E+03  0.50400001928E-02 0. -1.
    10030    2    1    2    0    0  0.00000000000E+00  0.00000000000E+00  0.22391217409E+04  0.41140068692E+04  0.34512876365E+04 0.  0.
        3    1    3    3  502    0 -0.33840287924E+03 -0.29301360707E+03  0.31061533503E+04  0.31382418850E+04  0.10100000352E+00 0.  1.
       -3    1    3    3    0  502  0.33840287924E+03  0.29301360707E+03 -0.86703160943E+03  0.97576498428E+03  0.10100000352E+00 0. -1.
</event>
<event>
 5   0  0.2001768E-06  0.2358605E+04  0.7818609E-02  0.8455166E-01
        2   -1    0    0  501    0  0.00000000000E+00  0.00000000000E+00  0.11667171049E+04  0.11667171049E+04  0.25500000920E-02 0. -1.
       -2   -1    0    0    0  501  0.00000000000E+00  0.00000000000E+00 -0.11920238677E+04  0.11920238677E+04  0.25500000920E-02 0.  1.
    10030    2    1    2    0    0  0.00000000000E+00  0.00000000000E+00 -0.25306762742E+02  0.23587409726E+04  0.23586052115E+04 0.  0.
        2    1    3    3  502    0 -0.38861455801E+03  0.97691768930E+03 -0.54687996405E+03  0.11851021650E+04  0.25500000920E-02 0.  1.
       -2    1    3    3    0  502  0.38861455801E+03 -0.97691768930E+03  0.52157320131E+03  0.11736388076E+04  0.25500000920E-02 0. -1.
</event>
<event>
 5   0  0.6630125E-07  0.3473163E+04  0.7818609E-02  0.8120180E-01
        1   -1    0    0  501    0  0.00000000000E+00  0.00000000000E+00  0.20139205281E+04  0.20139205281E+04  0.50400001928E-02 0. -1.
       -1   -1    0    0    0  501  0.00000000000E+00  0.00000000000E+00 -0.14974352629E+04  0.14974352629E+04  0.50400001928E-02 0.  1.
    10030    2    1    2    0    0  0.00000000000E+00  0.00000000000E+00  0.51648526518E+03  0.35113557910E+04  0.34731631781E+04 0.  0.
        1    1    3    3  502    0  0.11165084717E+04  0.11301074843E+04 -0.45088440544E+03  0.16513724112E+04  0.50400001928E-02 0.  1.
       -1    1    3    3    0  502 -0.11165084717E+04 -0.11301074843E+04  0.96736967062E+03  0.18599833798E+04  0.50400001928E-02 0. -1.
</event>
<event>
 5   0  0.6890600E-07  0.2450887E+04  0.7818609E-02  0.8420694E-01
       -1   -1    0    0    0  501  0.00000000000E+00  0.00000000000E+00  0.72028750782E+03  0.72028750784E+03  0.50400001928E-02 0. -1.
        1   -1    0    0  501    0  0.00000000000E+00  0.00000000000E+00 -0.20848782713E+04  0.20848782713E+04  0.50400001928E-02 0.  1.
    10030    2    1    2    0    0  0.00000000000E+00  0.00000000000E+00 -0.13645907634E+04  0.28051657791E+04  0.24508870020E+04 0.  0.
        3    1    3    3  502    0 -0.40437415511E+03 -0.10911430762E+04 -0.24257301117E+03  0.11886771412E+04  0.10100000352E+00 0.  1.
       -3    1    3    3    0  502  0.40437415511E+03  0.10911430762E+04 -0.11220177523E+04  0.16164886379E+04  0.10100000352E+00 0. -1.
</event>
<event>
 5   0  0.6630125E-07  0.3553984E+04  0.7818609E-02  0.8101114E-01
       -1   -1    0    0    0  501  0.00000000000E+00  0.00000000000E+00  0.22815264549E+04  0.22815264549E+04  0.50400001928E-02 0.  1.
        1   -1    0    0  501    0  0.00000000000E+00  0.00000000000E+00 -0.13840300965E+04  0.13840300965E+04  0.50400001928E-02 0. -1.
    10030    2    1    2    0    0  0.00000000000E+00  0.00000000000E+00  0.89749635842E+03  0.36655565514E+04  0.35539844003E+04 0.  0.
        1    1    3    3  502    0  0.78482251665E+03  0.73147034653E+03 -0.10123058781E+04  0.14750452336E+04  0.50400001928E-02 0. -1.
       -1    1    3    3    0  502 -0.78482251665E+03 -0.73147034653E+03  0.19098022365E+04  0.21905113177E+04  0.50400001928E-02 0.  1.
</event>
<event>
 5   0  0.2023479E-06  0.3445508E+04  0.7818609E-02  0.8126827E-01
        2   -1    0    0  501    0  0.00000000000E+00  0.00000000000E+00  0.17904410898E+04  0.17904410898E+04  0.25500000920E-02 0. -1.
       -2   -1    0    0    0  501  0.00000000000E+00  0.00000000000E+00 -0.16576262735E+04  0.16576262735E+04  0.25500000920E-02 0.  1.
    10030    2    1    2    0    0  0.00000000000E+00  0.00000000000E+00  0.13281481630E+03  0.34480673633E+04  0.34455084917E+04 0.  0.
        5    1    3    3  502    0 -0.10550116803E+04 -0.77274205770E+03 -0.10558888725E+04  0.16808043713E+04  0.46999998093E+01 0.  1.
       -5    1    3    3    0  502  0.10550116803E+04  0.77274205770E+03  0.11887036888E+04  0.17672629921E+04  0.46999998093E+01 0. -1.
</event>
<event>
 5   0  0.2020725E-06  0.3467990E+04  0.7818609E-02  0.8121418E-01
       -2   -1    0    0    0  501  0.00000000000E+00  0.00000000000E+00  0.16258208728E+04  0.16258208728E+04  0.25500000920E-02 0.  1.
        2   -1    0    0  501    0  0.00000000000E+00  0.00000000000E+00 -0.18493663592E+04  0.18493663592E+04  0.25500000920E-02 0. -1.
    10030    2    1    2    0    0  0.00000000000E+00  0.00000000000E+00 -0.22354548646E+03  0.34751872320E+04  0.34679898663E+04 0.  0.
        3    1    3    3  502    0  0.72136073411E+03 -0.13359786749E+04 -0.95108973620E+03  0.17915836640E+04  0.10100000352E+00 0. -1.
       -3    1    3    3    0  502 -0.72136073411E+03  0.13359786749E+04  0.72754424974E+03  0.16836035680E+04  0.10100000352E+00 0.  1.
</event>
<event>
 5   0  0.2073287E-06  0.3546038E+04  0.7818609E-02  0.8102965E-01
        2   -1    0    0  501    0  0.00000000000E+00  0.00000000000E+00  0.21725848499E+04  0.21725848499E+04  0.25500000920E-02 0. -1.
       -2   -1    0    0    0  501  0.00000000000E+00  0.00000000000E+00 -0.14469384322E+04  0.14469384322E+04  0.25500000920E-02 0.  1.
    10030    2    1    2    0    0  0.00000000000E+00  0.00000000000E+00  0.72564641772E+03  0.36195232821E+04  0.35460380802E+04 0.  0.
        1    1    3    3  502    0  0.84457966829E+03 -0.15546684575E+04  0.24516216821E+03  0.17861728129E+04  0.50400001928E-02 0.  1.
       -1    1    3    3    0  502 -0.84457966829E+03  0.15546684575E+04  0.48048424951E+03  0.18333504692E+04  0.50400001928E-02 0. -1.
</event>
<event>
 5   0  0.7378896E-07  0.2184670E+04  0.7818609E-02  0.8524836E-01
       -1   -1    0    0    0  501  0.00000000000E+00  0.00000000000E+00  0.97940275894E+03  0.97940275896E+03  0.50400001928E-02 0. -1.
        1   -1    0    0  501    0  0.00000000000E+00  0.00000000000E+00 -0.12182886238E+04  0.12182886238E+04  0.50400001928E-02 0.  1.
    10030    2    1    2    0    0  0.00000000000E+00  0.00000000000E+00 -0.23888586488E+03  0.21976913828E+04  0.21846695305E+04 0.  0.
        2    1    3    3  502    0  0.10223243894E+04 -0.29782162597E+03  0.12562847080E+03  0.10722067854E+04  0.25500000920E-02 0. -1.
       -2    1    3    3    0  502 -0.10223243894E+04  0.29782162597E+03 -0.36451433568E+03  0.11254845974E+04  0.25500000920E-02 0.  1.
</event>
<event>
 5   0  0.6630125E-07  0.3510465E+04  0.7818609E-02  0.8111314E-01
        1   -1    0    0  501    0  0.00000000000E+00  0.00000000000E+00  0.26425519908E+04  0.26425519908E+04  0.50400001928E-02 0. -1.
       -1   -1    0    0    0  501  0.00000000000E+00  0.00000000000E+00 -0.11658580733E+04  0.11658580733E+04  0.50400001928E-02 0.  1.
    10030    2    1    2    0    0  0.00000000000E+00  0.00000000000E+00  0.14766939175E+04  0.38084100641E+04  0.35104646830E+04 0.  0.
        1    1    3    3  502    0  0.57636955442E+03 -0.15180605167E+04  0.14613408510E+04  0.21845426704E+04  0.50400001928E-02 0. -1.
       -1    1    3    3    0  502 -0.57636955442E+03  0.15180605167E+04  0.15353066484E+02  0.16238673937E+04  0.50400001928E-02 0.  1.
</event>
<event>
 5   0  0.2023479E-06  0.3489125E+04  0.7818609E-02  0.8116372E-01
       -2   -1    0    0    0  501  0.00000000000E+00  0.00000000000E+00  0.12437446851E+04  0.12437446851E+04  0.25500000920E-02 0.  1.
        2   -1    0    0  501    0  0.00000000000E+00  0.00000000000E+00 -0.24470449049E+04  0.24470449049E+04  0.25500000920E-02 0. -1.
    10030    2    1    2    0    0  0.00000000000E+00  0.00000000000E+00 -0.12033002198E+04  0.36907895900E+04  0.34891254461E+04 0.  0.
        5    1    3    3  502    0 -0.47425903185E+03  0.69588070068E+03  0.10144994289E+04  0.13184850246E+04  0.46999998093E+01 0.  1.
       -5    1    3    3    0  502  0.47425903185E+03 -0.69588070068E+03 -0.22177996487E+04  0.23723045654E+04  0.46999998093E+01 0. -1.
</event>
<event>
 5   0  0.6890600E-07  0.3228049E+04  0.7818609E-02  0.8181449E-01
       -1   -1    0    0    0  501  0.00000000000E+00  0.00000000000E+00  0.11049099652E+04  0.11049099652E+04  0.50400001928E-02 0.  1.
        1   -1    0    0  501    0  0.00000000000E+00  0.00000000000E+00 -0.23577263177E+04  0.23577263177E+04  0.50400001928E-02 0. -1.
    10030    2    1    2    0    0  0.00000000000E+00  0.00000000000E+00 -0.12528163526E+04  0.34626362829E+04  0.32280491345E+04 0.  0.
        3    1    3    3  502    0 -0.56200448340E+03  0.13471792638E+04  0.11236139174E+03  0.14640239413E+04  0.10100000352E+00 0.  1.
       -3    1    3    3    0  502  0.56200448340E+03 -0.13471792638E+04 -0.13651777443E+04  0.19986123416E+04  0.10100000352E+00 0. -1.
</event>
<event>
 5   0  0.6630125E-07  0.3195364E+04  0.7818609E-02  0.8190043E-01
       -1   -1    0    0    0  501  0.00000000000E+00  0.00000000000E+00  0.17118800462E+04  0.17118800462E+04  0.50400001928E-02 0.  1.
        1   -1    0    0  501    0  0.00000000000E+00  0.00000000000E+00 -0.14911020203E+04  0.14911020203E+04  0.50400001928E-02 0. -1.
    10030    2    1    2    0    0  0.00000000000E+00  0.00000000000E+00  0.22077802592E+03  0.32029820665E+04  0.31953640140E+04 0.  0.
        4    1    3    3  502    0 -0.55157120338E+03 -0.90355330091E+03 -0.10891036953E+04  0.15188113221E+04  0.12699999809E+01 0. -1.
       -4    1    3    3    0  502  0.55157120338E+03  0.90355330091E+03  0.13098817212E+04  0.16841707445E+04  0.12699999809E+01 0.  1.
</event>
<event>
 5   0  0.2020725E-06  0.3475105E+04  0.7818609E-02  0.8119715E-01
       -2   -1    0    0    0  501  0.00000000000E+00  0.00000000000E+00  0.18256994380E+04  0.18256994380E+04  0.25500000920E-02 0.  1.
        2   -1    0    0  501    0  0.00000000000E+00  0.00000000000E+00 -0.16536613602E+04  0.16536613602E+04  0.25500000920E-02 0. -1.
    10030    2    1    2    0    0  0.00000000000E+00  0.00000000000E+00  0.17203807784E+03  0.34793607983E+04  0.34751049573E+04 0.  0.
        3    1    3    3  502    0 -0.57572264639E+03 -0.78544497642E+03  0.15267768897E+04  0.18109191196E+04  0.10100000352E+00 0.  1.
       -3    1    3    3    0  502  0.57572264639E+03  0.78544497642E+03 -0.13547388119E+04  0.16684416787E+04  0.10100000352E+00 0. -1.
</event>
<event>
 5   0  0.6630125E-07  0.2705773E+04  0.7818609E-02  0.8333134E-01
       -1   -1    0    0    0  501  0.00000000000E+00  0.00000000000E+00  0.15965613468E+04  0.15965613468E+04  0.50400001928E-02 0.  1.
        1   -1    0    0  501    0  0.00000000000E+00  0.00000000000E+00 -0.11464024341E+04  0.11464024341E+04  0.50400001928E-02 0. -1.
    10030    2    1    2    0    0  0.00000000000E+00  0.00000000000E+00  0.45015891264E+03  0.27429637809E+04  0.27057729500E+04 0.  0.
        5    1    3    3  502    0  0.25641103862E+03 -0.11454478338E+04  0.90699336776E+03  0.14833935486E+04  0.46999998093E+01 0.  1.
       -5    1    3    3    0  502 -0.25641103862E+03  0.11454478338E+04 -0.45683445512E+03  0.12595702323E+04  0.46999998093E+01 0. -1.
</event>
<event>
 5   0  0.2023479E-06  0.3482688E+04  0.7818609E-02  0.8117905E-01
       -2   -1    0    0    0  501  0.00000000000E+00  0.00000000000E+00  0.12761449503E+04  0.12761449503E+04  0.25500000920E-02 0.  1.
        2   -1    0    0  501    0  0.00000000000E+00  0.00000000000E+00 -0.23761242560E+04  0.23761242560E+04  0.25500000920E-02 0. -1.
    10030    2    1    2    0    0  0.00000000000E+00  0.00000000000E+00 -0.10999793058E+04  0.36522692063E+04  0.34826880254E+04 0.  0.
        5    1    3    3  502    0  0.13001074968E+04 -0.86162039273E+03 -0.13620242965E+04  0.20707007217E+04  0.46999998093E+01 0. -1.
       -5    1    3    3    0  502 -0.13001074968E+04  0.86162039273E+03  0.26204499070E+03  0.15815684847E+04  0.46999998093E+01 0.  1.
</event>
<event>
 5   0  0.1999883E-06  0.3473601E+04  0.7818609E-02  0.8120075E-01
        2   -1    0    0  501    0  0.00000000000E+00  0.00000000000E+00  0.16115175046E+04  0.16115175046E+04  0.25500000920E-02 0.  1.
       -2   -1    0    0    0  501  0.00000000000E+00  0.00000000000E+00 -0.18718233404E+04  0.18718233404E+04  0.25500000920E-02 0. -1.
    10030    2    1    2    0    0  0.00000000000E+00  0.00000000000E+00 -0.26030583585E+03  0.34833408450E+04  0.34736010586E+04 0.  0.
        4    1    3    3  502    0 -0.76529117991E+03  0.30470505882E+03 -0.16634787474E+04  0.18562540017E+04  0.12699999809E+01 0. -1.
       -4    1    3    3    0  502  0.76529117991E+03 -0.30470505882E+03  0.14031729116E+04  0.16270868433E+04  0.12699999809E+01 0.  1.
</event>
<event>
 5   0  0.2073287E-06  0.2566425E+04  0.7818609E-02  0.8379696E-01
       -2   -1    0    0    0  501  0.00000000000E+00  0.00000000000E+00  0.93876864978E+03  0.93876864979E+03  0.25500000920E-02 0. -1.
        2   -1    0    0  501    0  0.00000000000E+00  0.00000000000E+00 -0.17540362505E+04  0.17540362505E+04  0.25500000920E-02 0.  1.
    10030    2    1    2    0    0  0.00000000000E+00  0.00000000000E+00 -0.81526760071E+03  0.26928049003E+04  0.25664249395E+04 0.  0.
        1    1    3    3  502    0 -0.12039391281E+04 -0.11412870250E+03 -0.85787968492E+03  0.14827178891E+04  0.50400001928E-02 0.  1.
       -1    1    3    3    0  502  0.12039391281E+04  0.11412870250E+03  0.42612084206E+02  0.12100870112E+04  0.50400001928E-02 0. -1.
</event>
<event>
 5   0  0.2073287E-06  0.3391434E+04  0.7818609E-02  0.8140012E-01
        2   -1    0    0  501    0  0.00000000000E+00  0.00000000000E+00  0.24261595559E+04  0.24261595559E+04  0.25500000920E-02 0.  1.
       -2   -1    0    0    0  501  0.00000000000E+00  0.00000000000E+00 -0.11851882931E+04  0.11851882931E+04  0.25500000920E-02 0. -1.
    10030    2    1    2    0    0  0.00000000000E+00  0.00000000000E+00  0.12409712628E+04  0.36113478489E+04  0.33914338577E+04 0.  0.
        1    1    3    3  502    0 -0.72272329913E+02 -0.12116102295E+04  0.18814305138E+04  0.22389737418E+04  0.50400001928E-02 0.  1.
       -1    1    3    3    0  502  0.72272329913E+02  0.12116102295E+04 -0.64045925108E+03  0.13723741072E+04  0.50400001928E-02 0. -1.
</event>
<event>
 5   0  0.7378896E-07  0.2720365E+04  0.7818609E-02  0.8328428E-01
       -1   -1    0    0    0  501  0.00000000000E+00  0.00000000000E+00  0.98598645798E+03  0.98598645800E+03  0.50400001928E-02 0.  1.
        1   -1    0    0  501    0  0.00000000000E+00  0.00000000000E+00 -0.18763906502E+04  0.18763906502E+04  0.50400001928E-02 0. -1.
    10030    2    1    2    0    0  0.00000000000E+00  0.00000000000E+00 -0.89040419225E+03  0.28623771082E+04  0.27203645131E+04 0.  0.
        2    1    3    3  502    0 -0.12546400001E+04  0.52220558774E+03 -0.38498180087E+03  0.14124557313E+04  0.25500000920E-02 0.  1.
       -2    1    3    3    0  502  0.12546400001E+04 -0.52220558774E+03 -0.50542239138E+03  0.14499213770E+04  0.25500000920E-02 0. -1.
</event>
<event>
 5   0  0.2073287E-06  0.3523713E+04  0.7818609E-02  0.8108193E-01
       -2   -1    0    0    0  501  0.00000000000E+00  0.00000000000E+00  0.12398933865E+04  0.12398933865E+04  0.25500000920E-02 0.  1.
        2   -1    0    0  501    0  0.00000000000E+00  0.00000000000E+00 -0.25035520269E+04  0.25035520269E+04  0.25500000920E-02 0. -1.
    10030    2    1    2    0    0  0.00000000000E+00  0.00000000000E+00 -0.12636586404E+04  0.37434454134E+04  0.35237125881E+04 0.  0.
        1    1    3    3  502    0  0.51130990324E+03 -0.10647261933E+04 -0.20206603688E+04  0.23405443832E+04  0.50400001928E-02 0. -1.
       -1    1    3    3    0  502 -0.51130990324E+03  0.10647261933E+04  0.75700172835E+03  0.14029010302E+04  0.50400001928E-02 0.  1.
</event>
<event>
 5   0  0.6630125E-07  0.3503178E+04  0.7818609E-02  0.8113037E-01
        1   -1    0    0  501    0  0.00000000000E+00  0.00000000000E+00  0.17687555906E+04  0.17687555906E+04  0.50400001928E-02 0. -1.
       -1   -1    0    0    0  501  0.00000000000E+00  0.00000000000E+00 -0.17345890287E+04  0.17345890287E+04  0.50400001928E-02 0.  1.
    10030    2    1    2    0    0  0.00000000000E+00  0.00000000000E+00  0.34166561937E+02  0.35033446193E+04  0.35031780096E+04 0.  0.
        5    1    3    3  502    0 -0.10365803228E+04  0.93473788165E+03 -0.10411769879E+04  0.17413515679E+04  0.46999998093E+01 0.  1.
       -5    1    3    3    0  502  0.10365803228E+04 -0.93473788165E+03  0.10753435498E+04  0.17619930514E+04  0.46999998093E+01 0. -1.
</event>
<event>
 5   0  0.6890600E-07  0.3540932E+04  0.7818609E-02  0.8104158E-01
       -1   -1    0    0    0  501  0.00000000000E+00  0.00000000000E+00  0.13318733540E+04  0.13318733540E+04  0.50400001928E-02 0.  1.
        1   -1    0    0  501    0  0.00000000000E+00  0.00000000000E+00 -0.23534894595E+04  0.23534894595E+04  0.50400001928E-02 0. -1.
    10030    2    1    2    0    0  0.00000000000E+00  0.00000000000E+00 -0.10216161055E+04  0.36853628135E+04  0.35409320242E+04 0.  0.
        3    1    3    3  502    0 -0.57008144777E+03  0.31332487896E+03  0.12029843706E+04  0.13676025530E+04  0.10100000352E+00 0.  1.
       -3    1    3    3    0  502  0.57008144777E+03 -0.31332487896E+03 -0.22246004761E+04  0.23177602605E+04  0.10100000352E+00 0. -1.
</event>
<event>
 5   0  0.1999883E-06  0.3504844E+04  0.7818609E-02  0.8112643E-01
       -2   -1    0    0    0  501  0.00000000000E+00  0.00000000000E+00  0.13734218229E+04  0.13734218229E+04  0.25500000920E-02 0. -1.
        2   -1    0    0  501    0  0.00000000000E+00  0.00000000000E+00 -0.22360081759E+04  0.22360081759E+04  0.25500000920E-02 0.  1.
    10030    2    1    2    0    0  0.00000000000E+00  0.00000000000E+00 -0.86258635298E+03  0.36094299988E+04  0.35048437483E+04 0.  0.
        4    1    3    3  502    0 -0.72120331466E+03 -0.20768169660E+03  0.11995381414E+04  0.14149767750E+04  0.12699999809E+01 0. -1.
       -4    1    3    3    0  502  0.72120331466E+03  0.20768169660E+03 -0.20621244944E+04  0.21944532238E+04  0.12699999809E+01 0.  1.
</event>
<event>
 5   0  0.6630125E-07  0.2311544E+04  0.7818609E-02  0.8473383E-01
       -1   -1    0    0    0  501  0.00000000000E+00  0.00000000000E+00  0.72441012415E+03  0.72441012417E+03  0.50400001928E-02 0. -1.
        1   -1    0    0  501    0  0.00000000000E+00  0.00000000000E+00 -0.18439957733E+04  0.18439957733E+04  0.50400001928E-02 0.  1.
    10030    2    1    2    0    0  0.00000000000E+00  0.00000000000E+00 -0.11195856492E+04  0.25684058975E+04  0.23115442519E+04 0.  0.
        4    1    3    3  502    0  0.23489583461E+03  0.11272001411E+04 -0.44839560293E+03  0.12356441400E+04  0.12699999809E+01 0.  1.
       -4    1    3    3    0  502 -0.23489583461E+03 -0.11272001411E+04 -0.67119004625E+03  0.13327617575E+04  0.12699999809E+01 0. -1.
</event>
<event>
 5   0  0.2073287E-06  0.3058900E+04  0.7818609E-02  0.8227109E-01
        2   -1    0    0  501    0  0.00000000000E+00  0.00000000000E+00  0.13440037530E+04  0.13440037530E+04  0.25500000920E-02 0. -1.
       -2   -1    0    0    0  501  0.00000000000E+00  0.00000000000E+00 -0.17404843178E+04  0.17404843178E+04  0.25500000920E-02 0.  1.
    10030    2    1    2    0    0  0.00000000000E+00  0.00000000000E+00 -0.39648056480E+03  0.30844880708E+04  0.30589000998E+04 0.  0.
        1    1    3    3  502    0 -0.59155712834E+03  0.72122819010E+03  0.10239662251E+04  0.13851414254E+04  0.50400001928E-02 0. -1.
       -1    1    3    3    0  502  0.59155712834E+03 -0.72122819010E+03 -0.14204467899E+04  0.16993466454E+04  0.50400001928E-02 0.  1.
</event>
<event>
 5   0  0.2020725E-06  0.3496171E+04  0.7818609E-02  0.8114698E-01
        2   -1    0    0  501    0  0.00000000000E+00  0.00000000000E+00  0.19181452078E+04  0.19181452078E+04  0.25500000920E-02 0. -1.
       -2   -1    0    0    0  501  0.00000000000E+00  0.00000000000E+00 -0.15931032143E+04  0.15931032143E+04  0.25500000920E-02 0.  1.
    10030    2    1    2    0    0  0.00000000000E+00  0.00000000000E+00  0.32504199348E+03  0.35112484220E+04  0.34961712177E+04 0.  0.
        3    1    3    3  502    0  0.82584120124E+03  0.14176485891E+04  0.76849861412E+03  0.18117205475E+04  0.10100000352E+00 0. -1.
       -3    1    3    3    0  502 -0.82584120124E+03 -0.14176485891E+04 -0.44345662065E+03  0.16995278746E+04  0.10100000352E+00 0.  1.
</event>
<event>
 5   0  0.2020725E-06  0.3540930E+04  0.7818609E-02  0.8104158E-01
       -2   -1    0    0    0  501  0.00000000000E+00  0.00000000000E+00  0.11376375161E+04  0.11376375161E+04  0.25500000920E-02 0. -1.
        2   -1    0    0  501    0  0.00000000000E+00  0.00000000000E+00 -0.27553116888E+04  0.27553116888E+04  0.25500000920E-02 0.  1.
    10030    2    1    2    0    0  0.00000000000E+00  0.00000000000E+00 -0.16176741727E+04  0.38929492050E+04  0.35409297908E+04 0.  0.
        3    1    3    3  502    0 -0.10248807906E+04  0.10154189544E+03  0.77441681812E+03  0.12885700640E+04  0.10100000352E+00 0. -1.
       -3    1    3    3    0  502  0.10248807906E+04 -0.10154189544E+03 -0.23920909908E+04  0.26043791410E+04  0.10100000352E+00 0.  1.
</event>
<event>
 5   0  0.7378896E-07  0.3415302E+04  0.7818609E-02  0.8134161E-01
        1   -1    0    0  501    0  0.00000000000E+00  0.00000000000E+00  0.22197465104E+04  0.22197465104E+04  0.50400001928E-02 0.  1.
       -1   -1    0    0    0  501  0.00000000000E+00  0.00000000000E+00 -0.13136957508E+04  0.13136957509E+04  0.50400001928E-02 0. -1.
    10030    2    1    2    0    0  0.00000000000E+00  0.00000000000E+00  0.90605075954E+03  0.35334422612E+04  0.34153017780E+04 0.  0.
        2    1    3    3  502    0  0.46161129230E+02 -0.36663285496E+02 -0.13126427472E+04  0.13139657637E+04  0.25500000920E-02 0. -1.
       -2    1    3    3    0  502 -0.46161129230E+02  0.36663285496E+02  0.22186935067E+04  0.22194764976E+04  0.25500000920E-02 0.  1.
</event>
<event>
 5   0  0.2023479E-06  0.3396564E+04  0.7818609E-02  0.8138750E-01
       -2   -1    0    0    0  501  0.00000000000E+00  0.00000000000E+00  0.11480890919E+04  0.11480890919E+04  0.25500000920E-02 0.  1.
        2   -1    0    0  501    0  0.00000000000E+00  0.00000000000E+00 -0.25121404279E+04  0.25121404279E+04  0.25500000920E-02 0. -1.
    10030    2    1    2    0    0  0.00000000000E+00  0.00000000000E+00 -0.13640513360E+04  0.36602295199E+04  0.33965635709E+04 0.  0.
        5    1    3    3  502    0  0.15738203106E+04 -0.56535204059E+03 -0.10009844672E+04  0.19489805780E+04  0.46999998093E+01 0. -1.
       -5    1    3    3    0  502 -0.15738203106E+04  0.56535204059E+03 -0.36306686884E+03  0.17112489419E+04  0.46999998093E+01 0.  1.
</event>
<event>
 5   0  0.2023479E-06  0.3439455E+04  0.7818609E-02  0.8128290E-01
       -2   -1    0    0    0  501  0.00000000000E+00  0.00000000000E+00  0.13859741414E+04  0.13859741414E+04  0.25500000920E-02 0. -1.
        2   -1    0    0  501    0  0.00000000000E+00  0.00000000000E+00 -0.21338515295E+04  0.21338515295E+04  0.25500000920E-02 0.  1.
    10030    2    1    2    0    0  0.00000000000E+00  0.00000000000E+00 -0.74787738806E+03  0.35198256709E+04  0.34394552135E+04 0.  0.
        5    1    3    3  502    0  0.11572339643E+04 -0.98639081628E+02  0.92397209029E+03  0.14841383460E+04  0.46999998093E+01 0. -1.
       -5    1    3    3    0  502 -0.11572339643E+04  0.98639081628E+02 -0.16718494783E+04  0.20356873249E+04  0.46999998093E+01 0.  1.
</event>
<event>
 5   0  0.1999883E-06  0.3574187E+04  0.7818609E-02  0.8096430E-01
        2   -1    0    0  501    0  0.00000000000E+00  0.00000000000E+00  0.14647160457E+04  0.14647160458E+04  0.25500000920E-02 0.  1.
       -2   -1    0    0    0  501  0.00000000000E+00  0.00000000000E+00 -0.21804252550E+04  0.21804252550E+04  0.25500000920E-02 0. -1.
    10030    2    1    2    0    0  0.00000000000E+00  0.00000000000E+00 -0.71570920921E+03  0.36451413007E+04  0.35741873804E+04 0.  0.
        4    1    3    3  502    0 -0.73577522193E+03  0.14629352342E+03  0.12963610738E+04  0.14977718847E+04  0.12699999809E+01 0.  1.
       -4    1    3    3    0  502  0.73577522193E+03 -0.14629352342E+03 -0.20120702830E+04  0.21473694160E+04  0.12699999809E+01 0. -1.
</event>
<event>
 5   0  0.1999883E-06  0.2816353E+04  0.7818609E-02  0.8298209E-01
       -2   -1    0    0    0  501  0.00000000000E+00  0.00000000000E+00  0.10268323774E+04  0.10268323774E+04  0.25500000920E-02 0. -1.
        2   -1    0    0  501    0  0.00000000000E+00  0.00000000000E+00 -0.19311437590E+04  0.19311437590E+04  0.25500000920E-02 0.  1.
    10030    2    1    2    0    0  0.00000000000E+00  0.00000000000E+00 -0.90431138160E+03  0.29579761365E+04  0.28163529163E+04 0.  0.
        4    1    3    3  502    0  0.25002303716E+02 -0.88601653040E+03  0.69708421874E+03  0.11276428638E+04  0.12699999809E+01 0. -1.
       -4    1    3    3    0  502 -0.25002303716E+02  0.88601653040E+03 -0.16013956003E+04  0.18303332727E+04  0.12699999809E+01 0.  1.
</event>
<event>
 5   0  0.7378896E-07  0.2623141E+04  0.7818609E-02  0.8360383E-01
       -1   -1    0    0    0  501  0.00000000000E+00  0.00000000000E+00  0.66519974556E+03  0.66519974558E+03  0.50400001928E-02 0. -1.
        1   -1    0    0  501    0  0.00000000000E+00  0.00000000000E+00 -0.25860166144E+04  0.25860166144E+04  0.50400001928E-02 0.  1.
    10030    2    1    2    0    0  0.00000000000E+00  0.00000000000E+00 -0.19208168689E+04  0.32512163600E+04  0.26231413183E+04 0.  0.
        2    1    3    3  502    0 -0.10070791831E+04 -0.24340119995E+03  0.36367233070E+02  0.10367136542E+04  0.25500000920E-02 0. -1.
       -2    1    3    3    0  502  0.10070791831E+04  0.24340119995E+03 -0.19571841019E+04  0.22145027058E+04  0.25500000920E-02 0.  1.
</event>
<event>
 5   0  0.2020725E-06  0.3503192E+04  0.7818609E-02  0.8113034E-01
        2   -1    0    0  501    0  0.00000000000E+00  0.00000000000E+00  0.27749533757E+04  0.27749533757E+04  0.25500000920E-02 0. -1.
       -2   -1    0    0    0  501  0.00000000000E+00  0.00000000000E+00 -0.11056358721E+04  0.11056358721E+04  0.25500000920E-02 0.  1.
    10030    2    1    2    0    0  0.00000000000E+00  0.00000000000E+00  0.16693175036E+04  0.38805892479E+04  0.35031916852E+04 0.  0.
        3    1    3    3  502    0  0.70329823557E+03 -0.16042005603E+04  0.83507305133E+03  0.19404728436E+04  0.10100000352E+00 0. -1.
       -3    1    3    3    0  502 -0.70329823557E+03  0.16042005603E+04  0.83424445227E+03  0.19401164042E+04  0.10100000352E+00 0.  1.
</event>
<event>
 5   0  0.6630125E-07  0.3430293E+04  0.7818609E-02  0.8130511E-01
        1   -1    0    0  501    0  0.00000000000E+00  0.00000000000E+00  0.27777016479E+04  0.27777016479E+04  0.50400001928E-02 0. -1.
       -1   -1    0    0    0  501  0.00000000000E+00  0.00000000000E+00 -0.10590507446E+04  0.10590507446E+04  0.50400001928E-02 0.  1.
    10030    2    1    2    0    0  0.00000000000E+00  0.00000000000E+00  0.17186509033E+04  0.38367523925E+04  0.34302926980E+04 0.  0.
        4    1    3    3  502    0 -0.79728503787E+03  0.13187822250E+04  0.17200766514E+02  0.15411513449E+04  0.12699999809E+01 0.  1.
       -4    1    3    3    0  502  0.79728503787E+03 -0.13187822250E+04  0.17014501368E+04  0.22956010475E+04  0.12699999809E+01 0. -1.
</event>
<event>
 5   0  0.2073287E-06  0.3719754E+04  0.7818609E-02  0.8063598E-01
       -2   -1    0    0    0  501  0.00000000000E+00  0.00000000000E+00  0.16491063998E+04  0.16491063998E+04  0.25500000920E-02 0. -1.
        2   -1    0    0  501    0  0.00000000000E+00  0.00000000000E+00 -0.20975860157E+04  0.20975860157E+04  0.25500000920E-02 0.  1.
    10030    2    1    2    0    0  0.00000000000E+00  0.00000000000E+00 -0.44847961596E+03  0.37466924155E+04  0.37197540363E+04 0.  0.
        1    1    3    3  502    0  0.13575996639E+04 -0.22760749206E+03 -0.14840013833E+04  0.20241398478E+04  0.50400001928E-02 0.  1.
       -1    1    3    3    0  502 -0.13575996639E+04  0.22760749206E+03  0.10355217673E+04  0.17225525677E+04  0.50400001928E-02 0. -1.
</event>
<event>
 5   0  0.2001768E-06  0.3536242E+04  0.7818609E-02  0.8105254E-01
        2   -1    0    0  501    0  0.00000000000E+00  0.00000000000E+00  0.16893291444E+04  0.16893291444E+04  0.25500000920E-02 0. -1.
       -2   -1    0    0    0  501  0.00000000000E+00  0.00000000000E+00 -0.18505873294E+04  0.18505873294E+04  0.25500000920E-02 0.  1.
    10030    2    1    2    0    0  0.00000000000E+00  0.00000000000E+00 -0.16125818500E+03  0.35399164739E+04  0.35362415698E+04 0.  0.
        2    1    3    3  502    0  0.16743294819E+04 -0.25753747770E+03  0.42640131341E+03  0.17468608550E+04  0.25500000920E-02 0. -1.
       -2    1    3    3    0  502 -0.16743294819E+04  0.25753747770E+03 -0.58765949841E+03  0.17930556189E+04  0.25500000920E-02 0.  1.
</event>
<event>
 5   0  0.6630125E-07  0.2725176E+04  0.7818609E-02  0.8326882E-01
       -1   -1    0    0    0  501  0.00000000000E+00  0.00000000000E+00  0.93838651082E+03  0.93838651083E+03  0.50400001928E-02 0.  1.
        1   -1    0    0  501    0  0.00000000000E+00  0.00000000000E+00 -0.19785519976E+04  0.19785519976E+04  0.50400001928E-02 0. -1.
    10030    2    1    2    0    0  0.00000000000E+00  0.00000000000E+00 -0.10401654868E+04  0.29169385084E+04  0.27251763286E+04 0.  0.
        4    1    3    3  502    0 -0.89491462522E+03 -0.89964330340E+03  0.11249183779E+02  0.12689989822E+04  0.12699999809E+01 0.  1.
       -4    1    3    3    0  502  0.89491462522E+03  0.89964330340E+03 -0.10514146706E+04  0.16479395262E+04  0.12699999809E+01 0. -1.
</event>
<event>
 5   0  0.7378896E-07  0.3293105E+04  0.7818609E-02  0.8164652E-01
        1   -1    0    0  501    0  0.00000000000E+00  0.00000000000E+00  0.18267194608E+04  0.18267194608E+04  0.50400001928E-02 0. -1.
       -1   -1    0    0    0  501  0.00000000000E+00  0.00000000000E+00 -0.14841547903E+04  0.14841547903E+04  0.50400001928E-02 0.  1.
    10030    2    1    2    0    0  0.00000000000E+00  0.00000000000E+00  0.34256467048E+03  0.33108742511E+04  0.32931045767E+04 0.  0.
        2    1    3    3  502    0  0.94366991663E+03  0.11571640140E+04  0.86899600821E+03  0.17276271383E+04  0.25500000920E-02 0. -1.
       -2    1    3    3    0  502 -0.94366991663E+03 -0.11571640140E+04 -0.52643133773E+03  0.15832471128E+04  0.25500000920E-02 0.  1.
</event>
<event>
 5   0  0.1999883E-06  0.3502189E+04  0.7818609E-02  0.8113271E-01
       -2   -1    0    0    0  501  0.00000000000E+00  0.00000000000E+00  0.14886584445E+04  0.14886584445E+04  0.25500000920E-02 0.  1.
        2   -1    0    0  501    0  0.00000000000E+00  0.00000000000E+00 -0.20597953184E+04  0.20597953184E+04  0.25500000920E-02 0. -1.
    10030    2    1    2    0    0  0.00000000000E+00  0.00000000000E+00 -0.57113687391E+03  0.35484537630E+04  0.35021888555E+04 0.  0.
        4    1    3    3  502    0 -0.15008774590E+04  0.90080554833E+03 -0.23754719720E+03  0.17664976838E+04  0.12699999809E+01 0.  1.
       -4    1    3    3    0  502  0.15008774590E+04 -0.90080554833E+03 -0.33358967671E+03  0.17819560792E+04  0.12699999809E+01 0. -1.
</event>
<event>
 5   0  0.1999883E-06  0.2162499E+04  0.7818609E-02  0.8534201E-01
        2   -1    0    0  501    0  0.00000000000E+00  0.00000000000E+00  0.12185539422E+04  0.12185539422E+04  0.25500000920E-02 0.  1.
       -2   -1    0    0    0  501  0.00000000000E+00  0.00000000000E+00 -0.95941669379E+03  0.95941669380E+03  0.25500000920E-02 0. -1.
    10030    2    1    2    0    0  0.00000000000E+00  0.00000000000E+00  0.25913724839E+03  0.21779706360E+04  0.21624994746E+04 0.  0.
        4    1    3    3  502    0  0.99215554119E+03  0.41870398365E+03  0.22728718357E+03  0.11006119755E+04  0.12699999809E+01 0. -1.
       -4    1    3    3    0  502 -0.99215554119E+03 -0.41870398365E+03  0.31850064819E+02  0.10773586605E+04  0.12699999809E+01 0.  1.
</event>
<event>
 5   0  0.6630125E-07  0.3452776E+04  0.7818609E-02  0.8125073E-01
       -1   -1    0    0    0  501  0.00000000000E+00  0.00000000000E+00  0.13946936752E+04  0.13946936752E+04  0.50400001928E-02 0.  1.
        1   -1    0    0  501    0  0.00000000000E+00  0.00000000000E+00 -0.21369677976E+04  0.21369677976E+04  0.50400001928E-02 0. -1.
    10030    2    1    2    0    0  0.00000000000E+00  0.00000000000E+00 -0.74227412233E+03  0.35316614728E+04  0.34527759681E+04 0.  0.
        4    1    3    3  502    0  0.22377836592E+03 -0.20923448882E+02 -0.21219389851E+04  0.21338090864E+04  0.12699999809E+01 0. -1.
       -4    1    3    3    0  502 -0.22377836592E+03  0.20923448882E+02  0.13796648628E+04  0.13978523864E+04  0.12699999809E+01 0.  1.
</event>
<event>
 5   0  0.7378896E-07  0.2396051E+04  0.7818609E-02  0.8440984E-01
       -1   -1    0    0    0  501  0.00000000000E+00  0.00000000000E+00  0.10966207850E+04  0.10966207850E+04  0.50400001928E-02 0. -1.
        1   -1    0    0  501    0  0.00000000000E+00  0.00000000000E+00 -0.13088067951E+04  0.13088067951E+04  0.50400001928E-02 0.  1.
    10030    2    1    2    0    0  0.00000000000E+00  0.00000000000E+00 -0.21218601012E+03  0.24054275801E+04  0.23960506965E+04 0.  0.
        2    1    3    3  502    0 -0.19796852039E+03 -0.30577476267E+03  0.10396775357E+04  0.11016438258E+04  0.25500000920E-02 0. -1.
       -2    1    3    3    0  502  0.19796852039E+03  0.30577476267E+03 -0.12518635458E+04  0.13037837543E+04  0.25500000920E-02 0.  1.
</event>
<event>
 5   0  0.2023479E-06  0.2615229E+04  0.7818609E-02  0.8363047E-01
        2   -1    0    0  501    0  0.00000000000E+00  0.00000000000E+00  0.16796869157E+04  0.16796869157E+04  0.25500000920E-02 0.  1.
       -2   -1    0    0    0  501  0.00000000000E+00  0.00000000000E+00 -0.10179611265E+04  0.10179611265E+04  0.25500000920E-02 0. -1.
    10030    2    1    2    0    0  0.00000000000E+00  0.00000000000E+00  0.66172578914E+03  0.26976480422E+04  0.26152292327E+04 0.  0.
        5    1    3    3  502    0  0.90374279568E+02 -0.52170728254E+02 -0.10136505022E+04  0.10190185111E+04  0.46999998093E+01 0. -1.
       -5    1    3    3    0  502 -0.90374279568E+02  0.52170728254E+02  0.16753762913E+04  0.16786295312E+04  0.46999998093E+01 0.  1.
</event>
<event>
 5   0  0.2023479E-06  0.3114335E+04  0.7818609E-02  0.8211815E-01
        2   -1    0    0  501    0  0.00000000000E+00  0.00000000000E+00  0.25523890108E+04  0.25523890108E+04  0.25500000920E-02 0.  1.
       -2   -1    0    0    0  501  0.00000000000E+00  0.00000000000E+00 -0.95000038995E+03  0.95000038995E+03  0.25500000920E-02 0. -1.
    10030    2    1    2    0    0  0.00000000000E+00  0.00000000000E+00  0.16023886209E+04  0.35023894008E+04  0.31143349567E+04 0.  0.
        5    1    3    3  502    0 -0.47107442569E+03  0.10444242541E+03  0.24661871253E+04  0.25129505291E+04  0.46999998093E+01 0.  1.
       -5    1    3    3    0  502  0.47107442569E+03 -0.10444242541E+03 -0.86379850436E+03  0.98943887173E+03  0.46999998093E+01 0. -1.
</event>
<event>
 5   0  0.6630125E-07  0.2702648E+04  0.7818609E-02  0.8334146E-01
       -1   -1    0    0    0  501  0.00000000000E+00  0.00000000000E+00  0.14020795922E+04  0.14020795922E+04  0.50400001928E-02 0.  1.
        1   -1    0    0  501    0  0.00000000000E+00  0.00000000000E+00 -0.13024053353E+04  0.13024053353E+04  0.50400001928E-02 0. -1.
    10030    2    1    2    0    0  0.00000000000E+00  0.00000000000E+00  0.99674256867E+02  0.27044849275E+04  0.27026475475E+04 0.  0.
        5    1    3    3  502    0  0.37492394609E+03 -0.12200391376E+04 -0.39430060414E+03  0.13358736913E+04  0.46999998093E+01 0. -1.
       -5    1    3    3    0  502 -0.37492394609E+03  0.12200391376E+04  0.49397486101E+03  0.13686112362E+04  0.46999998093E+01 0.  1.
</event>
<event>
 5   0  0.2001768E-06  0.3525128E+04  0.7818609E-02  0.8107861E-01
        2   -1    0    0  501    0  0.00000000000E+00  0.00000000000E+00  0.15189367987E+04  0.15189367987E+04  0.25500000920E-02 0.  1.
       -2   -1    0    0    0  501  0.00000000000E+00  0.00000000000E+00 -0.20452670925E+04  0.20452670925E+04  0.25500000920E-02 0. -1.
    10030    2    1    2    0    0  0.00000000000E+00  0.00000000000E+00 -0.52633029388E+03  0.35642038912E+04  0.35251277707E+04 0.  0.
        2    1    3    3  502    0 -0.29359227104E+03 -0.17566442527E+03  0.14850406326E+04  0.15239422864E+04  0.25500000920E-02 0.  1.
       -2    1    3    3    0  502  0.29359227104E+03  0.17566442527E+03 -0.20113709265E+04  0.20402616048E+04  0.25500000920E-02 0. -1.
</event>
<event>
 5   0  0.6630125E-07  0.2419816E+04  0.7818609E-02  0.8432122E-01
       -1   -1    0    0    0  501  0.00000000000E+00  0.00000000000E+00  0.11771789344E+04  0.11771789344E+04  0.50400001928E-02 0. -1.
        1   -1    0    0  501    0  0.00000000000E+00  0.00000000000E+00 -0.12435475285E+04  0.12435475285E+04  0.50400001928E-02 0.  1.
    10030    2    1    2    0    0  0.00000000000E+00  0.00000000000E+00 -0.66368594090E+02  0.24207264630E+04  0.24198164844E+04 0.  0.
        4    1    3    3  502    0 -0.22252456485E+03  0.10004994285E+04 -0.67635690385E+03  0.12279969717E+04  0.12699999809E+01 0.  1.
       -4    1    3    3    0  502  0.22252456485E+03 -0.10004994285E+04  0.60998830976E+03  0.11927294912E+04  0.12699999809E+01 0. -1.
</event>
<event>
 5   0  0.2020725E-06  0.3547675E+04  0.7818609E-02  0.8102584E-01
       -2   -1    0    0    0  501  0.00000000000E+00  0.00000000000E+00  0.20710716483E+04  0.20710716483E+04  0.25500000920E-02 0. -1.
        2   -1    0    0  501    0  0.00000000000E+00  0.00000000000E+00 -0.15192617386E+04  0.15192617386E+04  0.25500000920E-02 0.  1.
    10030    2    1    2    0    0  0.00000000000E+00  0.00000000000E+00  0.55180990976E+03  0.35903333869E+04  0.35476752462E+04 0.  0.
        3    1    3    3  502    0 -0.97944386832E+03 -0.70905512638E+03  0.15893667969E+04  0.19970368772E+04  0.10100000352E+00 0. -1.
       -3    1    3    3    0  502  0.97944386832E+03  0.70905512638E+03 -0.10375568872E+04  0.15932965097E+04  0.10100000352E+00 0.  1.
</event>
<event>
 5   0  0.2023479E-06  0.3437217E+04  0.7818609E-02  0.8128832E-01
        2   -1    0    0  501    0  0.00000000000E+00  0.00000000000E+00  0.17276947861E+04  0.17276947861E+04  0.25500000920E-02 0. -1.
       -2   -1    0    0    0  501  0.00000000000E+00  0.00000000000E+00 -0.17095703238E+04  0.17095703238E+04  0.25500000920E-02 0.  1.
    10030    2    1    2    0    0  0.00000000000E+00  0.00000000000E+00  0.18124462258E+02  0.34372651099E+04  0.34372173251E+04 0.  0.
        5    1    3    3  502    0 -0.10058814259E+04 -0.65002437908E+03 -0.12235393879E+04  0.17121331315E+04  0.46999998093E+01 0.  1.
       -5    1    3    3    0  502  0.10058814259E+04  0.65002437908E+03  0.12416638501E+04  0.17251319784E+04  0.46999998093E+01 0. -1.
</event>
<event>
 5   0  0.2001768E-06  0.3337047E+04  0.7818609E-02  0.8153532E-01
       -2   -1    0    0    0  501  0.00000000000E+00  0.00000000000E+00  0.18915713639E+04  0.18915713639E+04  0.25500000920E-02 0. -1.
        2   -1    0    0  501    0  0.00000000000E+00  0.00000000000E+00 -0.14717770767E+04  0.14717770767E+04  0.25500000920E-02 0.  1.
    10030    2    1    2    0    0  0.00000000000E+00  0.00000000000E+00  0.41979428721E+03  0.33633484407E+04  0.33370474209E+04 0.  0.
        2    1    3    3  502    0  0.10790416850E+04 -0.41739305880E+03 -0.10018361257E+04  0.15304324703E+04  0.25500000920E-02 0.  1.
       -2    1    3    3    0  502 -0.10790416850E+04  0.41739305880E+03  0.14216304129E+04  0.18329159703E+04  0.25500000920E-02 0. -1.
</event>
<event>
 5   0  0.6890600E-07  0.3441395E+04  0.7818609E-02  0.8127821E-01
       -1   -1    0    0    0  501  0.00000000000E+00  0.00000000000E+00  0.17399191614E+04  0.17399191614E+04  0.50400001928E-02 0. -1.
        1   -1    0    0  501    0  0.00000000000E+00  0.00000000000E+00 -0.17016884259E+04  0.17016884259E+04  0.50400001928E-02 0.  1.
    10030    2    1    2    0    0  0.00000000000E+00  0.00000000000E+00  0.38230735515E+02  0.34416075873E+04  0.34413952397E+04 0.  0.
        3    1    3    3  502    0 -0.24605802939E+03 -0.61520911757E+03  0.16072226352E+04  0.17384451160E+04  0.10100000352E+00 0. -1.
       -3    1    3    3    0  502  0.24605802939E+03  0.61520911757E+03 -0.15689918996E+04  0.17031624713E+04  0.10100000352E+00 0.  1.
</event>
<event>
 5   0  0.2001768E-06  0.3460558E+04  0.7818609E-02  0.8123201E-01
        2   -1    0    0  501    0  0.00000000000E+00  0.00000000000E+00  0.97414411017E+03  0.97414411018E+03  0.25500000920E-02 0. -1.
       -2   -1    0    0    0  501  0.00000000000E+00  0.00000000000E+00 -0.30733295307E+04  0.30733295307E+04  0.25500000920E-02 0.  1.
    10030    2    1    2    0    0  0.00000000000E+00  0.00000000000E+00 -0.20991854205E+04  0.40474736409E+04  0.34605582561E+04 0.  0.
        2    1    3    3  502    0 -0.28517874962E+03 -0.27717008186E+03  0.91996725232E+03  0.10022424451E+04  0.25500000920E-02 0. -1.
       -2    1    3    3    0  502  0.28517874962E+03  0.27717008186E+03 -0.30191526728E+04  0.30452311957E+04  0.25500000920E-02 0.  1.
</event>
<event>
 5   0  0.6630125E-07  0.3515057E+04  0.7818609E-02  0.8110231E-01
       -1   -1    0    0    0  501  0.00000000000E+00  0.00000000000E+00  0.16000707988E+04  0.16000707988E+04  0.50400001928E-02 0.  1.
        1   -1    0    0  501    0  0.00000000000E+00  0.00000000000E+00 -0.19304807294E+04  0.19304807294E+04  0.50400001928E-02 0. -1.
    10030    2    1    2    0    0  0.00000000000E+00  0.00000000000E+00 -0.33040993059E+03  0.35305515283E+04  0.35150566669E+04 0.  0.
        5    1    3    3  502    0  0.15571318128E+04 -0.30781866697E+02 -0.98321307592E+03  0.18418298098E+04  0.46999998093E+01 0.  1.
       -5    1    3    3    0  502 -0.15571318128E+04  0.30781866697E+02  0.65280314534E+03  0.16887217184E+04  0.46999998093E+01 0. -1.
</event>
<event>
 5   0  0.6630125E-07  0.2311617E+04  0.7818609E-02  0.8473355E-01
        1   -1    0    0  501    0  0.00000000000E+00  0.00000000000E+00  0.17325516270E+04  0.17325516271E+04  0.50400001928E-02 0.  1.
       -1   -1    0    0    0  501  0.00000000000E+00  0.00000000000E+00 -0.77105527887E+03  0.77105527889E+03  0.50400001928E-02 0. -1.
    10030    2    1    2    0    0  0.00000000000E+00  0.00000000000E+00  0.96149634817E+03  0.25036069059E+04  0.23116168177E+04 0.  0.
        4    1    3    3  502    0 -0.97705421750E+03  0.28440478363E+03 -0.11283132220E+03  0.10238425392E+04  0.12699999809E+01 0. -1.
       -4    1    3    3    0  502  0.97705421750E+03 -0.28440478363E+03  0.10743276704E+04  0.14797643668E+04  0.12699999809E+01 0.  1.
</event>
<event>
 5   0  0.2020725E-06  0.3514327E+04  0.7818609E-02  0.8110403E-01
       -2   -1    0    0    0  501  0.00000000000E+00  0.00000000000E+00  0.19612879594E+04  0.19612879594E+04  0.25500000920E-02 0.  1.
        2   -1    0    0  501    0  0.00000000000E+00  0.00000000000E+00 -0.15742832523E+04  0.15742832523E+04  0.25500000920E-02 0. -1.
    10030    2    1    2    0    0  0.00000000000E+00  0.00000000000E+00  0.38700470710E+03  0.35355712117E+04  0.35143265570E+04 0.  0.
        3    1    3    3  502    0  0.83101253039E+02 -0.25461304045E+03  0.19406321186E+04  0.19590269647E+04  0.10100000352E+00 0.  1.
       -3    1    3    3    0  502 -0.83101253039E+02  0.25461304045E+03 -0.15536274115E+04  0.15765442469E+04  0.10100000352E+00 0. -1.
</event>
<event>
 5   0  0.6890600E-07  0.2502597E+04  0.7818609E-02  0.8402061E-01
        1   -1    0    0  501    0  0.00000000000E+00  0.00000000000E+00  0.20028593522E+04  0.20028593522E+04  0.50400001928E-02 0. -1.
       -1   -1    0    0    0  501  0.00000000000E+00  0.00000000000E+00 -0.78175650379E+03  0.78175650380E+03  0.50400001928E-02 0.  1.
    10030    2    1    2    0    0  0.00000000000E+00  0.00000000000E+00  0.12211028484E+04  0.27846158560E+04  0.25025973106E+04 0.  0.
        3    1    3    3  502    0 -0.24052453206E+03  0.36890538454E+03  0.19137797829E+04  0.19637964001E+04  0.10100000352E+00 0. -1.
       -3    1    3    3    0  502  0.24052453206E+03 -0.36890538454E+03 -0.69267693456E+03  0.82081945587E+03  0.10100000352E+00 0.  1.
</event>
<event>
 5   0  0.7378896E-07  0.3414740E+04  0.7818609E-02  0.8134298E-01
       -1   -1    0    0    0  501  0.00000000000E+00  0.00000000000E+00  0.12664463518E+04  0.12664463518E+04  0.50400001928E-02 0.  1.
        1   -1    0    0  501    0  0.00000000000E+00  0.00000000000E+00 -0.23018049032E+04  0.23018049033E+04  0.50400001928E-02 0. -1.
    10030    2    1    2    0    0  0.00000000000E+00  0.00000000000E+00 -0.10353585514E+04  0.35682512551E+04  0.34147400618E+04 0.  0.
        2    1    3    3  502    0  0.12357945217E+04 -0.52684222072E+03 -0.16187874682E+04  0.21036215659E+04  0.25500000920E-02 0. -1.
       -2    1    3    3    0  502 -0.12357945217E+04  0.52684222072E+03  0.58342891674E+03  0.14646296892E+04  0.25500000920E-02 0.  1.
</event>
<event>
 5   0  0.7378896E-07  0.3475756E+04  0.7818609E-02  0.8119560E-01
       -1   -1    0    0    0  501  0.00000000000E+00  0.00000000000E+00  0.12950064538E+04  0.12950064538E+04  0.50400001928E-02 0.  1.
        1   -1    0    0  501    0  0.00000000000E+00  0.00000000000E+00 -0.23322045932E+04  0.23322045932E+04  0.50400001928E-02 0. -1.
    10030    2    1    2    0    0  0.00000000000E+00  0.00000000000E+00 -0.10371981394E+04  0.36272110469E+04  0.34757560327E+04 0.  0.
        2    1    3    3  502    0  0.46764993377E+03 -0.15822517184E+04 -0.10882828919E+04  0.19765061633E+04  0.25500000920E-02 0. -1.
       -2    1    3    3    0  502 -0.46764993377E+03  0.15822517184E+04  0.51084752526E+02  0.16507048836E+04  0.25500000920E-02 0.  1.
</event>
<event>
 5   0  0.1999883E-06  0.3460713E+04  0.7818609E-02  0.8123164E-01
       -2   -1    0    0    0  501  0.00000000000E+00  0.00000000000E+00  0.19212627108E+04  0.19212627108E+04  0.25500000920E-02 0.  1.
        2   -1    0    0  501    0  0.00000000000E+00  0.00000000000E+00 -0.15584200626E+04  0.15584200626E+04  0.25500000920E-02 0. -1.
    10030    2    1    2    0    0  0.00000000000E+00  0.00000000000E+00  0.36284264826E+03  0.34796827734E+04  0.34607134259E+04 0.  0.
        4    1    3    3  502    0  0.30198218407E+03  0.16506396240E+04 -0.24318278309E+03  0.16955659488E+04  0.12699999809E+01 0. -1.
       -4    1    3    3    0  502 -0.30198218407E+03 -0.16506396240E+04  0.60602543135E+03  0.17841168247E+04  0.12699999809E+01 0.  1.
</event>
<event>
 5   0  0.6630125E-07  0.3488054E+04  0.7818609E-02  0.8116627E-01
        1   -1    0    0  501    0  0.00000000000E+00  0.00000000000E+00  0.23423728320E+04  0.23423728320E+04  0.50400001928E-02 0. -1.
       -1   -1    0    0    0  501  0.00000000000E+00  0.00000000000E+00 -0.12985252780E+04  0.12985252780E+04  0.50400001928E-02 0.  1.
    10030    2    1    2    0    0  0.00000000000E+00  0.00000000000E+00  0.10438475540E+04  0.36408981100E+04  0.34880540895E+04 0.  0.
        1    1    3    3  502    0  0.20418639727E+03 -0.16279929902E+04  0.11390823763E+04  0.19973887756E+04  0.50400001928E-02 0. -1.
       -1    1    3    3    0  502 -0.20418639727E+03  0.16279929902E+04 -0.95234822347E+02  0.16435093344E+04  0.50400001928E-02 0.  1.
</event>
<event>
 5   0  0.6630125E-07  0.3468183E+04  0.7818609E-02  0.8121372E-01
       -1   -1    0    0    0  501  0.00000000000E+00  0.00000000000E+00  0.15639982913E+04  0.15639982913E+04  0.50400001928E-02 0. -1.
        1   -1    0    0  501    0  0.00000000000E+00  0.00000000000E+00 -0.19226833142E+04  0.19226833142E+04  0.50400001928E-02 0.  1.
    10030    2    1    2    0    0  0.00000000000E+00  0.00000000000E+00 -0.35868502292E+03  0.34866816055E+04  0.34681830506E+04 0.  0.
        1    1    3    3  502    0  0.17047775397E+04  0.30634002628E+03 -0.26323065239E+03  0.17519706185E+04  0.50400001928E-02 0. -1.
       -1    1    3    3    0  502 -0.17047775397E+04 -0.30634002628E+03 -0.95454370529E+02  0.17347109870E+04  0.50400001928E-02 0.  1.
</event>
<event>
 5   0  0.2023479E-06  0.3505054E+04  0.7818609E-02  0.8112593E-01
       -2   -1    0    0    0  501  0.00000000000E+00  0.00000000000E+00  0.11795171436E+04  0.11795171436E+04  0.25500000920E-02 0. -1.
        2   -1    0    0  501    0  0.00000000000E+00  0.00000000000E+00 -0.26039049927E+04  0.26039049927E+04  0.25500000920E-02 0.  1.
    10030    2    1    2    0    0  0.00000000000E+00  0.00000000000E+00 -0.14243878492E+04  0.37834221363E+04  0.35050538251E+04 0.  0.
        5    1    3    3  502    0  0.38406748028E+03 -0.93682797026E+03  0.83185618807E+03  0.13104050072E+04  0.46999998093E+01 0. -1.
       -5    1    3    3    0  502 -0.38406748028E+03  0.93682797026E+03 -0.22562440372E+04  0.24730171291E+04  0.46999998093E+01 0.  1.
</event>
<event>
 5   0  0.2073287E-06  0.3563202E+04  0.7818609E-02  0.8098973E-01
       -2   -1    0    0    0  501  0.00000000000E+00  0.00000000000E+00  0.95490310599E+03  0.95490310599E+03  0.25500000920E-02 0.  1.
        2   -1    0    0  501    0  0.00000000000E+00  0.00000000000E+00 -0.33240044992E+04  0.33240044992E+04  0.25500000920E-02 0. -1.
    10030    2    1    2    0    0  0.00000000000E+00  0.00000000000E+00 -0.23691013932E+04  0.42789076052E+04  0.35632020547E+04 0.  0.
        1    1    3    3  502    0  0.60179369409E+03 -0.14829712555E+04 -0.24454263914E+03  0.16189998447E+04  0.50400001928E-02 0.  1.
       -1    1    3    3    0  502 -0.60179369409E+03  0.14829712555E+04 -0.21245587541E+04  0.26599077605E+04  0.50400001928E-02 0. -1.
</event>
<event>
 5   0  0.2073287E-06  0.3413931E+04  0.7818609E-02  0.8134496E-01
       -2   -1    0    0    0  501  0.00000000000E+00  0.00000000000E+00  0.13954385532E+04  0.13954385532E+04  0.25500000920E-02 0. -1.
        2   -1    0    0  501    0  0.00000000000E+00  0.00000000000E+00 -0.20880398595E+04  0.20880398595E+04  0.25500000920E-02 0.  1.
    10030    2    1    2    0    0  0.00000000000E+00  0.00000000000E+00 -0.69260130624E+03  0.34834784127E+04  0.34139310600E+04 0.  0.
        1    1    3    3  502    0 -0.11709048621E+04 -0.11176696832E+04 -0.89911951328E+03  0.18516532116E+04  0.50400001928E-02 0.  1.
       -1    1    3    3    0  502  0.11709048621E+04  0.11176696832E+04  0.20651820704E+03  0.16318252011E+04  0.50400001928E-02 0. -1.
</event>
<event>
 5   0  0.6890600E-07  0.3601975E+04  0.7818609E-02  0.8090040E-01
       -1   -1    0    0    0  501  0.00000000000E+00  0.00000000000E+00  0.14709024974E+04  0.14709024974E+04  0.50400001928E-02 0.  1.
        1   -1    0    0  501    0  0.00000000000E+00  0.00000000000E+00 -0.22051462449E+04  0.22051462449E+04  0.50400001928E-02 0. -1.
    10030    2    1    2    0    0  0.00000000000E+00  0.00000000000E+00 -0.73424374749E+03  0.36760487423E+04  0.36019745245E+04 0.  0.
        3    1    3    3  502    0  0.87872764313E+03  0.14526625320E+04  0.24620655538E+03  0.17155198573E+04  0.10100000352E+00 0.  1.
       -3    1    3    3    0  502 -0.87872764313E+03 -0.14526625320E+04 -0.98045030287E+03  0.19605288851E+04  0.10100000352E+00 0. -1.
</event>
<event>
 5   0  0.2023479E-06  0.2365043E+04  0.7818609E-02  0.8452708E-01
        2   -1    0    0  501    0  0.00000000000E+00  0.00000000000E+00  0.25778268888E+04  0.25778268888E+04  0.25500000920E-02 0. -1.
       -2   -1    0    0    0  501  0.00000000000E+00  0.00000000000E+00 -0.54245582281E+03  0.54245582281E+03  0.25500000920E-02 0.  1.
    10030    2    1    2    0    0  0.00000000000E+00  0.00000000000E+00  0.20353710660E+04  0.31202827117E+04  0.23650430914E+04 0.  0.
        5    1    3    3  502    0  0.11380279592E+04  0.24470967625E+03  0.12923627634E+04  0.17393142510E+04  0.46999998093E+01 0. -1.
       -5    1    3    3    0  502 -0.11380279592E+04 -0.24470967625E+03  0.74300830262E+03  0.13809684606E+04  0.46999998093E+01 0.  1.
</event>
<event>
 5   0  0.2001768E-06  0.3462685E+04  0.7818609E-02  0.8122690E-01
       -2   -1    0    0    0  501  0.00000000000E+00  0.00000000000E+00  0.12344347251E+04  0.12344347251E+04  0.25500000920E-02 0. -1.
        2   -1    0    0  501    0  0.00000000000E+00  0.00000000000E+00 -0.24282748754E+04  0.24282748754E+04  0.25500000920E-02 0.  1.
    10030    2    1    2    0    0  0.00000000000E+00  0.00000000000E+00 -0.11938401503E+04  0.36627096005E+04  0.34626849861E+04 0.  0.
        2    1    3    3  502    0  0.12219173480E+03 -0.39145823416E+03 -0.23761614566E+04  0.24112887917E+04  0.25500000920E-02 0.  1.
       -2    1    3    3    0  502 -0.12219173480E+03  0.39145823416E+03  0.11823213063E+04  0.12514208087E+04  0.25500000920E-02 0. -1.
</event>
<event>
 5   0  0.6630125E-07  0.3521632E+04  0.7818609E-02  0.8108682E-01
       -1   -1    0    0    0  501  0.00000000000E+00  0.00000000000E+00  0.15637159188E+04  0.15637159188E+04  0.50400001928E-02 0. -1.
        1   -1    0    0  501    0  0.00000000000E+00  0.00000000000E+00 -0.19827600456E+04  0.19827600456E+04  0.50400001928E-02 0.  1.
    10030    2    1    2    0    0  0.00000000000E+00  0.00000000000E+00 -0.41904412685E+03  0.35464759644E+04  0.35216322616E+04 0.  0.
        5    1    3    3  502    0 -0.71892791739E+03 -0.44241594918E+03 -0.17656942231E+04  0.19571120055E+04  0.46999998093E+01 0.  1.
       -5    1    3    3    0  502  0.71892791739E+03  0.44241594918E+03  0.13466500962E+04  0.15893639590E+04  0.46999998093E+01 0. -1.
</event>
<event>
 5   0  0.2073287E-06  0.3534090E+04  0.7818609E-02  0.8105758E-01
        2   -1    0    0  501    0  0.00000000000E+00  0.00000000000E+00  0.18668161400E+04  0.18668161400E+04  0.25500000920E-02 0. -1.
       -2   -1    0    0    0  501  0.00000000000E+00  0.00000000000E+00 -0.16726065223E+04  0.16726065223E+04  0.25500000920E-02 0.  1.
    10030    2    1    2    0    0  0.00000000000E+00  0.00000000000E+00  0.19420961767E+03  0.35394226622E+04  0.35340904638E+04 0.  0.
        1    1    3    3  502    0 -0.12329636136E+04  0.11129673498E+04 -0.50675869860E+03  0.17365770852E+04  0.50400001928E-02 0.  1.
       -1    1    3    3    0  502  0.12329636136E+04 -0.11129673498E+04  0.70096831627E+03  0.18028455770E+04  0.50400001928E-02 0. -1.
</event>
<event>
 5   0  0.1999883E-06  0.3534642E+04  0.7818609E-02  0.8105629E-01
        2   -1    0    0  501    0  0.00000000000E+00  0.00000000000E+00  0.31240502648E+04  0.31240502648E+04  0.25500000920E-02 0. -1.
       -2   -1    0    0    0  501  0.00000000000E+00  0.00000000000E+00 -0.99979952901E+03  0.99979952901E+03  0.25500000920E-02 0.  1.
    10030    2    1    2    0    0  0.00000000000E+00  0.00000000000E+00  0.21242507358E+04  0.41238497938E+04  0.35346422638E+04 0.  0.
        4    1    3    3  502    0  0.16472013829E+04 -0.58031040056E+03  0.74606119901E+03  0.18991159740E+04  0.12699999809E+01 0. -1.
       -4    1    3    3    0  502 -0.16472013829E+04  0.58031040056E+03  0.13781895368E+04  0.22247338198E+04  0.12699999809E+01 0.  1.
</event>
<event>
 5   0  0.2073287E-06  0.3421314E+04  0.7818609E-02  0.8132695E-01
       -2   -1    0    0    0  501  0.00000000000E+00  0.00000000000E+00  0.14568318120E+04  0.14568318120E+04  0.25500000920E-02 0.  1.
        2   -1    0    0  501    0  0.00000000000E+00  0.00000000000E+00 -0.20087068289E+04  0.20087068289E+04  0.25500000920E-02 0. -1.
    10030    2    1    2    0    0  0.00000000000E+00  0.00000000000E+00 -0.55187501689E+03  0.34655386408E+04  0.34213143727E+04 0.  0.
        1    1    3    3  502    0  0.56394522829E+03  0.10595643799E+04  0.95868483949E+03  0.15361599907E+04  0.50400001928E-02 0.  1.
       -1    1    3    3    0  502 -0.56394522829E+03 -0.10595643799E+04 -0.15105598564E+04  0.19293786501E+04  0.50400001928E-02 0. -1.
</event>
<event>
 5   0  0.2001768E-06  0.3512164E+04  0.7818609E-02  0.8110913E-01
       -2   -1    0    0    0  501  0.00000000000E+00  0.00000000000E+00  0.13229399561E+04  0.13229399561E+04  0.25500000920E-02 0.  1.
        2   -1    0    0  501    0  0.00000000000E+00  0.00000000000E+00 -0.23310389894E+04  0.23310389894E+04  0.25500000920E-02 0. -1.
    10030    2    1    2    0    0  0.00000000000E+00  0.00000000000E+00 -0.10080990333E+04  0.36539789455E+04  0.35121643574E+04 0.  0.
        2    1    3    3  502    0 -0.16756419438E+04 -0.51422495834E+03 -0.61620491681E+03  0.18579321115E+04  0.25500000920E-02 0. -1.
       -2    1    3    3    0  502  0.16756419438E+04  0.51422495834E+03 -0.39189411649E+03  0.17960468340E+04  0.25500000920E-02 0.  1.
</event>
<event>
 5   0  0.7378896E-07  0.2457206E+04  0.7818609E-02  0.8418392E-01
        1   -1    0    0  501    0  0.00000000000E+00  0.00000000000E+00  0.15111004346E+04  0.15111004346E+04  0.50400001928E-02 0.  1.
       -1   -1    0    0    0  501  0.00000000000E+00  0.00000000000E+00 -0.99891769769E+03  0.99891769770E+03  0.50400001928E-02 0. -1.
    10030    2    1    2    0    0  0.00000000000E+00  0.00000000000E+00  0.51218273694E+03  0.25100181323E+04  0.24572057034E+04 0.  0.
        2    1    3    3  502    0  0.40039671685E+03 -0.51430025227E+03  0.13199371856E+04  0.14720925427E+04  0.25500000920E-02 0.  1.
       -2    1    3    3    0  502 -0.40039671685E+03  0.51430025227E+03 -0.80775444864E+03  0.10379255897E+04  0.25500000920E-02 0. -1.
</event>
<event>
 5   0  0.7378896E-07  0.3422631E+04  0.7818609E-02  0.8132374E-01
       -1   -1    0    0    0  501  0.00000000000E+00  0.00000000000E+00  0.12006076042E+04  0.12006076042E+04  0.50400001928E-02 0. -1.
        1   -1    0    0  501    0  0.00000000000E+00  0.00000000000E+00 -0.24392655449E+04  0.24392655449E+04  0.50400001928E-02 0.  1.
    10030    2    1    2    0    0  0.00000000000E+00  0.00000000000E+00 -0.12386579407E+04  0.36398731492E+04  0.34226310125E+04 0.  0.
        2    1    3    3  502    0  0.20049339349E+03  0.16746340085E+04 -0.92756003472E+03  0.19248283771E+04  0.25500000920E-02 0. -1.
       -2    1    3    3    0  502 -0.20049339349E+03 -0.16746340085E+04 -0.31109790597E+03  0.17150447721E+04  0.25500000920E-02 0.  1.
</event>
<event>
 5   0  0.2073287E-06  0.3489473E+04  0.7818609E-02  0.8116289E-01
        2   -1    0    0  501    0  0.00000000000E+00  0.00000000000E+00  0.20665517425E+04  0.20665517425E+04  0.25500000920E-02 0.  1.
       -2   -1    0    0    0  501  0.00000000000E+00  0.00000000000E+00 -0.14730365499E+04  0.14730365499E+04  0.25500000920E-02 0. -1.
    10030    2    1    2    0    0  0.00000000000E+00  0.00000000000E+00  0.59351519258E+03  0.35395882925E+04  0.34894734555E+04 0.  0.
        1    1    3    3  502    0  0.13136663242E+04 -0.80540608415E+03 -0.53335235374E+03  0.16306020069E+04  0.50400001928E-02 0. -1.
       -1    1    3    3    0  502 -0.13136663242E+04  0.80540608415E+03  0.11268675463E+04  0.19089862856E+04  0.50400001928E-02 0.  1.
</event>
<event>
 5   0  0.6630125E-07  0.3265979E+04  0.7818609E-02  0.8171606E-01
        1   -1    0    0  501    0  0.00000000000E+00  0.00000000000E+00  0.19734746791E+04  0.19734746791E+04  0.50400001928E-02 0. -1.
       -1   -1    0    0    0  501  0.00000000000E+00  0.00000000000E+00 -0.13512488912E+04  0.13512488912E+04  0.50400001928E-02 0.  1.
    10030    2    1    2    0    0  0.00000000000E+00  0.00000000000E+00  0.62222578788E+03  0.33247235703E+04  0.32659794684E+04 0.  0.
        1    1    3    3  502    0 -0.12791740516E+04 -0.12569579776E+02 -0.72213666964E+03  0.14689879572E+04  0.50400001928E-02 0.  1.
       -1    1    3    3    0  502  0.12791740516E+04  0.12569579776E+02  0.13443624575E+04  0.18557356131E+04  0.50400001928E-02 0. -1.
</event>
<event>
 5   0  0.6630125E-07  0.2338605E+04  0.7818609E-02  0.8462853E-01
        1   -1    0    0  501    0  0.00000000000E+00  0.00000000000E+00  0.13744919300E+04  0.13744919300E+04  0.50400001928E-02 0. -1.
       -1   -1    0    0    0  501  0.00000000000E+00  0.00000000000E+00 -0.99474471600E+03  0.99474471601E+03  0.50400001928E-02 0.  1.
    10030    2    1    2    0    0  0.00000000000E+00  0.00000000000E+00  0.37974721397E+03  0.23692366460E+04  0.23386052121E+04 0.  0.
        5    1    3    3  502    0  0.11355415970E+04 -0.23240631652E+03  0.33649139726E+02  0.11595782721E+04  0.46999998093E+01 0.  1.
       -5    1    3    3    0  502 -0.11355415970E+04  0.23240631652E+03  0.34609807425E+03  0.12096583739E+04  0.46999998093E+01 0. -1.
</event>
<event>
 5   0  0.2073287E-06  0.3486477E+04  0.7818609E-02  0.8117002E-01
        2   -1    0    0  501    0  0.00000000000E+00  0.00000000000E+00  0.20621292362E+04  0.20621292362E+04  0.25500000920E-02 0. -1.
       -2   -1    0    0    0  501  0.00000000000E+00  0.00000000000E+00 -0.14736613820E+04  0.14736613820E+04  0.25500000920E-02 0.  1.
    10030    2    1    2    0    0  0.00000000000E+00  0.00000000000E+00  0.58846785421E+03  0.35357906182E+04  0.34864768579E+04 0.  0.
        1    1    3    3  502    0  0.46420535527E+03 -0.55252953508E+03 -0.13150647191E+04  0.15000569037E+04  0.50400001928E-02 0.  1.
       -1    1    3    3    0  502 -0.46420535527E+03  0.55252953508E+03  0.19035325733E+04  0.20357337145E+04  0.50400001928E-02 0. -1.
</event>
<event>
 5   0  0.6630125E-07  0.3486888E+04  0.7818609E-02  0.8116904E-01
       -1   -1    0    0    0  501  0.00000000000E+00  0.00000000000E+00  0.14074791065E+04  0.14074791065E+04  0.50400001928E-02 0. -1.
        1   -1    0    0  501    0  0.00000000000E+00  0.00000000000E+00 -0.21596030237E+04  0.21596030237E+04  0.50400001928E-02 0.  1.
    10030    2    1    2    0    0  0.00000000000E+00  0.00000000000E+00 -0.75212391718E+03  0.35670821302E+04  0.34868875142E+04 0.  0.
        4    1    3    3  502    0  0.13798028192E+04 -0.61332538655E+03  0.51551588055E+03  0.15955507155E+04  0.12699999809E+01 0. -1.
       -4    1    3    3    0  502 -0.13798028192E+04  0.61332538655E+03 -0.12676397977E+04  0.19715314147E+04  0.12699999809E+01 0.  1.
</event>
<event>
 5   0  0.2001768E-06  0.2720760E+04  0.7818609E-02  0.8328300E-01
        2   -1    0    0  501    0  0.00000000000E+00  0.00000000000E+00  0.13665058064E+04  0.13665058064E+04  0.25500000920E-02 0. -1.
       -2   -1    0    0    0  501  0.00000000000E+00  0.00000000000E+00 -0.13542817051E+04  0.13542817051E+04  0.25500000920E-02 0.  1.
    10030    2    1    2    0    0  0.00000000000E+00  0.00000000000E+00  0.12224101360E+02  0.27207875115E+04  0.27207600508E+04 0.  0.
        2    1    3    3  502    0  0.44430477398E+03  0.77590210534E+03  0.10314043134E+04  0.13650002443E+04  0.25500000920E-02 0. -1.
       -2    1    3    3    0  502 -0.44430477398E+03 -0.77590210534E+03 -0.10191802121E+04  0.13557872672E+04  0.25500000920E-02 0.  1.
</event>
<event>
 5   0  0.6630125E-07  0.3528131E+04  0.7818609E-02  0.8107155E-01
        1   -1    0    0  501    0  0.00000000000E+00  0.00000000000E+00  0.26475232882E+04  0.26475232882E+04  0.50400001928E-02 0.  1.
       -1   -1    0    0    0  501  0.00000000000E+00  0.00000000000E+00 -0.11754105805E+04  0.11754105805E+04  0.50400001928E-02 0. -1.
    10030    2    1    2    0    0  0.00000000000E+00  0.00000000000E+00  0.14721127077E+04  0.38229338686E+04  0.35281308847E+04 0.  0.
        4    1    3    3  502    0  0.13608326083E+04  0.10401614334E+04  0.11933692100E+04  0.20875662575E+04  0.12699999809E+01 0.  1.
       -4    1    3    3    0  502 -0.13608326083E+04 -0.10401614334E+04  0.27874349765E+03  0.17353676111E+04  0.12699999809E+01 0. -1.
</event>
<event>
 5   0  0.6630125E-07  0.3465053E+04  0.7818609E-02  0.8122122E-01
        1   -1    0    0  501    0  0.00000000000E+00  0.00000000000E+00  0.16928808047E+04  0.16928808047E+04  0.50400001928E-02 0. -1.
       -1   -1    0    0    0  501  0.00000000000E+00  0.00000000000E+00 -0.17731007281E+04  0.17731007281E+04  0.50400001928E-02 0.  1.
    10030    2    1    2    0    0  0.00000000000E+00  0.00000000000E+00 -0.80219923419E+02  0.34659815329E+04  0.34650530660E+04 0.  0.
        1    1    3    3  502    0 -0.29417587309E+03  0.33826033078E+03 -0.17140842123E+04  0.17717347946E+04  0.50400001928E-02 0.  1.
       -1    1    3    3    0  502  0.29417587309E+03 -0.33826033078E+03  0.16338642888E+04  0.16942467383E+04  0.50400001928E-02 0. -1.
</event>
<event>
 5   0  0.2023479E-06  0.2414913E+04  0.7818609E-02  0.8433942E-01
       -2   -1    0    0    0  501  0.00000000000E+00  0.00000000000E+00  0.55817041815E+03  0.55817041816E+03  0.25500000920E-02 0. -1.
        2   -1    0    0  501    0  0.00000000000E+00  0.00000000000E+00 -0.26120169734E+04  0.26120169734E+04  0.25500000920E-02 0.  1.
    10030    2    1    2    0    0  0.00000000000E+00  0.00000000000E+00 -0.20538465552E+04  0.31701873915E+04  0.24149125088E+04 0.  0.
        5    1    3    3  502    0  0.91094167037E+03  0.49709206319E+03 -0.18372377287E+04  0.21100663042E+04  0.46999998093E+01 0.  1.
       -5    1    3    3    0  502 -0.91094167037E+03 -0.49709206319E+03 -0.21660882646E+03  0.10601210873E+04  0.46999998093E+01 0. -1.
</event>
<event>
 5   0  0.6890600E-07  0.2173758E+04  0.7818609E-02  0.8529431E-01
        1   -1    0    0  501    0  0.00000000000E+00  0.00000000000E+00  0.10075876674E+04  0.10075876674E+04  0.50400001928E-02 0. -1.
       -1   -1    0    0    0  501  0.00000000000E+00  0.00000000000E+00 -0.11724102479E+04  0.11724102479E+04  0.50400001928E-02 0.  1.
    10030    2    1    2    0    0  0.00000000000E+00  0.00000000000E+00 -0.16482258055E+03  0.21799979153E+04  0.21737581346E+04 0.  0.
        3    1    3    3  502    0 -0.12567720838E+02 -0.44484778034E+03  0.91202905392E+03  0.10148125446E+04  0.10100000352E+00 0. -1.
       -3    1    3    3    0  502  0.12567720838E+02  0.44484778034E+03 -0.10768516345E+04  0.11651853707E+04  0.10100000352E+00 0.  1.
</event>
<event>
 5   0  0.6890600E-07  0.3647412E+04  0.7818609E-02  0.8079717E-01
       -1   -1    0    0    0  501  0.00000000000E+00  0.00000000000E+00  0.13348807555E+04  0.13348807555E+04  0.50400001928E-02 0. -1.
        1   -1    0    0  501    0  0.00000000000E+00  0.00000000000E+00 -0.24915362808E+04  0.24915362808E+04  0.50400001928E-02 0.  1.
    10030    2    1    2    0    0  0.00000000000E+00  0.00000000000E+00 -0.11566555253E+04  0.38264170363E+04  0.36474121417E+04 0.  0.
        3    1    3    3  502    0  0.11797874193E+04  0.22396417490E+02 -0.20370747921E+04  0.23541609276E+04  0.10100000352E+00 0.  1.
       -3    1    3    3    0  502 -0.11797874193E+04 -0.22396417490E+02  0.88041926673E+03  0.14722561087E+04  0.10100000352E+00 0. -1.
</event>
<event>
 5   0  0.2001768E-06  0.3076918E+04  0.7818609E-02  0.8222101E-01
       -2   -1    0    0    0  501  0.00000000000E+00  0.00000000000E+00  0.12020135301E+04  0.12020135301E+04  0.25500000920E-02 0. -1.
        2   -1    0    0  501    0  0.00000000000E+00  0.00000000000E+00 -0.19690755770E+04  0.19690755770E+04  0.25500000920E-02 0.  1.
    10030    2    1    2    0    0  0.00000000000E+00  0.00000000000E+00 -0.76706204695E+03  0.31710891071E+04  0.30769176039E+04 0.  0.
        2    1    3    3  502    0 -0.81669137289E+03 -0.11073257117E+04 -0.10928547389E+04  0.17571245006E+04  0.25500000920E-02 0.  1.
       -2    1    3    3    0  502  0.81669137289E+03  0.11073257117E+04  0.32579269196E+03  0.14139646065E+04  0.25500000920E-02 0. -1.
</event>
<event>
 5   0  0.1999883E-06  0.3042230E+04  0.7818609E-02  0.8231774E-01
       -2   -1    0    0    0  501  0.00000000000E+00  0.00000000000E+00  0.11610866106E+04  0.11610866106E+04  0.25500000920E-02 0.  1.
        2   -1    0    0  501    0  0.00000000000E+00  0.00000000000E+00 -0.19927806489E+04  0.19927806489E+04  0.25500000920E-02 0. -1.
    10030    2    1    2    0    0  0.00000000000E+00  0.00000000000E+00 -0.83169403831E+03  0.31538672596E+04  0.30422300566E+04 0.  0.
        4    1    3    3  502    0 -0.35289541378E+03 -0.79594799888E+03 -0.17089026349E+04  0.19179202847E+04  0.12699999809E+01 0. -1.
       -4    1    3    3    0  502  0.35289541378E+03  0.79594799888E+03  0.87720859655E+03  0.12359469749E+04  0.12699999809E+01 0.  1.
</event>
<event>
 5   0  0.6890600E-07  0.3484333E+04  0.7818609E-02  0.8117513E-01
       -1   -1    0    0    0  501  0.00000000000E+00  0.00000000000E+00  0.23689552956E+04  0.23689552956E+04  0.50400001928E-02 0. -1.
        1   -1    0    0  501    0  0.00000000000E+00  0.00000000000E+00 -0.12812162376E+04  0.12812162376E+04  0.50400001928E-02 0.  1.
    10030    2    1    2    0    0  0.00000000000E+00  0.00000000000E+00  0.10877390580E+04  0.36501715332E+04  0.34843329295E+04 0.  0.
        3    1    3    3  502    0  0.30987941961E+03  0.15434604818E+04  0.13256091839E+04  0.20580416012E+04  0.10100000352E+00 0. -1.
       -3    1    3    3    0  502 -0.30987941961E+03 -0.15434604818E+04 -0.23787012586E+03  0.15921299321E+04  0.10100000352E+00 0.  1.
</event>
<event>
 5   0  0.2001768E-06  0.2159320E+04  0.7818609E-02  0.8535553E-01
        2   -1    0    0  501    0  0.00000000000E+00  0.00000000000E+00  0.23215373639E+04  0.23215373639E+04  0.25500000920E-02 0. -1.
       -2   -1    0    0    0  501  0.00000000000E+00  0.00000000000E+00 -0.50210955015E+03  0.50210955015E+03  0.25500000920E-02 0.  1.
    10030    2    1    2    0    0  0.00000000000E+00  0.00000000000E+00  0.18194278138E+04  0.28236469141E+04  0.21593203389E+04 0.  0.
        2    1    3    3  502    0  0.24618705414E+03  0.63649531157E+03 -0.18429575043E+03  0.70689410162E+03  0.25500000920E-02 0.  1.
       -2    1    3    3    0  502 -0.24618705414E+03 -0.63649531157E+03  0.20037235642E+04  0.21167528125E+04  0.25500000920E-02 0. -1.
</event>
<event>
 5   0  0.1999883E-06  0.3446024E+04  0.7818609E-02  0.8126702E-01
       -2   -1    0    0    0  501  0.00000000000E+00  0.00000000000E+00  0.16949279769E+04  0.16949279769E+04  0.25500000920E-02 0. -1.
        2   -1    0    0  501    0  0.00000000000E+00  0.00000000000E+00 -0.17515611133E+04  0.17515611133E+04  0.25500000920E-02 0.  1.
    10030    2    1    2    0    0  0.00000000000E+00  0.00000000000E+00 -0.56633136335E+02  0.34464890902E+04  0.34460237574E+04 0.  0.
        4    1    3    3  502    0 -0.15578817444E+04 -0.61209211177E+03  0.38053691951E+03  0.17165262139E+04  0.12699999809E+01 0. -1.
       -4    1    3    3    0  502  0.15578817444E+04  0.61209211177E+03 -0.43717005585E+03  0.17299628763E+04  0.12699999809E+01 0.  1.
</event>
<event>
 5   0  0.2020725E-06  0.3349412E+04  0.7818609E-02  0.8150435E-01
       -2   -1    0    0    0  501  0.00000000000E+00  0.00000000000E+00  0.15132788768E+04  0.15132788768E+04  0.25500000920E-02 0.  1.
        2   -1    0    0  501    0  0.00000000000E+00  0.00000000000E+00 -0.18533530199E+04  0.18533530199E+04  0.25500000920E-02 0. -1.
    10030    2    1    2    0    0  0.00000000000E+00  0.00000000000E+00 -0.34007414306E+03  0.33666318967E+04  0.33494118745E+04 0.  0.
        3    1    3    3  502    0  0.44432110176E+03  0.49355378941E+03 -0.17153492130E+04  0.18394128186E+04  0.10100000352E+00 0. -1.
       -3    1    3    3    0  502 -0.44432110176E+03 -0.49355378941E+03  0.13752750699E+04  0.15272190781E+04  0.10100000352E+00 0.  1.
</event>
<event>
 5   0  0.6890600E-07  0.2257243E+04  0.7818609E-02  0.8494973E-01
       -1   -1    0    0    0  501  0.00000000000E+00  0.00000000000E+00  0.12267102418E+04  0.12267102418E+04  0.50400001928E-02 0. -1.
        1   -1    0    0  501    0  0.00000000000E+00  0.00000000000E+00 -0.10383759788E+04  0.10383759788E+04  0.50400001928E-02 0.  1.
    10030    2    1    2    0    0  0.00000000000E+00  0.00000000000E+00  0.18833426301E+03  0.22650862206E+04  0.22572429626E+04 0.  0.
        3    1    3    3  502    0 -0.11196054192E+03 -0.10590186073E+04 -0.28093765256E+03  0.11013544154E+04  0.10100000352E+00 0.  1.
       -3    1    3    3    0  502  0.11196054192E+03  0.10590186073E+04  0.46927191557E+03  0.11637318052E+04  0.10100000352E+00 0. -1.
</event>
<event>
 5   0  0.2001768E-06  0.3491351E+04  0.7818609E-02  0.8115843E-01
        2   -1    0    0  501    0  0.00000000000E+00  0.00000000000E+00  0.18869714084E+04  0.18869714084E+04  0.25500000920E-02 0.  1.
       -2   -1    0    0    0  501  0.00000000000E+00  0.00000000000E+00 -0.16149593849E+04  0.16149593850E+04  0.25500000920E-02 0. -1.
    10030    2    1    2    0    0  0.00000000000E+00  0.00000000000E+00  0.27201202346E+03  0.35019307934E+04  0.34913505611E+04 0.  0.
        2    1    3    3  502    0 -0.89406462815E+03 -0.22194957197E+03 -0.13513122325E+04  0.16354381436E+04  0.25500000920E-02 0. -1.
       -2    1    3    3    0  502  0.89406462815E+03  0.22194957197E+03  0.16233242559E+04  0.18664926498E+04  0.25500000920E-02 0.  1.
</event>
<event>
 5   0  0.6630125E-07  0.3382845E+04  0.7818609E-02  0.8142130E-01
       -1   -1    0    0    0  501  0.00000000000E+00  0.00000000000E+00  0.16004681658E+04  0.16004681658E+04  0.50400001928E-02 0. -1.
        1   -1    0    0  501    0  0.00000000000E+00  0.00000000000E+00 -0.17875454519E+04  0.17875454519E+04  0.50400001928E-02 0.  1.
    10030    2    1    2    0    0  0.00000000000E+00  0.00000000000E+00 -0.18707728610E+03  0.33880136177E+04  0.33828447145E+04 0.  0.
        5    1    3    3  502    0 -0.92913453524E+03  0.96953568366E+02 -0.15057273677E+04  0.17719841914E+04  0.46999998093E+01 0.  1.
       -5    1    3    3    0  502  0.92913453524E+03 -0.96953568366E+02  0.13186500816E+04  0.16160294263E+04  0.46999998093E+01 0. -1.
</event>
<event>
 5   0  0.6630125E-07  0.3532835E+04  0.7818609E-02  0.8106052E-01
       -1   -1    0    0    0  501  0.00000000000E+00  0.00000000000E+00  0.27774342527E+04  0.27774342527E+04  0.50400001928E-02 0. -1.
        1   -1    0    0  501    0  0.00000000000E+00  0.00000000000E+00 -0.11234222323E+04  0.11234222323E+04  0.50400001928E-02 0.  1.
    10030    2    1    2    0    0  0.00000000000E+00  0.00000000000E+00  0.16540120204E+04  0.39008564850E+04  0.35328353419E+04 0.  0.
        4    1    3    3  502    0  0.71763978259E+03  0.91030275608E+03 -0.64472336929E+03  0.13263965475E+04  0.12699999809E+01 0.  1.
       -4    1    3    3    0  502 -0.71763978259E+03 -0.91030275608E+03  0.22987353897E+04  0.25744599375E+04  0.12699999809E+01 0. -1.
</event>
<event>
 5   0  0.2001768E-06  0.3243943E+04  0.7818609E-02  0.8177307E-01
       -2   -1    0    0    0  501  0.00000000000E+00  0.00000000000E+00  0.15430174674E+04  0.15430174674E+04  0.25500000920E-02 0. -1.
        2   -1    0    0  501    0  0.00000000000E+00  0.00000000000E+00 -0.17049652450E+04  0.17049652450E+04  0.25500000920E-02 0.  1.
    10030    2    1    2    0    0  0.00000000000E+00  0.00000000000E+00 -0.16194777763E+03  0.32479827124E+04  0.32439427581E+04 0.  0.
        2    1    3    3  502    0 -0.11342088886E+04  0.21282271539E+03 -0.12221599099E+04  0.16808920716E+04  0.25500000920E-02 0.  1.
       -2    1    3    3    0  502  0.11342088886E+04 -0.21282271539E+03  0.10602121323E+04  0.15670906408E+04  0.25500000920E-02 0. -1.
</event>
<event>
 5   0  0.6630125E-07  0.3449031E+04  0.7818609E-02  0.8125976E-01
       -1   -1    0    0    0  501  0.00000000000E+00  0.00000000000E+00  0.13712003049E+04  0.13712003049E+04  0.50400001928E-02 0. -1.
        1   -1    0    0  501    0  0.00000000000E+00  0.00000000000E+00 -0.21688686080E+04  0.21688686080E+04  0.50400001928E-02 0.  1.
    10030    2    1    2    0    0  0.00000000000E+00  0.00000000000E+00 -0.79766830316E+03  0.35400689129E+04  0.34490307604E+04 0.  0.
        5    1    3    3  502    0  0.32693652909E+03  0.10668017247E+04  0.95077916952E+03  0.14659319674E+04  0.46999998093E+01 0. -1.
       -5    1    3    3    0  502 -0.32693652909E+03 -0.10668017247E+04 -0.17484474727E+04  0.20741369455E+04  0.46999998093E+01 0.  1.
</event>
<event>
 5   0  0.6890600E-07  0.3243439E+04  0.7818609E-02  0.8177438E-01
        1   -1    0    0  501    0  0.00000000000E+00  0.00000000000E+00  0.23356046008E+04  0.23356046008E+04  0.50400001928E-02 0. -1.
       -1   -1    0    0    0  501  0.00000000000E+00  0.00000000000E+00 -0.11260359399E+04  0.11260359399E+04  0.50400001928E-02 0.  1.
    10030    2    1    2    0    0  0.00000000000E+00  0.00000000000E+00  0.12095686609E+04  0.34616405407E+04  0.32434393608E+04 0.  0.
        3    1    3    3  502    0  0.18473431443E+03  0.76214048096E+03 -0.91021560766E+03  0.12014480190E+04  0.10100000352E+00 0.  1.
       -3    1    3    3    0  502 -0.18473431443E+03 -0.76214048096E+03  0.21197842686E+04  0.22601925217E+04  0.10100000352E+00 0. -1.
</event>
<event>
 5   0  0.6890600E-07  0.3520022E+04  0.7818609E-02  0.8109061E-01
       -1   -1    0    0    0  501  0.00000000000E+00  0.00000000000E+00  0.30311586890E+04  0.30311586890E+04  0.50400001928E-02 0.  1.
        1   -1    0    0  501    0  0.00000000000E+00  0.00000000000E+00 -0.10219322668E+04  0.10219322669E+04  0.50400001928E-02 0. -1.
    10030    2    1    2    0    0  0.00000000000E+00  0.00000000000E+00  0.20092264222E+04  0.40530909559E+04  0.35200220853E+04 0.  0.
        3    1    3    3  502    0 -0.38970326173E+02 -0.31863379735E+03 -0.98793959914E+03  0.10387833484E+04  0.10100000352E+00 0. -1.
       -3    1    3    3    0  502  0.38970326173E+02  0.31863379735E+03  0.29971660213E+04  0.30143076075E+04  0.10100000352E+00 0.  1.
</event>
<event>
 5   0  0.7378896E-07  0.3401507E+04  0.7818609E-02  0.8137537E-01
        1   -1    0    0  501    0  0.00000000000E+00  0.00000000000E+00  0.15713163522E+04  0.15713163522E+04  0.50400001928E-02 0.  1.
       -1   -1    0    0    0  501  0.00000000000E+00  0.00000000000E+00 -0.18408531290E+04  0.18408531290E+04  0.50400001928E-02 0. -1.
    10030    2    1    2    0    0  0.00000000000E+00  0.00000000000E+00 -0.26953677679E+03  0.34121694811E+04  0.34015070916E+04 0.  0.
        2    1    3    3  502    0  0.62026079569E+03  0.12543695241E+04 -0.11044401773E+04  0.17826818176E+04  0.25500000920E-02 0. -1.
       -2    1    3    3    0  502 -0.62026079569E+03 -0.12543695241E+04  0.83490340047E+03  0.16294876636E+04  0.25500000920E-02 0.  1.
</event>
<event>
 5   0  0.2023479E-06  0.3413610E+04  0.7818609E-02  0.8134574E-01
       -2   -1    0    0    0  501  0.00000000000E+00  0.00000000000E+00  0.20676912906E+04  0.20676912906E+04  0.25500000920E-02 0. -1.
        2   -1    0    0  501    0  0.00000000000E+00  0.00000000000E+00 -0.14089064560E+04  0.14089064560E+04  0.25500000920E-02 0.  1.
    10030    2    1    2    0    0  0.00000000000E+00  0.00000000000E+00  0.65878483456E+03  0.34765977466E+04  0.34136101759E+04 0.  0.
        5    1    3    3  502    0 -0.10670203575E+04 -0.88305015987E+03 -0.68643433795E+03  0.15458085970E+04  0.46999998093E+01 0.  1.
       -5    1    3    3    0  502  0.10670203575E+04  0.88305015987E+03  0.13452191725E+04  0.19307891496E+04  0.46999998093E+01 0. -1.
</event>
<event>
 5   0  0.6630125E-07  0.3192081E+04  0.7818609E-02  0.8190912E-01
        1   -1    0    0  501    0  0.00000000000E+00  0.00000000000E+00  0.14505672644E+04  0.14505672644E+04  0.50400001928E-02 0. -1.
       -1   -1    0    0    0  501  0.00000000000E+00  0.00000000000E+00 -0.17561028982E+04  0.17561028982E+04  0.50400001928E-02 0.  1.
    10030    2    1    2    0    0  0.00000000000E+00  0.00000000000E+00 -0.30553563385E+03  0.32066701626E+04  0.31920810623E+04 0.  0.
        4    1    3    3  502    0 -0.26502774630E+03 -0.15155925289E+04  0.27353396959E+03  0.15627165019E+04  0.12699999809E+01 0. -1.
       -4    1    3    3    0  502  0.26502774630E+03  0.15155925289E+04 -0.57906960344E+03  0.16439536607E+04  0.12699999809E+01 0.  1.
</event>
<event>
 5   0  0.6890600E-07  0.3552496E+04  0.7818609E-02  0.8101461E-01
        1   -1    0    0  501    0  0.00000000000E+00  0.00000000000E+00  0.12651765773E+04  0.12651765773E+04  0.50400001928E-02 0.  1.
       -1   -1    0    0    0  501  0.00000000000E+00  0.00000000000E+00 -0.24937680108E+04  0.24937680108E+04  0.50400001928E-02 0. -1.
    10030    2    1    2    0    0  0.00000000000E+00  0.00000000000E+00 -0.12285914335E+04  0.37589445881E+04  0.35524959544E+04 0.  0.
        3    1    3    3  502    0  0.17432035469E+03  0.10062156200E+04 -0.21520954802E+04  0.23820941262E+04  0.10100000352E+00 0. -1.
       -3    1    3    3    0  502 -0.17432035469E+03 -0.10062156200E+04  0.92350404663E+03  0.13768504619E+04  0.10100000352E+00 0.  1.
</event>
<event>
 5   0  0.2001768E-06  0.3296588E+04  0.7818609E-02  0.8163764E-01
        2   -1    0    0  501    0  0.00000000000E+00  0.00000000000E+00  0.23610522945E+04  0.23610522945E+04  0.25500000920E-02 0. -1.
       -2   -1    0    0    0  501  0.00000000000E+00  0.00000000000E+00 -0.11507041797E+04  0.11507041797E+04  0.25500000920E-02 0.  1.
    10030    2    1    2    0    0  0.00000000000E+00  0.00000000000E+00  0.12103481148E+04  0.35117564741E+04  0.32965877775E+04 0.  0.
        2    1    3    3  502    0 -0.97805809619E+01  0.12717830278E+03 -0.11454387503E+04  0.11525189418E+04  0.25500000920E-02 0.  1.
       -2    1    3    3    0  502  0.97805809619E+01 -0.12717830278E+03  0.23557868651E+04  0.23592375324E+04  0.25500000920E-02 0. -1.
</event>
<event>
 5   0  0.7378896E-07  0.3414185E+04  0.7818609E-02  0.8134434E-01
       -1   -1    0    0    0  501  0.00000000000E+00  0.00000000000E+00  0.16553971452E+04  0.16553971452E+04  0.50400001928E-02 0.  1.
        1   -1    0    0  501    0  0.00000000000E+00  0.00000000000E+00 -0.17604020573E+04  0.17604020573E+04  0.50400001928E-02 0. -1.
    10030    2    1    2    0    0  0.00000000000E+00  0.00000000000E+00 -0.10500491211E+03  0.34157992025E+04  0.34141848457E+04 0.  0.
        2    1    3    3  502    0 -0.36654094141E+03  0.12517776943E+04  0.10493197307E+04  0.16740285406E+04  0.25500000920E-02 0.  1.
       -2    1    3    3    0  502  0.36654094141E+03 -0.12517776943E+04 -0.11543246428E+04  0.17417706619E+04  0.25500000920E-02 0. -1.
</event>
<event>
 5   0  0.2023479E-06  0.3509850E+04  0.7818609E-02  0.8111460E-01
        2   -1    0    0  501    0  0.00000000000E+00  0.00000000000E+00  0.19885422580E+04  0.19885422580E+04  0.25500000920E-02 0. -1.
       -2   -1    0    0    0  501  0.00000000000E+00  0.00000000000E+00 -0.15487536265E+04  0.15487536265E+04  0.25500000920E-02 0.  1.
    10030    2    1    2    0    0  0.00000000000E+00  0.00000000000E+00  0.43978863154E+03  0.35372958845E+04  0.35098501584E+04 0.  0.
        5    1    3    3  502    0 -0.11247422819E+04  0.28302596266E+03  0.15472318119E+04  0.19336745502E+04  0.46999998093E+01 0. -1.
       -5    1    3    3    0  502  0.11247422819E+04 -0.28302596266E+03 -0.11074431804E+04  0.16036213343E+04  0.46999998093E+01 0.  1.
</event>
<event>
 5   0  0.6630125E-07  0.3490807E+04  0.7818609E-02  0.8115972E-01
        1   -1    0    0  501    0  0.00000000000E+00  0.00000000000E+00  0.17800072126E+04  0.17800072126E+04  0.50400001928E-02 0.  1.
       -1   -1    0    0    0  501  0.00000000000E+00  0.00000000000E+00 -0.17114722691E+04  0.17114722691E+04  0.50400001928E-02 0. -1.
    10030    2    1    2    0    0  0.00000000000E+00  0.00000000000E+00  0.68534943536E+02  0.34914794817E+04  0.34908067739E+04 0.  0.
        1    1    3    3  502    0  0.38372560191E+03 -0.20374477338E+03  0.17250593618E+04  0.17789286304E+04  0.50400001928E-02 0.  1.
       -1    1    3    3    0  502 -0.38372560191E+03  0.20374477338E+03 -0.16565244182E+04  0.17125508514E+04  0.50400001928E-02 0. -1.
</event>
<event>
 5   0  0.2020725E-06  0.3467371E+04  0.7818609E-02  0.8121566E-01
        2   -1    0    0  501    0  0.00000000000E+00  0.00000000000E+00  0.16115057000E+04  0.16115057000E+04  0.25500000920E-02 0. -1.
       -2   -1    0    0    0  501  0.00000000000E+00  0.00000000000E+00 -0.18651285653E+04  0.18651285653E+04  0.25500000920E-02 0.  1.
    10030    2    1    2    0    0  0.00000000000E+00  0.00000000000E+00 -0.25362286531E+03  0.34766342653E+04  0.34673709431E+04 0.  0.
        3    1    3    3  502    0  0.16294963776E+04 -0.40321964128E+03 -0.56135219409E+03  0.17700171806E+04  0.10100000352E+00 0.  1.
       -3    1    3    3    0  502 -0.16294963776E+04  0.40321964128E+03  0.30772932878E+03  0.17066170847E+04  0.10100000352E+00 0. -1.
</event>
<event>
 5   0  0.2023479E-06  0.2359656E+04  0.7818609E-02  0.8454764E-01
       -2   -1    0    0    0  501  0.00000000000E+00  0.00000000000E+00  0.79255518441E+03  0.79255518441E+03  0.25500000920E-02 0. -1.
        2   -1    0    0  501    0  0.00000000000E+00  0.00000000000E+00 -0.17563366011E+04  0.17563366011E+04  0.25500000920E-02 0.  1.
    10030    2    1    2    0    0  0.00000000000E+00  0.00000000000E+00 -0.96378141674E+03  0.25488917856E+04  0.23596556349E+04 0.  0.
        5    1    3    3  502    0  0.48664813231E+03  0.53543970943E+03  0.52475131287E+03  0.89381660170E+03  0.46999998093E+01 0. -1.
       -5    1    3    3    0  502 -0.48664813231E+03 -0.53543970943E+03 -0.14885327296E+04  0.16550751839E+04  0.46999998093E+01 0.  1.
</event>
<event>
 5   0  0.6630125E-07  0.3531092E+04  0.7818609E-02  0.8106461E-01
       -1   -1    0    0    0  501  0.00000000000E+00  0.00000000000E+00  0.16079715185E+04  0.16079715185E+04  0.50400001928E-02 0.  1.
        1   -1    0    0  501    0  0.00000000000E+00  0.00000000000E+00 -0.19385616560E+04  0.19385616560E+04  0.50400001928E-02 0. -1.
    10030    2    1    2    0    0  0.00000000000E+00  0.00000000000E+00 -0.33059013749E+03  0.35465331745E+04  0.35310915761E+04 0.  0.
        1    1    3    3  502    0 -0.53351976391E+03 -0.10906849550E+03  0.15215172766E+04  0.16160303518E+04  0.50400001928E-02 0.  1.
       -1    1    3    3    0  502  0.53351976391E+03  0.10906849550E+03 -0.18521074140E+04  0.19305028227E+04  0.50400001928E-02 0. -1.
</event>
<event>
 5   0  0.2001768E-06  0.2996423E+04  0.7818609E-02  0.8244753E-01
        2   -1    0    0  501    0  0.00000000000E+00  0.00000000000E+00  0.10142244159E+04  0.10142244159E+04  0.25500000920E-02 0.  1.
       -2   -1    0    0    0  501  0.00000000000E+00  0.00000000000E+00 -0.22131573898E+04  0.22131573898E+04  0.25500000920E-02 0. -1.
    10030    2    1    2    0    0  0.00000000000E+00  0.00000000000E+00 -0.11989329739E+04  0.32273818057E+04  0.29964233753E+04 0.  0.
        2    1    3    3  502    0 -0.55190328373E+03  0.11764880155E+04 -0.14025341489E+04  0.19120207436E+04  0.25500000920E-02 0. -1.
       -2    1    3    3    0  502  0.55190328373E+03 -0.11764880155E+04  0.20360117508E+03  0.13153610621E+04  0.25500000920E-02 0.  1.
</event>
<event>
 5   0  0.2023479E-06  0.2298572E+04  0.7818609E-02  0.8478484E-01
       -2   -1    0    0    0  501  0.00000000000E+00  0.00000000000E+00  0.47181288157E+03  0.47181288158E+03  0.25500000920E-02 0.  1.
        2   -1    0    0  501    0  0.00000000000E+00  0.00000000000E+00 -0.27995387991E+04  0.27995387991E+04  0.25500000920E-02 0. -1.
    10030    2    1    2    0    0  0.00000000000E+00  0.00000000000E+00 -0.23277259176E+04  0.32713516807E+04  0.22985721376E+04 0.  0.
        5    1    3    3  502    0  0.83882224158E+03 -0.47090108105E+03 -0.26886187617E+03  0.99883901583E+03  0.46999998093E+01 0.  1.
       -5    1    3    3    0  502 -0.83882224158E+03  0.47090108105E+03 -0.20588640414E+04  0.22725126649E+04  0.46999998093E+01 0. -1.
</event>
<event>
 5   0  0.7378896E-07  0.3474816E+04  0.7818609E-02  0.8119784E-01
       -1   -1    0    0    0  501  0.00000000000E+00  0.00000000000E+00  0.12990079314E+04  0.12990079314E+04  0.50400001928E-02 0. -1.
        1   -1    0    0  501    0  0.00000000000E+00  0.00000000000E+00 -0.23237633876E+04  0.23237633876E+04  0.50400001928E-02 0.  1.
    10030    2    1    2    0    0  0.00000000000E+00  0.00000000000E+00 -0.10247554562E+04  0.36227713190E+04  0.34748162951E+04 0.  0.
        2    1    3    3  502    0 -0.46874132619E+03 -0.34722680417E+03 -0.22186127788E+04  0.22940199535E+04  0.25500000920E-02 0.  1.
       -2    1    3    3    0  502  0.46874132619E+03  0.34722680417E+03  0.11938573227E+04  0.13287513655E+04  0.25500000920E-02 0. -1.
</event>
<event>
 5   0  0.2020725E-06  0.3513025E+04  0.7818609E-02  0.8110710E-01
       -2   -1    0    0    0  501  0.00000000000E+00  0.00000000000E+00  0.11596799714E+04  0.11596799714E+04  0.25500000920E-02 0.  1.
        2   -1    0    0  501    0  0.00000000000E+00  0.00000000000E+00 -0.26605062567E+04  0.26605062567E+04  0.25500000920E-02 0. -1.
    10030    2    1    2    0    0  0.00000000000E+00  0.00000000000E+00 -0.15008262853E+04  0.38201862281E+04  0.35130248047E+04 0.  0.
        3    1    3    3  502    0 -0.15192681925E+04  0.11230873865E+03 -0.17012485199E+04  0.22836452505E+04  0.10100000352E+00 0.  1.
       -3    1    3    3    0  502  0.15192681925E+04 -0.11230873865E+03  0.20042223464E+03  0.15365409776E+04  0.10100000352E+00 0. -1.
</event>
<event>
 5   0  0.6630125E-07  0.3504747E+04  0.7818609E-02  0.8112666E-01
        1   -1    0    0  501    0  0.00000000000E+00  0.00000000000E+00  0.16834063419E+04  0.16834063419E+04  0.50400001928E-02 0. -1.
       -1   -1    0    0    0  501  0.00000000000E+00  0.00000000000E+00 -0.18241657517E+04  0.18241657517E+04  0.50400001928E-02 0.  1.
    10030    2    1    2    0    0  0.00000000000E+00  0.00000000000E+00 -0.14075940980E+03  0.35075720937E+04  0.35047466072E+04 0.  0.
        4    1    3    3  502    0 -0.25869408600E+03  0.12692868511E+04  0.11107407225E+04  0.17063875017E+04  0.12699999809E+01 0. -1.
       -4    1    3    3    0  502  0.25869408600E+03 -0.12692868511E+04 -0.12515001323E+04  0.18011845920E+04  0.12699999809E+01 0.  1.
</event>
<event>
 5   0  0.6630125E-07  0.3415018E+04  0.7818609E-02  0.8134230E-01
        1   -1    0    0  501    0  0.00000000000E+00  0.00000000000E+00  0.17590918074E+04  0.17590918074E+04  0.50400001928E-02 0.  1.
       -1   -1    0    0    0  501  0.00000000000E+00  0.00000000000E+00 -0.16574391631E+04  0.16574391631E+04  0.50400001928E-02 0. -1.
    10030    2    1    2    0    0  0.00000000000E+00  0.00000000000E+00  0.10165264432E+03  0.34165309704E+04  0.34150183912E+04 0.  0.
        5    1    3    3  502    0 -0.65410848492E+03 -0.84999199442E+03 -0.12783784445E+04  0.16687174230E+04  0.46999998093E+01 0. -1.
       -5    1    3    3    0  502  0.65410848492E+03  0.84999199442E+03  0.13800310888E+04  0.17478135474E+04  0.46999998093E+01 0.  1.
</event>
<event>
 5   0  0.6630125E-07  0.3438191E+04  0.7818609E-02  0.8128596E-01
       -1   -1    0    0    0  501  0.00000000000E+00  0.00000000000E+00  0.11174443488E+04  0.11174443488E+04  0.50400001928E-02 0.  1.
        1   -1    0    0  501    0  0.00000000000E+00  0.00000000000E+00 -0.26446853187E+04  0.26446853187E+04  0.50400001928E-02 0. -1.
    10030    2    1    2    0    0  0.00000000000E+00  0.00000000000E+00 -0.15272409699E+04  0.37621296675E+04  0.34381906077E+04 0.  0.
        5    1    3    3  502    0 -0.82647578803E+03 -0.99454187561E+02 -0.24094323018E+04  0.25491840794E+04  0.46999998093E+01 0. -1.
       -5    1    3    3    0  502  0.82647578803E+03  0.99454187561E+02  0.88219133192E+03  0.12129455881E+04  0.46999998093E+01 0.  1.
</event>
<event>
 5   0  0.6630125E-07  0.3521795E+04  0.7818609E-02  0.8108644E-01
        3   -1    0    0  501    0  0.00000000000E+00  0.00000000000E+00  0.14837368829E+04  0.14837368864E+04  0.10100000352E+00 0.  1.
       -3   -1    0    0    0  501  0.00000000000E+00  0.00000000000E+00 -0.20898311777E+04  0.20898311801E+04  0.10100000352E+00 0. -1.
    10030    2    1    2    0    0  0.00000000000E+00  0.00000000000E+00 -0.60609429475E+03  0.35735680665E+04  0.35217947742E+04 0.  0.
        2    1    3    3  502    0  0.16559754271E+04 -0.20003917387E+03  0.26959782454E+03  0.16896606977E+04  0.25500000920E-02 0.  1.
       -2    1    3    3    0  502 -0.16559754271E+04  0.20003917387E+03 -0.87569211929E+03  0.18839073688E+04  0.25500000920E-02 0. -1.
</event>
<event>
 5   0  0.2020725E-06  0.3455901E+04  0.7818609E-02  0.8124321E-01
        2   -1    0    0  501    0  0.00000000000E+00  0.00000000000E+00  0.18873599831E+04  0.18873599831E+04  0.25500000920E-02 0. -1.
       -2   -1    0    0    0  501  0.00000000000E+00  0.00000000000E+00 -0.15820047016E+04  0.15820047016E+04  0.25500000920E-02 0.  1.
    10030    2    1    2    0    0  0.00000000000E+00  0.00000000000E+00  0.30535528150E+03  0.34693646848E+04  0.34559006739E+04 0.  0.
        3    1    3    3  502    0  0.73900647394E+03 -0.70792816939E+03  0.15504092541E+04  0.18577033474E+04  0.10100000352E+00 0. -1.
       -3    1    3    3    0  502 -0.73900647394E+03  0.70792816939E+03 -0.12450539726E+04  0.16116613374E+04  0.10100000352E+00 0.  1.
</event>
<event>
 5   0  0.6630125E-07  0.3456137E+04  0.7818609E-02  0.8124264E-01
        1   -1    0    0  501    0  0.00000000000E+00  0.00000000000E+00  0.12848674655E+04  0.12848674655E+04  0.50400001928E-02 0. -1.
       -1   -1    0    0    0  501  0.00000000000E+00  0.00000000000E+00 -0.23241466399E+04  0.23241466399E+04  0.50400001928E-02 0.  1.
    10030    2    1    2    0    0  0.00000000000E+00  0.00000000000E+00 -0.10392791744E+04  0.36090141053E+04  0.34561368043E+04 0.  0.
        5    1    3    3  502    0  0.45576705145E+03  0.16652627967E+04 -0.59619355518E+03  0.18265521160E+04  0.46999998093E+01 0. -1.
       -5    1    3    3    0  502 -0.45576705145E+03 -0.16652627967E+04 -0.44308561923E+03  0.17824619893E+04  0.46999998093E+01 0.  1.
</event>
<event>
 5   0  0.6630125E-07  0.3585432E+04  0.7818609E-02  0.8093837E-01
        1   -1    0    0  501    0  0.00000000000E+00  0.00000000000E+00  0.15853406814E+04  0.15853406814E+04  0.50400001928E-02 0.  1.
       -1   -1    0    0    0  501  0.00000000000E+00  0.00000000000E+00 -0.20272181801E+04  0.20272181801E+04  0.50400001928E-02 0. -1.
    10030    2    1    2    0    0  0.00000000000E+00  0.00000000000E+00 -0.44187749871E+03  0.36125588616E+04  0.35854324432E+04 0.  0.
        5    1    3    3  502    0  0.11769793000E+04 -0.30636887376E+03 -0.15479709819E+04  0.19685980825E+04  0.46999998093E+01 0. -1.
       -5    1    3    3    0  502 -0.11769793000E+04  0.30636887376E+03  0.11060934832E+04  0.16439607791E+04  0.46999998093E+01 0.  1.
</event>
<event>
 5   0  0.2020725E-06  0.3446519E+04  0.7818609E-02  0.8126582E-01
        2   -1    0    0  501    0  0.00000000000E+00  0.00000000000E+00  0.11622675382E+04  0.11622675382E+04  0.25500000920E-02 0. -1.
       -2   -1    0    0    0  501  0.00000000000E+00  0.00000000000E+00 -0.25550258511E+04  0.25550258511E+04  0.25500000920E-02 0.  1.
    10030    2    1    2    0    0  0.00000000000E+00  0.00000000000E+00 -0.13927583128E+04  0.37172933893E+04  0.34465191751E+04 0.  0.
        3    1    3    3  502    0  0.22180273442E+03  0.12251645199E+04 -0.19813651510E+04  0.23400923968E+04  0.10100000352E+00 0.  1.
       -3    1    3    3    0  502 -0.22180273442E+03 -0.12251645199E+04  0.58860683815E+03  0.13772009925E+04  0.10100000352E+00 0. -1.
</event>
<event>
 5   0  0.2073287E-06  0.3531762E+04  0.7818609E-02  0.8106304E-01
       -2   -1    0    0    0  501  0.00000000000E+00  0.00000000000E+00  0.11089699222E+04  0.11089699222E+04  0.25500000920E-02 0.  1.
        2   -1    0    0  501    0  0.00000000000E+00  0.00000000000E+00 -0.28119205204E+04  0.28119205204E+04  0.25500000920E-02 0. -1.
    10030    2    1    2    0    0  0.00000000000E+00  0.00000000000E+00 -0.17029505982E+04  0.39208904426E+04  0.35317617591E+04 0.  0.
        1    1    3    3  502    0  0.59278639150E+03 -0.11467196932E+04 -0.21892182021E+04  0.25414637706E+04  0.50400001928E-02 0. -1.
       -1    1    3    3    0  502 -0.59278639150E+03  0.11467196932E+04  0.48626760397E+03  0.13794266720E+04  0.50400001928E-02 0.  1.
</event>
<event>
 5   0  0.1999883E-06  0.2150872E+04  0.7818609E-02  0.8539159E-01
       -2   -1    0    0    0  501  0.00000000000E+00  0.00000000000E+00  0.13256480422E+04  0.13256480422E+04  0.25500000920E-02 0. -1.
        2   -1    0    0  501    0  0.00000000000E+00  0.00000000000E+00 -0.87245047763E+03  0.87245047763E+03  0.25500000920E-02 0.  1.
    10030    2    1    2    0    0  0.00000000000E+00  0.00000000000E+00  0.45319756454E+03  0.21980985198E+04  0.21508717001E+04 0.  0.
        4    1    3    3  502    0 -0.91770206752E+03  0.53790946390E+03  0.38830384133E+03  0.11323891390E+04  0.12699999809E+01 0.  1.
       -4    1    3    3    0  502  0.91770206752E+03 -0.53790946390E+03  0.64893723208E+02  0.10657093808E+04  0.12699999809E+01 0. -1.
</event>
<event>
 5   0  0.7378896E-07  0.3541741E+04  0.7818609E-02  0.8103968E-01
       -1   -1    0    0    0  501  0.00000000000E+00  0.00000000000E+00  0.13907637722E+04  0.13907637722E+04  0.50400001928E-02 0.  1.
        1   -1    0    0  501    0  0.00000000000E+00  0.00000000000E+00 -0.22548636440E+04  0.22548636440E+04  0.50400001928E-02 0. -1.
    10030    2    1    2    0    0  0.00000000000E+00  0.00000000000E+00 -0.86409987181E+03  0.36456274163E+04  0.35417411918E+04 0.  0.
        2    1    3    3  502    0 -0.11164059512E+04 -0.77619248094E+03 -0.15998521817E+04  0.20996104445E+04  0.25500000920E-02 0.  1.
       -2    1    3    3    0  502  0.11164059512E+04  0.77619248094E+03  0.73575230991E+03  0.15460169718E+04  0.25500000920E-02 0. -1.
</event>
<event>
 5   0  0.2023479E-06  0.2259198E+04  0.7818609E-02  0.8494185E-01
        2   -1    0    0  501    0  0.00000000000E+00  0.00000000000E+00  0.83711427999E+03  0.83711428000E+03  0.25500000920E-02 0. -1.
       -2   -1    0    0    0  501  0.00000000000E+00  0.00000000000E+00 -0.15242763398E+04  0.15242763398E+04  0.25500000920E-02 0.  1.
    10030    2    1    2    0    0  0.00000000000E+00  0.00000000000E+00 -0.68716205985E+03  0.23613906198E+04  0.22591976370E+04 0.  0.
        5    1    3    3  502    0  0.10168403187E+04 -0.25172679757E+03  0.98196802165E+02  0.10521384492E+04  0.46999998093E+01 0. -1.
       -5    1    3    3    0  502 -0.10168403187E+04  0.25172679757E+03 -0.78535886201E+03  0.13092521707E+04  0.46999998093E+01 0.  1.
</event>
<event>
 5   0  0.6630125E-07  0.3477780E+04  0.7818609E-02  0.8119076E-01
        1   -1    0    0  501    0  0.00000000000E+00  0.00000000000E+00  0.17689531307E+04  0.17689531307E+04  0.50400001928E-02 0. -1.
       -1   -1    0    0    0  501  0.00000000000E+00  0.00000000000E+00 -0.17093375064E+04  0.17093375064E+04  0.50400001928E-02 0.  1.
    10030    2    1    2    0    0  0.00000000000E+00  0.00000000000E+00  0.59615624285E+02  0.34782906371E+04  0.34777797132E+04 0.  0.
        4    1    3    3  502    0  0.70679262688E+03  0.10161271414E+04 -0.11917094624E+04  0.17182093122E+04  0.12699999809E+01 0.  1.
       -4    1    3    3    0  502 -0.70679262688E+03 -0.10161271414E+04  0.12513250866E+04  0.17600813249E+04  0.12699999809E+01 0. -1.
</event>
<event>
 5   0  0.2073287E-06  0.3454557E+04  0.7818609E-02  0.8124644E-01
       -2   -1    0    0    0  501  0.00000000000E+00  0.00000000000E+00  0.11645742543E+04  0.11645742543E+04  0.25500000920E-02 0.  1.
        2   -1    0    0  501    0  0.00000000000E+00  0.00000000000E+00 -0.25618734610E+04  0.25618734610E+04  0.25500000920E-02 0. -1.
    10030    2    1    2    0    0  0.00000000000E+00  0.00000000000E+00 -0.13972992068E+04  0.37264477153E+04  0.34545574972E+04 0.  0.
        1    1    3    3  502    0  0.15339180891E+03 -0.13205129034E+04  0.49096592349E+03  0.14171559240E+04  0.50400001928E-02 0.  1.
       -1    1    3    3    0  502 -0.15339180891E+03  0.13205129034E+04 -0.18882651303E+04  0.23092917913E+04  0.50400001928E-02 0. -1.
</event>
<event>
 5   0  0.2023479E-06  0.3464948E+04  0.7818609E-02  0.8122147E-01
       -2   -1    0    0    0  501  0.00000000000E+00  0.00000000000E+00  0.15243797027E+04  0.15243797027E+04  0.25500000920E-02 0.  1.
        2   -1    0    0  501    0  0.00000000000E+00  0.00000000000E+00 -0.19689759065E+04  0.19689759065E+04  0.25500000920E-02 0. -1.
    10030    2    1    2    0    0  0.00000000000E+00  0.00000000000E+00 -0.44459620382E+03  0.34933556092E+04  0.34649484308E+04 0.  0.
        5    1    3    3  502    0  0.12883731921E+04  0.87022664237E+03  0.54832761253E+03  0.16486009680E+04  0.46999998093E+01 0.  1.
       -5    1    3    3    0  502 -0.12883731921E+04 -0.87022664237E+03 -0.99292381635E+03  0.18447546412E+04  0.46999998093E+01 0. -1.
</event>
<event>
 5   0  0.2001768E-06  0.3549654E+04  0.7818609E-02  0.8102122E-01
       -2   -1    0    0    0  501  0.00000000000E+00  0.00000000000E+00  0.18792531866E+04  0.18792531866E+04  0.25500000920E-02 0. -1.
        2   -1    0    0  501    0  0.00000000000E+00  0.00000000000E+00 -0.16762036932E+04  0.16762036932E+04  0.25500000920E-02 0.  1.
    10030    2    1    2    0    0  0.00000000000E+00  0.00000000000E+00  0.20304949339E+03  0.35554568799E+04  0.35496541420E+04 0.  0.
        2    1    3    3  502    0  0.15722001020E+04  0.70986750605E+03 -0.31663357675E+03  0.17538477296E+04  0.25500000920E-02 0.  1.
       -2    1    3    3    0  502 -0.15722001020E+04 -0.70986750605E+03  0.51968307014E+03  0.18016091502E+04  0.25500000920E-02 0. -1.
</event>
<event>
 5   0  0.6630125E-07  0.3527211E+04  0.7818609E-02  0.8107371E-01
       -1   -1    0    0    0  501  0.00000000000E+00  0.00000000000E+00  0.18203330211E+04  0.18203330211E+04  0.50400001928E-02 0.  1.
        1   -1    0    0  501    0  0.00000000000E+00  0.00000000000E+00 -0.17086459627E+04  0.17086459627E+04  0.50400001928E-02 0. -1.
    10030    2    1    2    0    0  0.00000000000E+00  0.00000000000E+00  0.11168705839E+03  0.35289789838E+04  0.35272111744E+04 0.  0.
        1    1    3    3  502    0  0.13899764797E+04  0.11494236733E+02 -0.10301211008E+04  0.17301202889E+04  0.50400001928E-02 0. -1.
       -1    1    3    3    0  502 -0.13899764797E+04 -0.11494236733E+02  0.11418081592E+04  0.17988586949E+04  0.50400001928E-02 0.  1.
</event>
<event>
 5   0  0.6630125E-07  0.3711021E+04  0.7818609E-02  0.8065524E-01
        1   -1    0    0  501    0  0.00000000000E+00  0.00000000000E+00  0.14084816333E+04  0.14084816333E+04  0.50400001928E-02 0. -1.
       -1   -1    0    0    0  501  0.00000000000E+00  0.00000000000E+00 -0.24444186764E+04  0.24444186764E+04  0.50400001928E-02 0.  1.
    10030    2    1    2    0    0  0.00000000000E+00  0.00000000000E+00 -0.10359370431E+04  0.38529003097E+04  0.37110207813E+04 0.  0.
        4    1    3    3  502    0 -0.28100655775E+03 -0.80972838994E+03 -0.22265754575E+04  0.23858467327E+04  0.12699999809E+01 0.  1.
       -4    1    3    3    0  502  0.28100655775E+03  0.80972838994E+03  0.11906384145E+04  0.14670535770E+04  0.12699999809E+01 0. -1.
</event>
<event>
 5   0  0.2001768E-06  0.3479792E+04  0.7818609E-02  0.8118596E-01
       -2   -1    0    0    0  501  0.00000000000E+00  0.00000000000E+00  0.11352562016E+04  0.11352562016E+04  0.25500000920E-02 0.  1.
        2   -1    0    0  501    0  0.00000000000E+00  0.00000000000E+00 -0.26665684598E+04  0.26665684598E+04  0.25500000920E-02 0. -1.
    10030    2    1    2    0    0  0.00000000000E+00  0.00000000000E+00 -0.15313122582E+04  0.38018246614E+04  0.34797921667E+04 0.  0.
        2    1    3    3  502    0 -0.15864936276E+04 -0.33761382892E+03 -0.77879971532E+02  0.16238874401E+04  0.25500000920E-02 0. -1.
       -2    1    3    3    0  502  0.15864936276E+04  0.33761382892E+03 -0.14534322866E+04  0.21779372213E+04  0.25500000920E-02 0.  1.
</event>
<event>
 5   0  0.2023479E-06  0.3482023E+04  0.7818609E-02  0.8118064E-01
       -2   -1    0    0    0  501  0.00000000000E+00  0.00000000000E+00  0.27322156085E+04  0.27322156085E+04  0.25500000920E-02 0. -1.
        2   -1    0    0  501    0  0.00000000000E+00  0.00000000000E+00 -0.11094001205E+04  0.11094001205E+04  0.25500000920E-02 0.  1.
    10030    2    1    2    0    0  0.00000000000E+00  0.00000000000E+00  0.16228154880E+04  0.38416157290E+04  0.34820225877E+04 0.  0.
        5    1    3    3  502    0 -0.17021494779E+04 -0.36041449512E+02  0.40983151835E+03  0.17511698360E+04  0.46999998093E+01 0. -1.
       -5    1    3    3    0  502  0.17021494779E+04  0.36041449512E+02  0.12129839697E+04  0.20904458930E+04  0.46999998093E+01 0.  1.
</event>
<event>
 5   0  0.6630125E-07  0.3689359E+04  0.7818609E-02  0.8070324E-01
       -1   -1    0    0    0  501  0.00000000000E+00  0.00000000000E+00  0.16494112160E+04  0.16494112160E+04  0.50400001928E-02 0. -1.
        1   -1    0    0  501    0  0.00000000000E+00  0.00000000000E+00 -0.20630654993E+04  0.20630654993E+04  0.50400001928E-02 0.  1.
    10030    2    1    2    0    0  0.00000000000E+00  0.00000000000E+00 -0.41365428332E+03  0.37124767153E+04  0.36893594966E+04 0.  0.
        4    1    3    3  502    0  0.11492282238E+04  0.13798059560E+04  0.21801705847E+03  0.18089010579E+04  0.12699999809E+01 0. -1.
       -4    1    3    3    0  502 -0.11492282238E+04 -0.13798059560E+04 -0.63167134179E+03  0.19035756574E+04  0.12699999809E+01 0.  1.
</event>
<event>
 5   0  0.7378896E-07  0.2237489E+04  0.7818609E-02  0.8502985E-01
       -1   -1    0    0    0  501  0.00000000000E+00  0.00000000000E+00  0.12957462846E+04  0.12957462846E+04  0.50400001928E-02 0. -1.
        1   -1    0    0  501    0  0.00000000000E+00  0.00000000000E+00 -0.96592134880E+03  0.96592134882E+03  0.50400001928E-02 0.  1.
    10030    2    1    2    0    0  0.00000000000E+00  0.00000000000E+00  0.32982493577E+03  0.22616676334E+04  0.22374887700E+04 0.  0.
        2    1    3    3  502    0 -0.73075214864E+03 -0.77934942884E+03 -0.17064592289E+03  0.10818984546E+04  0.25500000920E-02 0. -1.
       -2    1    3    3    0  502  0.73075214864E+03  0.77934942884E+03  0.50047085866E+03  0.11797691788E+04  0.25500000920E-02 0.  1.
</event>
<event>
 5   0  0.1999883E-06  0.3448996E+04  0.7818609E-02  0.8125985E-01
       -2   -1    0    0    0  501  0.00000000000E+00  0.00000000000E+00  0.17583641263E+04  0.17583641263E+04  0.25500000920E-02 0. -1.
        2   -1    0    0  501    0  0.00000000000E+00  0.00000000000E+00 -0.16912841742E+04  0.16912841742E+04  0.25500000920E-02 0.  1.
    10030    2    1    2    0    0  0.00000000000E+00  0.00000000000E+00  0.67079952131E+02  0.34496483005E+04  0.34489960390E+04 0.  0.
        4    1    3    3  502    0  0.14713213506E+04  0.42376924762E+03  0.82711608701E+03  0.17402555922E+04  0.12699999809E+01 0. -1.
       -4    1    3    3    0  502 -0.14713213506E+04 -0.42376924762E+03 -0.76003613488E+03  0.17093927083E+04  0.12699999809E+01 0.  1.
</event>
<event>
 5   0  0.6630125E-07  0.3647736E+04  0.7818609E-02  0.8079644E-01
        1   -1    0    0  501    0  0.00000000000E+00  0.00000000000E+00  0.26638905241E+04  0.26638905241E+04  0.50400001928E-02 0.  1.
       -1   -1    0    0    0  501  0.00000000000E+00  0.00000000000E+00 -0.12487353090E+04  0.12487353090E+04  0.50400001928E-02 0. -1.
    10030    2    1    2    0    0  0.00000000000E+00  0.00000000000E+00  0.14151552151E+04  0.39126258331E+04  0.36477358220E+04 0.  0.
        5    1    3    3  502    0  0.10479716534E+04 -0.12862532908E+04 -0.10491164511E+03  0.16624441818E+04  0.46999998093E+01 0. -1.
       -5    1    3    3    0  502 -0.10479716534E+04  0.12862532908E+04  0.15200668602E+04  0.22501816513E+04  0.46999998093E+01 0.  1.
</event>
<event>
 5   0  0.1999883E-06  0.3497919E+04  0.7818609E-02  0.8114283E-01
        2   -1    0    0  501    0  0.00000000000E+00  0.00000000000E+00  0.11945521890E+04  0.11945521890E+04  0.25500000920E-02 0. -1.
       -2   -1    0    0    0  501  0.00000000000E+00  0.00000000000E+00 -0.25606744319E+04  0.25606744319E+04  0.25500000920E-02 0.  1.
    10030    2    1    2    0    0  0.00000000000E+00  0.00000000000E+00 -0.13661222429E+04  0.37552266209E+04  0.34979189516E+04 0.  0.
        4    1    3    3  502    0  0.82802829080E+03  0.13579699414E+04  0.97871419675E+02  0.15935161248E+04  0.12699999809E+01 0.  1.
       -4    1    3    3    0  502 -0.82802829080E+03 -0.13579699414E+04 -0.14639936626E+04  0.21617104962E+04  0.12699999809E+01 0. -1.
</event>
<event>
 5   0  0.1999883E-06  0.3261741E+04  0.7818609E-02  0.8172699E-01
        2   -1    0    0  501    0  0.00000000000E+00  0.00000000000E+00  0.16484552091E+04  0.16484552091E+04  0.25500000920E-02 0.  1.
       -2   -1    0    0    0  501  0.00000000000E+00  0.00000000000E+00 -0.16134729724E+04  0.16134729724E+04  0.25500000920E-02 0. -1.
    10030    2    1    2    0    0  0.00000000000E+00  0.00000000000E+00  0.34982236694E+02  0.32619281815E+04  0.32617405943E+04 0.  0.
        4    1    3    3  502    0  0.33897499960E+03 -0.12986364776E+04 -0.90904776232E+03  0.16210275132E+04  0.12699999809E+01 0. -1.
       -4    1    3    3    0  502 -0.33897499960E+03  0.12986364776E+04  0.94402999901E+03  0.16409006683E+04  0.12699999809E+01 0.  1.
</event>
<event>
 5   0  0.2020725E-06  0.3466124E+04  0.7818609E-02  0.8121865E-01
       -2   -1    0    0    0  501  0.00000000000E+00  0.00000000000E+00  0.19433498021E+04  0.19433498021E+04  0.25500000920E-02 0.  1.
        2   -1    0    0  501    0  0.00000000000E+00  0.00000000000E+00 -0.15455290315E+04  0.15455290315E+04  0.25500000920E-02 0. -1.
    10030    2    1    2    0    0  0.00000000000E+00  0.00000000000E+00  0.39782077056E+03  0.34888788335E+04  0.34661237932E+04 0.  0.
        3    1    3    3  502    0 -0.10850735135E+03 -0.79691983050E+03 -0.13463056981E+04  0.15682455498E+04  0.10100000352E+00 0. -1.
       -3    1    3    3    0  502  0.10850735135E+03  0.79691983050E+03  0.17441264687E+04  0.19206332837E+04  0.10100000352E+00 0.  1.
</event>
<event>
 5   0  0.7378896E-07  0.3448147E+04  0.7818609E-02  0.8126189E-01
        1   -1    0    0  501    0  0.00000000000E+00  0.00000000000E+00  0.17686837124E+04  0.17686837124E+04  0.50400001928E-02 0.  1.
       -1   -1    0    0    0  501  0.00000000000E+00  0.00000000000E+00 -0.16805888218E+04  0.16805888218E+04  0.50400001928E-02 0. -1.
    10030    2    1    2    0    0  0.00000000000E+00  0.00000000000E+00  0.88094890645E+02  0.34492725342E+04  0.34481473729E+04 0.  0.
        2    1    3    3  502    0  0.99993464768E+03 -0.13989591493E+04 -0.80387982359E+02  0.17214581693E+04  0.25500000920E-02 0.  1.
       -2    1    3    3    0  502 -0.99993464768E+03  0.13989591493E+04  0.16848287300E+03  0.17278143649E+04  0.25500000920E-02 0. -1.
</event>
<event>
 5   0  0.6630125E-07  0.2795526E+04  0.7818609E-02  0.8304659E-01
        1   -1    0    0  501    0  0.00000000000E+00  0.00000000000E+00  0.20971356673E+04  0.20971356673E+04  0.50400001928E-02 0.  1.
       -1   -1    0    0    0  501  0.00000000000E+00  0.00000000000E+00 -0.93162389104E+03  0.93162389105E+03  0.50400001928E-02 0. -1.
    10030    2    1    2    0    0  0.00000000000E+00  0.00000000000E+00  0.11655117763E+04  0.30287595584E+04  0.27955262048E+04 0.  0.
        1    1    3    3  502    0 -0.57755532520E+03  0.98857145414E+03 -0.28594901576E+03  0.11800891972E+04  0.50400001928E-02 0. -1.
       -1    1    3    3    0  502  0.57755532520E+03 -0.98857145414E+03  0.14514607921E+04  0.18486703612E+04  0.50400001928E-02 0.  1.
</event>
<event>
 5   0  0.6630125E-07  0.3467199E+04  0.7818609E-02  0.8121608E-01
       -1   -1    0    0    0  501  0.00000000000E+00  0.00000000000E+00  0.13564672627E+04  0.13564672628E+04  0.50400001928E-02 0. -1.
        1   -1    0    0  501    0  0.00000000000E+00  0.00000000000E+00 -0.22155835658E+04  0.22155835658E+04  0.50400001928E-02 0.  1.
    10030    2    1    2    0    0  0.00000000000E+00  0.00000000000E+00 -0.85911630306E+03  0.35720508286E+04  0.34671986242E+04 0.  0.
        5    1    3    3  502    0 -0.74388289791E+02 -0.71336968219E+03  0.11964335484E+04  0.13949570771E+04  0.46999998093E+01 0. -1.
       -5    1    3    3    0  502  0.74388289791E+02  0.71336968219E+03 -0.20555498514E+04  0.21770937515E+04  0.46999998093E+01 0.  1.
</event>
<event>
 5   0  0.2073287E-06  0.3323078E+04  0.7818609E-02  0.8157048E-01
        2   -1    0    0  501    0  0.00000000000E+00  0.00000000000E+00  0.15312396861E+04  0.15312396861E+04  0.25500000920E-02 0. -1.
       -2   -1    0    0    0  501  0.00000000000E+00  0.00000000000E+00 -0.18029259667E+04  0.18029259667E+04  0.25500000920E-02 0.  1.
    10030    2    1    2    0    0  0.00000000000E+00  0.00000000000E+00 -0.27168628062E+03  0.33341656529E+04  0.33230779656E+04 0.  0.
        1    1    3    3  502    0  0.15178085869E+04 -0.63272110334E+03 -0.37461382557E+03  0.16865391841E+04  0.50400001928E-02 0. -1.
       -1    1    3    3    0  502 -0.15178085869E+04  0.63272110334E+03  0.10292754495E+03  0.16476264688E+04  0.50400001928E-02 0.  1.
</event>
<event>
 5   0  0.2023479E-06  0.2278439E+04  0.7818609E-02  0.8486471E-01
        2   -1    0    0  501    0  0.00000000000E+00  0.00000000000E+00  0.11720697258E+04  0.11720697258E+04  0.25500000920E-02 0. -1.
       -2   -1    0    0    0  501  0.00000000000E+00  0.00000000000E+00 -0.11072901161E+04  0.11072901161E+04  0.25500000920E-02 0.  1.
    10030    2    1    2    0    0  0.00000000000E+00  0.00000000000E+00  0.64779609778E+02  0.22793598419E+04  0.22784391348E+04 0.  0.
        5    1    3    3  502    0 -0.16299588455E+03  0.85862915598E+03  0.76342954250E+03  0.11604561354E+04  0.46999998093E+01 0. -1.
       -5    1    3    3    0  502  0.16299588455E+03 -0.85862915598E+03 -0.69864993272E+03  0.11189037065E+04  0.46999998093E+01 0.  1.
</event>
<event>
 5   0  0.1999883E-06  0.3505485E+04  0.7818609E-02  0.8112491E-01
       -2   -1    0    0    0  501  0.00000000000E+00  0.00000000000E+00  0.16686154217E+04  0.16686154217E+04  0.25500000920E-02 0.  1.
        2   -1    0    0  501    0  0.00000000000E+00  0.00000000000E+00 -0.18411114989E+04  0.18411114989E+04  0.25500000920E-02 0. -1.
    10030    2    1    2    0    0  0.00000000000E+00  0.00000000000E+00 -0.17249607720E+03  0.35097269206E+04  0.35054854387E+04 0.  0.
        4    1    3    3  502    0  0.23907833154E+03 -0.14139996212E+04 -0.10952133911E+04  0.18044520948E+04  0.12699999809E+01 0. -1.
       -4    1    3    3    0  502 -0.23907833154E+03  0.14139996212E+04  0.92271731387E+03  0.17052748259E+04  0.12699999809E+01 0.  1.
</event>
<event>
 5   0  0.6630125E-07  0.3548313E+04  0.7818609E-02  0.8102435E-01
        1   -1    0    0  501    0  0.00000000000E+00  0.00000000000E+00  0.24782655996E+04  0.24782655996E+04  0.50400001928E-02 0. -1.
       -1   -1    0    0    0  501  0.00000000000E+00  0.00000000000E+00 -0.12700941025E+04  0.12700941025E+04  0.50400001928E-02 0.  1.
    10030    2    1    2    0    0  0.00000000000E+00  0.00000000000E+00  0.12081714971E+04  0.37483597020E+04  0.35483125693E+04 0.  0.
        5    1    3    3  502    0  0.54366899667E+03 -0.16801193247E+04  0.42347441071E+03  0.18159651951E+04  0.46999998093E+01 0. -1.
       -5    1    3    3    0  502 -0.54366899667E+03  0.16801193247E+04  0.78469708642E+03  0.19323945070E+04  0.46999998093E+01 0.  1.
</event>
<event>
 5   0  0.6630125E-07  0.3513065E+04  0.7818609E-02  0.8110701E-01
        1   -1    0    0  501    0  0.00000000000E+00  0.00000000000E+00  0.23214861865E+04  0.23214861865E+04  0.50400001928E-02 0. -1.
       -1   -1    0    0    0  501  0.00000000000E+00  0.00000000000E+00 -0.13290653967E+04  0.13290653967E+04  0.50400001928E-02 0.  1.
    10030    2    1    2    0    0  0.00000000000E+00  0.00000000000E+00  0.99242078980E+03  0.36505515831E+04  0.35130653050E+04 0.  0.
        1    1    3    3  502    0  0.16449713754E+03 -0.75260959401E+03 -0.11441522712E+04  0.13793349589E+04  0.50400001928E-02 0.  1.
       -1    1    3    3    0  502 -0.16449713754E+03  0.75260959401E+03  0.21365730610E+04  0.22712166242E+04  0.50400001928E-02 0. -1.
</event>
<event>
 5   0  0.7378896E-07  0.2849612E+04  0.7818609E-02  0.8288029E-01
       -1   -1    0    0    0  501  0.00000000000E+00  0.00000000000E+00  0.12475713349E+04  0.12475713349E+04  0.50400001928E-02 0. -1.
        1   -1    0    0  501    0  0.00000000000E+00  0.00000000000E+00 -0.16272189351E+04  0.16272189351E+04  0.50400001928E-02 0.  1.
    10030    2    1    2    0    0  0.00000000000E+00  0.00000000000E+00 -0.37964760018E+03  0.28747902701E+04  0.28496116922E+04 0.  0.
        2    1    3    3  502    0 -0.67987048136E+03  0.34018453908E+03  0.10258640624E+04  0.12768502131E+04  0.25500000920E-02 0. -1.
       -2    1    3    3    0  502  0.67987048136E+03 -0.34018453908E+03 -0.14055116626E+04  0.15979400570E+04  0.25500000920E-02 0.  1.
</event>
<event>
 5   0  0.7378896E-07  0.3541067E+04  0.7818609E-02  0.8104126E-01
        1   -1    0    0  501    0  0.00000000000E+00  0.00000000000E+00  0.10934584606E+04  0.10934584606E+04  0.50400001928E-02 0. -1.
       -1   -1    0    0    0  501  0.00000000000E+00  0.00000000000E+00 -0.28668574616E+04  0.28668574616E+04  0.50400001928E-02 0.  1.
    10030    2    1    2    0    0  0.00000000000E+00  0.00000000000E+00 -0.17733990010E+04  0.39603159221E+04  0.35410673795E+04 0.  0.
        2    1    3    3  502    0  0.47901911773E+03  0.72728489478E+03  0.83736780936E+03  0.12081338839E+04  0.25500000920E-02 0. -1.
       -2    1    3    3    0  502 -0.47901911773E+03 -0.72728489478E+03 -0.26107668104E+04  0.27521820382E+04  0.25500000920E-02 0.  1.
</event>
<event>
 5   0  0.6630125E-07  0.3451342E+04  0.7818609E-02  0.8125419E-01
       -1   -1    0    0    0  501  0.00000000000E+00  0.00000000000E+00  0.26634721202E+04  0.26634721202E+04  0.50400001928E-02 0.  1.
        1   -1    0    0  501    0  0.00000000000E+00  0.00000000000E+00 -0.11180672872E+04  0.11180672872E+04  0.50400001928E-02 0. -1.
    10030    2    1    2    0    0  0.00000000000E+00  0.00000000000E+00  0.15454048330E+04  0.37815394074E+04  0.34513423754E+04 0.  0.
        5    1    3    3  502    0 -0.34672468922E+03 -0.77443863047E+03  0.24191099285E+04  0.25636084215E+04  0.46999998093E+01 0.  1.
       -5    1    3    3    0  502  0.34672468922E+03  0.77443863047E+03 -0.87370509557E+03  0.12179309859E+04  0.46999998093E+01 0. -1.
</event>
<event>
 5   0  0.2073287E-06  0.3491150E+04  0.7818609E-02  0.8115890E-01
        2   -1    0    0  501    0  0.00000000000E+00  0.00000000000E+00  0.21038360547E+04  0.21038360547E+04  0.25500000920E-02 0. -1.
       -2   -1    0    0    0  501  0.00000000000E+00  0.00000000000E+00 -0.14483219602E+04  0.14483219602E+04  0.25500000920E-02 0.  1.
    10030    2    1    2    0    0  0.00000000000E+00  0.00000000000E+00  0.65551409455E+03  0.35521580149E+04  0.34911499301E+04 0.  0.
        1    1    3    3  502    0  0.13476322835E+04  0.65463751566E+03  0.12391608215E+04  0.19442691660E+04  0.50400001928E-02 0. -1.
       -1    1    3    3    0  502 -0.13476322835E+04 -0.65463751566E+03 -0.58364672697E+03  0.16078888489E+04  0.50400001928E-02 0.  1.
</event>
<event>
 5   0  0.7378896E-07  0.3293160E+04  0.7818609E-02  0.8164638E-01
        1   -1    0    0  501    0  0.00000000000E+00  0.00000000000E+00  0.14295095642E+04  0.14295095642E+04  0.50400001928E-02 0. -1.
       -1   -1    0    0    0  501  0.00000000000E+00  0.00000000000E+00 -0.18966122111E+04  0.18966122111E+04  0.50400001928E-02 0.  1.
    10030    2    1    2    0    0  0.00000000000E+00  0.00000000000E+00 -0.46710264689E+03  0.33261217754E+04  0.32931597565E+04 0.  0.
        2    1    3    3  502    0 -0.66497147317E+03 -0.13601165597E+04  0.42032430379E+03  0.15712341126E+04  0.25500000920E-02 0. -1.
       -2    1    3    3    0  502  0.66497147317E+03  0.13601165597E+04 -0.88742695068E+03  0.17548876628E+04  0.25500000920E-02 0.  1.
</event>
<event>
 5   0  0.6630125E-07  0.3151607E+04  0.7818609E-02  0.8201716E-01
        1   -1    0    0  501    0  0.00000000000E+00  0.00000000000E+00  0.11707724185E+04  0.11707724185E+04  0.50400001928E-02 0. -1.
       -1   -1    0    0    0  501  0.00000000000E+00  0.00000000000E+00 -0.21209559433E+04  0.21209559434E+04  0.50400001928E-02 0.  1.
    10030    2    1    2    0    0  0.00000000000E+00  0.00000000000E+00 -0.95018352487E+03  0.32917283618E+04  0.31516070309E+04 0.  0.
        1    1    3    3  502    0  0.12087855245E+03 -0.30654473540E+03 -0.20845692734E+04  0.21104526422E+04  0.50400001928E-02 0.  1.
       -1    1    3    3    0  502 -0.12087855245E+03  0.30654473540E+03  0.11343857486E+04  0.11812757196E+04  0.50400001928E-02 0. -1.
</event>
<event>
 5   0  0.1999883E-06  0.3495099E+04  0.7818609E-02  0.8114952E-01
        2   -1    0    0  501    0  0.00000000000E+00  0.00000000000E+00  0.16134768999E+04  0.16134768999E+04  0.25500000920E-02 0. -1.
       -2   -1    0    0    0  501  0.00000000000E+00  0.00000000000E+00 -0.18927631311E+04  0.18927631311E+04  0.25500000920E-02 0.  1.
    10030    2    1    2    0    0  0.00000000000E+00  0.00000000000E+00 -0.27928623118E+03  0.35062400310E+04  0.34950991912E+04 0.  0.
        4    1    3    3  502    0  0.11056915956E+04 -0.55690261399E+03 -0.13769575681E+04  0.18516771272E+04  0.12699999809E+01 0.  1.
       -4    1    3    3    0  502 -0.11056915956E+04  0.55690261399E+03  0.10976713369E+04  0.16545629039E+04  0.12699999809E+01 0. -1.
</event>
<event>
 5   0  0.6630125E-07  0.2567182E+04  0.7818609E-02  0.8379435E-01
       -1   -1    0    0    0  501  0.00000000000E+00  0.00000000000E+00  0.73540907392E+03  0.73540907394E+03  0.50400001928E-02 0.  1.
        1   -1    0    0  501    0  0.00000000000E+00  0.00000000000E+00 -0.22403936921E+04  0.22403936921E+04  0.50400001928E-02 0. -1.
    10030    2    1    2    0    0  0.00000000000E+00  0.00000000000E+00 -0.15049846182E+04  0.29758027660E+04  0.25671819962E+04 0.  0.
        5    1    3    3  502    0  0.63927016072E+03  0.82376753104E+03 -0.16201876827E+04  0.19267302615E+04  0.46999998093E+01 0. -1.
       -5    1    3    3    0  502 -0.63927016072E+03 -0.82376753104E+03  0.11520306453E+03  0.10490725045E+04  0.46999998093E+01 0.  1.
</event>
<event>
 5   0  0.6630125E-07  0.3411622E+04  0.7818609E-02  0.8135060E-01
        1   -1    0    0  501    0  0.00000000000E+00  0.00000000000E+00  0.17163391939E+04  0.17163391939E+04  0.50400001928E-02 0. -1.
       -1   -1    0    0    0  501  0.00000000000E+00  0.00000000000E+00 -0.16953473017E+04  0.16953473017E+04  0.50400001928E-02 0.  1.
    10030    2    1    2    0    0  0.00000000000E+00  0.00000000000E+00  0.20991892224E+02  0.34116864955E+04  0.34116219140E+04 0.  0.
        5    1    3    3  502    0 -0.12913331700E+04 -0.55635462395E+03 -0.95528478452E+03  0.16999008597E+04  0.46999998093E+01 0.  1.
       -5    1    3    3    0  502  0.12913331700E+04  0.55635462395E+03  0.97627667674E+03  0.17117856358E+04  0.46999998093E+01 0. -1.
</event>
<event>
 5   0  0.7378896E-07  0.3468215E+04  0.7818609E-02  0.8121364E-01
       -1   -1    0    0    0  501  0.00000000000E+00  0.00000000000E+00  0.24760843826E+04  0.24760843826E+04  0.50400001928E-02 0. -1.
        1   -1    0    0  501    0  0.00000000000E+00  0.00000000000E+00 -0.12144696237E+04  0.12144696237E+04  0.50400001928E-02 0.  1.
    10030    2    1    2    0    0  0.00000000000E+00  0.00000000000E+00  0.12616147588E+04  0.36905540063E+04  0.34682152577E+04 0.  0.
        2    1    3    3  502    0 -0.12476656677E+04 -0.12042387386E+04  0.64825064180E+03  0.18512399771E+04  0.25500000920E-02 0.  1.
       -2    1    3    3    0  502  0.12476656677E+04  0.12042387386E+04  0.61336411704E+03  0.18393140292E+04  0.25500000920E-02 0. -1.
</event>
<event>
 5   0  0.2073287E-06  0.3410675E+04  0.7818609E-02  0.8135291E-01
        2   -1    0    0  501    0  0.00000000000E+00  0.00000000000E+00  0.30660088241E+04  0.30660088241E+04  0.25500000920E-02 0. -1.
       -2   -1    0    0    0  501  0.00000000000E+00  0.00000000000E+00 -0.94852180509E+03  0.94852180509E+03  0.25500000920E-02 0.  1.
    10030    2    1    2    0    0  0.00000000000E+00  0.00000000000E+00  0.21174870190E+04  0.40145306291E+04  0.34106751380E+04 0.  0.
        1    1    3    3  502    0  0.17248090723E+03  0.16965675346E+04  0.10478813638E+04  0.20015360141E+04  0.50400001928E-02 0. -1.
       -1    1    3    3    0  502 -0.17248090723E+03 -0.16965675346E+04  0.10696056551E+04  0.20129946151E+04  0.50400001928E-02 0.  1.
</event>
<event>
 5   0  0.6630125E-07  0.3457379E+04  0.7818609E-02  0.8123965E-01
       -1   -1    0    0    0  501  0.00000000000E+00  0.00000000000E+00  0.16917385355E+04  0.16917385355E+04  0.50400001928E-02 0. -1.
        1   -1    0    0  501    0  0.00000000000E+00  0.00000000000E+00 -0.17664480129E+04  0.17664480129E+04  0.50400001928E-02 0.  1.
    10030    2    1    2    0    0  0.00000000000E+00  0.00000000000E+00 -0.74709477389E+02  0.34581865484E+04  0.34573794552E+04 0.  0.
        4    1    3    3  502    0 -0.56738350095E+03  0.13304916829E+04 -0.98427231166E+03  0.17495501570E+04  0.12699999809E+01 0.  1.
       -4    1    3    3    0  502  0.56738350095E+03 -0.13304916829E+04  0.90956283427E+03  0.17086363914E+04  0.12699999809E+01 0. -1.
</event>
<event>
 5   0  0.2073287E-06  0.2392120E+04  0.7818609E-02  0.8442460E-01
       -2   -1    0    0    0  501  0.00000000000E+00  0.00000000000E+00  0.65579643250E+03  0.65579643251E+03  0.25500000920E-02 0.  1.
        2   -1    0    0  501    0  0.00000000000E+00  0.00000000000E+00 -0.21814070627E+04  0.21814070627E+04  0.25500000920E-02 0. -1.
    10030    2    1    2    0    0  0.00000000000E+00  0.00000000000E+00 -0.15256106302E+04  0.28372034952E+04  0.23921195368E+04 0.  0.
        1    1    3    3  502    0 -0.10311293169E+04  0.50664430557E+03 -0.11573255500E+04  0.16307417176E+04  0.50400001928E-02 0. -1.
       -1    1    3    3    0  502  0.10311293169E+04 -0.50664430557E+03 -0.36828508015E+03  0.12064617776E+04  0.50400001928E-02 0.  1.
</event>
<event>
 5   0  0.2020725E-06  0.3604634E+04  0.7818609E-02  0.8089431E-01
       -2   -1    0    0    0  501  0.00000000000E+00  0.00000000000E+00  0.16339414890E+04  0.16339414890E+04  0.25500000920E-02 0. -1.
        2   -1    0    0  501    0  0.00000000000E+00  0.00000000000E+00 -0.19880436160E+04  0.19880436160E+04  0.25500000920E-02 0.  1.
    10030    2    1    2    0    0  0.00000000000E+00  0.00000000000E+00 -0.35410212695E+03  0.36219851050E+04  0.36046342095E+04 0.  0.
        3    1    3    3  502    0 -0.33492534761E+03 -0.54900683725E+03  0.15147288781E+04  0.16455962689E+04  0.10100000352E+00 0. -1.
       -3    1    3    3    0  502  0.33492534761E+03  0.54900683725E+03 -0.18688310050E+04  0.19763888361E+04  0.10100000352E+00 0.  1.
</event>
<event>
 5   0  0.2020725E-06  0.3306233E+04  0.7818609E-02  0.8161311E-01
       -2   -1    0    0    0  501  0.00000000000E+00  0.00000000000E+00  0.18006622726E+04  0.18006622726E+04  0.25500000920E-02 0. -1.
        2   -1    0    0  501    0  0.00000000000E+00  0.00000000000E+00 -0.15176607405E+04  0.15176607405E+04  0.25500000920E-02 0.  1.
    10030    2    1    2    0    0  0.00000000000E+00  0.00000000000E+00  0.28300153209E+03  0.33183230131E+04  0.33062331666E+04 0.  0.
        3    1    3    3  502    0 -0.94019533286E+03  0.59651710123E+03  0.13678503452E+04  0.17637501221E+04  0.10100000352E+00 0. -1.
       -3    1    3    3    0  502  0.94019533286E+03 -0.59651710123E+03 -0.10848488131E+04  0.15545728910E+04  0.10100000352E+00 0.  1.
</event>
<event>
 5   0  0.6630125E-07  0.3580739E+04  0.7818609E-02  0.8094918E-01
       -1   -1    0    0    0  501  0.00000000000E+00  0.00000000000E+00  0.14546273002E+04  0.14546273002E+04  0.50400001928E-02 0. -1.
        1   -1    0    0  501    0  0.00000000000E+00  0.00000000000E+00 -0.22036040979E+04  0.22036040979E+04  0.50400001928E-02 0.  1.
    10030    2    1    2    0    0  0.00000000000E+00  0.00000000000E+00 -0.74897679771E+03  0.36582313981E+04  0.35807388509E+04 0.  0.
        1    1    3    3  502    0 -0.48559683987E+03 -0.92387721484E+03  0.11116644071E+04  0.15248446324E+04  0.50400001928E-02 0. -1.
       -1    1    3    3    0  502  0.48559683987E+03  0.92387721484E+03 -0.18606412048E+04  0.21333867657E+04  0.50400001928E-02 0.  1.
</event>
<event>
 5   0  0.6630125E-07  0.3498164E+04  0.7818609E-02  0.8114225E-01
        1   -1    0    0  501    0  0.00000000000E+00  0.00000000000E+00  0.18191211764E+04  0.18191211764E+04  0.50400001928E-02 0.  1.
       -1   -1    0    0    0  501  0.00000000000E+00  0.00000000000E+00 -0.16817391813E+04  0.16817391813E+04  0.50400001928E-02 0. -1.
    10030    2    1    2    0    0  0.00000000000E+00  0.00000000000E+00  0.13738199509E+03  0.35008603577E+04  0.34981637228E+04 0.  0.
        5    1    3    3  502    0  0.13963455534E+04 -0.56935138475E+03  0.95555885556E+03  0.17852329597E+04  0.46999998093E+01 0.  1.
       -5    1    3    3    0  502 -0.13963455534E+04  0.56935138475E+03 -0.81817686047E+03  0.17156273980E+04  0.46999998093E+01 0. -1.
</event>
<event>
 5   0  0.2020725E-06  0.3523846E+04  0.7818609E-02  0.8108162E-01
       -2   -1    0    0    0  501  0.00000000000E+00  0.00000000000E+00  0.13183596175E+04  0.13183596176E+04  0.25500000920E-02 0.  1.
        2   -1    0    0  501    0  0.00000000000E+00  0.00000000000E+00 -0.23547243384E+04  0.23547243384E+04  0.25500000920E-02 0. -1.
    10030    2    1    2    0    0  0.00000000000E+00  0.00000000000E+00 -0.10363647209E+04  0.36730839560E+04  0.35238464656E+04 0.  0.
        3    1    3    3  502    0  0.12998296965E+04  0.36526089215E+03  0.66174794909E+03  0.15036233296E+04  0.10100000352E+00 0.  1.
       -3    1    3    3    0  502 -0.12998296965E+04 -0.36526089215E+03 -0.16981126700E+04  0.21694606263E+04  0.10100000352E+00 0. -1.
</event>
<event>
 5   0  0.6630125E-07  0.3496467E+04  0.7818609E-02  0.8114628E-01
       -1   -1    0    0    0  501  0.00000000000E+00  0.00000000000E+00  0.11388953356E+04  0.11388953356E+04  0.50400001928E-02 0.  1.
        1   -1    0    0  501    0  0.00000000000E+00  0.00000000000E+00 -0.26835837602E+04  0.26835837602E+04  0.50400001928E-02 0. -1.
    10030    2    1    2    0    0  0.00000000000E+00  0.00000000000E+00 -0.15446884247E+04  0.38224790958E+04  0.34964673756E+04 0.  0.
        5    1    3    3  502    0 -0.13652977021E+04 -0.40685129090E+03 -0.18801010275E+04  0.23588912124E+04  0.46999998093E+01 0. -1.
       -5    1    3    3    0  502  0.13652977021E+04  0.40685129090E+03  0.33541260289E+03  0.14635878834E+04  0.46999998093E+01 0.  1.
</event>
<event>
 5   0  0.2001768E-06  0.3466506E+04  0.7818609E-02  0.8121774E-01
       -2   -1    0    0    0  501  0.00000000000E+00  0.00000000000E+00  0.96985323842E+03  0.96985323842E+03  0.25500000920E-02 0.  1.
        2   -1    0    0  501    0  0.00000000000E+00  0.00000000000E+00 -0.30975469905E+04  0.30975469905E+04  0.25500000920E-02 0. -1.
    10030    2    1    2    0    0  0.00000000000E+00  0.00000000000E+00 -0.21276937521E+04  0.40674002290E+04  0.34665060103E+04 0.  0.
        2    1    3    3  502    0  0.77110196126E+03  0.63637575050E+03  0.59741510576E+03  0.11646789854E+04  0.25500000920E-02 0.  1.
       -2    1    3    3    0  502 -0.77110196126E+03 -0.63637575050E+03 -0.27251088579E+04  0.29027212435E+04  0.25500000920E-02 0. -1.
</event>
<event>
 5   0  0.6630125E-07  0.3185785E+04  0.7818609E-02  0.8192581E-01
        1   -1    0    0  501    0  0.00000000000E+00  0.00000000000E+00  0.12399520645E+04  0.12399520645E+04  0.50400001928E-02 0.  1.
       -1   -1    0    0    0  501  0.00000000000E+00  0.00000000000E+00 -0.20462938924E+04  0.20462938924E+04  0.50400001928E-02 0. -1.
    10030    2    1    2    0    0  0.00000000000E+00  0.00000000000E+00 -0.80634182790E+03  0.32862459570E+04  0.31857848870E+04 0.  0.
        1    1    3    3  502    0  0.26733067185E+03 -0.15567644099E+04 -0.19095241808E+03  0.15910512066E+04  0.50400001928E-02 0.  1.
       -1    1    3    3    0  502 -0.26733067185E+03  0.15567644099E+04 -0.61538940982E+03  0.16951947504E+04  0.50400001928E-02 0. -1.
</event>
<event>
 5   0  0.6630125E-07  0.3334627E+04  0.7818609E-02  0.8154140E-01
       -1   -1    0    0    0  501  0.00000000000E+00  0.00000000000E+00  0.15149046848E+04  0.15149046848E+04  0.50400001928E-02 0. -1.
        1   -1    0    0  501    0  0.00000000000E+00  0.00000000000E+00 -0.18350551775E+04  0.18350551775E+04  0.50400001928E-02 0.  1.
    10030    2    1    2    0    0  0.00000000000E+00  0.00000000000E+00 -0.32015049270E+03  0.33499598623E+04  0.33346266270E+04 0.  0.
        1    1    3    3  502    0 -0.11946322494E+04 -0.10615345336E+04 -0.63758382119E+03  0.17206146885E+04  0.50400001928E-02 0. -1.
       -1    1    3    3    0  502  0.11946322494E+04  0.10615345336E+04  0.31743332850E+03  0.16293451738E+04  0.50400001928E-02 0.  1.
</event>
<event>
 5   0  0.6630125E-07  0.2227598E+04  0.7818609E-02  0.8507028E-01
        1   -1    0    0  501    0  0.00000000000E+00  0.00000000000E+00  0.21577468244E+04  0.21577468244E+04  0.50400001928E-02 0. -1.
       -1   -1    0    0    0  501  0.00000000000E+00  0.00000000000E+00 -0.57492775669E+03  0.57492775671E+03  0.50400001928E-02 0.  1.
    10030    2    1    2    0    0  0.00000000000E+00  0.00000000000E+00  0.15828190677E+04  0.27326745811E+04  0.22275982953E+04 0.  0.
        4    1    3    3  502    0 -0.29148498973E+03 -0.52236471750E+03 -0.36114680116E+03  0.69875390677E+03  0.12699999809E+01 0.  1.
       -4    1    3    3    0  502  0.29148498973E+03  0.52236471750E+03  0.19439658689E+04  0.20339206743E+04  0.12699999809E+01 0. -1.
</event>
<event>
 5   0  0.1999883E-06  0.3480447E+04  0.7818609E-02  0.8118439E-01
       -2   -1    0    0    0  501  0.00000000000E+00  0.00000000000E+00  0.13108633087E+04  0.13108633087E+04  0.25500000920E-02 0.  1.
        2   -1    0    0  501    0  0.00000000000E+00  0.00000000000E+00 -0.23102159910E+04  0.23102159910E+04  0.25500000920E-02 0. -1.
    10030    2    1    2    0    0  0.00000000000E+00  0.00000000000E+00 -0.99935268224E+03  0.36210792997E+04  0.34804467402E+04 0.  0.
        4    1    3    3  502    0 -0.31499791090E+03 -0.11210734060E+03  0.12771307950E+04  0.13201728751E+04  0.12699999809E+01 0.  1.
       -4    1    3    3    0  502  0.31499791090E+03  0.11210734060E+03 -0.22764834772E+04  0.23009064246E+04  0.12699999809E+01 0. -1.
</event>
<event>
 5   0  0.6890600E-07  0.3352190E+04  0.7818609E-02  0.8149741E-01
        1   -1    0    0  501    0  0.00000000000E+00  0.00000000000E+00  0.18044197825E+04  0.18044197825E+04  0.50400001928E-02 0. -1.
       -1   -1    0    0    0  501  0.00000000000E+00  0.00000000000E+00 -0.15568963202E+04  0.15568963202E+04  0.50400001928E-02 0.  1.
    10030    2    1    2    0    0  0.00000000000E+00  0.00000000000E+00  0.24752346235E+03  0.33613161027E+04  0.33521900420E+04 0.  0.
        3    1    3    3  502    0 -0.11388212780E+04 -0.11932037650E+04 -0.17478256671E+03  0.16586735917E+04  0.10100000352E+00 0. -1.
       -3    1    3    3    0  502  0.11388212780E+04  0.11932037650E+04  0.42230602906E+03  0.17026425110E+04  0.10100000352E+00 0.  1.
</event>
<event>
 5   0  0.6630125E-07  0.3472198E+04  0.7818609E-02  0.8120410E-01
        1   -1    0    0  501    0  0.00000000000E+00  0.00000000000E+00  0.17561645442E+04  0.17561645442E+04  0.50400001928E-02 0.  1.
       -1   -1    0    0    0  501  0.00000000000E+00  0.00000000000E+00 -0.17162626436E+04  0.17162626436E+04  0.50400001928E-02 0. -1.
    10030    2    1    2    0    0  0.00000000000E+00  0.00000000000E+00  0.39901900591E+02  0.34724271878E+04  0.34721979225E+04 0.  0.
        5    1    3    3  502    0  0.13570370923E+04  0.30710203140E+03 -0.10184606103E+04  0.17242811350E+04  0.46999998093E+01 0. -1.
       -5    1    3    3    0  502 -0.13570370923E+04 -0.30710203140E+03  0.10583625109E+04  0.17481460529E+04  0.46999998093E+01 0.  1.
</event>
<event>
 5   0  0.6630125E-07  0.3460232E+04  0.7818609E-02  0.8123280E-01
       -1   -1    0    0    0  501  0.00000000000E+00  0.00000000000E+00  0.16188976273E+04  0.16188976273E+04  0.50400001928E-02 0. -1.
        1   -1    0    0  501    0  0.00000000000E+00  0.00000000000E+00 -0.18489745992E+04  0.18489745992E+04  0.50400001928E-02 0.  1.
    10030    2    1    2    0    0  0.00000000000E+00  0.00000000000E+00 -0.23007697195E+03  0.34678722265E+04  0.34602315481E+04 0.  0.
        4    1    3    3  502    0 -0.29142107415E+03 -0.16905205230E+04  0.11020898674E+03  0.17189920054E+04  0.12699999809E+01 0. -1.
       -4    1    3    3    0  502  0.29142107415E+03  0.16905205230E+04 -0.34028595870E+03  0.17488802211E+04  0.12699999809E+01 0.  1.
</event>
<event>
 5   0  0.2001768E-06  0.3537122E+04  0.7818609E-02  0.8105048E-01
       -2   -1    0    0    0  501  0.00000000000E+00  0.00000000000E+00  0.12973108810E+04  0.12973108810E+04  0.25500000920E-02 0.  1.
        2   -1    0    0  501    0  0.00000000000E+00  0.00000000000E+00 -0.24109937905E+04  0.24109937905E+04  0.25500000920E-02 0. -1.
    10030    2    1    2    0    0  0.00000000000E+00  0.00000000000E+00 -0.11136829095E+04  0.37083046716E+04  0.35371222646E+04 0.  0.
        2    1    3    3  502    0 -0.13324835371E+04 -0.11209547635E+04 -0.23242003993E+03  0.17567216721E+04  0.25500000920E-02 0.  1.
       -2    1    3    3    0  502  0.13324835371E+04  0.11209547635E+04 -0.88126286956E+03  0.19515829994E+04  0.25500000920E-02 0. -1.
</event>
<event>
 5   0  0.1999883E-06  0.3435308E+04  0.7818609E-02  0.8129295E-01
       -2   -1    0    0    0  501  0.00000000000E+00  0.00000000000E+00  0.16384019716E+04  0.16384019716E+04  0.25500000920E-02 0. -1.
        2   -1    0    0  501    0  0.00000000000E+00  0.00000000000E+00 -0.18007392230E+04  0.18007392230E+04  0.25500000920E-02 0.  1.
    10030    2    1    2    0    0  0.00000000000E+00  0.00000000000E+00 -0.16233725140E+03  0.34391411946E+04  0.34353076679E+04 0.  0.
        4    1    3    3  502    0  0.67755774070E+03  0.10207005820E+04  0.11240929994E+04  0.16626788187E+04  0.12699999809E+01 0. -1.
       -4    1    3    3    0  502 -0.67755774070E+03 -0.10207005820E+04 -0.12864302508E+04  0.17764623759E+04  0.12699999809E+01 0.  1.
</event>
<event>
 5   0  0.1999883E-06  0.3520013E+04  0.7818609E-02  0.8109063E-01
       -2   -1    0    0    0  501  0.00000000000E+00  0.00000000000E+00  0.18237984878E+04  0.18237984878E+04  0.25500000920E-02 0.  1.
        2   -1    0    0  501    0  0.00000000000E+00  0.00000000000E+00 -0.16984458893E+04  0.16984458893E+04  0.25500000920E-02 0. -1.
    10030    2    1    2    0    0  0.00000000000E+00  0.00000000000E+00  0.12535259856E+03  0.35222443771E+04  0.35200130935E+04 0.  0.
        4    1    3    3  502    0 -0.84983518851E+03  0.68159626496E+03 -0.13205270025E+04  0.17118955848E+04  0.12699999809E+01 0. -1.
       -4    1    3    3    0  502  0.84983518851E+03 -0.68159626496E+03  0.14458796011E+04  0.18103487923E+04  0.12699999809E+01 0.  1.
</event>
<event>
 5   0  0.6630125E-07  0.3494331E+04  0.7818609E-02  0.8115135E-01
       -1   -1    0    0    0  501  0.00000000000E+00  0.00000000000E+00  0.15154631506E+04  0.15154631506E+04  0.50400001928E-02 0.  1.
        1   -1    0    0  501    0  0.00000000000E+00  0.00000000000E+00 -0.20142932090E+04  0.20142932091E+04  0.50400001928E-02 0. -1.
    10030    2    1    2    0    0  0.00000000000E+00  0.00000000000E+00 -0.49883005846E+03  0.35297563596E+04  0.34943309132E+04 0.  0.
        4    1    3    3  502    0 -0.24344871642E+02  0.25801176719E+03 -0.19947694080E+04  0.20115340784E+04  0.12699999809E+01 0. -1.
       -4    1    3    3    0  502  0.24344871642E+02 -0.25801176719E+03  0.14959393495E+04  0.15182222812E+04  0.12699999809E+01 0.  1.
</event>
<event>
 5   0  0.2001768E-06  0.3151100E+04  0.7818609E-02  0.8201852E-01
        2   -1    0    0  501    0  0.00000000000E+00  0.00000000000E+00  0.13233705875E+04  0.13233705875E+04  0.25500000920E-02 0. -1.
       -2   -1    0    0    0  501  0.00000000000E+00  0.00000000000E+00 -0.18757844024E+04  0.18757844024E+04  0.25500000920E-02 0.  1.
    10030    2    1    2    0    0  0.00000000000E+00  0.00000000000E+00 -0.55241381494E+03  0.31991549899E+04  0.31511000661E+04 0.  0.
        2    1    3    3  502    0 -0.10409017768E+04 -0.97590481452E+03  0.40218324244E+03  0.14824365337E+04  0.25500000920E-02 0. -1.
       -2    1    3    3    0  502  0.10409017768E+04  0.97590481452E+03 -0.95459705738E+03  0.17167184562E+04  0.25500000920E-02 0.  1.
</event>
<event>
 5   0  0.1999883E-06  0.3463243E+04  0.7818609E-02  0.8122556E-01
       -2   -1    0    0    0  501  0.00000000000E+00  0.00000000000E+00  0.22731378813E+04  0.22731378813E+04  0.25500000920E-02 0.  1.
        2   -1    0    0  501    0  0.00000000000E+00  0.00000000000E+00 -0.13191075420E+04  0.13191075420E+04  0.25500000920E-02 0. -1.
    10030    2    1    2    0    0  0.00000000000E+00  0.00000000000E+00  0.95403033931E+03  0.35922454233E+04  0.34632431756E+04 0.  0.
        4    1    3    3  502    0  0.17740449634E+03  0.12034235652E+04 -0.80129101787E+03  0.14566295139E+04  0.12699999809E+01 0. -1.
       -4    1    3    3    0  502 -0.17740449634E+03 -0.12034235652E+04  0.17553213572E+04  0.21356159094E+04  0.12699999809E+01 0.  1.
</event>
<event>
 5   0  0.2023479E-06  0.2246502E+04  0.7818609E-02  0.8499319E-01
       -2   -1    0    0    0  501  0.00000000000E+00  0.00000000000E+00  0.11718575989E+04  0.11718575989E+04  0.25500000920E-02 0. -1.
        2   -1    0    0  501    0  0.00000000000E+00  0.00000000000E+00 -0.10766603960E+04  0.10766603960E+04  0.25500000920E-02 0.  1.
    10030    2    1    2    0    0  0.00000000000E+00  0.00000000000E+00  0.95197202957E+02  0.22485179949E+04  0.22465018731E+04 0.  0.
        5    1    3    3  502    0  0.91197442667E+03 -0.56305081458E+03 -0.28877889657E+03  0.11100175295E+04  0.46999998093E+01 0.  1.
       -5    1    3    3    0  502 -0.91197442667E+03  0.56305081458E+03  0.38397609953E+03  0.11385004654E+04  0.46999998093E+01 0. -1.
</event>
<event>
 5   0  0.2023479E-06  0.3593850E+04  0.7818609E-02  0.8091902E-01
        2   -1    0    0  501    0  0.00000000000E+00  0.00000000000E+00  0.22119985743E+04  0.22119985743E+04  0.25500000920E-02 0.  1.
       -2   -1    0    0    0  501  0.00000000000E+00  0.00000000000E+00 -0.14597387647E+04  0.14597387647E+04  0.25500000920E-02 0. -1.
    10030    2    1    2    0    0  0.00000000000E+00  0.00000000000E+00  0.75225980964E+03  0.36717373389E+04  0.35938503398E+04 0.  0.
        5    1    3    3  502    0  0.13637354275E+04 -0.72661257492E+03 -0.56090447676E+03  0.16438905293E+04  0.46999998093E+01 0. -1.
       -5    1    3    3    0  502 -0.13637354275E+04  0.72661257492E+03  0.13131642864E+04  0.20278468096E+04  0.46999998093E+01 0.  1.
</event>
<event>
 5   0  0.2020725E-06  0.3387641E+04  0.7818609E-02  0.8140946E-01
        2   -1    0    0  501    0  0.00000000000E+00  0.00000000000E+00  0.19507075884E+04  0.19507075884E+04  0.25500000920E-02 0.  1.
       -2   -1    0    0    0  501  0.00000000000E+00  0.00000000000E+00 -0.14707625717E+04  0.14707625717E+04  0.25500000920E-02 0. -1.
    10030    2    1    2    0    0  0.00000000000E+00  0.00000000000E+00  0.47994501666E+03  0.34214701601E+04  0.33876408956E+04 0.  0.
        3    1    3    3  502    0  0.66048111909E+02 -0.15748821401E+04  0.86617332068E+03  0.17985750860E+04  0.10100000352E+00 0.  1.
       -3    1    3    3    0  502 -0.66048111909E+02  0.15748821401E+04 -0.38622830402E+03  0.16228950741E+04  0.10100000352E+00 0. -1.
</event>
<event>
 5   0  0.6630125E-07  0.3526367E+04  0.7818609E-02  0.8107570E-01
        1   -1    0    0  501    0  0.00000000000E+00  0.00000000000E+00  0.21180368273E+04  0.21180368273E+04  0.50400001928E-02 0. -1.
       -1   -1    0    0    0  501  0.00000000000E+00  0.00000000000E+00 -0.14677818400E+04  0.14677818400E+04  0.50400001928E-02 0.  1.
    10030    2    1    2    0    0  0.00000000000E+00  0.00000000000E+00  0.65025498729E+03  0.35858186673E+04  0.35263669642E+04 0.  0.
        5    1    3    3  502    0  0.65638507281E+03 -0.11771379858E+04 -0.83083108733E+03  0.15832869567E+04  0.46999998093E+01 0.  1.
       -5    1    3    3    0  502 -0.65638507281E+03  0.11771379858E+04  0.14810860746E+04  0.20025317106E+04  0.46999998093E+01 0. -1.
</event>
<event>
 5   0  0.7378896E-07  0.3516235E+04  0.7818609E-02  0.8109953E-01
        1   -1    0    0  501    0  0.00000000000E+00  0.00000000000E+00  0.25281229306E+04  0.25281229307E+04  0.50400001928E-02 0.  1.
       -1   -1    0    0    0  501  0.00000000000E+00  0.00000000000E+00 -0.12226368981E+04  0.12226368982E+04  0.50400001928E-02 0. -1.
    10030    2    1    2    0    0  0.00000000000E+00  0.00000000000E+00  0.13054860325E+04  0.37507598288E+04  0.35162345645E+04 0.  0.
        2    1    3    3  502    0 -0.42362724581E+03 -0.19937537527E+03  0.24603995966E+04  0.25045512090E+04  0.25500000920E-02 0.  1.
       -2    1    3    3    0  502  0.42362724581E+03  0.19937537527E+03 -0.11549135641E+04  0.12462086198E+04  0.25500000920E-02 0. -1.
</event>
<event>
 5   0  0.2073287E-06  0.3425110E+04  0.7818609E-02  0.8131771E-01
       -2   -1    0    0    0  501  0.00000000000E+00  0.00000000000E+00  0.15169779900E+04  0.15169779900E+04  0.25500000920E-02 0.  1.
        2   -1    0    0  501    0  0.00000000000E+00  0.00000000000E+00 -0.19333469662E+04  0.19333469662E+04  0.25500000920E-02 0. -1.
    10030    2    1    2    0    0  0.00000000000E+00  0.00000000000E+00 -0.41636897614E+03  0.34503249562E+04  0.34251100974E+04 0.  0.
        1    1    3    3  502    0  0.78833364421E+03 -0.12944303516E+04 -0.10114409680E+04  0.18220956894E+04  0.50400001928E-02 0. -1.
       -1    1    3    3    0  502 -0.78833364421E+03  0.12944303516E+04  0.59507199181E+03  0.16282292668E+04  0.50400001928E-02 0.  1.
</event>
<event>
 5   0  0.6630125E-07  0.3524220E+04  0.7818609E-02  0.8108074E-01
       -1   -1    0    0    0  501  0.00000000000E+00  0.00000000000E+00  0.15082691612E+04  0.15082691612E+04  0.50400001928E-02 0.  1.
        1   -1    0    0  501    0  0.00000000000E+00  0.00000000000E+00 -0.20586717785E+04  0.20586717785E+04  0.50400001928E-02 0. -1.
    10030    2    1    2    0    0  0.00000000000E+00  0.00000000000E+00 -0.55040261732E+03  0.35669409397E+04  0.35242197188E+04 0.  0.
        4    1    3    3  502    0  0.30947725670E+03 -0.11665966886E+03  0.14765725224E+04  0.15131601626E+04  0.12699999809E+01 0.  1.
       -4    1    3    3    0  502 -0.30947725670E+03  0.11665966886E+03 -0.20269751397E+04  0.20537807772E+04  0.12699999809E+01 0. -1.
</event>
<event>
 5   0  0.2020725E-06  0.3510165E+04  0.7818609E-02  0.8111385E-01
       -2   -1    0    0    0  501  0.00000000000E+00  0.00000000000E+00  0.20945252821E+04  0.20945252821E+04  0.25500000920E-02 0. -1.
        2   -1    0    0  501    0  0.00000000000E+00  0.00000000000E+00 -0.14706500730E+04  0.14706500730E+04  0.25500000920E-02 0.  1.
    10030    2    1    2    0    0  0.00000000000E+00  0.00000000000E+00  0.62387520911E+03  0.35651753552E+04  0.35101645313E+04 0.  0.
        3    1    3    3  502    0  0.78181565919E+03  0.15622749390E+04  0.48302643442E+03  0.18125267602E+04  0.10100000352E+00 0.  1.
       -3    1    3    3    0  502 -0.78181565919E+03 -0.15622749390E+04  0.14084877469E+03  0.17526485950E+04  0.10100000352E+00 0. -1.
</event>
<event>
 5   0  0.6630125E-07  0.3469455E+04  0.7818609E-02  0.8121067E-01
       -1   -1    0    0    0  501  0.00000000000E+00  0.00000000000E+00  0.19123836010E+04  0.19123836010E+04  0.50400001928E-02 0. -1.
        1   -1    0    0  501    0  0.00000000000E+00  0.00000000000E+00 -0.15735749575E+04  0.15735749575E+04  0.50400001928E-02 0.  1.
    10030    2    1    2    0    0  0.00000000000E+00  0.00000000000E+00  0.33880864350E+03  0.34859585585E+04  0.34694546797E+04 0.  0.
        5    1    3    3  502    0 -0.14487235955E+04 -0.94984067174E+03  0.26071840604E+03  0.17518543133E+04  0.46999998093E+01 0. -1.
       -5    1    3    3    0  502  0.14487235955E+04  0.94984067174E+03  0.78090237454E+02  0.17341042452E+04  0.46999998093E+01 0.  1.
</event>
<event>
 5   0  0.6890600E-07  0.3531066E+04  0.7818609E-02  0.8106467E-01
       -1   -1    0    0    0  501  0.00000000000E+00  0.00000000000E+00  0.19074228165E+04  0.19074228165E+04  0.50400001928E-02 0. -1.
        1   -1    0    0  501    0  0.00000000000E+00  0.00000000000E+00 -0.16341979091E+04  0.16341979091E+04  0.50400001928E-02 0.  1.
    10030    2    1    2    0    0  0.00000000000E+00  0.00000000000E+00  0.27322490742E+03  0.35416207256E+04  0.35310657760E+04 0.  0.
        3    1    3    3  502    0 -0.28133270997E+02  0.13705860786E+04  0.12525066178E+04  0.18568980902E+04  0.10100000352E+00 0. -1.
       -3    1    3    3    0  502  0.28133270997E+02 -0.13705860786E+04 -0.97928171039E+03  0.16847226354E+04  0.10100000352E+00 0.  1.
</event>
<event>
 5   0  0.6630125E-07  0.3477126E+04  0.7818609E-02  0.8119232E-01
        3   -1    0    0  501    0  0.00000000000E+00  0.00000000000E+00  0.13026966164E+04  0.13026966203E+04  0.10100000352E+00 0.  1.
       -3   -1    0    0    0  501  0.00000000000E+00  0.00000000000E+00 -0.23202654891E+04  0.23202654913E+04  0.10100000352E+00 0. -1.
    10030    2    1    2    0    0  0.00000000000E+00  0.00000000000E+00 -0.10175688727E+04  0.36229621115E+04  0.34771264071E+04 0.  0.
        2    1    3    3  502    0  0.13007366031E+04  0.23281197600E+03 -0.16859868706E+04  0.21421178433E+04  0.25500000920E-02 0. -1.
       -2    1    3    3    0  502 -0.13007366031E+04 -0.23281197600E+03  0.66841799784E+03  0.14808442682E+04  0.25500000920E-02 0.  1.
</event>
<event>
 5   0  0.2001768E-06  0.3677526E+04  0.7818609E-02  0.8072961E-01
        2   -1    0    0  501    0  0.00000000000E+00  0.00000000000E+00  0.17621906895E+04  0.17621906895E+04  0.25500000920E-02 0. -1.
       -2   -1    0    0    0  501  0.00000000000E+00  0.00000000000E+00 -0.19186629438E+04  0.19186629438E+04  0.25500000920E-02 0.  1.
    10030    2    1    2    0    0  0.00000000000E+00  0.00000000000E+00 -0.15647225424E+03  0.36808536333E+04  0.36775263294E+04 0.  0.
        2    1    3    3  502    0 -0.24074838353E+03  0.29354759992E+03 -0.18790081737E+04  0.19169772285E+04  0.25500000920E-02 0.  1.
       -2    1    3    3    0  502  0.24074838353E+03 -0.29354759992E+03  0.17225359195E+04  0.17638764048E+04  0.25500000920E-02 0. -1.
</event>
<event>
 5   0  0.2023479E-06  0.3543726E+04  0.7818609E-02  0.8103505E-01
        2   -1    0    0  501    0  0.00000000000E+00  0.00000000000E+00  0.15077421964E+04  0.15077421964E+04  0.25500000920E-02 0. -1.
       -2   -1    0    0    0  501  0.00000000000E+00  0.00000000000E+00 -0.20822517734E+04  0.20822517734E+04  0.25500000920E-02 0.  1.
    10030    2    1    2    0    0  0.00000000000E+00  0.00000000000E+00 -0.57450957703E+03  0.35899939698E+04  0.35437262097E+04 0.  0.
        5    1    3    3  502    0 -0.73239424272E+03 -0.63438358571E+03 -0.17900761524E+04  0.20354946775E+04  0.46999998093E+01 0.  1.
       -5    1    3    3    0  502  0.73239424272E+03  0.63438358571E+03  0.12155665754E+04  0.15544992923E+04  0.46999998093E+01 0. -1.
</event>
<event>
 5   0  0.6630125E-07  0.3559400E+04  0.7818609E-02  0.8099855E-01
        1   -1    0    0  501    0  0.00000000000E+00  0.00000000000E+00  0.21655083279E+04  0.21655083279E+04  0.50400001928E-02 0. -1.
       -1   -1    0    0    0  501  0.00000000000E+00  0.00000000000E+00 -0.14626277820E+04  0.14626277820E+04  0.50400001928E-02 0.  1.
    10030    2    1    2    0    0  0.00000000000E+00  0.00000000000E+00  0.70288054597E+03  0.36281361099E+04  0.35594003105E+04 0.  0.
        4    1    3    3  502    0 -0.10314613982E+04 -0.38026767741E+03 -0.10751637275E+04  0.15376913788E+04  0.12699999809E+01 0.  1.
       -4    1    3    3    0  502  0.10314613982E+04  0.38026767741E+03  0.17780442735E+04  0.20904447311E+04  0.12699999809E+01 0. -1.
</event>
<event>
 5   0  0.1999883E-06  0.3522306E+04  0.7818609E-02  0.8108524E-01
        2   -1    0    0  501    0  0.00000000000E+00  0.00000000000E+00  0.29875068516E+04  0.29875068516E+04  0.25500000920E-02 0.  1.
       -2   -1    0    0    0  501  0.00000000000E+00  0.00000000000E+00 -0.10382102158E+04  0.10382102158E+04  0.25500000920E-02 0. -1.
    10030    2    1    2    0    0  0.00000000000E+00  0.00000000000E+00  0.19492966359E+04  0.40257170674E+04  0.35223061384E+04 0.  0.
        4    1    3    3  502    0 -0.97206575721E+03  0.97041719171E+03 -0.28517873231E+03  0.14028363713E+04  0.12699999809E+01 0. -1.
       -4    1    3    3    0  502  0.97206575721E+03 -0.97041719171E+03  0.22344753682E+04  0.26228806962E+04  0.12699999809E+01 0.  1.
</event>
<event>
 5   0  0.6630125E-07  0.3505956E+04  0.7818609E-02  0.8112380E-01
        1   -1    0    0  501    0  0.00000000000E+00  0.00000000000E+00  0.20358317068E+04  0.20358317068E+04  0.50400001928E-02 0. -1.
       -1   -1    0    0    0  501  0.00000000000E+00  0.00000000000E+00 -0.15094233606E+04  0.15094233606E+04  0.50400001928E-02 0.  1.
    10030    2    1    2    0    0  0.00000000000E+00  0.00000000000E+00  0.52640834619E+03  0.35452550674E+04  0.35059560388E+04 0.  0.
        5    1    3    3  502    0  0.10415407975E+04 -0.13267362911E+03  0.16826841649E+04  0.19833954759E+04  0.46999998093E+01 0. -1.
       -5    1    3    3    0  502 -0.10415407975E+04  0.13267362911E+03 -0.11562758187E+04  0.15618595916E+04  0.46999998093E+01 0.  1.
</event>
<event>
 5   0  0.2001768E-06  0.3386455E+04  0.7818609E-02  0.8141239E-01
       -2   -1    0    0    0  501  0.00000000000E+00  0.00000000000E+00  0.16417743597E+04  0.16417743597E+04  0.25500000920E-02 0.  1.
        2   -1    0    0  501    0  0.00000000000E+00  0.00000000000E+00 -0.17462929922E+04  0.17462929922E+04  0.25500000920E-02 0. -1.
    10030    2    1    2    0    0  0.00000000000E+00  0.00000000000E+00 -0.10451863254E+03  0.33880673519E+04  0.33864548183E+04 0.  0.
        2    1    3    3  502    0  0.30102120833E+03  0.16402138467E+04 -0.34583357985E+03  0.17030901608E+04  0.25500000920E-02 0. -1.
       -2    1    3    3    0  502 -0.30102120833E+03 -0.16402138467E+04  0.24131494730E+03  0.16849771911E+04  0.25500000920E-02 0.  1.
</event>
<event>
 5   0  0.2020725E-06  0.3083145E+04  0.7818609E-02  0.8220379E-01
       -2   -1    0    0    0  501  0.00000000000E+00  0.00000000000E+00  0.14705430052E+04  0.14705430052E+04  0.25500000920E-02 0. -1.
        2   -1    0    0  501    0  0.00000000000E+00  0.00000000000E+00 -0.16160325780E+04  0.16160325780E+04  0.25500000920E-02 0.  1.
    10030    2    1    2    0    0  0.00000000000E+00  0.00000000000E+00 -0.14548957274E+03  0.30865755832E+04  0.30831447606E+04 0.  0.
        3    1    3    3  502    0 -0.15393761936E+04 -0.72294551917E+02 -0.33460507191E+02  0.15414360783E+04  0.10100000352E+00 0.  1.
       -3    1    3    3    0  502  0.15393761936E+04  0.72294551917E+02 -0.11202906555E+03  0.15451395049E+04  0.10100000352E+00 0. -1.
</event>
<event>
 5   0  0.7378896E-07  0.3519273E+04  0.7818609E-02  0.8109238E-01
       -1   -1    0    0    0  501  0.00000000000E+00  0.00000000000E+00  0.14011140516E+04  0.14011140516E+04  0.50400001928E-02 0.  1.
        1   -1    0    0  501    0  0.00000000000E+00  0.00000000000E+00 -0.22098993968E+04  0.22098993968E+04  0.50400001928E-02 0. -1.
    10030    2    1    2    0    0  0.00000000000E+00  0.00000000000E+00 -0.80878534519E+03  0.36110134483E+04  0.35192732758E+04 0.  0.
        2    1    3    3  502    0 -0.13086604541E+03 -0.17383965034E+04 -0.64973401733E+03  0.18604576367E+04  0.25500000920E-02 0.  1.
       -2    1    3    3    0  502  0.13086604541E+03  0.17383965034E+04 -0.15905132786E+03  0.17505558116E+04  0.25500000920E-02 0. -1.
</event>
<event>
 5   0  0.6630125E-07  0.3433378E+04  0.7818609E-02  0.8129763E-01
       -1   -1    0    0    0  501  0.00000000000E+00  0.00000000000E+00  0.12347837595E+04  0.12347837595E+04  0.50400001928E-02 0. -1.
        1   -1    0    0  501    0  0.00000000000E+00  0.00000000000E+00 -0.23866693016E+04  0.23866693016E+04  0.50400001928E-02 0.  1.
    10030    2    1    2    0    0  0.00000000000E+00  0.00000000000E+00 -0.11518855421E+04  0.36214530611E+04  0.34333776331E+04 0.  0.
        5    1    3    3  502    0  0.89209708469E+02  0.72674561692E+03  0.10618130798E+04  0.12898010196E+04  0.46999998093E+01 0. -1.
       -5    1    3    3    0  502 -0.89209708469E+02 -0.72674561692E+03 -0.22136986219E+04  0.23316520414E+04  0.46999998093E+01 0.  1.
</event>
<event>
 5   0  0.2020725E-06  0.3435153E+04  0.7818609E-02  0.8129332E-01
       -2   -1    0    0    0  501  0.00000000000E+00  0.00000000000E+00  0.11240038901E+04  0.11240038901E+04  0.25500000920E-02 0.  1.
        2   -1    0    0  501    0  0.00000000000E+00  0.00000000000E+00 -0.26246068219E+04  0.26246068219E+04  0.25500000920E-02 0. -1.
    10030    2    1    2    0    0  0.00000000000E+00  0.00000000000E+00 -0.15006029319E+04  0.37486107120E+04  0.34351525601E+04 0.  0.
        3    1    3    3  502    0 -0.78997322093E+03  0.96648345176E+03  0.53715187672E+03  0.13589260838E+04  0.10100000352E+00 0.  1.
       -3    1    3    3    0  502  0.78997322093E+03 -0.96648345176E+03 -0.20377548086E+04  0.23896846282E+04  0.10100000352E+00 0. -1.
</event>
<event>
 5   0  0.2020725E-06  0.3462448E+04  0.7818609E-02  0.8122747E-01
        2   -1    0    0  501    0  0.00000000000E+00  0.00000000000E+00  0.19455844981E+04  0.19455844981E+04  0.25500000920E-02 0. -1.
       -2   -1    0    0    0  501  0.00000000000E+00  0.00000000000E+00 -0.15404808920E+04  0.15404808920E+04  0.25500000920E-02 0.  1.
    10030    2    1    2    0    0  0.00000000000E+00  0.00000000000E+00  0.40510360605E+03  0.34860653901E+04  0.34624475408E+04 0.  0.
        3    1    3    3  502    0 -0.39572815584E+02 -0.94867106344E+03  0.16600424960E+04  0.19124026493E+04  0.10100000352E+00 0. -1.
       -3    1    3    3    0  502  0.39572815584E+02  0.94867106344E+03 -0.12549388899E+04  0.15736627408E+04  0.10100000352E+00 0.  1.
</event>
<event>
 5   0  0.2001768E-06  0.3476341E+04  0.7818609E-02  0.8119420E-01
       -2   -1    0    0    0  501  0.00000000000E+00  0.00000000000E+00  0.19110836996E+04  0.19110836996E+04  0.25500000920E-02 0.  1.
        2   -1    0    0  501    0  0.00000000000E+00  0.00000000000E+00 -0.15809024127E+04  0.15809024127E+04  0.25500000920E-02 0. -1.
    10030    2    1    2    0    0  0.00000000000E+00  0.00000000000E+00  0.33018128691E+03  0.34919861122E+04  0.34763410830E+04 0.  0.
        2    1    3    3  502    0  0.54651630347E+03 -0.12692934392E+04  0.12240889681E+04  0.18461255934E+04  0.25500000920E-02 0.  1.
       -2    1    3    3    0  502 -0.54651630347E+03  0.12692934392E+04 -0.89390768121E+03  0.16458605188E+04  0.25500000920E-02 0. -1.
</event>
<event>
 5   0  0.6630125E-07  0.3567609E+04  0.7818609E-02  0.8097952E-01
       -1   -1    0    0    0  501  0.00000000000E+00  0.00000000000E+00  0.19405520800E+04  0.19405520800E+04  0.50400001928E-02 0. -1.
        1   -1    0    0  501    0  0.00000000000E+00  0.00000000000E+00 -0.16397184944E+04  0.16397184944E+04  0.50400001928E-02 0.  1.
    10030    2    1    2    0    0  0.00000000000E+00  0.00000000000E+00  0.30083358568E+03  0.35802705744E+04  0.35676093592E+04 0.  0.
        1    1    3    3  502    0 -0.11415813942E+04  0.28777373074E+03  0.14952986784E+04  0.19031394950E+04  0.50400001928E-02 0. -1.
       -1    1    3    3    0  502  0.11415813942E+04 -0.28777373074E+03 -0.11944650927E+04  0.16771310794E+04  0.50400001928E-02 0.  1.
</event>
<event>
 5   0  0.1999883E-06  0.3461734E+04  0.7818609E-02  0.8122919E-01
        2   -1    0    0  501    0  0.00000000000E+00  0.00000000000E+00  0.19300904256E+04  0.19300904256E+04  0.25500000920E-02 0.  1.
       -2   -1    0    0    0  501  0.00000000000E+00  0.00000000000E+00 -0.15522072173E+04  0.15522072173E+04  0.25500000920E-02 0. -1.
    10030    2    1    2    0    0  0.00000000000E+00  0.00000000000E+00  0.37788320823E+03  0.34822976429E+04  0.34617338365E+04 0.  0.
        4    1    3    3  502    0 -0.17273704797E+04  0.10885328907E+03  0.17332964913E+03  0.17394546826E+04  0.12699999809E+01 0. -1.
       -4    1    3    3    0  502  0.17273704797E+04 -0.10885328907E+03  0.20455355911E+03  0.17428429603E+04  0.12699999809E+01 0.  1.
</event>
<event>
 5   0  0.2020725E-06  0.3483553E+04  0.7818609E-02  0.8117699E-01
       -2   -1    0    0    0  501  0.00000000000E+00  0.00000000000E+00  0.14967228882E+04  0.14967228882E+04  0.25500000920E-02 0. -1.
        2   -1    0    0  501    0  0.00000000000E+00  0.00000000000E+00 -0.20269516871E+04  0.20269516871E+04  0.25500000920E-02 0.  1.
    10030    2    1    2    0    0  0.00000000000E+00  0.00000000000E+00 -0.53022879892E+03  0.35236745753E+04  0.34835527746E+04 0.  0.
        3    1    3    3  502    0  0.16666921580E+04  0.47862838382E+03 -0.99407290353E+02  0.17369023286E+04  0.10100000352E+00 0. -1.
       -3    1    3    3    0  502 -0.16666921580E+04 -0.47862838382E+03 -0.43082150856E+03  0.17867722468E+04  0.10100000352E+00 0.  1.
</event>
<event>
 5   0  0.7378896E-07  0.3477157E+04  0.7818609E-02  0.8119225E-01
       -1   -1    0    0    0  501  0.00000000000E+00  0.00000000000E+00  0.14211460019E+04  0.14211460019E+04  0.50400001928E-02 0. -1.
        1   -1    0    0  501    0  0.00000000000E+00  0.00000000000E+00 -0.21269135440E+04  0.21269135440E+04  0.50400001928E-02 0.  1.
    10030    2    1    2    0    0  0.00000000000E+00  0.00000000000E+00 -0.70576754207E+03  0.35480595459E+04  0.34771567002E+04 0.  0.
        2    1    3    3  502    0 -0.72663314633E+03 -0.15108538892E+04 -0.82268434575E+03  0.18674808531E+04  0.25500000920E-02 0.  1.
       -2    1    3    3    0  502  0.72663314633E+03  0.15108538892E+04  0.11691680367E+03  0.16805786928E+04  0.25500000920E-02 0. -1.
</event>
<event>
 5   0  0.6630125E-07  0.3386665E+04  0.7818609E-02  0.8141187E-01
        1   -1    0    0  501    0  0.00000000000E+00  0.00000000000E+00  0.11996453880E+04  0.11996453880E+04  0.50400001928E-02 0. -1.
       -1   -1    0    0    0  501  0.00000000000E+00  0.00000000000E+00 -0.23901849339E+04  0.23901849339E+04  0.50400001928E-02 0.  1.
    10030    2    1    2    0    0  0.00000000000E+00  0.00000000000E+00 -0.11905395459E+04  0.35898303219E+04  0.33866646320E+04 0.  0.
        1    1    3    3  502    0 -0.91150107387E+03  0.10131041569E+04  0.47009132123E+03  0.14415963689E+04  0.50400001928E-02 0. -1.
       -1    1    3    3    0  502  0.91150107387E+03 -0.10131041569E+04 -0.16606308671E+04  0.21482339531E+04  0.50400001928E-02 0.  1.
</event>
<event>
 5   0  0.2073287E-06  0.3218329E+04  0.7818609E-02  0.8183993E-01
       -2   -1    0    0    0  501  0.00000000000E+00  0.00000000000E+00  0.14831179366E+04  0.14831179366E+04  0.25500000920E-02 0.  1.
        2   -1    0    0  501    0  0.00000000000E+00  0.00000000000E+00 -0.17459239397E+04  0.17459239397E+04  0.25500000920E-02 0. -1.
    10030    2    1    2    0    0  0.00000000000E+00  0.00000000000E+00 -0.26280600305E+03  0.32290418763E+04  0.32183294492E+04 0.  0.
        1    1    3    3  502    0 -0.15323302979E+04  0.95525099877E+02  0.35212426423E+03  0.15751675098E+04  0.50400001928E-02 0. -1.
       -1    1    3    3    0  502  0.15323302979E+04 -0.95525099877E+02 -0.61493026729E+03  0.16538743665E+04  0.50400001928E-02 0.  1.
</event>
<event>
 5   0  0.6630125E-07  0.3648285E+04  0.7818609E-02  0.8079520E-01
       -1   -1    0    0    0  501  0.00000000000E+00  0.00000000000E+00  0.18613594636E+04  0.18613594636E+04  0.50400001928E-02 0. -1.
        1   -1    0    0  501    0  0.00000000000E+00  0.00000000000E+00 -0.17876700881E+04  0.17876700881E+04  0.50400001928E-02 0.  1.
    10030    2    1    2    0    0  0.00000000000E+00  0.00000000000E+00  0.73689375470E+02  0.36490295518E+04  0.36482854255E+04 0.  0.
        5    1    3    3  502    0 -0.16182130964E+04 -0.70019991651E+03 -0.43077713940E+03  0.18150715089E+04  0.46999998093E+01 0.  1.
       -5    1    3    3    0  502  0.16182130964E+04  0.70019991651E+03  0.50446651487E+03  0.18339580429E+04  0.46999998093E+01 0. -1.
</event>
<event>
 5   0  0.6630125E-07  0.3497986E+04  0.7818609E-02  0.8114267E-01
        1   -1    0    0  501    0  0.00000000000E+00  0.00000000000E+00  0.17115870848E+04  0.17115870848E+04  0.50400001928E-02 0. -1.
       -1   -1    0    0    0  501  0.00000000000E+00  0.00000000000E+00 -0.17872163784E+04  0.17872163784E+04  0.50400001928E-02 0.  1.
    10030    2    1    2    0    0  0.00000000000E+00  0.00000000000E+00 -0.75629293614E+02  0.34988034632E+04  0.34979859754E+04 0.  0.
        1    1    3    3  502    0 -0.10929764689E+04  0.13644624004E+04 -0.89024926155E+02  0.17505086807E+04  0.50400001928E-02 0. -1.
       -1    1    3    3    0  502  0.10929764689E+04 -0.13644624004E+04  0.13395632541E+02  0.17482947825E+04  0.50400001928E-02 0.  1.
</event>
<event>
 5   0  0.2020725E-06  0.2411237E+04  0.7818609E-02  0.8435308E-01
        2   -1    0    0  501    0  0.00000000000E+00  0.00000000000E+00  0.15795947502E+04  0.15795947502E+04  0.25500000920E-02 0.  1.
       -2   -1    0    0    0  501  0.00000000000E+00  0.00000000000E+00 -0.92018320616E+03  0.92018320616E+03  0.25500000920E-02 0. -1.
    10030    2    1    2    0    0  0.00000000000E+00  0.00000000000E+00  0.65941154407E+03  0.24997779564E+04  0.24112374928E+04 0.  0.
        3    1    3    3  502    0  0.58181918447E+03  0.14622065887E+03  0.14138702302E+04  0.15358786028E+04  0.10100000352E+00 0.  1.
       -3    1    3    3    0  502 -0.58181918447E+03 -0.14622065887E+03 -0.75445868615E+03  0.96389935357E+03  0.10100000352E+00 0. -1.
</event>
<event>
 5   0  0.6630125E-07  0.3429674E+04  0.7818609E-02  0.8130662E-01
       -1   -1    0    0    0  501  0.00000000000E+00  0.00000000000E+00  0.13419199816E+04  0.13419199816E+04  0.50400001928E-02 0. -1.
        1   -1    0    0  501    0  0.00000000000E+00  0.00000000000E+00 -0.21913869677E+04  0.21913869678E+04  0.50400001928E-02 0.  1.
    10030    2    1    2    0    0  0.00000000000E+00  0.00000000000E+00 -0.84946698611E+03  0.35333069494E+04  0.34296740134E+04 0.  0.
        4    1    3    3  502    0 -0.18247150913E+03  0.16582620827E+04 -0.83363390660E+03  0.18649600772E+04  0.12699999809E+01 0.  1.
       -4    1    3    3    0  502  0.18247150913E+03 -0.16582620827E+04 -0.15833079505E+02  0.16683468722E+04  0.12699999809E+01 0. -1.
</event>
<event>
 5   0  0.6630125E-07  0.3474073E+04  0.7818609E-02  0.8119962E-01
       -1   -1    0    0    0  501  0.00000000000E+00  0.00000000000E+00  0.15126821709E+04  0.15126821709E+04  0.50400001928E-02 0. -1.
        1   -1    0    0  501    0  0.00000000000E+00  0.00000000000E+00 -0.19946659087E+04  0.19946659087E+04  0.50400001928E-02 0.  1.
    10030    2    1    2    0    0  0.00000000000E+00  0.00000000000E+00 -0.48198373781E+03  0.35073480796E+04  0.34740728588E+04 0.  0.
        1    1    3    3  502    0 -0.15680877955E+04 -0.52252560493E+03 -0.78030244966E+03  0.18277867095E+04  0.50400001928E-02 0.  1.
       -1    1    3    3    0  502  0.15680877955E+04  0.52252560493E+03  0.29831871185E+03  0.16795613702E+04  0.50400001928E-02 0. -1.
</event>
<event>
 5   0  0.7378896E-07  0.3464649E+04  0.7818609E-02  0.8122219E-01
       -1   -1    0    0    0  501  0.00000000000E+00  0.00000000000E+00  0.17274359836E+04  0.17274359837E+04  0.50400001928E-02 0. -1.
        1   -1    0    0  501    0  0.00000000000E+00  0.00000000000E+00 -0.17372267540E+04  0.17372267540E+04  0.50400001928E-02 0.  1.
    10030    2    1    2    0    0  0.00000000000E+00  0.00000000000E+00 -0.97907703229E+01  0.34646627376E+04  0.34646489038E+04 0.  0.
        2    1    3    3  502    0  0.17014947078E+04  0.25642911035E+03 -0.20516569643E+03  0.17328973115E+04  0.25500000920E-02 0.  1.
       -2    1    3    3    0  502 -0.17014947078E+04 -0.25642911035E+03  0.19537492610E+03  0.17317654261E+04  0.25500000920E-02 0. -1.
</event>
<event>
 5   0  0.2073287E-06  0.3494861E+04  0.7818609E-02  0.8115009E-01
        2   -1    0    0  501    0  0.00000000000E+00  0.00000000000E+00  0.18147642504E+04  0.18147642504E+04  0.25500000920E-02 0.  1.
       -2   -1    0    0    0  501  0.00000000000E+00  0.00000000000E+00 -0.16825947795E+04  0.16825947795E+04  0.25500000920E-02 0. -1.
    10030    2    1    2    0    0  0.00000000000E+00  0.00000000000E+00  0.13216947082E+03  0.34973590299E+04  0.34948607147E+04 0.  0.
        1    1    3    3  502    0 -0.38365639123E+03  0.15588257845E+04  0.75678302888E+03  0.17747818474E+04  0.50400001928E-02 0.  1.
       -1    1    3    3    0  502  0.38365639123E+03 -0.15588257845E+04 -0.62461355806E+03  0.17225771826E+04  0.50400001928E-02 0. -1.
</event>
<event>
 5   0  0.6630125E-07  0.3428079E+04  0.7818609E-02  0.8131049E-01
        3   -1    0    0  501    0  0.00000000000E+00  0.00000000000E+00  0.23703279757E+04  0.23703279778E+04  0.10100000352E+00 0.  1.
       -3   -1    0    0    0  501  0.00000000000E+00  0.00000000000E+00 -0.12394619672E+04  0.12394619713E+04  0.10100000352E+00 0. -1.
    10030    2    1    2    0    0  0.00000000000E+00  0.00000000000E+00  0.11308660084E+04  0.36097899492E+04  0.34280789880E+04 0.  0.
        2    1    3    3  502    0  0.95941944180E+03  0.46876226597E+03  0.19772897905E+04  0.22471979537E+04  0.25500000920E-02 0.  1.
       -2    1    3    3    0  502 -0.95941944180E+03 -0.46876226597E+03 -0.84642378208E+03  0.13625919955E+04  0.25500000920E-02 0. -1.
</event>
<event>
 5   0  0.2020725E-06  0.3501997E+04  0.7818609E-02  0.8113317E-01
       -2   -1    0    0    0  501  0.00000000000E+00  0.00000000000E+00  0.13226228143E+04  0.13226228143E+04  0.25500000920E-02 0. -1.
        2   -1    0    0  501    0  0.00000000000E+00  0.00000000000E+00 -0.23181183115E+04  0.23181183115E+04  0.25500000920E-02 0.  1.
    10030    2    1    2    0    0  0.00000000000E+00  0.00000000000E+00 -0.99549549722E+03  0.36407411258E+04  0.35019972387E+04 0.  0.
        3    1    3    3  502    0  0.42662821523E+03  0.58810215098E+03 -0.21540138318E+04  0.22732468787E+04  0.10100000352E+00 0.  1.
       -3    1    3    3    0  502 -0.42662821523E+03 -0.58810215098E+03  0.11585183345E+04  0.13674942470E+04  0.10100000352E+00 0. -1.
</event>
<event>
 5   0  0.2001768E-06  0.2223258E+04  0.7818609E-02  0.8508809E-01
        2   -1    0    0  501    0  0.00000000000E+00  0.00000000000E+00  0.20255829478E+04  0.20255829478E+04  0.25500000920E-02 0. -1.
       -2   -1    0    0    0  501  0.00000000000E+00  0.00000000000E+00 -0.61005607126E+03  0.61005607127E+03  0.25500000920E-02 0.  1.
    10030    2    1    2    0    0  0.00000000000E+00  0.00000000000E+00  0.14155268766E+04  0.26356390191E+04  0.22232581273E+04 0.  0.
        2    1    3    3  502    0 -0.94220945935E+03  0.57448211914E+03  0.86650693036E+03  0.14030761315E+04  0.25500000920E-02 0.  1.
       -2    1    3    3    0  502  0.94220945935E+03 -0.57448211914E+03  0.54901994622E+03  0.12325628876E+04  0.25500000920E-02 0. -1.
</event>
<event>
 5   0  0.1999883E-06  0.3508764E+04  0.7818609E-02  0.8111716E-01
       -2   -1    0    0    0  501  0.00000000000E+00  0.00000000000E+00  0.14653199085E+04  0.14653199085E+04  0.25500000920E-02 0. -1.
        2   -1    0    0  501    0  0.00000000000E+00  0.00000000000E+00 -0.21004667638E+04  0.21004667638E+04  0.25500000920E-02 0.  1.
    10030    2    1    2    0    0  0.00000000000E+00  0.00000000000E+00 -0.63514685530E+03  0.35657866723E+04  0.35087637516E+04 0.  0.
        4    1    3    3  502    0 -0.17212629959E+04 -0.29159466678E+03 -0.14131777573E+03  0.17514982379E+04  0.12699999809E+01 0.  1.
       -4    1    3    3    0  502  0.17212629959E+04  0.29159466678E+03 -0.49382907957E+03  0.18142884345E+04  0.12699999809E+01 0. -1.
</event>
<event>
 5   0  0.2020725E-06  0.2351642E+04  0.7818609E-02  0.8457833E-01
       -2   -1    0    0    0  501  0.00000000000E+00  0.00000000000E+00  0.87419035599E+03  0.87419035599E+03  0.25500000920E-02 0. -1.
        2   -1    0    0  501    0  0.00000000000E+00  0.00000000000E+00 -0.15815257730E+04  0.15815257731E+04  0.25500000920E-02 0.  1.
    10030    2    1    2    0    0  0.00000000000E+00  0.00000000000E+00 -0.70733541706E+03  0.24557161290E+04  0.23516416211E+04 0.  0.
        3    1    3    3  502    0 -0.57906397088E+03 -0.67106276926E+03  0.45312691693E+03  0.99547191608E+03  0.10100000352E+00 0. -1.
       -3    1    3    3    0  502  0.57906397088E+03  0.67106276926E+03 -0.11604623340E+04  0.14602442130E+04  0.10100000352E+00 0.  1.
</event>
<event>
 5   0  0.6630125E-07  0.3757390E+04  0.7818609E-02  0.8055361E-01
        1   -1    0    0  501    0  0.00000000000E+00  0.00000000000E+00  0.14689577607E+04  0.14689577608E+04  0.50400001928E-02 0. -1.
       -1   -1    0    0    0  501  0.00000000000E+00  0.00000000000E+00 -0.24027204566E+04  0.24027204566E+04  0.50400001928E-02 0.  1.
    10030    2    1    2    0    0  0.00000000000E+00  0.00000000000E+00 -0.93376269582E+03  0.38716782173E+04  0.37573899780E+04 0.  0.
        1    1    3    3  502    0  0.72318566435E+03 -0.86616502044E+03  0.10808911401E+04  0.15625508006E+04  0.50400001928E-02 0. -1.
       -1    1    3    3    0  502 -0.72318566435E+03  0.86616502044E+03 -0.20146538359E+04  0.23091274167E+04  0.50400001928E-02 0.  1.
</event>
<event>
 5   0  0.6630125E-07  0.3459745E+04  0.7818609E-02  0.8123397E-01
       -1   -1    0    0    0  501  0.00000000000E+00  0.00000000000E+00  0.13295434809E+04  0.13295434810E+04  0.50400001928E-02 0.  1.
        1   -1    0    0  501    0  0.00000000000E+00  0.00000000000E+00 -0.22507413222E+04  0.22507413223E+04  0.50400001928E-02 0. -1.
    10030    2    1    2    0    0  0.00000000000E+00  0.00000000000E+00 -0.92119784130E+03  0.35802848032E+04  0.34597447607E+04 0.  0.
        5    1    3    3  502    0 -0.84923249035E+03  0.94830461118E+03  0.75151675037E+03  0.14782682349E+04  0.46999998093E+01 0.  1.
       -5    1    3    3    0  502  0.84923249035E+03 -0.94830461118E+03 -0.16727145917E+04  0.21020165683E+04  0.46999998093E+01 0. -1.
</event>
<event>
 5   0  0.6630125E-07  0.3566740E+04  0.7818609E-02  0.8098153E-01
       -3   -1    0    0    0  501  0.00000000000E+00  0.00000000000E+00  0.15581314231E+04  0.15581314263E+04  0.10100000352E+00 0.  1.
        3   -1    0    0  501    0  0.00000000000E+00  0.00000000000E+00 -0.20411683384E+04  0.20411683409E+04  0.10100000352E+00 0. -1.
    10030    2    1    2    0    0  0.00000000000E+00  0.00000000000E+00 -0.48303691529E+03  0.35992997672E+04  0.35667399895E+04 0.  0.
        3    1    3    3  502    0 -0.78625090194E+03  0.11834369164E+03  0.13693660888E+04  0.15834643051E+04  0.10100000352E+00 0.  1.
       -3    1    3    3    0  502  0.78625090194E+03 -0.11834369164E+03 -0.18524030041E+04  0.20158354621E+04  0.10100000352E+00 0. -1.
</event>
<event>
 5   0  0.1999883E-06  0.2381530E+04  0.7818609E-02  0.8446451E-01
       -2   -1    0    0    0  501  0.00000000000E+00  0.00000000000E+00  0.11625422005E+04  0.11625422005E+04  0.25500000920E-02 0.  1.
        2   -1    0    0  501    0  0.00000000000E+00  0.00000000000E+00 -0.12196729904E+04  0.12196729904E+04  0.25500000920E-02 0. -1.
    10030    2    1    2    0    0  0.00000000000E+00  0.00000000000E+00 -0.57130789850E+02  0.23822151909E+04  0.23815300310E+04 0.  0.
        4    1    3    3  502    0  0.51205343139E+03 -0.21396316568E+03 -0.10824057539E+04  0.12163810184E+04  0.12699999809E+01 0. -1.
       -4    1    3    3    0  502 -0.51205343139E+03  0.21396316568E+03  0.10252749641E+04  0.11658341725E+04  0.12699999809E+01 0.  1.
</event>
<event>
 5   0  0.2001768E-06  0.3513934E+04  0.7818609E-02  0.8110496E-01
        2   -1    0    0  501    0  0.00000000000E+00  0.00000000000E+00  0.14196645448E+04  0.14196645448E+04  0.25500000920E-02 0.  1.
       -2   -1    0    0    0  501  0.00000000000E+00  0.00000000000E+00 -0.21744097763E+04  0.21744097763E+04  0.25500000920E-02 0. -1.
    10030    2    1    2    0    0  0.00000000000E+00  0.00000000000E+00 -0.75474523152E+03  0.35940743210E+04  0.35139336733E+04 0.  0.
        2    1    3    3  502    0  0.33242118594E+03  0.14551893972E+04 -0.13252513291E+04  0.19960889538E+04  0.25500000920E-02 0. -1.
       -2    1    3    3    0  502 -0.33242118594E+03 -0.14551893972E+04  0.57050609755E+03  0.15979853672E+04  0.25500000920E-02 0.  1.
</event>
<event>
 5   0  0.7378896E-07  0.3488005E+04  0.7818609E-02  0.8116638E-01
       -1   -1    0    0    0  501  0.00000000000E+00  0.00000000000E+00  0.18838670308E+04  0.18838670309E+04  0.50400001928E-02 0.  1.
        1   -1    0    0  501    0  0.00000000000E+00  0.00000000000E+00 -0.16145220561E+04  0.16145220561E+04  0.50400001928E-02 0. -1.
    10030    2    1    2    0    0  0.00000000000E+00  0.00000000000E+00  0.26934497477E+03  0.34983890869E+04  0.34880050872E+04 0.  0.
        2    1    3    3  502    0 -0.10546439137E+04 -0.77757300752E+03 -0.10196888849E+04  0.16603189419E+04  0.25500000920E-02 0.  1.
       -2    1    3    3    0  502  0.10546439137E+04  0.77757300752E+03  0.12890338597E+04  0.18380701451E+04  0.25500000920E-02 0. -1.
</event>
<event>
 5   0  0.2023479E-06  0.3464480E+04  0.7818609E-02  0.8122260E-01
        2   -1    0    0  501    0  0.00000000000E+00  0.00000000000E+00  0.18850889172E+04  0.18850889172E+04  0.25500000920E-02 0. -1.
       -2   -1    0    0    0  501  0.00000000000E+00  0.00000000000E+00 -0.15917846445E+04  0.15917846445E+04  0.25500000920E-02 0.  1.
    10030    2    1    2    0    0  0.00000000000E+00  0.00000000000E+00  0.29330427264E+03  0.34768735617E+04  0.34644801007E+04 0.  0.
        5    1    3    3  502    0 -0.13376462094E+04  0.16776583564E+03 -0.94498476607E+03  0.16463477929E+04  0.46999998093E+01 0.  1.
       -5    1    3    3    0  502  0.13376462094E+04 -0.16776583564E+03  0.12382890387E+04  0.18305257688E+04  0.46999998093E+01 0. -1.
</event>
<event>
 5   0  0.2073287E-06  0.3446416E+04  0.7818609E-02  0.8126607E-01
       -2   -1    0    0    0  501  0.00000000000E+00  0.00000000000E+00  0.20296141916E+04  0.20296141916E+04  0.25500000920E-02 0. -1.
        2   -1    0    0  501    0  0.00000000000E+00  0.00000000000E+00 -0.14630594089E+04  0.14630594089E+04  0.25500000920E-02 0.  1.
    10030    2    1    2    0    0  0.00000000000E+00  0.00000000000E+00  0.56655478268E+03  0.34926736006E+04  0.34464161905E+04 0.  0.
        1    1    3    3  502    0 -0.45154568321E+03 -0.76601443142E+03 -0.12126014670E+04  0.15036867796E+04  0.50400001928E-02 0.  1.
       -1    1    3    3    0  502  0.45154568321E+03  0.76601443142E+03  0.17791562497E+04  0.19889868210E+04  0.50400001928E-02 0. -1.
</event>
<event>
 5   0  0.6630125E-07  0.3380090E+04  0.7818609E-02  0.8142810E-01
       -1   -1    0    0    0  501  0.00000000000E+00  0.00000000000E+00  0.16580923563E+04  0.16580923563E+04  0.50400001928E-02 0. -1.
        1   -1    0    0  501    0  0.00000000000E+00  0.00000000000E+00 -0.17226131274E+04  0.17226131274E+04  0.50400001928E-02 0.  1.
    10030    2    1    2    0    0  0.00000000000E+00  0.00000000000E+00 -0.64520771121E+02  0.33807054837E+04  0.33800897381E+04 0.  0.
        1    1    3    3  502    0 -0.10972395397E+04  0.72780078540E+03 -0.10919924832E+04  0.17105777311E+04  0.50400001928E-02 0.  1.
       -1    1    3    3    0  502  0.10972395397E+04 -0.72780078540E+03  0.10274717121E+04  0.16701277526E+04  0.50400001928E-02 0. -1.
</event>
<event>
 5   0  0.6630125E-07  0.3541046E+04  0.7818609E-02  0.8104131E-01
       -1   -1    0    0    0  501  0.00000000000E+00  0.00000000000E+00  0.23489072597E+04  0.23489072598E+04  0.50400001928E-02 0. -1.
        1   -1    0    0  501    0  0.00000000000E+00  0.00000000000E+00 -0.13345577844E+04  0.13345577844E+04  0.50400001928E-02 0.  1.
    10030    2    1    2    0    0  0.00000000000E+00  0.00000000000E+00  0.10143494754E+04  0.36834650441E+04  0.35410464376E+04 0.  0.
        5    1    3    3  502    0 -0.25369746641E+03  0.14523170290E+04 -0.51263460009E+03  0.15608982928E+04  0.46999998093E+01 0.  1.
       -5    1    3    3    0  502  0.25369746641E+03 -0.14523170290E+04  0.15269840755E+04  0.21225667513E+04  0.46999998093E+01 0. -1.
</event>
<event>
 5   0  0.6630125E-07  0.3099898E+04  0.7818609E-02  0.8215766E-01
       -1   -1    0    0    0  501  0.00000000000E+00  0.00000000000E+00  0.14824469517E+04  0.14824469517E+04  0.50400001928E-02 0. -1.
        1   -1    0    0  501    0  0.00000000000E+00  0.00000000000E+00 -0.16205246490E+04  0.16205246490E+04  0.50400001928E-02 0.  1.
    10030    2    1    2    0    0  0.00000000000E+00  0.00000000000E+00 -0.13807769733E+03  0.31029716007E+04  0.30998979506E+04 0.  0.
        1    1    3    3  502    0 -0.26587159155E+03  0.41856889785E+03 -0.15389819463E+04  0.16168961180E+04  0.50400001928E-02 0.  1.
       -1    1    3    3    0  502  0.26587159155E+03 -0.41856889785E+03  0.14009042490E+04  0.14860754827E+04  0.50400001928E-02 0. -1.
</event>
<event>
 5   0  0.6890600E-07  0.3532076E+04  0.7818609E-02  0.8106230E-01
        1   -1    0    0  501    0  0.00000000000E+00  0.00000000000E+00  0.20386068438E+04  0.20386068438E+04  0.50400001928E-02 0. -1.
       -1   -1    0    0    0  501  0.00000000000E+00  0.00000000000E+00 -0.15299125780E+04  0.15299125780E+04  0.50400001928E-02 0.  1.
    10030    2    1    2    0    0  0.00000000000E+00  0.00000000000E+00  0.50869426579E+03  0.35685194218E+04  0.35320760196E+04 0.  0.
        3    1    3    3  502    0 -0.26419380263E+03 -0.24559181944E+03  0.20009925352E+04  0.20332449049E+04  0.10100000352E+00 0. -1.
       -3    1    3    3    0  502  0.26419380263E+03  0.24559181944E+03 -0.14922982694E+04  0.15352745169E+04  0.10100000352E+00 0.  1.
</event>
<event>
 5   0  0.2073287E-06  0.3491291E+04  0.7818609E-02  0.8115857E-01
        2   -1    0    0  501    0  0.00000000000E+00  0.00000000000E+00  0.18279844792E+04  0.18279844792E+04  0.25500000920E-02 0.  1.
       -2   -1    0    0    0  501  0.00000000000E+00  0.00000000000E+00 -0.16670156010E+04  0.16670156010E+04  0.25500000920E-02 0. -1.
    10030    2    1    2    0    0  0.00000000000E+00  0.00000000000E+00  0.16096887816E+03  0.34950000802E+04  0.34912912484E+04 0.  0.
        1    1    3    3  502    0 -0.10199167411E+04 -0.35932683477E+03 -0.12913481757E+04  0.16843176790E+04  0.50400001928E-02 0. -1.
       -1    1    3    3    0  502  0.10199167411E+04  0.35932683477E+03  0.14523170539E+04  0.18106824012E+04  0.50400001928E-02 0.  1.
</event>
<event>
 5   0  0.2073287E-06  0.3275580E+04  0.7818609E-02  0.8169137E-01
        2   -1    0    0  501    0  0.00000000000E+00  0.00000000000E+00  0.21097769637E+04  0.21097769637E+04  0.25500000920E-02 0. -1.
       -2   -1    0    0    0  501  0.00000000000E+00  0.00000000000E+00 -0.12713932312E+04  0.12713932312E+04  0.25500000920E-02 0.  1.
    10030    2    1    2    0    0  0.00000000000E+00  0.00000000000E+00  0.83838373247E+03  0.33811701949E+04  0.32755800409E+04 0.  0.
        1    1    3    3  502    0  0.10270932826E+04  0.12756790754E+04  0.41004993967E+03  0.16883182957E+04  0.50400001928E-02 0. -1.
       -1    1    3    3    0  502 -0.10270932826E+04 -0.12756790754E+04  0.42833379279E+03  0.16928518992E+04  0.50400001928E-02 0.  1.
</event>
<event>
 5   0  0.6630125E-07  0.3543402E+04  0.7818609E-02  0.8103580E-01
        3   -1    0    0  501    0  0.00000000000E+00  0.00000000000E+00  0.13029785879E+04  0.13029785918E+04  0.10100000352E+00 0. -1.
       -3   -1    0    0    0  501  0.00000000000E+00  0.00000000000E+00 -0.24090382865E+04  0.24090382886E+04  0.10100000352E+00 0.  1.
    10030    2    1    2    0    0  0.00000000000E+00  0.00000000000E+00 -0.11060596986E+04  0.37120168805E+04  0.35434024981E+04 0.  0.
        4    1    3    3  502    0  0.14965279486E+04 -0.83536993144E+03 -0.82799467315E+02  0.17158951564E+04  0.12699999809E+01 0.  1.
       -4    1    3    3    0  502 -0.14965279486E+04  0.83536993144E+03 -0.10232602313E+04  0.19961217240E+04  0.12699999809E+01 0. -1.
</event>
<event>
 5   0  0.1999883E-06  0.3439045E+04  0.7818609E-02  0.8128389E-01
        2   -1    0    0  501    0  0.00000000000E+00  0.00000000000E+00  0.22699622145E+04  0.22699622145E+04  0.25500000920E-02 0. -1.
       -2   -1    0    0    0  501  0.00000000000E+00  0.00000000000E+00 -0.13025577553E+04  0.13025577553E+04  0.25500000920E-02 0.  1.
    10030    2    1    2    0    0  0.00000000000E+00  0.00000000000E+00  0.96740445916E+03  0.35725199698E+04  0.34390445690E+04 0.  0.
        4    1    3    3  502    0 -0.14702233326E+04 -0.66863277215E+03  0.10966265636E+04  0.19522340701E+04  0.12699999809E+01 0. -1.
       -4    1    3    3    0  502  0.14702233326E+04  0.66863277215E+03 -0.12922210440E+03  0.16202858997E+04  0.12699999809E+01 0.  1.
</event>
<event>
 5   0  0.7378896E-07  0.3300108E+04  0.7818609E-02  0.8162868E-01
       -1   -1    0    0    0  501  0.00000000000E+00  0.00000000000E+00  0.16826540349E+04  0.16826540350E+04  0.50400001928E-02 0. -1.
        1   -1    0    0  501    0  0.00000000000E+00  0.00000000000E+00 -0.16180852512E+04  0.16180852512E+04  0.50400001928E-02 0.  1.
    10030    2    1    2    0    0  0.00000000000E+00  0.00000000000E+00  0.64568783725E+02  0.33007392862E+04  0.33001076812E+04 0.  0.
        2    1    3    3  502    0 -0.32511811498E+03 -0.72123104767E+03 -0.14160264695E+04  0.16220379081E+04  0.25500000920E-02 0.  1.
       -2    1    3    3    0  502  0.32511811498E+03  0.72123104767E+03  0.14805952533E+04  0.16787013781E+04  0.25500000920E-02 0. -1.
</event>
<event>
 5   0  0.2023479E-06  0.3544379E+04  0.7818609E-02  0.8103352E-01
        2   -1    0    0  501    0  0.00000000000E+00  0.00000000000E+00  0.15836236500E+04  0.15836236500E+04  0.25500000920E-02 0. -1.
       -2   -1    0    0    0  501  0.00000000000E+00  0.00000000000E+00 -0.19832086456E+04  0.19832086457E+04  0.25500000920E-02 0.  1.
    10030    2    1    2    0    0  0.00000000000E+00  0.00000000000E+00 -0.39958499562E+03  0.35668322957E+04  0.35443792767E+04 0.  0.
        5    1    3    3  502    0  0.14282988725E+04 -0.10454828633E+04 -0.11228222253E+03  0.17736125490E+04  0.46999998093E+01 0. -1.
       -5    1    3    3    0  502 -0.14282988725E+04  0.10454828633E+04 -0.28730277309E+03  0.17932197467E+04  0.46999998093E+01 0.  1.
</event>
<event>
 5   0  0.2023479E-06  0.3182511E+04  0.7818609E-02  0.8193451E-01
        2   -1    0    0  501    0  0.00000000000E+00  0.00000000000E+00  0.29359304181E+04  0.29359304181E+04  0.25500000920E-02 0.  1.
       -2   -1    0    0    0  501  0.00000000000E+00  0.00000000000E+00 -0.86245029071E+03  0.86245029071E+03  0.25500000920E-02 0. -1.
    10030    2    1    2    0    0  0.00000000000E+00  0.00000000000E+00  0.20734801274E+04  0.37983807088E+04  0.31825109851E+04 0.  0.
        5    1    3    3  502    0  0.50753096642E+02  0.52181310387E+03  0.28298804405E+04  0.28780392961E+04  0.46999998093E+01 0.  1.
       -5    1    3    3    0  502 -0.50753096642E+02 -0.52181310387E+03 -0.75640031315E+03  0.92034141270E+03  0.46999998093E+01 0. -1.
</event>
<event>
 5   0  0.2020725E-06  0.3402234E+04  0.7818609E-02  0.8137358E-01
        2   -1    0    0  501    0  0.00000000000E+00  0.00000000000E+00  0.19111706377E+04  0.19111706377E+04  0.25500000920E-02 0. -1.
       -2   -1    0    0    0  501  0.00000000000E+00  0.00000000000E+00 -0.15141498746E+04  0.15141498746E+04  0.25500000920E-02 0.  1.
    10030    2    1    2    0    0  0.00000000000E+00  0.00000000000E+00  0.39702076306E+03  0.34253205123E+04  0.34022338435E+04 0.  0.
        3    1    3    3  502    0 -0.10289971546E+04 -0.99514190735E+03  0.11237986267E+04  0.18199082184E+04  0.10100000352E+00 0.  1.
       -3    1    3    3    0  502  0.10289971546E+04  0.99514190735E+03 -0.72677786363E+03  0.16054122939E+04  0.10100000352E+00 0. -1.
</event>
<event>
 5   0  0.2023479E-06  0.3379974E+04  0.7818609E-02  0.8142839E-01
       -2   -1    0    0    0  501  0.00000000000E+00  0.00000000000E+00  0.30584754348E+04  0.30584754348E+04  0.25500000920E-02 0.  1.
        2   -1    0    0  501    0  0.00000000000E+00  0.00000000000E+00 -0.93381672645E+03  0.93381672646E+03  0.25500000920E-02 0. -1.
    10030    2    1    2    0    0  0.00000000000E+00  0.00000000000E+00  0.21246587083E+04  0.39922921613E+04  0.33799736795E+04 0.  0.
        5    1    3    3  502    0 -0.69882382003E+03  0.13688783434E+04  0.18923843520E+04  0.24378932044E+04  0.46999998093E+01 0.  1.
       -5    1    3    3    0  502  0.69882382003E+03 -0.13688783434E+04  0.23227435631E+03  0.15543989568E+04  0.46999998093E+01 0. -1.
</event>
<event>
 5   0  0.2001768E-06  0.3460479E+04  0.7818609E-02  0.8123220E-01
       -2   -1    0    0    0  501  0.00000000000E+00  0.00000000000E+00  0.11215334490E+04  0.11215334490E+04  0.25500000920E-02 0.  1.
        2   -1    0    0  501    0  0.00000000000E+00  0.00000000000E+00 -0.26693178736E+04  0.26693178736E+04  0.25500000920E-02 0. -1.
    10030    2    1    2    0    0  0.00000000000E+00  0.00000000000E+00 -0.15477844246E+04  0.37908513226E+04  0.34604793201E+04 0.  0.
        2    1    3    3  502    0 -0.10176554798E+04 -0.99453753429E+03 -0.18522497109E+04  0.23357132902E+04  0.25500000920E-02 0. -1.
       -2    1    3    3    0  502  0.10176554798E+04  0.99453753429E+03  0.30446528628E+03  0.14551380323E+04  0.25500000920E-02 0.  1.
</event>
<event>
 5   0  0.2023479E-06  0.3628238E+04  0.7818609E-02  0.8084054E-01
        2   -1    0    0  501    0  0.00000000000E+00  0.00000000000E+00  0.23017848497E+04  0.23017848497E+04  0.25500000920E-02 0.  1.
       -2   -1    0    0    0  501  0.00000000000E+00  0.00000000000E+00 -0.14297718077E+04  0.14297718077E+04  0.25500000920E-02 0. -1.
    10030    2    1    2    0    0  0.00000000000E+00  0.00000000000E+00  0.87201304193E+03  0.37315566574E+04  0.36282376359E+04 0.  0.
        5    1    3    3  502    0 -0.19270377011E+03 -0.22233918956E+03 -0.14050625655E+04  0.14355460150E+04  0.46999998093E+01 0. -1.
       -5    1    3    3    0  502  0.19270377011E+03  0.22233918956E+03  0.22770756074E+04  0.22960106424E+04  0.46999998093E+01 0.  1.
</event>
<event>
 5   0  0.2001768E-06  0.3448513E+04  0.7818609E-02  0.8126101E-01
       -2   -1    0    0    0  501  0.00000000000E+00  0.00000000000E+00  0.24437640740E+04  0.24437640740E+04  0.25500000920E-02 0.  1.
        2   -1    0    0  501    0  0.00000000000E+00  0.00000000000E+00 -0.12165909256E+04  0.12165909256E+04  0.25500000920E-02 0. -1.
    10030    2    1    2    0    0  0.00000000000E+00  0.00000000000E+00  0.12271731484E+04  0.36603549996E+04  0.34485134170E+04 0.  0.
        2    1    3    3  502    0  0.80140156986E+03 -0.11759897127E+04 -0.41980403798E+03  0.14837222486E+04  0.25500000920E-02 0. -1.
       -2    1    3    3    0  502 -0.80140156986E+03  0.11759897127E+04  0.16469771864E+04  0.21766327511E+04  0.25500000920E-02 0.  1.
</event>
<event>
 5   0  0.1999883E-06  0.3455108E+04  0.7818609E-02  0.8124512E-01
       -2   -1    0    0    0  501  0.00000000000E+00  0.00000000000E+00  0.16135487895E+04  0.16135487895E+04  0.25500000920E-02 0.  1.
        2   -1    0    0  501    0  0.00000000000E+00  0.00000000000E+00 -0.18496137982E+04  0.18496137982E+04  0.25500000920E-02 0. -1.
    10030    2    1    2    0    0  0.00000000000E+00  0.00000000000E+00 -0.23606500870E+03  0.34631625877E+04  0.34551075845E+04 0.  0.
        4    1    3    3  502    0  0.49171478500E+03 -0.46715886596E+03 -0.17105788610E+04  0.18401365407E+04  0.12699999809E+01 0. -1.
       -4    1    3    3    0  502 -0.49171478500E+03  0.46715886596E+03  0.14745138523E+04  0.16230260470E+04  0.12699999809E+01 0.  1.
</event>
<event>
 5   0  0.2073287E-06  0.3583790E+04  0.7818609E-02  0.8094215E-01
       -2   -1    0    0    0  501  0.00000000000E+00  0.00000000000E+00  0.15187089412E+04  0.15187089412E+04  0.25500000920E-02 0. -1.
        2   -1    0    0  501    0  0.00000000000E+00  0.00000000000E+00 -0.21142222553E+04  0.21142222553E+04  0.25500000920E-02 0.  1.
    10030    2    1    2    0    0  0.00000000000E+00  0.00000000000E+00 -0.59551331407E+03  0.36329311964E+04  0.35837903079E+04 0.  0.
        1    1    3    3  502    0  0.30309070848E+03 -0.14697387943E+03 -0.20818387649E+04  0.21089139247E+04  0.50400001928E-02 0.  1.
       -1    1    3    3    0  502 -0.30309070848E+03  0.14697387943E+03  0.14863254508E+04  0.15240172717E+04  0.50400001928E-02 0. -1.
</event>
<event>
 5   0  0.6630125E-07  0.3301207E+04  0.7818609E-02  0.8162588E-01
       -1   -1    0    0    0  501  0.00000000000E+00  0.00000000000E+00  0.18511150030E+04  0.18511150031E+04  0.50400001928E-02 0.  1.
        1   -1    0    0  501    0  0.00000000000E+00  0.00000000000E+00 -0.14718111620E+04  0.14718111620E+04  0.50400001928E-02 0. -1.
    10030    2    1    2    0    0  0.00000000000E+00  0.00000000000E+00  0.37930384102E+03  0.33229261651E+04  0.33012068846E+04 0.  0.
        1    1    3    3  502    0  0.59049203440E+03 -0.20166988933E+03 -0.13485183870E+04  0.14858847288E+04  0.50400001928E-02 0. -1.
       -1    1    3    3    0  502 -0.59049203440E+03  0.20166988933E+03  0.17278222281E+04  0.18370414363E+04  0.50400001928E-02 0.  1.
</event>
<event>
 5   0  0.6630125E-07  0.3227936E+04  0.7818609E-02  0.8181478E-01
       -1   -1    0    0    0  501  0.00000000000E+00  0.00000000000E+00  0.19956899087E+04  0.19956899087E+04  0.50400001928E-02 0. -1.
        1   -1    0    0  501    0  0.00000000000E+00  0.00000000000E+00 -0.13052589069E+04  0.13052589069E+04  0.50400001928E-02 0.  1.
    10030    2    1    2    0    0  0.00000000000E+00  0.00000000000E+00  0.69043100180E+03  0.33009488155E+04  0.32279355809E+04 0.  0.
        5    1    3    3  502    0 -0.62253044720E+03  0.11164242286E+04  0.13528575067E+04  0.18612341979E+04  0.46999998093E+01 0. -1.
       -5    1    3    3    0  502  0.62253044720E+03 -0.11164242286E+04 -0.66242650488E+03  0.14397146177E+04  0.46999998093E+01 0.  1.
</event>
<event>
 5   0  0.7378896E-07  0.3487601E+04  0.7818609E-02  0.8116735E-01
       -1   -1    0    0    0  501  0.00000000000E+00  0.00000000000E+00  0.11394405653E+04  0.11394405653E+04  0.50400001928E-02 0. -1.
        1   -1    0    0  501    0  0.00000000000E+00  0.00000000000E+00 -0.26687138570E+04  0.26687138570E+04  0.50400001928E-02 0.  1.
    10030    2    1    2    0    0  0.00000000000E+00  0.00000000000E+00 -0.15292732917E+04  0.38081544223E+04  0.34876013682E+04 0.  0.
        2    1    3    3  502    0 -0.16226545024E+04 -0.47394405784E+03 -0.29726478448E+03  0.17163906770E+04  0.25500000920E-02 0. -1.
       -2    1    3    3    0  502  0.16226545024E+04  0.47394405784E+03 -0.12320085073E+04  0.20917637453E+04  0.25500000920E-02 0.  1.
</event>
<event>
 5   0  0.6630125E-07  0.2179527E+04  0.7818609E-02  0.8526998E-01
       -1   -1    0    0    0  501  0.00000000000E+00  0.00000000000E+00  0.85053839267E+03  0.85053839268E+03  0.50400001928E-02 0. -1.
        1   -1    0    0  501    0  0.00000000000E+00  0.00000000000E+00 -0.13962739062E+04  0.13962739062E+04  0.50400001928E-02 0.  1.
    10030    2    1    2    0    0  0.00000000000E+00  0.00000000000E+00 -0.54573551356E+03  0.22468122989E+04  0.21795270716E+04 0.  0.
        5    1    3    3  502    0 -0.12721041949E+03 -0.63610574109E+03 -0.11755424496E+04  0.13426597281E+04  0.46999998093E+01 0.  1.
       -5    1    3    3    0  502  0.12721041949E+03  0.63610574109E+03  0.62980693603E+03  0.90415257083E+03  0.46999998093E+01 0. -1.
</event>
<event>
 5   0  0.2073287E-06  0.3520893E+04  0.7818609E-02  0.8108856E-01
       -2   -1    0    0    0  501  0.00000000000E+00  0.00000000000E+00  0.12540603218E+04  0.12540603218E+04  0.25500000920E-02 0. -1.
        2   -1    0    0  501    0  0.00000000000E+00  0.00000000000E+00 -0.24713099866E+04  0.24713099866E+04  0.25500000920E-02 0.  1.
    10030    2    1    2    0    0  0.00000000000E+00  0.00000000000E+00 -0.12172496648E+04  0.37253703084E+04  0.35208929532E+04 0.  0.
        1    1    3    3  502    0 -0.17513778476E+04  0.54668119069E+02 -0.42888018017E+03  0.18039543168E+04  0.50400001928E-02 0. -1.
       -1    1    3    3    0  502  0.17513778476E+04 -0.54668119069E+02 -0.78836948468E+03  0.19214159916E+04  0.50400001928E-02 0.  1.
</event>
<event>
 5   0  0.1999883E-06  0.3520640E+04  0.7818609E-02  0.8108916E-01
        2   -1    0    0  501    0  0.00000000000E+00  0.00000000000E+00  0.17524045397E+04  0.17524045397E+04  0.25500000920E-02 0. -1.
       -2   -1    0    0    0  501  0.00000000000E+00  0.00000000000E+00 -0.17682708802E+04  0.17682708802E+04  0.25500000920E-02 0.  1.
    10030    2    1    2    0    0  0.00000000000E+00  0.00000000000E+00 -0.15866340559E+02  0.35206754199E+04  0.35206396680E+04 0.  0.
        4    1    3    3  502    0 -0.77991778156E+02 -0.11920445474E+04  0.12850112741E+04  0.17545109028E+04  0.12699999809E+01 0. -1.
       -4    1    3    3    0  502  0.77991778156E+02  0.11920445474E+04 -0.13008776147E+04  0.17661645172E+04  0.12699999809E+01 0.  1.
</event>
<event>
 5   0  0.6630125E-07  0.3046866E+04  0.7818609E-02  0.8230473E-01
       -1   -1    0    0    0  501  0.00000000000E+00  0.00000000000E+00  0.10156566125E+04  0.10156566125E+04  0.50400001928E-02 0. -1.
        1   -1    0    0  501    0  0.00000000000E+00  0.00000000000E+00 -0.22850721323E+04  0.22850721323E+04  0.50400001928E-02 0.  1.
    10030    2    1    2    0    0  0.00000000000E+00  0.00000000000E+00 -0.12694155199E+04  0.33007287448E+04  0.30468663385E+04 0.  0.
        4    1    3    3  502    0 -0.42942066130E+03  0.29949958876E+03  0.91513732732E+03  0.10543149666E+04  0.12699999809E+01 0. -1.
       -4    1    3    3    0  502  0.42942066130E+03 -0.29949958876E+03 -0.21845528472E+04  0.22464137782E+04  0.12699999809E+01 0.  1.
</event>
<event>
 5   0  0.7378896E-07  0.3166604E+04  0.7818609E-02  0.8197693E-01
        1   -1    0    0  501    0  0.00000000000E+00  0.00000000000E+00  0.23169105403E+04  0.23169105403E+04  0.50400001928E-02 0. -1.
       -1   -1    0    0    0  501  0.00000000000E+00  0.00000000000E+00 -0.10819778625E+04  0.10819778625E+04  0.50400001928E-02 0.  1.
    10030    2    1    2    0    0  0.00000000000E+00  0.00000000000E+00  0.12349326778E+04  0.33988884028E+04  0.31666044364E+04 0.  0.
        2    1    3    3  502    0  0.10477770693E+04  0.57282348180E+03  0.17333844069E+04  0.21048954915E+04  0.25500000920E-02 0. -1.
       -2    1    3    3    0  502 -0.10477770693E+04 -0.57282348180E+03 -0.49845172911E+03  0.12939929113E+04  0.25500000920E-02 0.  1.
</event>
<event>
 5   0  0.7378896E-07  0.2475184E+04  0.7818609E-02  0.8411880E-01
        1   -1    0    0  501    0  0.00000000000E+00  0.00000000000E+00  0.12893364409E+04  0.12893364409E+04  0.50400001928E-02 0. -1.
       -1   -1    0    0    0  501  0.00000000000E+00  0.00000000000E+00 -0.11879239351E+04  0.11879239351E+04  0.50400001928E-02 0.  1.
    10030    2    1    2    0    0  0.00000000000E+00  0.00000000000E+00  0.10141250577E+03  0.24772603760E+04  0.24751837254E+04 0.  0.
        2    1    3    3  502    0 -0.11334494095E+04  0.38622753692E+03  0.36362548009E+03  0.12514402758E+04  0.25500000920E-02 0.  1.
       -2    1    3    3    0  502  0.11334494095E+04 -0.38622753692E+03 -0.26221297433E+03  0.12258201002E+04  0.25500000920E-02 0. -1.
</event>
<event>
 5   0  0.2001768E-06  0.3516906E+04  0.7818609E-02  0.8109795E-01
       -2   -1    0    0    0  501  0.00000000000E+00  0.00000000000E+00  0.14148781879E+04  0.14148781879E+04  0.25500000920E-02 0. -1.
        2   -1    0    0  501    0  0.00000000000E+00  0.00000000000E+00 -0.21854579275E+04  0.21854579275E+04  0.25500000920E-02 0.  1.
    10030    2    1    2    0    0  0.00000000000E+00  0.00000000000E+00 -0.77057973957E+03  0.36003361154E+04  0.35169058857E+04 0.  0.
        2    1    3    3  502    0  0.12846187339E+04  0.62208072993E+03 -0.14367516953E+04  0.20252123740E+04  0.25500000920E-02 0.  1.
       -2    1    3    3    0  502 -0.12846187339E+04 -0.62208072993E+03  0.66617195570E+03  0.15751237414E+04  0.25500000920E-02 0. -1.
</event>
<event>
 5   0  0.6630125E-07  0.3475267E+04  0.7818609E-02  0.8119676E-01
       -1   -1    0    0    0  501  0.00000000000E+00  0.00000000000E+00  0.20628189951E+04  0.20628189951E+04  0.50400001928E-02 0. -1.
        1   -1    0    0  501    0  0.00000000000E+00  0.00000000000E+00 -0.14637110218E+04  0.14637110218E+04  0.50400001928E-02 0.  1.
    10030    2    1    2    0    0  0.00000000000E+00  0.00000000000E+00  0.59910797336E+03  0.35265300169E+04  0.34752674136E+04 0.  0.
        1    1    3    3  502    0  0.21706505670E+03  0.18942115062E+03  0.20384154750E+04  0.20586731794E+04  0.50400001928E-02 0. -1.
       -1    1    3    3    0  502 -0.21706505670E+03 -0.18942115062E+03 -0.14393075016E+04  0.14678568375E+04  0.50400001928E-02 0.  1.
</event>
<event>
 5   0  0.6630125E-07  0.3060422E+04  0.7818609E-02  0.8226684E-01
        1   -1    0    0  501    0  0.00000000000E+00  0.00000000000E+00  0.14110939302E+04  0.14110939302E+04  0.50400001928E-02 0. -1.
       -1   -1    0    0    0  501  0.00000000000E+00  0.00000000000E+00 -0.16593833296E+04  0.16593833296E+04  0.50400001928E-02 0.  1.
    10030    2    1    2    0    0  0.00000000000E+00  0.00000000000E+00 -0.24828939934E+03  0.30704772598E+04  0.30604220260E+04 0.  0.
        4    1    3    3  502    0  0.59627495045E+03 -0.41178764051E+03 -0.14763232714E+04  0.16445804608E+04  0.12699999809E+01 0.  1.
       -4    1    3    3    0  502 -0.59627495045E+03  0.41178764051E+03  0.12280338721E+04  0.14258967990E+04  0.12699999809E+01 0. -1.
</event>
<event>
 5   0  0.6890600E-07  0.3879107E+04  0.7818609E-02  0.8029389E-01
       -1   -1    0    0    0  501  0.00000000000E+00  0.00000000000E+00  0.18915175432E+04  0.18915175432E+04  0.50400001928E-02 0. -1.
        1   -1    0    0  501    0  0.00000000000E+00  0.00000000000E+00 -0.19888096592E+04  0.19888096592E+04  0.50400001928E-02 0.  1.
    10030    2    1    2    0    0  0.00000000000E+00  0.00000000000E+00 -0.97292115931E+02  0.38803272024E+04  0.38791072996E+04 0.  0.
        3    1    3    3  502    0  0.93522768462E+03  0.37987352599E+03  0.16080491730E+04  0.18986249948E+04  0.10100000352E+00 0. -1.
       -3    1    3    3    0  502 -0.93522768462E+03 -0.37987352599E+03 -0.17053412889E+04  0.19817022076E+04  0.10100000352E+00 0.  1.
</event>
<event>
 5   0  0.6630125E-07  0.3512305E+04  0.7818609E-02  0.8110880E-01
        1   -1    0    0  501    0  0.00000000000E+00  0.00000000000E+00  0.29187831713E+04  0.29187831713E+04  0.50400001928E-02 0. -1.
       -1   -1    0    0    0  501  0.00000000000E+00  0.00000000000E+00 -0.10566291469E+04  0.10566291469E+04  0.50400001928E-02 0.  1.
    10030    2    1    2    0    0  0.00000000000E+00  0.00000000000E+00  0.18621540245E+04  0.39754123182E+04  0.35123048684E+04 0.  0.
        4    1    3    3  502    0 -0.15338705641E+04 -0.33983991372E+03  0.42864765442E+02  0.15716517030E+04  0.12699999809E+01 0.  1.
       -4    1    3    3    0  502  0.15338705641E+04  0.33983991372E+03  0.18192892590E+04  0.24037606152E+04  0.12699999809E+01 0. -1.
</event>
<event>
 5   0  0.1999883E-06  0.3516958E+04  0.7818609E-02  0.8109783E-01
       -2   -1    0    0    0  501  0.00000000000E+00  0.00000000000E+00  0.16200999123E+04  0.16200999123E+04  0.25500000920E-02 0. -1.
        2   -1    0    0  501    0  0.00000000000E+00  0.00000000000E+00 -0.19086776341E+04  0.19086776341E+04  0.25500000920E-02 0.  1.
    10030    2    1    2    0    0  0.00000000000E+00  0.00000000000E+00 -0.28857772179E+03  0.35287775463E+04  0.35169580421E+04 0.  0.
        4    1    3    3  502    0  0.85958696324E+03 -0.24954687808E+03  0.13744305701E+04  0.16401903538E+04  0.12699999809E+01 0. -1.
       -4    1    3    3    0  502 -0.85958696324E+03  0.24954687808E+03 -0.16630082919E+04  0.18885871925E+04  0.12699999809E+01 0.  1.
</event>
<event>
 5   0  0.2001768E-06  0.3398593E+04  0.7818609E-02  0.8138252E-01
        2   -1    0    0  501    0  0.00000000000E+00  0.00000000000E+00  0.24041520843E+04  0.24041520843E+04  0.25500000920E-02 0.  1.
       -2   -1    0    0    0  501  0.00000000000E+00  0.00000000000E+00 -0.12010921218E+04  0.12010921218E+04  0.25500000920E-02 0. -1.
    10030    2    1    2    0    0  0.00000000000E+00  0.00000000000E+00  0.12030599625E+04  0.36052442061E+04  0.33985927253E+04 0.  0.
        2    1    3    3  502    0  0.46717171606E+03 -0.15384937846E+04  0.11848720415E+04  0.19972817258E+04  0.25500000920E-02 0.  1.
       -2    1    3    3    0  502 -0.46717171606E+03  0.15384937846E+04  0.18187920970E+02  0.16079624803E+04  0.25500000920E-02 0. -1.
</event>
<event>
 5   0  0.2023479E-06  0.3453963E+04  0.7818609E-02  0.8124788E-01
       -2   -1    0    0    0  501  0.00000000000E+00  0.00000000000E+00  0.16266523044E+04  0.16266523044E+04  0.25500000920E-02 0. -1.
        2   -1    0    0  501    0  0.00000000000E+00  0.00000000000E+00 -0.18334989421E+04  0.18334989421E+04  0.25500000920E-02 0.  1.
    10030    2    1    2    0    0  0.00000000000E+00  0.00000000000E+00 -0.20684663764E+03  0.34601512465E+04  0.34539631030E+04 0.  0.
        5    1    3    3  502    0  0.16112354667E+04  0.33317286759E+03 -0.62911035069E+03  0.17615010111E+04  0.46999998093E+01 0.  1.
       -5    1    3    3    0  502 -0.16112354667E+04 -0.33317286759E+03  0.42226371306E+03  0.16986502354E+04  0.46999998093E+01 0. -1.
</event>
<event>
 5   0  0.2020725E-06  0.3694737E+04  0.7818609E-02  0.8069129E-01
       -2   -1    0    0    0  501  0.00000000000E+00  0.00000000000E+00  0.19473449770E+04  0.19473449770E+04  0.25500000920E-02 0. -1.
        2   -1    0    0  501    0  0.00000000000E+00  0.00000000000E+00 -0.17525245507E+04  0.17525245507E+04  0.25500000920E-02 0.  1.
    10030    2    1    2    0    0  0.00000000000E+00  0.00000000000E+00  0.19482042627E+03  0.36998695277E+04  0.36947367326E+04 0.  0.
        3    1    3    3  502    0  0.59515228192E+03 -0.14151268959E+04  0.11264464176E+04  0.19041197211E+04  0.10100000352E+00 0. -1.
       -3    1    3    3    0  502 -0.59515228192E+03  0.14151268959E+04 -0.93162599129E+03  0.17957498067E+04  0.10100000352E+00 0.  1.
</event>
<event>
 5   0  0.2073287E-06  0.2903617E+04  0.7818609E-02  0.8271802E-01
       -2   -1    0    0    0  501  0.00000000000E+00  0.00000000000E+00  0.13161636390E+04  0.13161636390E+04  0.25500000920E-02 0. -1.
        2   -1    0    0  501    0  0.00000000000E+00  0.00000000000E+00 -0.16014325777E+04  0.16014325777E+04  0.25500000920E-02 0.  1.
    10030    2    1    2    0    0  0.00000000000E+00  0.00000000000E+00 -0.28526893878E+03  0.29175962167E+04  0.29036165925E+04 0.  0.
        1    1    3    3  502    0 -0.93179852069E+03  0.10827868181E+04 -0.40286311253E+03  0.14842420503E+04  0.50400001928E-02 0.  1.
       -1    1    3    3    0  502  0.93179852069E+03 -0.10827868181E+04  0.11759417375E+03  0.14333541664E+04  0.50400001928E-02 0. -1.
</event>
<event>
 5   0  0.6890600E-07  0.3502903E+04  0.7818609E-02  0.8113102E-01
        1   -1    0    0  501    0  0.00000000000E+00  0.00000000000E+00  0.25404352727E+04  0.25404352727E+04  0.50400001928E-02 0. -1.
       -1   -1    0    0    0  501  0.00000000000E+00  0.00000000000E+00 -0.12075028899E+04  0.12075028899E+04  0.50400001928E-02 0.  1.
    10030    2    1    2    0    0  0.00000000000E+00  0.00000000000E+00  0.13329323828E+04  0.37479381626E+04  0.35029033291E+04 0.  0.
        3    1    3    3  502    0  0.16522608798E+03 -0.31925172937E+03 -0.11676079354E+04  0.12216912981E+04  0.10100000352E+00 0.  1.
       -3    1    3    3    0  502 -0.16522608798E+03  0.31925172937E+03  0.25005403182E+04  0.25262468644E+04  0.10100000352E+00 0. -1.
</event>
<event>
 5   0  0.6890600E-07  0.3464341E+04  0.7818609E-02  0.8122293E-01
        1   -1    0    0  501    0  0.00000000000E+00  0.00000000000E+00  0.28447720076E+04  0.28447720076E+04  0.50400001928E-02 0. -1.
       -1   -1    0    0    0  501  0.00000000000E+00  0.00000000000E+00 -0.10547119438E+04  0.10547119438E+04  0.50400001928E-02 0.  1.
    10030    2    1    2    0    0  0.00000000000E+00  0.00000000000E+00  0.17900600638E+04  0.38994839514E+04  0.34643412152E+04 0.  0.
        3    1    3    3  502    0  0.20500926913E+03 -0.16822905432E+04  0.49187325777E+03  0.17646726564E+04  0.10100000352E+00 0.  1.
       -3    1    3    3    0  502 -0.20500926913E+03  0.16822905432E+04  0.12981868060E+04  0.21348112951E+04  0.10100000352E+00 0. -1.
</event>
<event>
 5   0  0.2020725E-06  0.3632517E+04  0.7818609E-02  0.8083084E-01
        2   -1    0    0  501    0  0.00000000000E+00  0.00000000000E+00  0.26502398736E+04  0.26502398736E+04  0.25500000920E-02 0.  1.
       -2   -1    0    0    0  501  0.00000000000E+00  0.00000000000E+00 -0.12447156131E+04  0.12447156131E+04  0.25500000920E-02 0. -1.
    10030    2    1    2    0    0  0.00000000000E+00  0.00000000000E+00  0.14055242606E+04  0.38949554867E+04  0.36325170056E+04 0.  0.
        3    1    3    3  502    0  0.64703568746E+02 -0.12872977807E+04  0.20748498942E+04  0.24426060308E+04  0.10100000352E+00 0.  1.
       -3    1    3    3    0  502 -0.64703568746E+02  0.12872977807E+04 -0.66932563363E+03  0.14523494559E+04  0.10100000352E+00 0. -1.
</event>
<event>
 5   0  0.6630125E-07  0.3545060E+04  0.7818609E-02  0.8103193E-01
        1   -1    0    0  501    0  0.00000000000E+00  0.00000000000E+00  0.26164100894E+04  0.26164100894E+04  0.50400001928E-02 0. -1.
       -1   -1    0    0    0  501  0.00000000000E+00  0.00000000000E+00 -0.12008298047E+04  0.12008298047E+04  0.50400001928E-02 0.  1.
    10030    2    1    2    0    0  0.00000000000E+00  0.00000000000E+00  0.14155802847E+04  0.38172398942E+04  0.35450603475E+04 0.  0.
        4    1    3    3  502    0 -0.59453595953E+03  0.16274882224E+04  0.11102091164E+04  0.20578524768E+04  0.12699999809E+01 0.  1.
       -4    1    3    3    0  502  0.59453595953E+03 -0.16274882224E+04  0.30537116832E+03  0.17593874174E+04  0.12699999809E+01 0. -1.
</event>
<event>
 5   0  0.2073287E-06  0.2143899E+04  0.7818609E-02  0.8542148E-01
       -2   -1    0    0    0  501  0.00000000000E+00  0.00000000000E+00  0.71190926727E+03  0.71190926728E+03  0.25500000920E-02 0.  1.
        2   -1    0    0  501    0  0.00000000000E+00  0.00000000000E+00 -0.16140756836E+04  0.16140756836E+04  0.25500000920E-02 0. -1.
    10030    2    1    2    0    0  0.00000000000E+00  0.00000000000E+00 -0.90216641636E+03  0.23259849509E+04  0.21438987264E+04 0.  0.
        1    1    3    3  502    0 -0.32745128842E+03 -0.39097740839E+03  0.57185764708E+03  0.76623028438E+03  0.50400001928E-02 0.  1.
       -1    1    3    3    0  502  0.32745128842E+03  0.39097740839E+03 -0.14740240634E+04  0.15597546665E+04  0.50400001928E-02 0. -1.
</event>
<event>
 5   0  0.2020725E-06  0.3345257E+04  0.7818609E-02  0.8151474E-01
       -2   -1    0    0    0  501  0.00000000000E+00  0.00000000000E+00  0.15811476446E+04  0.15811476446E+04  0.25500000920E-02 0. -1.
        2   -1    0    0  501    0  0.00000000000E+00  0.00000000000E+00 -0.17694022634E+04  0.17694022634E+04  0.25500000920E-02 0.  1.
    10030    2    1    2    0    0  0.00000000000E+00  0.00000000000E+00 -0.18825461889E+03  0.33505499080E+04  0.33452570730E+04 0.  0.
        3    1    3    3  502    0 -0.17962832461E+03 -0.44273625266E+03  0.15113450494E+04  0.15850695861E+04  0.10100000352E+00 0. -1.
       -3    1    3    3    0  502  0.17962832461E+03  0.44273625266E+03 -0.16995996683E+04  0.17654803219E+04  0.10100000352E+00 0.  1.
</event>
<event>
 5   0  0.6630125E-07  0.3533945E+04  0.7818609E-02  0.8105792E-01
        1   -1    0    0  501    0  0.00000000000E+00  0.00000000000E+00  0.25848203237E+04  0.25848203237E+04  0.50400001928E-02 0. -1.
       -1   -1    0    0    0  501  0.00000000000E+00  0.00000000000E+00 -0.12078948151E+04  0.12078948151E+04  0.50400001928E-02 0.  1.
    10030    2    1    2    0    0  0.00000000000E+00  0.00000000000E+00  0.13769255086E+04  0.37927151388E+04  0.35339445762E+04 0.  0.
        1    1    3    3  502    0 -0.28450290767E+02 -0.12669589600E+04  0.20099660673E+04  0.23761224752E+04  0.50400001928E-02 0. -1.
       -1    1    3    3    0  502  0.28450290767E+02  0.12669589600E+04 -0.63304055875E+03  0.14165926636E+04  0.50400001928E-02 0.  1.
</event>
<event>
 5   0  0.2020725E-06  0.3519895E+04  0.7818609E-02  0.8109091E-01
        2   -1    0    0  501    0  0.00000000000E+00  0.00000000000E+00  0.22244469441E+04  0.22244469441E+04  0.25500000920E-02 0. -1.
       -2   -1    0    0    0  501  0.00000000000E+00  0.00000000000E+00 -0.13924427217E+04  0.13924427217E+04  0.25500000920E-02 0.  1.
    10030    2    1    2    0    0  0.00000000000E+00  0.00000000000E+00  0.83200422236E+03  0.36168896658E+04  0.35198948604E+04 0.  0.
        3    1    3    3  502    0  0.32692248597E+03  0.12690585838E+04 -0.79111485104E+03  0.15307680160E+04  0.10100000352E+00 0.  1.
       -3    1    3    3    0  502 -0.32692248597E+03 -0.12690585838E+04  0.16231190734E+04  0.20861216498E+04  0.10100000352E+00 0. -1.
</event>
<event>
 5   0  0.2073287E-06  0.3585720E+04  0.7818609E-02  0.8093770E-01
       -2   -1    0    0    0  501  0.00000000000E+00  0.00000000000E+00  0.21085929376E+04  0.21085929376E+04  0.25500000920E-02 0. -1.
        2   -1    0    0  501    0  0.00000000000E+00  0.00000000000E+00 -0.15244041296E+04  0.15244041296E+04  0.25500000920E-02 0.  1.
    10030    2    1    2    0    0  0.00000000000E+00  0.00000000000E+00  0.58418880800E+03  0.36329970672E+04  0.35857204474E+04 0.  0.
        1    1    3    3  502    0  0.15502170955E+04 -0.47578298100E+03 -0.48271390079E+03  0.16919087441E+04  0.50400001928E-02 0.  1.
       -1    1    3    3    0  502 -0.15502170955E+04  0.47578298100E+03  0.10669027088E+04  0.19410883231E+04  0.50400001928E-02 0. -1.
</event>
<event>
 5   0  0.7378896E-07  0.2670238E+04  0.7818609E-02  0.8344727E-01
        1   -1    0    0  501    0  0.00000000000E+00  0.00000000000E+00  0.15068593376E+04  0.15068593376E+04  0.50400001928E-02 0. -1.
       -1   -1    0    0    0  501  0.00000000000E+00  0.00000000000E+00 -0.11829524224E+04  0.11829524224E+04  0.50400001928E-02 0.  1.
    10030    2    1    2    0    0  0.00000000000E+00  0.00000000000E+00  0.32390691528E+03  0.26898117600E+04  0.26702381195E+04 0.  0.
        2    1    3    3  502    0  0.30456465061E+03 -0.89397569025E+03 -0.78867538030E+03  0.12304312320E+04  0.25500000920E-02 0.  1.
       -2    1    3    3    0  502 -0.30456465061E+03  0.89397569025E+03  0.11125822956E+04  0.14593805280E+04  0.25500000920E-02 0. -1.
</event>
<event>
 5   0  0.1999883E-06  0.2780633E+04  0.7818609E-02  0.8309306E-01
       -2   -1    0    0    0  501  0.00000000000E+00  0.00000000000E+00  0.16719639132E+04  0.16719639132E+04  0.25500000920E-02 0. -1.
        2   -1    0    0  501    0  0.00000000000E+00  0.00000000000E+00 -0.11561135932E+04  0.11561135932E+04  0.25500000920E-02 0.  1.
    10030    2    1    2    0    0  0.00000000000E+00  0.00000000000E+00  0.51585031997E+03  0.28280775063E+04  0.27806331706E+04 0.  0.
        4    1    3    3  502    0  0.74514671694E+03  0.33888391885E+03 -0.88503430100E+03  0.12055593171E+04  0.12699999809E+01 0.  1.
       -4    1    3    3    0  502 -0.74514671694E+03 -0.33888391885E+03  0.14008846210E+04  0.16225181892E+04  0.12699999809E+01 0. -1.
</event>
<event>
 5   0  0.2001768E-06  0.3159185E+04  0.7818609E-02  0.8199680E-01
        2   -1    0    0  501    0  0.00000000000E+00  0.00000000000E+00  0.15410989820E+04  0.15410989820E+04  0.25500000920E-02 0. -1.
       -2   -1    0    0    0  501  0.00000000000E+00  0.00000000000E+00 -0.16190476345E+04  0.16190476345E+04  0.25500000920E-02 0.  1.
    10030    2    1    2    0    0  0.00000000000E+00  0.00000000000E+00 -0.77948652500E+02  0.31601466166E+04  0.31591851237E+04 0.  0.
        2    1    3    3  502    0 -0.10109588949E+04 -0.20742402494E+03  0.11572366282E+04  0.15505673887E+04  0.25500000920E-02 0. -1.
       -2    1    3    3    0  502  0.10109588949E+04  0.20742402494E+03 -0.12351852807E+04  0.16095792279E+04  0.25500000920E-02 0.  1.
</event>
<event>
 5   0  0.6890600E-07  0.3522686E+04  0.7818609E-02  0.8108435E-01
       -1   -1    0    0    0  501  0.00000000000E+00  0.00000000000E+00  0.28425883423E+04  0.28425883423E+04  0.50400001928E-02 0.  1.
        1   -1    0    0  501    0  0.00000000000E+00  0.00000000000E+00 -0.10913748487E+04  0.10913748487E+04  0.50400001928E-02 0. -1.
    10030    2    1    2    0    0  0.00000000000E+00  0.00000000000E+00  0.17512134936E+04  0.39339631910E+04  0.35226861467E+04 0.  0.
        3    1    3    3  502    0  0.11302593740E+04  0.34774954832E+03  0.23333468483E+04  0.26158982253E+04  0.10100000352E+00 0.  1.
       -3    1    3    3    0  502 -0.11302593740E+04 -0.34774954832E+03 -0.58213335467E+03  0.13180649656E+04  0.10100000352E+00 0. -1.
</event>
<event>
 5   0  0.6630125E-07  0.3451161E+04  0.7818609E-02  0.8125463E-01
        1   -1    0    0  501    0  0.00000000000E+00  0.00000000000E+00  0.15113178958E+04  0.15113178958E+04  0.50400001928E-02 0. -1.
       -1   -1    0    0    0  501  0.00000000000E+00  0.00000000000E+00 -0.19702198699E+04  0.19702198700E+04  0.50400001928E-02 0.  1.
    10030    2    1    2    0    0  0.00000000000E+00  0.00000000000E+00 -0.45890197414E+03  0.34815377658E+04  0.34511612817E+04 0.  0.
        4    1    3    3  502    0 -0.13244284663E+04  0.11048811415E+04 -0.28238988446E+03  0.17477467663E+04  0.12699999809E+01 0.  1.
       -4    1    3    3    0  502  0.13244284663E+04 -0.11048811415E+04 -0.17651208969E+03  0.17337909995E+04  0.12699999809E+01 0. -1.
</event>
<event>
 5   0  0.6630125E-07  0.3506324E+04  0.7818609E-02  0.8112293E-01
       -1   -1    0    0    0  501  0.00000000000E+00  0.00000000000E+00  0.24914117492E+04  0.24914117492E+04  0.50400001928E-02 0.  1.
        1   -1    0    0  501    0  0.00000000000E+00  0.00000000000E+00 -0.12336684713E+04  0.12336684713E+04  0.50400001928E-02 0. -1.
    10030    2    1    2    0    0  0.00000000000E+00  0.00000000000E+00  0.12577432780E+04  0.37250802205E+04  0.35063235013E+04 0.  0.
        5    1    3    3  502    0 -0.10156282934E+04  0.14262847627E+04  0.72248844067E+03  0.18941490679E+04  0.46999998093E+01 0.  1.
       -5    1    3    3    0  502  0.10156282934E+04 -0.14262847627E+04  0.53525483729E+03  0.18309311526E+04  0.46999998093E+01 0. -1.
</event>
<event>
 5   0  0.6630125E-07  0.2397352E+04  0.7818609E-02  0.8440496E-01
        1   -1    0    0  501    0  0.00000000000E+00  0.00000000000E+00  0.14418020924E+04  0.14418020924E+04  0.50400001928E-02 0.  1.
       -1   -1    0    0    0  501  0.00000000000E+00  0.00000000000E+00 -0.99654722377E+03  0.99654722378E+03  0.50400001928E-02 0. -1.
    10030    2    1    2    0    0  0.00000000000E+00  0.00000000000E+00  0.44525486864E+03  0.24383493162E+04  0.23973517660E+04 0.  0.
        4    1    3    3  502    0 -0.59781464179E+03 -0.10209332235E+04  0.26626819741E+02  0.11833839585E+04  0.12699999809E+01 0. -1.
       -4    1    3    3    0  502  0.59781464179E+03  0.10209332235E+04  0.41862804890E+03  0.12549653577E+04  0.12699999809E+01 0.  1.
</event>
<event>
 5   0  0.6630125E-07  0.3318775E+04  0.7818609E-02  0.8158134E-01
        1   -1    0    0  501    0  0.00000000000E+00  0.00000000000E+00  0.25510404671E+04  0.25510404671E+04  0.50400001928E-02 0. -1.
       -1   -1    0    0    0  501  0.00000000000E+00  0.00000000000E+00 -0.10793897521E+04  0.10793897521E+04  0.50400001928E-02 0.  1.
    10030    2    1    2    0    0  0.00000000000E+00  0.00000000000E+00  0.14716507150E+04  0.36304302191E+04  0.33187750374E+04 0.  0.
        1    1    3    3  502    0 -0.12720825586E+04 -0.97836331780E+03  0.27407476171E+03  0.16280374052E+04  0.50400001928E-02 0.  1.
       -1    1    3    3    0  502  0.12720825586E+04  0.97836331780E+03  0.11975759533E+04  0.20023928140E+04  0.50400001928E-02 0. -1.
</event>
<event>
 5   0  0.2023479E-06  0.3111244E+04  0.7818609E-02  0.8212659E-01
        2   -1    0    0  501    0  0.00000000000E+00  0.00000000000E+00  0.23768199010E+04  0.23768199010E+04  0.25500000920E-02 0.  1.
       -2   -1    0    0    0  501  0.00000000000E+00  0.00000000000E+00 -0.10181503183E+04  0.10181503183E+04  0.25500000920E-02 0. -1.
    10030    2    1    2    0    0  0.00000000000E+00  0.00000000000E+00  0.13586695827E+04  0.33949702194E+04  0.31112440848E+04 0.  0.
        5    1    3    3  502    0 -0.11967640936E+03  0.15473444616E+04  0.56313150004E+03  0.16509804669E+04  0.46999998093E+01 0.  1.
       -5    1    3    3    0  502  0.11967640936E+03 -0.15473444616E+04  0.79553808264E+03  0.17439897525E+04  0.46999998093E+01 0. -1.
</event>
<event>
 5   0  0.6630125E-07  0.3481636E+04  0.7818609E-02  0.8118156E-01
        1   -1    0    0  501    0  0.00000000000E+00  0.00000000000E+00  0.16101178901E+04  0.16101178901E+04  0.50400001928E-02 0. -1.
       -1   -1    0    0    0  501  0.00000000000E+00  0.00000000000E+00 -0.18821281076E+04  0.18821281076E+04  0.50400001928E-02 0.  1.
    10030    2    1    2    0    0  0.00000000000E+00  0.00000000000E+00 -0.27201021742E+03  0.34922459977E+04  0.34816364759E+04 0.  0.
        4    1    3    3  502    0  0.14364849551E+04 -0.55970032412E+03  0.67497151706E+03  0.16829562207E+04  0.12699999809E+01 0. -1.
       -4    1    3    3    0  502 -0.14364849551E+04  0.55970032412E+03 -0.94698173447E+03  0.18092897770E+04  0.12699999809E+01 0.  1.
</event>
<event>
 5   0  0.2023479E-06  0.2145550E+04  0.7818609E-02  0.8541440E-01
       -2   -1    0    0    0  501  0.00000000000E+00  0.00000000000E+00  0.12682507396E+04  0.12682507396E+04  0.25500000920E-02 0. -1.
        2   -1    0    0  501    0  0.00000000000E+00  0.00000000000E+00 -0.90742778092E+03  0.90742778093E+03  0.25500000920E-02 0.  1.
    10030    2    1    2    0    0  0.00000000000E+00  0.00000000000E+00  0.36082295863E+03  0.21756785205E+04  0.21455497703E+04 0.  0.
        5    1    3    3  502    0 -0.20417539087E+03  0.80432573629E+03  0.86980850053E+03  0.12021715343E+04  0.46999998093E+01 0.  1.
       -5    1    3    3    0  502  0.20417539087E+03 -0.80432573629E+03 -0.50898554190E+03  0.97350698618E+03  0.46999998093E+01 0. -1.
</event>
<event>
 5   0  0.2020725E-06  0.3299383E+04  0.7818609E-02  0.8163052E-01
        2   -1    0    0  501    0  0.00000000000E+00  0.00000000000E+00  0.22517927694E+04  0.22517927694E+04  0.25500000920E-02 0.  1.
       -2   -1    0    0    0  501  0.00000000000E+00  0.00000000000E+00 -0.12085846682E+04  0.12085846682E+04  0.25500000920E-02 0. -1.
    10030    2    1    2    0    0  0.00000000000E+00  0.00000000000E+00  0.10432081012E+04  0.34603774375E+04  0.32993831041E+04 0.  0.
        3    1    3    3  502    0 -0.12949875461E+04  0.61004409428E+03 -0.33836693812E+03  0.14709312480E+04  0.10100000352E+00 0. -1.
       -3    1    3    3    0  502  0.12949875461E+04 -0.61004409428E+03  0.13815750393E+04  0.19894461895E+04  0.10100000352E+00 0.  1.
</event>
<event>
 5   0  0.2020725E-06  0.3384969E+04  0.7818609E-02  0.8141605E-01
        2   -1    0    0  501    0  0.00000000000E+00  0.00000000000E+00  0.20570761655E+04  0.20570761655E+04  0.25500000920E-02 0.  1.
       -2   -1    0    0    0  501  0.00000000000E+00  0.00000000000E+00 -0.13925125832E+04  0.13925125832E+04  0.25500000920E-02 0. -1.
    10030    2    1    2    0    0  0.00000000000E+00  0.00000000000E+00  0.66456358229E+03  0.34495887487E+04  0.33849693913E+04 0.  0.
        3    1    3    3  502    0  0.79893645953E+03  0.14036440511E+04 -0.18332980259E+03  0.16254617545E+04  0.10100000352E+00 0. -1.
       -3    1    3    3    0  502 -0.79893645953E+03 -0.14036440511E+04  0.84789338487E+03  0.18241269942E+04  0.10100000352E+00 0.  1.
</event>
<event>
 5   0  0.6630125E-07  0.3585135E+04  0.7818609E-02  0.8093905E-01
       -1   -1    0    0    0  501  0.00000000000E+00  0.00000000000E+00  0.13395200910E+04  0.13395200910E+04  0.50400001928E-02 0.  1.
        1   -1    0    0  501    0  0.00000000000E+00  0.00000000000E+00 -0.23988422206E+04  0.23988422206E+04  0.50400001928E-02 0. -1.
    10030    2    1    2    0    0  0.00000000000E+00  0.00000000000E+00 -0.10593221296E+04  0.37383623116E+04  0.35851345022E+04 0.  0.
        5    1    3    3  502    0  0.15271440419E+04  0.93469955106E+03 -0.43970045249E+03  0.18436894406E+04  0.46999998093E+01 0.  1.
       -5    1    3    3    0  502 -0.15271440419E+04 -0.93469955106E+03 -0.61962167712E+03  0.18946728710E+04  0.46999998093E+01 0. -1.
</event>
<event>
 5   0  0.2023479E-06  0.3355062E+04  0.7818609E-02  0.8149025E-01
       -2   -1    0    0    0  501  0.00000000000E+00  0.00000000000E+00  0.20363008177E+04  0.20363008177E+04  0.25500000920E-02 0. -1.
        2   -1    0    0  501    0  0.00000000000E+00  0.00000000000E+00 -0.13819714957E+04  0.13819714957E+04  0.25500000920E-02 0.  1.
    10030    2    1    2    0    0  0.00000000000E+00  0.00000000000E+00  0.65432932197E+03  0.34182723134E+04  0.33550616607E+04 0.  0.
        5    1    3    3  502    0 -0.84209534324E+03  0.12824191945E+04  0.10184492053E+04  0.18414625794E+04  0.46999998093E+01 0. -1.
       -5    1    3    3    0  502  0.84209534324E+03 -0.12824191945E+04 -0.36411988338E+03  0.15768097339E+04  0.46999998093E+01 0.  1.
</event>
<event>
 5   0  0.2020725E-06  0.3448506E+04  0.7818609E-02  0.8126103E-01
       -2   -1    0    0    0  501  0.00000000000E+00  0.00000000000E+00  0.12186309145E+04  0.12186309145E+04  0.25500000920E-02 0.  1.
        2   -1    0    0  501    0  0.00000000000E+00  0.00000000000E+00 -0.24396632225E+04  0.24396632226E+04  0.25500000920E-02 0. -1.
    10030    2    1    2    0    0  0.00000000000E+00  0.00000000000E+00 -0.12210323080E+04  0.36582941371E+04  0.34485063573E+04 0.  0.
        3    1    3    3  502    0 -0.12496169407E+04  0.38428114146E+03  0.58207805658E+03  0.14310937664E+04  0.10100000352E+00 0.  1.
       -3    1    3    3    0  502  0.12496169407E+04 -0.38428114146E+03 -0.18031103646E+04  0.22272003707E+04  0.10100000352E+00 0. -1.
</event>
<event>
 5   0  0.6890600E-07  0.3422078E+04  0.7818609E-02  0.8132509E-01
        1   -1    0    0  501    0  0.00000000000E+00  0.00000000000E+00  0.27188219961E+04  0.27188219961E+04  0.50400001928E-02 0. -1.
       -1   -1    0    0    0  501  0.00000000000E+00  0.00000000000E+00 -0.10768099028E+04  0.10768099028E+04  0.50400001928E-02 0.  1.
    10030    2    1    2    0    0  0.00000000000E+00  0.00000000000E+00  0.16420120934E+04  0.37956318989E+04  0.34220779941E+04 0.  0.
        3    1    3    3  502    0  0.54610201454E+03 -0.13436086315E+04 -0.18591504581E+03  0.14622161192E+04  0.10100000352E+00 0.  1.
       -3    1    3    3    0  502 -0.54610201454E+03  0.13436086315E+04  0.18279271392E+04  0.23334157797E+04  0.10100000352E+00 0. -1.
</event>
<event>
 5   0  0.6890600E-07  0.3367017E+04  0.7818609E-02  0.8146049E-01
       -1   -1    0    0    0  501  0.00000000000E+00  0.00000000000E+00  0.26270249943E+04  0.26270249943E+04  0.50400001928E-02 0. -1.
        1   -1    0    0  501    0  0.00000000000E+00  0.00000000000E+00 -0.10788633264E+04  0.10788633264E+04  0.50400001928E-02 0.  1.
    10030    2    1    2    0    0  0.00000000000E+00  0.00000000000E+00  0.15481616680E+04  0.37058883207E+04  0.33670170322E+04 0.  0.
        3    1    3    3  502    0  0.12251103568E+04 -0.57804084080E+03  0.18742707109E+04  0.23125564442E+04  0.10100000352E+00 0. -1.
       -3    1    3    3    0  502 -0.12251103568E+04  0.57804084080E+03 -0.32610904294E+03  0.13933318765E+04  0.10100000352E+00 0.  1.
</event>
<event>
 5   0  0.6630125E-07  0.2331920E+04  0.7818609E-02  0.8465441E-01
       -1   -1    0    0    0  501  0.00000000000E+00  0.00000000000E+00  0.15492559933E+04  0.15492559934E+04  0.50400001928E-02 0. -1.
        1   -1    0    0  501    0  0.00000000000E+00  0.00000000000E+00 -0.87749386481E+03  0.87749386482E+03  0.50400001928E-02 0.  1.
    10030    2    1    2    0    0  0.00000000000E+00  0.00000000000E+00  0.67176212854E+03  0.24267498582E+04  0.23319199208E+04 0.  0.
        4    1    3    3  502    0 -0.87528518486E+03 -0.65284058630E+03  0.76132900113E+03  0.13311455393E+04  0.12699999809E+01 0. -1.
       -4    1    3    3    0  502  0.87528518486E+03  0.65284058630E+03 -0.89566872590E+02  0.10956043189E+04  0.12699999809E+01 0.  1.
</event>
<event>
 5   0  0.2073287E-06  0.3498009E+04  0.7818609E-02  0.8114262E-01
       -2   -1    0    0    0  501  0.00000000000E+00  0.00000000000E+00  0.22551988189E+04  0.22551988189E+04  0.25500000920E-02 0.  1.
        2   -1    0    0  501    0  0.00000000000E+00  0.00000000000E+00 -0.13564285195E+04  0.13564285195E+04  0.25500000920E-02 0. -1.
    10030    2    1    2    0    0  0.00000000000E+00  0.00000000000E+00  0.89877029942E+03  0.36116273384E+04  0.34980085735E+04 0.  0.
        1    1    3    3  502    0 -0.45489665177E+03  0.15414442558E+04  0.11617481254E+04  0.19830885165E+04  0.50400001928E-02 0.  1.
       -1    1    3    3    0  502  0.45489665177E+03 -0.15414442558E+04 -0.26297782596E+03  0.16285388219E+04  0.50400001928E-02 0. -1.
</event>
<event>
 5   0  0.2023479E-06  0.3394759E+04  0.7818609E-02  0.8139194E-01
       -2   -1    0    0    0  501  0.00000000000E+00  0.00000000000E+00  0.16860473648E+04  0.16860473648E+04  0.25500000920E-02 0.  1.
        2   -1    0    0  501    0  0.00000000000E+00  0.00000000000E+00 -0.17087881262E+04  0.17087881262E+04  0.25500000920E-02 0. -1.
    10030    2    1    2    0    0  0.00000000000E+00  0.00000000000E+00 -0.22740761435E+02  0.33948354910E+04  0.33947593241E+04 0.  0.
        5    1    3    3  502    0  0.33108170999E+03  0.13045757843E+04  0.10228397264E+04  0.16904899502E+04  0.46999998093E+01 0.  1.
       -5    1    3    3    0  502 -0.33108170999E+03 -0.13045757843E+04 -0.10455804879E+04  0.17043455408E+04  0.46999998093E+01 0. -1.
</event>
<event>
 5   0  0.2001768E-06  0.2479254E+04  0.7818609E-02  0.8410414E-01
       -2   -1    0    0    0  501  0.00000000000E+00  0.00000000000E+00  0.77362962987E+03  0.77362962987E+03  0.25500000920E-02 0.  1.
        2   -1    0    0  501    0  0.00000000000E+00  0.00000000000E+00 -0.19863194213E+04  0.19863194213E+04  0.25500000920E-02 0. -1.
    10030    2    1    2    0    0  0.00000000000E+00  0.00000000000E+00 -0.12126897914E+04  0.27599490511E+04  0.24792543707E+04 0.  0.
        2    1    3    3  502    0  0.64940618304E+03  0.95762361188E+03 -0.11015754913E+04  0.15975731393E+04  0.25500000920E-02 0. -1.
       -2    1    3    3    0  502 -0.64940618304E+03 -0.95762361188E+03 -0.11111430012E+03  0.11623759118E+04  0.25500000920E-02 0.  1.
</event>
<event>
 5   0  0.2020725E-06  0.3481465E+04  0.7818609E-02  0.8118197E-01
        2   -1    0    0  501    0  0.00000000000E+00  0.00000000000E+00  0.24245377212E+04  0.24245377212E+04  0.25500000920E-02 0.  1.
       -2   -1    0    0    0  501  0.00000000000E+00  0.00000000000E+00 -0.12497847169E+04  0.12497847169E+04  0.25500000920E-02 0. -1.
    10030    2    1    2    0    0  0.00000000000E+00  0.00000000000E+00  0.11747530043E+04  0.36743224381E+04  0.34814653176E+04 0.  0.
        3    1    3    3  502    0  0.10964649248E+04 -0.20845355861E+03 -0.82246028737E+03  0.13864087247E+04  0.10100000352E+00 0. -1.
       -3    1    3    3    0  502 -0.10964649248E+04  0.20845355861E+03  0.19972132917E+04  0.22879137134E+04  0.10100000352E+00 0.  1.
</event>
<event>
 5   0  0.7378896E-07  0.3504637E+04  0.7818609E-02  0.8112692E-01
        1   -1    0    0  501    0  0.00000000000E+00  0.00000000000E+00  0.18730479966E+04  0.18730479966E+04  0.50400001928E-02 0.  1.
       -1   -1    0    0    0  501  0.00000000000E+00  0.00000000000E+00 -0.16393707406E+04  0.16393707406E+04  0.50400001928E-02 0. -1.
    10030    2    1    2    0    0  0.00000000000E+00  0.00000000000E+00  0.23367725599E+03  0.35124187372E+04  0.35046369748E+04 0.  0.
        2    1    3    3  502    0 -0.10871190364E+04 -0.12374064618E+04 -0.48250052055E+03  0.17163360112E+04  0.25500000920E-02 0. -1.
       -2    1    3    3    0  502  0.10871190364E+04  0.12374064618E+04  0.71617777654E+03  0.17960827260E+04  0.25500000920E-02 0.  1.
</event>
<event>
 5   0  0.6630125E-07  0.3501728E+04  0.7818609E-02  0.8113381E-01
        1   -1    0    0  501    0  0.00000000000E+00  0.00000000000E+00  0.21854336036E+04  0.21854336036E+04  0.50400001928E-02 0.  1.
       -1   -1    0    0    0  501  0.00000000000E+00  0.00000000000E+00 -0.14027075195E+04  0.14027075195E+04  0.50400001928E-02 0. -1.
    10030    2    1    2    0    0  0.00000000000E+00  0.00000000000E+00  0.78272608409E+03  0.35881411232E+04  0.35017276589E+04 0.  0.
        1    1    3    3  502    0 -0.87161794999E+03  0.49887935085E+03 -0.10782278460E+04  0.14734903275E+04  0.50400001928E-02 0. -1.
       -1    1    3    3    0  502  0.87161794999E+03 -0.49887935085E+03  0.18609539301E+04  0.21146507956E+04  0.50400001928E-02 0.  1.
</event>
<event>
 5   0  0.2020725E-06  0.3524263E+04  0.7818609E-02  0.8108064E-01
        2   -1    0    0  501    0  0.00000000000E+00  0.00000000000E+00  0.23619492399E+04  0.23619492399E+04  0.25500000920E-02 0.  1.
       -2   -1    0    0    0  501  0.00000000000E+00  0.00000000000E+00 -0.13146373406E+04  0.13146373406E+04  0.25500000920E-02 0. -1.
    10030    2    1    2    0    0  0.00000000000E+00  0.00000000000E+00  0.10473118992E+04  0.36765865805E+04  0.35242625710E+04 0.  0.
        3    1    3    3  502    0 -0.16899283223E+04 -0.26942738909E+03  0.96212904940E+03  0.19631966714E+04  0.10100000352E+00 0. -1.
       -3    1    3    3    0  502  0.16899283223E+04  0.26942738909E+03  0.85182849845E+02  0.17133899091E+04  0.10100000352E+00 0.  1.
</event>
<event>
 5   0  0.2023479E-06  0.3369897E+04  0.7818609E-02  0.8145334E-01
       -2   -1    0    0    0  501  0.00000000000E+00  0.00000000000E+00  0.12836353501E+04  0.12836353501E+04  0.25500000920E-02 0.  1.
        2   -1    0    0  501    0  0.00000000000E+00  0.00000000000E+00 -0.22117269899E+04  0.22117269899E+04  0.25500000920E-02 0. -1.
    10030    2    1    2    0    0  0.00000000000E+00  0.00000000000E+00 -0.92809163982E+03  0.34953623400E+04  0.33698967041E+04 0.  0.
        5    1    3    3  502    0  0.10722525741E+04  0.84017357376E+03 -0.14926381619E+04  0.20207939007E+04  0.46999998093E+01 0. -1.
       -5    1    3    3    0  502 -0.10722525741E+04 -0.84017357376E+03  0.56454652211E+03  0.14745684393E+04  0.46999998093E+01 0.  1.
</event>
<event>
 5   0  0.6890600E-07  0.3503285E+04  0.7818609E-02  0.8113012E-01
        1   -1    0    0  501    0  0.00000000000E+00  0.00000000000E+00  0.17954775212E+04  0.17954775212E+04  0.50400001928E-02 0. -1.
       -1   -1    0    0    0  501  0.00000000000E+00  0.00000000000E+00 -0.17088780025E+04  0.17088780025E+04  0.50400001928E-02 0.  1.
    10030    2    1    2    0    0  0.00000000000E+00  0.00000000000E+00  0.86599518740E+02  0.35043555237E+04  0.35032853381E+04 0.  0.
        3    1    3    3  502    0  0.75150011395E+03  0.81733593453E+03  0.13985057015E+04  0.17856675666E+04  0.10100000352E+00 0. -1.
       -3    1    3    3    0  502 -0.75150011395E+03 -0.81733593453E+03 -0.13119061828E+04  0.17186879571E+04  0.10100000352E+00 0.  1.
</event>
<event>
 5   0  0.6630125E-07  0.3500268E+04  0.7818609E-02  0.8113727E-01
       -1   -1    0    0    0  501  0.00000000000E+00  0.00000000000E+00  0.17719318801E+04  0.17719318801E+04  0.50400001928E-02 0.  1.
        1   -1    0    0  501    0  0.00000000000E+00  0.00000000000E+00 -0.17286039813E+04  0.17286039813E+04  0.50400001928E-02 0. -1.
    10030    2    1    2    0    0  0.00000000000E+00  0.00000000000E+00  0.43327898873E+02  0.35005358614E+04  0.35002677055E+04 0.  0.
        4    1    3    3  502    0  0.10660667734E+03  0.14453333061E+04  0.10028678211E+04  0.17624127862E+04  0.12699999809E+01 0.  1.
       -4    1    3    3    0  502 -0.10660667734E+03 -0.14453333061E+04 -0.95953992220E+03  0.17381230752E+04  0.12699999809E+01 0. -1.
</event>
<event>
 5   0  0.7378896E-07  0.3441690E+04  0.7818609E-02  0.8127749E-01
       -1   -1    0    0    0  501  0.00000000000E+00  0.00000000000E+00  0.15567544318E+04  0.15567544318E+04  0.50400001928E-02 0.  1.
        1   -1    0    0  501    0  0.00000000000E+00  0.00000000000E+00 -0.19022315165E+04  0.19022315165E+04  0.50400001928E-02 0. -1.
    10030    2    1    2    0    0  0.00000000000E+00  0.00000000000E+00 -0.34547708462E+03  0.34589859483E+04  0.34416899010E+04 0.  0.
        2    1    3    3  502    0 -0.90628811576E+03  0.10437508438E+04  0.85736762330E+03  0.16266078858E+04  0.25500000920E-02 0.  1.
       -2    1    3    3    0  502  0.90628811576E+03 -0.10437508438E+04 -0.12028447079E+04  0.18323780625E+04  0.25500000920E-02 0. -1.
</event>
<event>
 5   0  0.1999883E-06  0.3470270E+04  0.7818609E-02  0.8120872E-01
       -2   -1    0    0    0  501  0.00000000000E+00  0.00000000000E+00  0.17677578692E+04  0.17677578692E+04  0.25500000920E-02 0.  1.
        2   -1    0    0  501    0  0.00000000000E+00  0.00000000000E+00 -0.17031143905E+04  0.17031143905E+04  0.25500000920E-02 0. -1.
    10030    2    1    2    0    0  0.00000000000E+00  0.00000000000E+00  0.64643478673E+02  0.34708722598E+04  0.34702702293E+04 0.  0.
        4    1    3    3  502    0 -0.32119142756E+03 -0.15414929342E+04 -0.69672710804E+03  0.17218579138E+04  0.12699999809E+01 0. -1.
       -4    1    3    3    0  502  0.32119142756E+03  0.15414929342E+04  0.76137058672E+03  0.17490143460E+04  0.12699999809E+01 0.  1.
</event>
<event>
 5   0  0.6630125E-07  0.3515188E+04  0.7818609E-02  0.8110200E-01
        1   -1    0    0  501    0  0.00000000000E+00  0.00000000000E+00  0.18130066664E+04  0.18130066664E+04  0.50400001928E-02 0. -1.
       -1   -1    0    0    0  501  0.00000000000E+00  0.00000000000E+00 -0.17038744920E+04  0.17038744920E+04  0.50400001928E-02 0.  1.
    10030    2    1    2    0    0  0.00000000000E+00  0.00000000000E+00  0.10913217436E+03  0.35168811584E+04  0.35151875129E+04 0.  0.
        5    1    3    3  502    0 -0.11403013585E+03  0.10926309307E+03  0.18058872526E+04  0.18127857442E+04  0.46999998093E+01 0. -1.
       -5    1    3    3    0  502  0.11403013585E+03 -0.10926309307E+03 -0.16967550782E+04  0.17040954142E+04  0.46999998093E+01 0.  1.
</event>
<event>
 5   0  0.2023479E-06  0.2313633E+04  0.7818609E-02  0.8472565E-01
       -2   -1    0    0    0  501  0.00000000000E+00  0.00000000000E+00  0.81989127398E+03  0.81989127399E+03  0.25500000920E-02 0.  1.
        2   -1    0    0  501    0  0.00000000000E+00  0.00000000000E+00 -0.16321979950E+04  0.16321979950E+04  0.25500000920E-02 0. -1.
    10030    2    1    2    0    0  0.00000000000E+00  0.00000000000E+00 -0.81230672102E+03  0.24520892690E+04  0.23136334139E+04 0.  0.
        5    1    3    3  502    0 -0.29711553343E+03 -0.11052571306E+04 -0.22775982716E+03  0.11669479825E+04  0.46999998093E+01 0. -1.
       -5    1    3    3    0  502  0.29711553343E+03  0.11052571306E+04 -0.58454689386E+03  0.12851412865E+04  0.46999998093E+01 0.  1.
</event>
<event>
 5   0  0.7378896E-07  0.3170444E+04  0.7818609E-02  0.8196667E-01
       -1   -1    0    0    0  501  0.00000000000E+00  0.00000000000E+00  0.18629032488E+04  0.18629032488E+04  0.50400001928E-02 0. -1.
        1   -1    0    0  501    0  0.00000000000E+00  0.00000000000E+00 -0.13489317604E+04  0.13489317605E+04  0.50400001928E-02 0.  1.
    10030    2    1    2    0    0  0.00000000000E+00  0.00000000000E+00  0.51397148833E+03  0.32118350092E+04  0.31704443594E+04 0.  0.
        2    1    3    3  502    0 -0.25537876616E+03 -0.14830320344E+04  0.76181566666E+03  0.16867025343E+04  0.25500000920E-02 0. -1.
       -2    1    3    3    0  502  0.25537876616E+03  0.14830320344E+04 -0.24784417832E+03  0.15251324749E+04  0.25500000920E-02 0.  1.
</event>
<event>
 5   0  0.2073287E-06  0.3538417E+04  0.7818609E-02  0.8104745E-01
       -2   -1    0    0    0  501  0.00000000000E+00  0.00000000000E+00  0.25321844073E+04  0.25321844073E+04  0.25500000920E-02 0.  1.
        2   -1    0    0  501    0  0.00000000000E+00  0.00000000000E+00 -0.12361262344E+04  0.12361262344E+04  0.25500000920E-02 0. -1.
    10030    2    1    2    0    0  0.00000000000E+00  0.00000000000E+00  0.12960581729E+04  0.37683106417E+04  0.35384174859E+04 0.  0.
        1    1    3    3  502    0 -0.10876787132E+04 -0.12988107678E+04  0.10484690082E+03  0.16973353429E+04  0.50400001928E-02 0. -1.
       -1    1    3    3    0  502  0.10876787132E+04  0.12988107678E+04  0.11912112721E+04  0.20709752988E+04  0.50400001928E-02 0.  1.
</event>
<event>
 5   0  0.6630125E-07  0.3219728E+04  0.7818609E-02  0.8183626E-01
       -1   -1    0    0    0  501  0.00000000000E+00  0.00000000000E+00  0.35116232734E+04  0.35116232734E+04  0.50400001928E-02 0.  1.
        1   -1    0    0  501    0  0.00000000000E+00  0.00000000000E+00 -0.73802406349E+03  0.73802406351E+03  0.50400001928E-02 0. -1.
    10030    2    1    2    0    0  0.00000000000E+00  0.00000000000E+00  0.27735992099E+04  0.42496473369E+04  0.32197282356E+04 0.  0.
        5    1    3    3  502    0 -0.16532236175E+01  0.59932988461E+02 -0.73654090044E+03  0.73899207321E+03  0.46999998093E+01 0. -1.
       -5    1    3    3    0  502  0.16532236175E+01 -0.59932988461E+02  0.35101401103E+04  0.35106552637E+04  0.46999998093E+01 0.  1.
</event>
<event>
 5   0  0.7378896E-07  0.3503974E+04  0.7818609E-02  0.8112849E-01
       -1   -1    0    0    0  501  0.00000000000E+00  0.00000000000E+00  0.15578177450E+04  0.15578177450E+04  0.50400001928E-02 0.  1.
        1   -1    0    0  501    0  0.00000000000E+00  0.00000000000E+00 -0.19703581611E+04  0.19703581611E+04  0.50400001928E-02 0. -1.
    10030    2    1    2    0    0  0.00000000000E+00  0.00000000000E+00 -0.41254041609E+03  0.35281759061E+04  0.35039742621E+04 0.  0.
        2    1    3    3  502    0 -0.15405568709E+04  0.16896073527E+03  0.61643849083E+03  0.16678907684E+04  0.25500000920E-02 0.  1.
       -2    1    3    3    0  502  0.15405568709E+04 -0.16896073527E+03 -0.10289789069E+04  0.18602851376E+04  0.25500000920E-02 0. -1.
</event>
<event>
 5   0  0.2001768E-06  0.3513321E+04  0.7818609E-02  0.8110640E-01
       -2   -1    0    0    0  501  0.00000000000E+00  0.00000000000E+00  0.22109140658E+04  0.22109140658E+04  0.25500000920E-02 0.  1.
        2   -1    0    0  501    0  0.00000000000E+00  0.00000000000E+00 -0.13957374633E+04  0.13957374633E+04  0.25500000920E-02 0. -1.
    10030    2    1    2    0    0  0.00000000000E+00  0.00000000000E+00  0.81517660258E+03  0.36066515291E+04  0.35133207026E+04 0.  0.
        2    1    3    3  502    0  0.42950479423E+03 -0.10549340187E+04 -0.96528451802E+03  0.14930285840E+04  0.25500000920E-02 0. -1.
       -2    1    3    3    0  502 -0.42950479423E+03  0.10549340187E+04  0.17804611206E+04  0.21136229451E+04  0.25500000920E-02 0.  1.
</event>
<event>
 5   0  0.2001768E-06  0.3280735E+04  0.7818609E-02  0.8167815E-01
        2   -1    0    0  501    0  0.00000000000E+00  0.00000000000E+00  0.21509495366E+04  0.21509495366E+04  0.25500000920E-02 0. -1.
       -2   -1    0    0    0  501  0.00000000000E+00  0.00000000000E+00 -0.12509847615E+04  0.12509847615E+04  0.25500000920E-02 0.  1.
    10030    2    1    2    0    0  0.00000000000E+00  0.00000000000E+00  0.89996477508E+03  0.34019342982E+04  0.32807347306E+04 0.  0.
        2    1    3    3  502    0 -0.42700973114E+03 -0.12849154128E+04 -0.51021779035E+03  0.14469509743E+04  0.25500000920E-02 0.  1.
       -2    1    3    3    0  502  0.42700973114E+03  0.12849154128E+04  0.14101825654E+04  0.19549833238E+04  0.25500000920E-02 0. -1.
</event>
<event>
 5   0  0.1999883E-06  0.2705963E+04  0.7818609E-02  0.8333073E-01
        2   -1    0    0  501    0  0.00000000000E+00  0.00000000000E+00  0.12886008233E+04  0.12886008233E+04  0.25500000920E-02 0.  1.
       -2   -1    0    0    0  501  0.00000000000E+00  0.00000000000E+00 -0.14205783562E+04  0.14205783562E+04  0.25500000920E-02 0. -1.
    10030    2    1    2    0    0  0.00000000000E+00  0.00000000000E+00 -0.13197753289E+03  0.27091791795E+04  0.27059626305E+04 0.  0.
        4    1    3    3  502    0 -0.72227120719E+03 -0.75766168804E+03 -0.92422993507E+03  0.13963987668E+04  0.12699999809E+01 0. -1.
       -4    1    3    3    0  502  0.72227120719E+03  0.75766168804E+03  0.79225240218E+03  0.13127804127E+04  0.12699999809E+01 0.  1.
</event>
<event>
 5   0  0.2001768E-06  0.2448538E+04  0.7818609E-02  0.8421552E-01
        2   -1    0    0  501    0  0.00000000000E+00  0.00000000000E+00  0.10335648303E+04  0.10335648303E+04  0.25500000920E-02 0. -1.
       -2   -1    0    0    0  501  0.00000000000E+00  0.00000000000E+00 -0.14501606010E+04  0.14501606010E+04  0.25500000920E-02 0.  1.
    10030    2    1    2    0    0  0.00000000000E+00  0.00000000000E+00 -0.41659577070E+03  0.24837254314E+04  0.24485383359E+04 0.  0.
        2    1    3    3  502    0  0.57290172193E+03 -0.24755205707E+03 -0.12766842715E+04  0.14210633811E+04  0.25500000920E-02 0.  1.
       -2    1    3    3    0  502 -0.57290172193E+03  0.24755205707E+03  0.86008850078E+03  0.10626620503E+04  0.25500000920E-02 0. -1.
</event>
<event>
 5   0  0.2001768E-06  0.2298650E+04  0.7818609E-02  0.8478453E-01
        2   -1    0    0  501    0  0.00000000000E+00  0.00000000000E+00  0.12835076797E+04  0.12835076797E+04  0.25500000920E-02 0. -1.
       -2   -1    0    0    0  501  0.00000000000E+00  0.00000000000E+00 -0.10291706412E+04  0.10291706412E+04  0.25500000920E-02 0.  1.
    10030    2    1    2    0    0  0.00000000000E+00  0.00000000000E+00  0.25433703854E+03  0.23126783210E+04  0.22986504056E+04 0.  0.
        2    1    3    3  502    0 -0.24055788222E+03 -0.76141967286E+03 -0.70450811360E+03  0.10648754364E+04  0.25500000920E-02 0.  1.
       -2    1    3    3    0  502  0.24055788222E+03  0.76141967286E+03  0.95884515214E+03  0.12478028846E+04  0.25500000920E-02 0. -1.
</event>
<event>
 5   0  0.2020725E-06  0.3491436E+04  0.7818609E-02  0.8115823E-01
        2   -1    0    0  501    0  0.00000000000E+00  0.00000000000E+00  0.19879435843E+04  0.19879435843E+04  0.25500000920E-02 0. -1.
       -2   -1    0    0    0  501  0.00000000000E+00  0.00000000000E+00 -0.15330066042E+04  0.15330066042E+04  0.25500000920E-02 0.  1.
    10030    2    1    2    0    0  0.00000000000E+00  0.00000000000E+00  0.45493698012E+03  0.35209501885E+04  0.34914356035E+04 0.  0.
        3    1    3    3  502    0 -0.10465290161E+04 -0.10898155643E+04 -0.65434297852E+03  0.16465374850E+04  0.10100000352E+00 0.  1.
       -3    1    3    3    0  502  0.10465290161E+04  0.10898155643E+04  0.11092799586E+04  0.18744127034E+04  0.10100000352E+00 0. -1.
</event>
<event>
 5   0  0.6630125E-07  0.3488369E+04  0.7818609E-02  0.8116552E-01
       -1   -1    0    0    0  501  0.00000000000E+00  0.00000000000E+00  0.14736929954E+04  0.14736929954E+04  0.50400001928E-02 0. -1.
        1   -1    0    0  501    0  0.00000000000E+00  0.00000000000E+00 -0.20643238113E+04  0.20643238113E+04  0.50400001928E-02 0.  1.
    10030    2    1    2    0    0  0.00000000000E+00  0.00000000000E+00 -0.59063081589E+03  0.35380168066E+04  0.34883689833E+04 0.  0.
        4    1    3    3  502    0  0.46687984879E+03 -0.10499483355E+04  0.10355374490E+04  0.15468379752E+04  0.12699999809E+01 0. -1.
       -4    1    3    3    0  502 -0.46687984879E+03  0.10499483355E+04 -0.16261682649E+04  0.19911788315E+04  0.12699999809E+01 0.  1.
</event>
<event>
 5   0  0.6630125E-07  0.3557012E+04  0.7818609E-02  0.8100410E-01
        1   -1    0    0  501    0  0.00000000000E+00  0.00000000000E+00  0.14650593543E+04  0.14650593544E+04  0.50400001928E-02 0.  1.
       -1   -1    0    0    0  501  0.00000000000E+00  0.00000000000E+00 -0.21590135827E+04  0.21590135827E+04  0.50400001928E-02 0. -1.
    10030    2    1    2    0    0  0.00000000000E+00  0.00000000000E+00 -0.69395422835E+03  0.36240729371E+04  0.35570116927E+04 0.  0.
        1    1    3    3  502    0  0.20387273772E+03  0.10105994612E+04  0.11295545269E+04  0.15293033687E+04  0.50400001928E-02 0.  1.
       -1    1    3    3    0  502 -0.20387273772E+03 -0.10105994612E+04 -0.18235087552E+04  0.20947695684E+04  0.50400001928E-02 0. -1.
</event>
<event>
 5   0  0.6890600E-07  0.3063558E+04  0.7818609E-02  0.8225811E-01
       -1   -1    0    0    0  501  0.00000000000E+00  0.00000000000E+00  0.20183014285E+04  0.20183014285E+04  0.50400001928E-02 0. -1.
        1   -1    0    0  501    0  0.00000000000E+00  0.00000000000E+00 -0.11625355528E+04  0.11625355528E+04  0.50400001928E-02 0.  1.
    10030    2    1    2    0    0  0.00000000000E+00  0.00000000000E+00  0.85576587564E+03  0.31808369813E+04  0.30635581711E+04 0.  0.
        3    1    3    3  502    0  0.39917877027E+02  0.11811774170E+04  0.14396478253E+04  0.18626216466E+04  0.10100000352E+00 0. -1.
       -3    1    3    3    0  502 -0.39917877027E+02 -0.11811774170E+04 -0.58388194969E+03  0.13182153347E+04  0.10100000352E+00 0.  1.
</event>
<event>
 5   0  0.7378896E-07  0.3454881E+04  0.7818609E-02  0.8124567E-01
       -1   -1    0    0    0  501  0.00000000000E+00  0.00000000000E+00  0.16189262433E+04  0.16189262433E+04  0.50400001928E-02 0. -1.
        1   -1    0    0  501    0  0.00000000000E+00  0.00000000000E+00 -0.18432283190E+04  0.18432283190E+04  0.50400001928E-02 0.  1.
    10030    2    1    2    0    0  0.00000000000E+00  0.00000000000E+00 -0.22430207575E+03  0.34621545623E+04  0.34548810098E+04 0.  0.
        2    1    3    3  502    0 -0.15755250012E+04 -0.18516499127E+03  0.57301759780E+03  0.16866873660E+04  0.25500000920E-02 0. -1.
       -2    1    3    3    0  502  0.15755250012E+04  0.18516499127E+03 -0.79731967355E+03  0.17754671963E+04  0.25500000920E-02 0.  1.
</event>
<event>
 5   0  0.6630125E-07  0.3506128E+04  0.7818609E-02  0.8112339E-01
        1   -1    0    0  501    0  0.00000000000E+00  0.00000000000E+00  0.26407873004E+04  0.26407873004E+04  0.50400001928E-02 0.  1.
       -1   -1    0    0    0  501  0.00000000000E+00  0.00000000000E+00 -0.11637566646E+04  0.11637566646E+04  0.50400001928E-02 0. -1.
    10030    2    1    2    0    0  0.00000000000E+00  0.00000000000E+00  0.14770306358E+04  0.38045439651E+04  0.35061282468E+04 0.  0.
        1    1    3    3  502    0 -0.10307020097E+04 -0.13664732435E+04  0.32726184438E+03  0.17426118537E+04  0.50400001928E-02 0. -1.
       -1    1    3    3    0  502  0.10307020097E+04  0.13664732435E+04  0.11497687914E+04  0.20619321113E+04  0.50400001928E-02 0.  1.
</event>
<event>
 5   0  0.1999883E-06  0.3499322E+04  0.7818609E-02  0.8113951E-01
        2   -1    0    0  501    0  0.00000000000E+00  0.00000000000E+00  0.15559615678E+04  0.15559615678E+04  0.25500000920E-02 0.  1.
       -2   -1    0    0    0  501  0.00000000000E+00  0.00000000000E+00 -0.19674742492E+04  0.19674742492E+04  0.25500000920E-02 0. -1.
    10030    2    1    2    0    0  0.00000000000E+00  0.00000000000E+00 -0.41151268140E+03  0.35234358169E+04  0.34993224014E+04 0.  0.
        4    1    3    3  502    0 -0.29719700718E+03 -0.94259685768E+03  0.12479715713E+04  0.15919326471E+04  0.12699999809E+01 0.  1.
       -4    1    3    3    0  502  0.29719700718E+03  0.94259685768E+03 -0.16594842527E+04  0.19315031698E+04  0.12699999809E+01 0. -1.
</event>
<event>
 5   0  0.1999883E-06  0.3492014E+04  0.7818609E-02  0.8115685E-01
        2   -1    0    0  501    0  0.00000000000E+00  0.00000000000E+00  0.24850053740E+04  0.24850053740E+04  0.25500000920E-02 0. -1.
       -2   -1    0    0    0  501  0.00000000000E+00  0.00000000000E+00 -0.12267738623E+04  0.12267738623E+04  0.25500000920E-02 0.  1.
    10030    2    1    2    0    0  0.00000000000E+00  0.00000000000E+00  0.12582315117E+04  0.37117792363E+04  0.34920135398E+04 0.  0.
        4    1    3    3  502    0  0.92399900472E+03 -0.13733348008E+04  0.38526746623E+02  0.16556897532E+04  0.12699999809E+01 0.  1.
       -4    1    3    3    0  502 -0.92399900472E+03  0.13733348008E+04  0.12197047651E+04  0.20560894831E+04  0.12699999809E+01 0. -1.
</event>
<event>
 5   0  0.2001768E-06  0.3364200E+04  0.7818609E-02  0.8146749E-01
        2   -1    0    0  501    0  0.00000000000E+00  0.00000000000E+00  0.90329931871E+03  0.90329931872E+03  0.25500000920E-02 0.  1.
       -2   -1    0    0    0  501  0.00000000000E+00  0.00000000000E+00 -0.31323615815E+04  0.31323615815E+04  0.25500000920E-02 0. -1.
    10030    2    1    2    0    0  0.00000000000E+00  0.00000000000E+00 -0.22290622628E+04  0.40356609002E+04  0.33641998053E+04 0.  0.
        2    1    3    3  502    0 -0.36786332196E+02 -0.99510312499E+03  0.51173292064E+03  0.11195776193E+04  0.25500000920E-02 0.  1.
       -2    1    3    3    0  502  0.36786332196E+02  0.99510312499E+03 -0.27407951834E+04  0.29160832809E+04  0.25500000920E-02 0. -1.
</event>
<event>
 5   0  0.6630125E-07  0.3486702E+04  0.7818609E-02  0.8116949E-01
       -1   -1    0    0    0  501  0.00000000000E+00  0.00000000000E+00  0.10881187628E+04  0.10881187628E+04  0.50400001928E-02 0.  1.
        1   -1    0    0  501    0  0.00000000000E+00  0.00000000000E+00 -0.27931436753E+04  0.27931436753E+04  0.50400001928E-02 0. -1.
    10030    2    1    2    0    0  0.00000000000E+00  0.00000000000E+00 -0.17050249126E+04  0.38812624381E+04  0.34867016163E+04 0.  0.
        5    1    3    3  502    0 -0.79369598391E+03 -0.85634618204E+03  0.58857742292E+03  0.13075655131E+04  0.46999998093E+01 0.  1.
       -5    1    3    3    0  502  0.79369598391E+03  0.85634618204E+03 -0.22936023355E+04  0.25736969250E+04  0.46999998093E+01 0. -1.
</event>
<event>
 5   0  0.6630125E-07  0.2977704E+04  0.7818609E-02  0.8250127E-01
       -1   -1    0    0    0  501  0.00000000000E+00  0.00000000000E+00  0.10679789017E+04  0.10679789018E+04  0.50400001928E-02 0. -1.
        1   -1    0    0  501    0  0.00000000000E+00  0.00000000000E+00 -0.20755837827E+04  0.20755837827E+04  0.50400001928E-02 0.  1.
    10030    2    1    2    0    0  0.00000000000E+00  0.00000000000E+00 -0.10076048810E+04  0.31435626845E+04  0.29777036043E+04 0.  0.
        4    1    3    3  502    0  0.13048787446E+04 -0.65179884997E+03 -0.81897416216E+03  0.16728032072E+04  0.12699999809E+01 0. -1.
       -4    1    3    3    0  502 -0.13048787446E+04  0.65179884997E+03 -0.18863071883E+03  0.14707594773E+04  0.12699999809E+01 0.  1.
</event>
<event>
 5   0  0.6890600E-07  0.2475322E+04  0.7818609E-02  0.8411830E-01
        1   -1    0    0  501    0  0.00000000000E+00  0.00000000000E+00  0.11447141411E+04  0.11447141412E+04  0.50400001928E-02 0. -1.
       -1   -1    0    0    0  501  0.00000000000E+00  0.00000000000E+00 -0.13381551789E+04  0.13381551789E+04  0.50400001928E-02 0.  1.
    10030    2    1    2    0    0  0.00000000000E+00  0.00000000000E+00 -0.19344103775E+03  0.24828693201E+04  0.24753223276E+04 0.  0.
        3    1    3    3  502    0 -0.76171634186E+03 -0.82801954569E+03  0.42058145849E+03  0.12011315194E+04  0.10100000352E+00 0. -1.
       -3    1    3    3    0  502  0.76171634186E+03  0.82801954569E+03 -0.61402249624E+03  0.12817378006E+04  0.10100000352E+00 0.  1.
</event>
<event>
 5   0  0.6630125E-07  0.3486520E+04  0.7818609E-02  0.8116992E-01
        1   -1    0    0  501    0  0.00000000000E+00  0.00000000000E+00  0.24246995747E+04  0.24246995747E+04  0.50400001928E-02 0. -1.
       -1   -1    0    0    0  501  0.00000000000E+00  0.00000000000E+00 -0.12533329153E+04  0.12533329153E+04  0.50400001928E-02 0.  1.
    10030    2    1    2    0    0  0.00000000000E+00  0.00000000000E+00  0.11713666594E+04  0.36780324900E+04  0.34865202060E+04 0.  0.
        4    1    3    3  502    0  0.13086320282E+04  0.11511534589E+04  0.54791004446E+03  0.18269863439E+04  0.12699999809E+01 0. -1.
       -4    1    3    3    0  502 -0.13086320282E+04 -0.11511534589E+04  0.62345661495E+03  0.18510461460E+04  0.12699999809E+01 0.  1.
</event>
<event>
 5   0  0.6630125E-07  0.3489134E+04  0.7818609E-02  0.8116370E-01
       -1   -1    0    0    0  501  0.00000000000E+00  0.00000000000E+00  0.16620029928E+04  0.16620029928E+04  0.50400001928E-02 0. -1.
        1   -1    0    0  501    0  0.00000000000E+00  0.00000000000E+00 -0.18312329566E+04  0.18312329566E+04  0.50400001928E-02 0.  1.
    10030    2    1    2    0    0  0.00000000000E+00  0.00000000000E+00 -0.16922996377E+03  0.34932359494E+04  0.34891343651E+04 0.  0.
        4    1    3    3  502    0 -0.14617532716E+04  0.45337663699E+02 -0.10369086594E+04  0.17927518823E+04  0.12699999809E+01 0.  1.
       -4    1    3    3    0  502  0.14617532716E+04 -0.45337663699E+02  0.86767869563E+03  0.17004840671E+04  0.12699999809E+01 0. -1.
</event>
<event>
 5   0  0.2073287E-06  0.3463554E+04  0.7818609E-02  0.8122482E-01
        2   -1    0    0  501    0  0.00000000000E+00  0.00000000000E+00  0.22097226054E+04  0.22097226054E+04  0.25500000920E-02 0. -1.
       -2   -1    0    0    0  501  0.00000000000E+00  0.00000000000E+00 -0.13572070808E+04  0.13572070808E+04  0.25500000920E-02 0.  1.
    10030    2    1    2    0    0  0.00000000000E+00  0.00000000000E+00  0.85251552456E+03  0.35669296862E+04  0.34635537626E+04 0.  0.
        1    1    3    3  502    0  0.10307925591E+04 -0.66372370919E+03  0.16858697124E+04  0.20845189251E+04  0.50400001928E-02 0. -1.
       -1    1    3    3    0  502 -0.10307925591E+04  0.66372370919E+03 -0.83335418786E+03  0.14824107610E+04  0.50400001928E-02 0.  1.
</event>
<event>
 5   0  0.2001768E-06  0.3459672E+04  0.7818609E-02  0.8123414E-01
        2   -1    0    0  501    0  0.00000000000E+00  0.00000000000E+00  0.15344753538E+04  0.15344753538E+04  0.25500000920E-02 0.  1.
       -2   -1    0    0    0  501  0.00000000000E+00  0.00000000000E+00 -0.19500691579E+04  0.19500691579E+04  0.25500000920E-02 0. -1.
    10030    2    1    2    0    0  0.00000000000E+00  0.00000000000E+00 -0.41559380415E+03  0.34845445117E+04  0.34596722741E+04 0.  0.
        2    1    3    3  502    0 -0.61515619381E+03 -0.76421807513E+03  0.12271867364E+04  0.15711249776E+04  0.25500000920E-02 0.  1.
       -2    1    3    3    0  502  0.61515619381E+03  0.76421807513E+03 -0.16427805406E+04  0.19134195341E+04  0.25500000920E-02 0. -1.
</event>
<event>
 5   0  0.2020725E-06  0.3508928E+04  0.7818609E-02  0.8111677E-01
        2   -1    0    0  501    0  0.00000000000E+00  0.00000000000E+00  0.26250506879E+04  0.26250506879E+04  0.25500000920E-02 0. -1.
       -2   -1    0    0    0  501  0.00000000000E+00  0.00000000000E+00 -0.11726037062E+04  0.11726037062E+04  0.25500000920E-02 0.  1.
    10030    2    1    2    0    0  0.00000000000E+00  0.00000000000E+00  0.14524469817E+04  0.37976543941E+04  0.35089281358E+04 0.  0.
        3    1    3    3  502    0  0.10944137686E+04  0.78310538875E+03  0.19445248842E+04  0.23647774911E+04  0.10100000352E+00 0. -1.
       -3    1    3    3    0  502 -0.10944137686E+04 -0.78310538875E+03 -0.49207790250E+03  0.14328769030E+04  0.10100000352E+00 0.  1.
</event>
<event>
 5   0  0.2023479E-06  0.3551790E+04  0.7818609E-02  0.8101625E-01
        2   -1    0    0  501    0  0.00000000000E+00  0.00000000000E+00  0.20915716359E+04  0.20915716359E+04  0.25500000920E-02 0. -1.
       -2   -1    0    0    0  501  0.00000000000E+00  0.00000000000E+00 -0.15078632070E+04  0.15078632070E+04  0.25500000920E-02 0.  1.
    10030    2    1    2    0    0  0.00000000000E+00  0.00000000000E+00  0.58370842887E+03  0.35994348429E+04  0.35517904863E+04 0.  0.
        5    1    3    3  502    0 -0.14262604462E+04  0.61281187801E+03  0.11659934511E+04  0.19414736867E+04  0.46999998093E+01 0. -1.
       -5    1    3    3    0  502  0.14262604462E+04 -0.61281187801E+03 -0.58228502220E+03  0.16579611562E+04  0.46999998093E+01 0.  1.
</event>
<event>
 5   0  0.6630125E-07  0.2812262E+04  0.7818609E-02  0.8299472E-01
        1   -1    0    0  501    0  0.00000000000E+00  0.00000000000E+00  0.14822454159E+04  0.14822454159E+04  0.50400001928E-02 0. -1.
       -1   -1    0    0    0  501  0.00000000000E+00  0.00000000000E+00 -0.13339253209E+04  0.13339253209E+04  0.50400001928E-02 0.  1.
    10030    2    1    2    0    0  0.00000000000E+00  0.00000000000E+00  0.14832009506E+03  0.28161707368E+04  0.28122622154E+04 0.  0.
        5    1    3    3  502    0  0.12630580808E+04  0.99740764127E+02 -0.53653888028E+03  0.13759215078E+04  0.46999998093E+01 0.  1.
       -5    1    3    3    0  502 -0.12630580808E+04 -0.99740764127E+02  0.68485897534E+03  0.14402492290E+04  0.46999998093E+01 0. -1.
</event>
<event>
 5   0  0.7378896E-07  0.3577583E+04  0.7818609E-02  0.8095646E-01
       -1   -1    0    0    0  501  0.00000000000E+00  0.00000000000E+00  0.10797551064E+04  0.10797551065E+04  0.50400001928E-02 0. -1.
        1   -1    0    0  501    0  0.00000000000E+00  0.00000000000E+00 -0.29634260219E+04  0.29634260219E+04  0.50400001928E-02 0.  1.
    10030    2    1    2    0    0  0.00000000000E+00  0.00000000000E+00 -0.18836709154E+04  0.40431811283E+04  0.35775826362E+04 0.  0.
        2    1    3    3  502    0 -0.11108822613E+04 -0.11287581041E+04 -0.18817044766E+04  0.24594645745E+04  0.25500000920E-02 0.  1.
       -2    1    3    3    0  502  0.11108822613E+04  0.11287581041E+04 -0.19664388778E+01  0.15837165539E+04  0.25500000920E-02 0. -1.
</event>
<event>
 5   0  0.6630125E-07  0.3481647E+04  0.7818609E-02  0.8118153E-01
       -1   -1    0    0    0  501  0.00000000000E+00  0.00000000000E+00  0.13716243403E+04  0.13716243403E+04  0.50400001928E-02 0. -1.
        1   -1    0    0  501    0  0.00000000000E+00  0.00000000000E+00 -0.22093994111E+04  0.22093994111E+04  0.50400001928E-02 0.  1.
    10030    2    1    2    0    0  0.00000000000E+00  0.00000000000E+00 -0.83777507076E+03  0.35810237514E+04  0.34816467424E+04 0.  0.
        5    1    3    3  502    0 -0.14253629171E+04  0.97210371431E+03 -0.18032130729E+03  0.17346996688E+04  0.46999998093E+01 0.  1.
       -5    1    3    3    0  502  0.14253629171E+04 -0.97210371431E+03 -0.65745376347E+03  0.18463240826E+04  0.46999998093E+01 0. -1.
</event>
<event>
 5   0  0.2001768E-06  0.2438367E+04  0.7818609E-02  0.8425278E-01
        2   -1    0    0  501    0  0.00000000000E+00  0.00000000000E+00  0.10108835214E+04  0.10108835214E+04  0.25500000920E-02 0. -1.
       -2   -1    0    0    0  501  0.00000000000E+00  0.00000000000E+00 -0.14704052688E+04  0.14704052688E+04  0.25500000920E-02 0.  1.
    10030    2    1    2    0    0  0.00000000000E+00  0.00000000000E+00 -0.45952174740E+03  0.24812887901E+04  0.24383670404E+04 0.  0.
        2    1    3    3  502    0  0.54014283827E+03 -0.13097271664E+03  0.87446711437E+03  0.10361471287E+04  0.25500000920E-02 0. -1.
       -2    1    3    3    0  502 -0.54014283827E+03  0.13097271664E+03 -0.13339888618E+04  0.14451416614E+04  0.25500000920E-02 0.  1.
</event>
<event>
 5   0  0.2073287E-06  0.3490669E+04  0.7818609E-02  0.8116005E-01
        2   -1    0    0  501    0  0.00000000000E+00  0.00000000000E+00  0.32128071118E+04  0.32128071118E+04  0.25500000920E-02 0.  1.
       -2   -1    0    0    0  501  0.00000000000E+00  0.00000000000E+00 -0.94814026275E+03  0.94814026275E+03  0.25500000920E-02 0. -1.
    10030    2    1    2    0    0  0.00000000000E+00  0.00000000000E+00  0.22646668491E+04  0.41609473746E+04  0.34906685773E+04 0.  0.
        1    1    3    3  502    0 -0.19273992600E+03 -0.90904421671E+03  0.28934123152E+04  0.30389710253E+04  0.50400001928E-02 0.  1.
       -1    1    3    3    0  502  0.19273992600E+03  0.90904421671E+03 -0.62874546614E+03  0.11219763492E+04  0.50400001928E-02 0. -1.
</event>
<event>
 5   0  0.2073287E-06  0.3493604E+04  0.7818609E-02  0.8115307E-01
       -2   -1    0    0    0  501  0.00000000000E+00  0.00000000000E+00  0.10474428641E+04  0.10474428641E+04  0.25500000920E-02 0. -1.
        2   -1    0    0  501    0  0.00000000000E+00  0.00000000000E+00 -0.29131108495E+04  0.29131108495E+04  0.25500000920E-02 0.  1.
    10030    2    1    2    0    0  0.00000000000E+00  0.00000000000E+00 -0.18656679854E+04  0.39605537136E+04  0.34936039682E+04 0.  0.
        1    1    3    3  502    0 -0.11884065242E+03  0.33361633982E+02  0.10424926325E+04  0.10497747321E+04  0.50400001928E-02 0. -1.
       -1    1    3    3    0  502  0.11884065242E+03 -0.33361633982E+02 -0.29081606179E+04  0.29107789815E+04  0.50400001928E-02 0.  1.
</event>
<event>
 5   0  0.2020725E-06  0.3342652E+04  0.7818609E-02  0.8152127E-01
       -2   -1    0    0    0  501  0.00000000000E+00  0.00000000000E+00  0.28018320296E+04  0.28018320296E+04  0.25500000920E-02 0.  1.
        2   -1    0    0  501    0  0.00000000000E+00  0.00000000000E+00 -0.99696595839E+03  0.99696595839E+03  0.25500000920E-02 0. -1.
    10030    2    1    2    0    0  0.00000000000E+00  0.00000000000E+00  0.18048660712E+04  0.37987979880E+04  0.33426523329E+04 0.  0.
        3    1    3    3  502    0  0.90608906232E+03 -0.12851798226E+04  0.25890377806E+03  0.15936485628E+04  0.10100000352E+00 0. -1.
       -3    1    3    3    0  502 -0.90608906232E+03  0.12851798226E+04  0.15459622931E+04  0.22051494252E+04  0.10100000352E+00 0.  1.
</event>
<event>
 5   0  0.6630125E-07  0.3488033E+04  0.7818609E-02  0.8116632E-01
       -1   -1    0    0    0  501  0.00000000000E+00  0.00000000000E+00  0.10657987553E+04  0.10657987553E+04  0.50400001928E-02 0.  1.
        1   -1    0    0  501    0  0.00000000000E+00  0.00000000000E+00 -0.28538164458E+04  0.28538164458E+04  0.50400001928E-02 0. -1.
    10030    2    1    2    0    0  0.00000000000E+00  0.00000000000E+00 -0.17880176905E+04  0.39196152010E+04  0.34880332657E+04 0.  0.
        4    1    3    3  502    0 -0.35961767506E+03 -0.15191291624E+04 -0.20301394671E+02  0.15612469516E+04  0.12699999809E+01 0.  1.
       -4    1    3    3    0  502  0.35961767506E+03  0.15191291624E+04 -0.17677162959E+04  0.23583682494E+04  0.12699999809E+01 0. -1.
</event>
<event>
 5   0  0.2073287E-06  0.3630100E+04  0.7818609E-02  0.8083631E-01
        2   -1    0    0  501    0  0.00000000000E+00  0.00000000000E+00  0.23103917133E+04  0.23103917133E+04  0.25500000920E-02 0. -1.
       -2   -1    0    0    0  501  0.00000000000E+00  0.00000000000E+00 -0.14259085323E+04  0.14259085323E+04  0.25500000920E-02 0.  1.
    10030    2    1    2    0    0  0.00000000000E+00  0.00000000000E+00  0.88448318101E+03  0.37363002456E+04  0.36301004157E+04 0.  0.
        1    1    3    3  502    0  0.25369337164E+03  0.12085508149E+04  0.18113647138E+04  0.21922585444E+04  0.50400001928E-02 0. -1.
       -1    1    3    3    0  502 -0.25369337164E+03 -0.12085508149E+04 -0.92688153283E+03  0.15440417012E+04  0.50400001928E-02 0.  1.
</event>
<event>
 5   0  0.7378896E-07  0.3325568E+04  0.7818609E-02  0.8156420E-01
       -1   -1    0    0    0  501  0.00000000000E+00  0.00000000000E+00  0.12105995374E+04  0.12105995374E+04  0.50400001928E-02 0. -1.
        1   -1    0    0  501    0  0.00000000000E+00  0.00000000000E+00 -0.22838690564E+04  0.22838690564E+04  0.50400001928E-02 0.  1.
    10030    2    1    2    0    0  0.00000000000E+00  0.00000000000E+00 -0.10732695190E+04  0.34944685938E+04  0.33255681158E+04 0.  0.
        2    1    3    3  502    0  0.26715248077E+03  0.16360734180E+04 -0.40066360174E+03  0.17054729546E+04  0.25500000920E-02 0. -1.
       -2    1    3    3    0  502 -0.26715248077E+03 -0.16360734180E+04 -0.67260591722E+03  0.17889956392E+04  0.25500000920E-02 0.  1.
</event>
<event>
 5   0  0.2023479E-06  0.3489663E+04  0.7818609E-02  0.8116244E-01
       -2   -1    0    0    0  501  0.00000000000E+00  0.00000000000E+00  0.15065308319E+04  0.15065308319E+04  0.25500000920E-02 0.  1.
        2   -1    0    0  501    0  0.00000000000E+00  0.00000000000E+00 -0.20208260869E+04  0.20208260869E+04  0.25500000920E-02 0. -1.
    10030    2    1    2    0    0  0.00000000000E+00  0.00000000000E+00 -0.51429525500E+03  0.35273569189E+04  0.34896629098E+04 0.  0.
        5    1    3    3  502    0 -0.11787459885E+04  0.33811667330E+02  0.10427563735E+04  0.15741500179E+04  0.46999998093E+01 0.  1.
       -5    1    3    3    0  502  0.11787459885E+04 -0.33811667330E+02 -0.15570516285E+04  0.19532069010E+04  0.46999998093E+01 0. -1.
</event>
<event>
 5   0  0.2020725E-06  0.3451746E+04  0.7818609E-02  0.8125322E-01
        2   -1    0    0  501    0  0.00000000000E+00  0.00000000000E+00  0.23021154728E+04  0.23021154728E+04  0.25500000920E-02 0.  1.
       -2   -1    0    0    0  501  0.00000000000E+00  0.00000000000E+00 -0.12938697987E+04  0.12938697987E+04  0.25500000920E-02 0. -1.
    10030    2    1    2    0    0  0.00000000000E+00  0.00000000000E+00  0.10082456741E+04  0.35959852714E+04  0.34517460412E+04 0.  0.
        3    1    3    3  502    0 -0.35117462910E+03 -0.55477635202E+03  0.21669202514E+04  0.22642093116E+04  0.10100000352E+00 0.  1.
       -3    1    3    3    0  502  0.35117462910E+03  0.55477635202E+03 -0.11586745773E+04  0.13317759598E+04  0.10100000352E+00 0. -1.
</event>
<event>
 5   0  0.7378896E-07  0.3362340E+04  0.7818609E-02  0.8147212E-01
        1   -1    0    0  501    0  0.00000000000E+00  0.00000000000E+00  0.21084202911E+04  0.21084202911E+04  0.50400001928E-02 0. -1.
       -1   -1    0    0    0  501  0.00000000000E+00  0.00000000000E+00 -0.13404976051E+04  0.13404976051E+04  0.50400001928E-02 0.  1.
    10030    2    1    2    0    0  0.00000000000E+00  0.00000000000E+00  0.76792268600E+03  0.34489178962E+04  0.33623398703E+04 0.  0.
        2    1    3    3  502    0 -0.53605036750E+03 -0.11481275619E+04  0.15173031740E+04  0.19768044458E+04  0.25500000920E-02 0. -1.
       -2    1    3    3    0  502  0.53605036750E+03  0.11481275619E+04 -0.74938048804E+03  0.14721134504E+04  0.25500000920E-02 0.  1.
</event>
<event>
 5   0  0.7378896E-07  0.3561530E+04  0.7818609E-02  0.8099361E-01
       -1   -1    0    0    0  501  0.00000000000E+00  0.00000000000E+00  0.12117797647E+04  0.12117797647E+04  0.50400001928E-02 0.  1.
        1   -1    0    0  501    0  0.00000000000E+00  0.00000000000E+00 -0.26169151434E+04  0.26169151434E+04  0.50400001928E-02 0. -1.
    10030    2    1    2    0    0  0.00000000000E+00  0.00000000000E+00 -0.14051353787E+04  0.38286949081E+04  0.35615304669E+04 0.  0.
        2    1    3    3  502    0  0.69202908596E+03 -0.11542007994E+04 -0.19562575381E+04  0.23744530521E+04  0.25500000920E-02 0. -1.
       -2    1    3    3    0  502 -0.69202908596E+03  0.11542007994E+04  0.55112215936E+03  0.14542418560E+04  0.25500000920E-02 0.  1.
</event>
<event>
 5   0  0.6630125E-07  0.3445032E+04  0.7818609E-02  0.8126942E-01
       -1   -1    0    0    0  501  0.00000000000E+00  0.00000000000E+00  0.20447998514E+04  0.20447998515E+04  0.50400001928E-02 0.  1.
        1   -1    0    0  501    0  0.00000000000E+00  0.00000000000E+00 -0.14510279308E+04  0.14510279308E+04  0.50400001928E-02 0. -1.
    10030    2    1    2    0    0  0.00000000000E+00  0.00000000000E+00  0.59377192062E+03  0.34958277823E+04  0.34450321899E+04 0.  0.
        5    1    3    3  502    0  0.26028202176E+03 -0.15533922483E+04  0.10044950929E+04  0.18681024301E+04  0.46999998093E+01 0.  1.
       -5    1    3    3    0  502 -0.26028202176E+03  0.15533922483E+04 -0.41072317227E+03  0.16277253522E+04  0.46999998093E+01 0. -1.
</event>
<event>
 5   0  0.2001768E-06  0.2953264E+04  0.7818609E-02  0.8257204E-01
       -2   -1    0    0    0  501  0.00000000000E+00  0.00000000000E+00  0.10506541432E+04  0.10506541432E+04  0.25500000920E-02 0. -1.
        2   -1    0    0  501    0  0.00000000000E+00  0.00000000000E+00 -0.20753189743E+04  0.20753189743E+04  0.25500000920E-02 0.  1.
    10030    2    1    2    0    0  0.00000000000E+00  0.00000000000E+00 -0.10246648312E+04  0.31259731175E+04  0.29532642813E+04 0.  0.
        2    1    3    3  502    0  0.14271934951E+04 -0.86316432511E+02 -0.12182523194E+03  0.14349819463E+04  0.25500000920E-02 0. -1.
       -2    1    3    3    0  502 -0.14271934951E+04  0.86316432511E+02 -0.90283959925E+03  0.16909911712E+04  0.25500000920E-02 0.  1.
</event>
<event>
 5   0  0.2001768E-06  0.3505989E+04  0.7818609E-02  0.8112372E-01
       -2   -1    0    0    0  501  0.00000000000E+00  0.00000000000E+00  0.15773747738E+04  0.15773747738E+04  0.25500000920E-02 0.  1.
        2   -1    0    0  501    0  0.00000000000E+00  0.00000000000E+00 -0.19481666112E+04  0.19481666112E+04  0.25500000920E-02 0. -1.
    10030    2    1    2    0    0  0.00000000000E+00  0.00000000000E+00 -0.37079183734E+03  0.35255413850E+04  0.35059885155E+04 0.  0.
        2    1    3    3  502    0  0.43699214341E+03  0.16764654254E+03  0.15133809145E+04  0.15841052013E+04  0.25500000920E-02 0.  1.
       -2    1    3    3    0  502 -0.43699214341E+03 -0.16764654254E+03 -0.18841727518E+04  0.19414361837E+04  0.25500000920E-02 0. -1.
</event>
<event>
 5   0  0.6890600E-07  0.2918892E+04  0.7818609E-02  0.8267279E-01
        1   -1    0    0  501    0  0.00000000000E+00  0.00000000000E+00  0.10620195608E+04  0.10620195608E+04  0.50400001928E-02 0.  1.
       -1   -1    0    0    0  501  0.00000000000E+00  0.00000000000E+00 -0.20055963714E+04  0.20055963714E+04  0.50400001928E-02 0. -1.
    10030    2    1    2    0    0  0.00000000000E+00  0.00000000000E+00 -0.94357681062E+03  0.30676159323E+04  0.29188919662E+04 0.  0.
        3    1    3    3  502    0  0.94698664195E+03 -0.11045553588E+04 -0.35124310376E+03  0.14967290900E+04  0.10100000352E+00 0.  1.
       -3    1    3    3    0  502 -0.94698664195E+03  0.11045553588E+04 -0.59233370686E+03  0.15708868423E+04  0.10100000352E+00 0. -1.
</event>
<event>
 5   0  0.1999883E-06  0.3539357E+04  0.7818609E-02  0.8104526E-01
       -2   -1    0    0    0  501  0.00000000000E+00  0.00000000000E+00  0.18101446478E+04  0.18101446478E+04  0.25500000920E-02 0.  1.
        2   -1    0    0  501    0  0.00000000000E+00  0.00000000000E+00 -0.17301169008E+04  0.17301169008E+04  0.25500000920E-02 0. -1.
    10030    2    1    2    0    0  0.00000000000E+00  0.00000000000E+00  0.80027746932E+02  0.35402615486E+04  0.35393569179E+04 0.  0.
        4    1    3    3  502    0 -0.41268887913E+03  0.14388751848E+04 -0.90420108821E+03  0.17487867592E+04  0.12699999809E+01 0. -1.
       -4    1    3    3    0  502  0.41268887913E+03 -0.14388751848E+04  0.98422883514E+03  0.17914747894E+04  0.12699999809E+01 0.  1.
</event>
<event>
 5   0  0.6630125E-07  0.3498588E+04  0.7818609E-02  0.8114125E-01
       -1   -1    0    0    0  501  0.00000000000E+00  0.00000000000E+00  0.17826847648E+04  0.17826847648E+04  0.50400001928E-02 0. -1.
        1   -1    0    0  501    0  0.00000000000E+00  0.00000000000E+00 -0.17165285499E+04  0.17165285499E+04  0.50400001928E-02 0.  1.
    10030    2    1    2    0    0  0.00000000000E+00  0.00000000000E+00  0.66156214906E+02  0.34992133148E+04  0.34985878833E+04 0.  0.
        1    1    3    3  502    0  0.15421216041E+04 -0.60533520939E+03  0.59483636005E+03  0.17602272730E+04  0.50400001928E-02 0. -1.
       -1    1    3    3    0  502 -0.15421216041E+04  0.60533520939E+03 -0.52868014514E+03  0.17389860417E+04  0.50400001928E-02 0.  1.
</event>
<event>
 5   0  0.2001768E-06  0.3547489E+04  0.7818609E-02  0.8102627E-01
        2   -1    0    0  501    0  0.00000000000E+00  0.00000000000E+00  0.17217520076E+04  0.17217520076E+04  0.25500000920E-02 0. -1.
       -2   -1    0    0    0  501  0.00000000000E+00  0.00000000000E+00 -0.18273074606E+04  0.18273074606E+04  0.25500000920E-02 0.  1.
    10030    2    1    2    0    0  0.00000000000E+00  0.00000000000E+00 -0.10555545307E+03  0.35490594682E+04  0.35474894158E+04 0.  0.
        2    1    3    3  502    0  0.29788454595E+03  0.30498702075E+03 -0.17752882710E+04  0.18257603158E+04  0.25500000920E-02 0.  1.
       -2    1    3    3    0  502 -0.29788454595E+03 -0.30498702075E+03  0.16697328179E+04  0.17232991524E+04  0.25500000920E-02 0. -1.
</event>
<event>
 5   0  0.6890600E-07  0.3563490E+04  0.7818609E-02  0.8098906E-01
       -1   -1    0    0    0  501  0.00000000000E+00  0.00000000000E+00  0.12153343492E+04  0.12153343492E+04  0.50400001928E-02 0. -1.
        1   -1    0    0  501    0  0.00000000000E+00  0.00000000000E+00 -0.26121331648E+04  0.26121331648E+04  0.50400001928E-02 0.  1.
    10030    2    1    2    0    0  0.00000000000E+00  0.00000000000E+00 -0.13967988156E+04  0.38274675140E+04  0.35634899521E+04 0.  0.
        3    1    3    3  502    0 -0.92319058189E+03 -0.20359053718E+03  0.92373817915E+03  0.13217496704E+04  0.10100000352E+00 0. -1.
       -3    1    3    3    0  502  0.92319058189E+03  0.20359053718E+03 -0.23205369948E+04  0.25057178436E+04  0.10100000352E+00 0.  1.
</event>
<event>
 5   0  0.2073287E-06  0.3549238E+04  0.7818609E-02  0.8102219E-01
       -2   -1    0    0    0  501  0.00000000000E+00  0.00000000000E+00  0.21594208782E+04  0.21594208782E+04  0.25500000920E-02 0. -1.
        2   -1    0    0  501    0  0.00000000000E+00  0.00000000000E+00 -0.14583872387E+04  0.14583872387E+04  0.25500000920E-02 0.  1.
    10030    2    1    2    0    0  0.00000000000E+00  0.00000000000E+00  0.70103363953E+03  0.36178081169E+04  0.35492375810E+04 0.  0.
        1    1    3    3  502    0  0.10010182231E+04 -0.10199177776E+04 -0.72195201055E+03  0.16010885240E+04  0.50400001928E-02 0.  1.
       -1    1    3    3    0  502 -0.10010182231E+04  0.10199177776E+04  0.14229856501E+04  0.20167195929E+04  0.50400001928E-02 0. -1.
</event>
<event>
 5   0  0.2023479E-06  0.3384992E+04  0.7818609E-02  0.8141600E-01
        2   -1    0    0  501    0  0.00000000000E+00  0.00000000000E+00  0.26624739098E+04  0.26624739098E+04  0.25500000920E-02 0. -1.
       -2   -1    0    0    0  501  0.00000000000E+00  0.00000000000E+00 -0.10758949646E+04  0.10758949646E+04  0.25500000920E-02 0.  1.
    10030    2    1    2    0    0  0.00000000000E+00  0.00000000000E+00  0.15865789453E+04  0.37383688744E+04  0.33849917417E+04 0.  0.
        5    1    3    3  502    0 -0.35743607346E+03 -0.10948415961E+04 -0.57637507648E+03  0.12878932354E+04  0.46999998093E+01 0.  1.
       -5    1    3    3    0  502  0.35743607346E+03  0.10948415961E+04  0.21629540217E+04  0.24504756390E+04  0.46999998093E+01 0. -1.
</event>
<event>
 5   0  0.6630125E-07  0.2696416E+04  0.7818609E-02  0.8336169E-01
       -1   -1    0    0    0  501  0.00000000000E+00  0.00000000000E+00  0.14816602871E+04  0.14816602871E+04  0.50400001928E-02 0.  1.
        1   -1    0    0  501    0  0.00000000000E+00  0.00000000000E+00 -0.12267754563E+04  0.12267754563E+04  0.50400001928E-02 0. -1.
    10030    2    1    2    0    0  0.00000000000E+00  0.00000000000E+00  0.25488483082E+03  0.27084357434E+04  0.26964157504E+04 0.  0.
        1    1    3    3  502    0  0.11432693288E+04 -0.69685505392E+03 -0.31353273100E+02  0.13392739646E+04  0.50400001928E-02 0. -1.
       -1    1    3    3    0  502 -0.11432693288E+04  0.69685505392E+03  0.28623810392E+03  0.13691617788E+04  0.50400001928E-02 0.  1.
</event>
<event>
 5   0  0.6630125E-07  0.2377869E+04  0.7818609E-02  0.8447836E-01
        1   -1    0    0  501    0  0.00000000000E+00  0.00000000000E+00  0.20155469233E+04  0.20155469234E+04  0.50400001928E-02 0. -1.
       -1   -1    0    0    0  501  0.00000000000E+00  0.00000000000E+00 -0.70133084128E+03  0.70133084129E+03  0.50400001928E-02 0.  1.
    10030    2    1    2    0    0  0.00000000000E+00  0.00000000000E+00  0.13142160821E+04  0.27168777646E+04  0.23778689782E+04 0.  0.
        4    1    3    3  502    0 -0.49195485984E+03  0.93900193476E+03  0.42007800912E+02  0.10609007898E+04  0.12699999809E+01 0.  1.
       -4    1    3    3    0  502  0.49195485984E+03 -0.93900193476E+03  0.12722082812E+04  0.16559769748E+04  0.12699999809E+01 0. -1.
</event>
<event>
 5   0  0.6630125E-07  0.3502675E+04  0.7818609E-02  0.8113156E-01
        1   -1    0    0  501    0  0.00000000000E+00  0.00000000000E+00  0.22816874048E+04  0.22816874048E+04  0.50400001928E-02 0. -1.
       -1   -1    0    0    0  501  0.00000000000E+00  0.00000000000E+00 -0.13442607332E+04  0.13442607332E+04  0.50400001928E-02 0.  1.
    10030    2    1    2    0    0  0.00000000000E+00  0.00000000000E+00  0.93742667167E+03  0.36259481380E+04  0.35026748543E+04 0.  0.
        4    1    3    3  502    0 -0.10595214833E+04  0.11813379007E+04 -0.29833412809E+03  0.16146671094E+04  0.12699999809E+01 0.  1.
       -4    1    3    3    0  502  0.10595214833E+04 -0.11813379007E+04  0.12357607998E+04  0.20112810287E+04  0.12699999809E+01 0. -1.
</event>
<event>
 5   0  0.2001768E-06  0.3475126E+04  0.7818609E-02  0.8119710E-01
        2   -1    0    0  501    0  0.00000000000E+00  0.00000000000E+00  0.16367382873E+04  0.16367382873E+04  0.25500000920E-02 0.  1.
       -2   -1    0    0    0  501  0.00000000000E+00  0.00000000000E+00 -0.18445988211E+04  0.18445988211E+04  0.25500000920E-02 0. -1.
    10030    2    1    2    0    0  0.00000000000E+00  0.00000000000E+00 -0.20786053376E+03  0.34813371084E+04  0.34751261936E+04 0.  0.
        2    1    3    3  502    0  0.80668567880E+03  0.82256503416E+03 -0.14069356885E+04  0.18184672258E+04  0.25500000920E-02 0. -1.
       -2    1    3    3    0  502 -0.80668567880E+03 -0.82256503416E+03  0.11990751548E+04  0.16628698826E+04  0.25500000920E-02 0.  1.
</event>
<event>
 5   0  0.2001768E-06  0.3459954E+04  0.7818609E-02  0.8123346E-01
        2   -1    0    0  501    0  0.00000000000E+00  0.00000000000E+00  0.28042261265E+04  0.28042261265E+04  0.25500000920E-02 0. -1.
       -2   -1    0    0    0  501  0.00000000000E+00  0.00000000000E+00 -0.10672537623E+04  0.10672537623E+04  0.25500000920E-02 0.  1.
    10030    2    1    2    0    0  0.00000000000E+00  0.00000000000E+00  0.17369723642E+04  0.38714798888E+04  0.34599542678E+04 0.  0.
        2    1    3    3  502    0 -0.16113444000E+04 -0.23852032455E+03  0.21651955810E+03  0.16432295760E+04  0.25500000920E-02 0. -1.
       -2    1    3    3    0  502  0.16113444000E+04  0.23852032455E+03  0.15204528061E+04  0.22282503127E+04  0.25500000920E-02 0.  1.
</event>
<event>
 5   0  0.1999883E-06  0.3498970E+04  0.7818609E-02  0.8114034E-01
        2   -1    0    0  501    0  0.00000000000E+00  0.00000000000E+00  0.24402078614E+04  0.24402078614E+04  0.25500000920E-02 0.  1.
       -2   -1    0    0    0  501  0.00000000000E+00  0.00000000000E+00 -0.12542771798E+04  0.12542771798E+04  0.25500000920E-02 0. -1.
    10030    2    1    2    0    0  0.00000000000E+00  0.00000000000E+00  0.11859306817E+04  0.36944850412E+04  0.34989695823E+04 0.  0.
        4    1    3    3  502    0  0.18825309186E+02 -0.15786683386E+04  0.13888391651E+04  0.21027182301E+04  0.12699999809E+01 0.  1.
       -4    1    3    3    0  502 -0.18825309186E+02  0.15786683386E+04 -0.20290848348E+03  0.15917668111E+04  0.12699999809E+01 0. -1.
</event>
<event>
 5   0  0.2023479E-06  0.3470430E+04  0.7818609E-02  0.8120834E-01
       -2   -1    0    0    0  501  0.00000000000E+00  0.00000000000E+00  0.12487985409E+04  0.12487985409E+04  0.25500000920E-02 0. -1.
        2   -1    0    0  501    0  0.00000000000E+00  0.00000000000E+00 -0.24110937620E+04  0.24110937620E+04  0.25500000920E-02 0.  1.
    10030    2    1    2    0    0  0.00000000000E+00  0.00000000000E+00 -0.11622952211E+04  0.36598923029E+04  0.34704295827E+04 0.  0.
        5    1    3    3  502    0  0.11738873161E+04 -0.11347755586E+04  0.38484406608E+02  0.16331656802E+04  0.46999998093E+01 0. -1.
       -5    1    3    3    0  502 -0.11738873161E+04  0.11347755586E+04 -0.12007796277E+04  0.20267266228E+04  0.46999998093E+01 0.  1.
</event>
<event>
 5   0  0.2001768E-06  0.3541529E+04  0.7818609E-02  0.8104018E-01
       -2   -1    0    0    0  501  0.00000000000E+00  0.00000000000E+00  0.26233275522E+04  0.26233275522E+04  0.25500000920E-02 0.  1.
        2   -1    0    0  501    0  0.00000000000E+00  0.00000000000E+00 -0.11952783491E+04  0.11952783491E+04  0.25500000920E-02 0. -1.
    10030    2    1    2    0    0  0.00000000000E+00  0.00000000000E+00  0.14280492031E+04  0.38186059014E+04  0.35415288370E+04 0.  0.
        2    1    3    3  502    0  0.46075146011E+03 -0.14811340075E+04 -0.20694141010E+03  0.15648880482E+04  0.25500000920E-02 0. -1.
       -2    1    3    3    0  502 -0.46075146011E+03  0.14811340075E+04  0.16349906132E+04  0.22537178531E+04  0.25500000920E-02 0.  1.
</event>
<event>
 5   0  0.2073287E-06  0.3491797E+04  0.7818609E-02  0.8115737E-01
        2   -1    0    0  501    0  0.00000000000E+00  0.00000000000E+00  0.22301988530E+04  0.22301988530E+04  0.25500000920E-02 0.  1.
       -2   -1    0    0    0  501  0.00000000000E+00  0.00000000000E+00 -0.13667663936E+04  0.13667663936E+04  0.25500000920E-02 0. -1.
    10030    2    1    2    0    0  0.00000000000E+00  0.00000000000E+00  0.86343245938E+03  0.35969652467E+04  0.34917965825E+04 0.  0.
        1    1    3    3  502    0  0.32775836202E+02  0.11789037488E+04 -0.89440819272E+03  0.14801534784E+04  0.50400001928E-02 0. -1.
       -1    1    3    3    0  502 -0.32775836202E+02 -0.11789037488E+04  0.17578406521E+04  0.21168117683E+04  0.50400001928E-02 0.  1.
</event>
<event>
 5   0  0.1999883E-06  0.3400152E+04  0.7818609E-02  0.8137869E-01
       -2   -1    0    0    0  501  0.00000000000E+00  0.00000000000E+00  0.11410466981E+04  0.11410466981E+04  0.25500000920E-02 0.  1.
        2   -1    0    0  501    0  0.00000000000E+00  0.00000000000E+00 -0.25329883201E+04  0.25329883201E+04  0.25500000920E-02 0. -1.
    10030    2    1    2    0    0  0.00000000000E+00  0.00000000000E+00 -0.13919416220E+04  0.36740350182E+04  0.34001517372E+04 0.  0.
        4    1    3    3  502    0  0.26700591491E+03 -0.71920611143E+03  0.94337278742E+03  0.12159372592E+04  0.12699999809E+01 0.  1.
       -4    1    3    3    0  502 -0.26700591491E+03  0.71920611143E+03 -0.23353144094E+04  0.24580977591E+04  0.12699999809E+01 0. -1.
</event>
<event>
 5   0  0.1999883E-06  0.3056052E+04  0.7818609E-02  0.8227904E-01
        2   -1    0    0  501    0  0.00000000000E+00  0.00000000000E+00  0.20973799145E+04  0.20973799145E+04  0.25500000920E-02 0.  1.
       -2   -1    0    0    0  501  0.00000000000E+00  0.00000000000E+00 -0.11132285093E+04  0.11132285093E+04  0.25500000920E-02 0. -1.
    10030    2    1    2    0    0  0.00000000000E+00  0.00000000000E+00  0.98415140522E+03  0.32106084238E+04  0.30560517768E+04 0.  0.
        4    1    3    3  502    0  0.13080797825E+04 -0.78643782909E+03  0.56858985179E+03  0.16287581800E+04  0.12699999809E+01 0.  1.
       -4    1    3    3    0  502 -0.13080797825E+04  0.78643782909E+03  0.41556155344E+03  0.15818502438E+04  0.12699999809E+01 0. -1.
</event>
<event>
 5   0  0.2023479E-06  0.3516337E+04  0.7818609E-02  0.8109929E-01
        2   -1    0    0  501    0  0.00000000000E+00  0.00000000000E+00  0.22541218242E+04  0.22541218242E+04  0.25500000920E-02 0. -1.
       -2   -1    0    0    0  501  0.00000000000E+00  0.00000000000E+00 -0.13713350411E+04  0.13713350411E+04  0.25500000920E-02 0.  1.
    10030    2    1    2    0    0  0.00000000000E+00  0.00000000000E+00  0.88278678315E+03  0.36254568653E+04  0.35163368692E+04 0.  0.
        5    1    3    3  502    0  0.40063043432E+03  0.29120749990E+03  0.21807016606E+04  0.22362442567E+04  0.46999998093E+01 0. -1.
       -5    1    3    3    0  502 -0.40063043432E+03 -0.29120749990E+03 -0.12979148775E+04  0.13892126087E+04  0.46999998093E+01 0.  1.
</event>
<event>
 5   0  0.6630125E-07  0.3501245E+04  0.7818609E-02  0.8113495E-01
       -1   -1    0    0    0  501  0.00000000000E+00  0.00000000000E+00  0.18402644041E+04  0.18402644041E+04  0.50400001928E-02 0. -1.
        1   -1    0    0  501    0  0.00000000000E+00  0.00000000000E+00 -0.16653472855E+04  0.16653472855E+04  0.50400001928E-02 0.  1.
    10030    2    1    2    0    0  0.00000000000E+00  0.00000000000E+00  0.17491711862E+03  0.35056116897E+04  0.35012451100E+04 0.  0.
        4    1    3    3  502    0  0.13295281665E+04  0.66455997409E+03  0.10134863935E+04  0.17990112249E+04  0.12699999809E+01 0. -1.
       -4    1    3    3    0  502 -0.13295281665E+04 -0.66455997409E+03 -0.83856927486E+03  0.17066004648E+04  0.12699999809E+01 0.  1.
</event>
<event>
 5   0  0.2023479E-06  0.2172537E+04  0.7818609E-02  0.8529946E-01
        2   -1    0    0  501    0  0.00000000000E+00  0.00000000000E+00  0.16209770720E+04  0.16209770720E+04  0.25500000920E-02 0.  1.
       -2   -1    0    0    0  501  0.00000000000E+00  0.00000000000E+00 -0.72794341108E+03  0.72794341109E+03  0.25500000920E-02 0. -1.
    10030    2    1    2    0    0  0.00000000000E+00  0.00000000000E+00  0.89303366091E+03  0.23489204831E+04  0.21725372992E+04 0.  0.
        5    1    3    3  502    0  0.98356067031E+03  0.46746252065E+02 -0.49394471307E+02  0.98592023412E+03  0.46999998093E+01 0. -1.
       -5    1    3    3    0  502 -0.98356067031E+03 -0.46746252065E+02  0.94242813221E+03  0.13630002490E+04  0.46999998093E+01 0.  1.
</event>
<event>
 5   0  0.2020725E-06  0.3404809E+04  0.7818609E-02  0.8136727E-01
        2   -1    0    0  501    0  0.00000000000E+00  0.00000000000E+00  0.22730007767E+04  0.22730007767E+04  0.25500000920E-02 0.  1.
       -2   -1    0    0    0  501  0.00000000000E+00  0.00000000000E+00 -0.12750462951E+04  0.12750462952E+04  0.25500000920E-02 0. -1.
    10030    2    1    2    0    0  0.00000000000E+00  0.00000000000E+00  0.99795448160E+03  0.35480470719E+04  0.34048090809E+04 0.  0.
        3    1    3    3  502    0 -0.72631384873E+03 -0.75260195699E+02  0.21015244482E+04  0.22247698578E+04  0.10100000352E+00 0.  1.
       -3    1    3    3    0  502  0.72631384873E+03  0.75260195699E+02 -0.11035699666E+04  0.13232772141E+04  0.10100000352E+00 0. -1.
</event>
<event>
 5   0  0.2023479E-06  0.3525980E+04  0.7818609E-02  0.8107661E-01
        2   -1    0    0  501    0  0.00000000000E+00  0.00000000000E+00  0.21380949671E+04  0.21380949671E+04  0.25500000920E-02 0.  1.
       -2   -1    0    0    0  501  0.00000000000E+00  0.00000000000E+00 -0.14536928680E+04  0.14536928680E+04  0.25500000920E-02 0. -1.
    10030    2    1    2    0    0  0.00000000000E+00  0.00000000000E+00  0.68440209910E+03  0.35917878351E+04  0.35259798098E+04 0.  0.
        5    1    3    3  502    0  0.15887076233E+04  0.55383258422E+03 -0.19430592310E+03  0.16936644666E+04  0.46999998093E+01 0. -1.
       -5    1    3    3    0  502 -0.15887076233E+04 -0.55383258422E+03  0.87870802220E+03  0.18981233685E+04  0.46999998093E+01 0.  1.
</event>
<event>
 5   0  0.6630125E-07  0.3587284E+04  0.7818609E-02  0.8093411E-01
       -1   -1    0    0    0  501  0.00000000000E+00  0.00000000000E+00  0.17953958769E+04  0.17953958769E+04  0.50400001928E-02 0.  1.
        1   -1    0    0  501    0  0.00000000000E+00  0.00000000000E+00 -0.17918902729E+04  0.17918902729E+04  0.50400001928E-02 0. -1.
    10030    2    1    2    0    0  0.00000000000E+00  0.00000000000E+00  0.35056040213E+01  0.35872861499E+04  0.35872844370E+04 0.  0.
        1    1    3    3  502    0  0.13065047725E+04 -0.33090895517E+03 -0.11817581985E+04  0.17924865123E+04  0.50400001928E-02 0. -1.
       -1    1    3    3    0  502 -0.13065047725E+04  0.33090895517E+03  0.11852638025E+04  0.17947996375E+04  0.50400001928E-02 0.  1.
</event>
<event>
 5   0  0.6630125E-07  0.3477675E+04  0.7818609E-02  0.8119101E-01
       -1   -1    0    0    0  501  0.00000000000E+00  0.00000000000E+00  0.16581670211E+04  0.16581670211E+04  0.50400001928E-02 0. -1.
        1   -1    0    0  501    0  0.00000000000E+00  0.00000000000E+00 -0.18234325284E+04  0.18234325284E+04  0.50400001928E-02 0.  1.
    10030    2    1    2    0    0  0.00000000000E+00  0.00000000000E+00 -0.16526550731E+03  0.34815995495E+04  0.34776749036E+04 0.  0.
        5    1    3    3  502    0  0.76248592875E+03 -0.12756987520E+04  0.82101620899E+03  0.16979051218E+04  0.46999998093E+01 0. -1.
       -5    1    3    3    0  502 -0.76248592875E+03  0.12756987520E+04 -0.98628171630E+03  0.17836944276E+04  0.46999998093E+01 0.  1.
</event>
<event>
 5   0  0.6630125E-07  0.3555453E+04  0.7818609E-02  0.8100773E-01
        1   -1    0    0  501    0  0.00000000000E+00  0.00000000000E+00  0.20752500273E+04  0.20752500273E+04  0.50400001928E-02 0.  1.
       -1   -1    0    0    0  501  0.00000000000E+00  0.00000000000E+00 -0.15228578697E+04  0.15228578697E+04  0.50400001928E-02 0. -1.
    10030    2    1    2    0    0  0.00000000000E+00  0.00000000000E+00  0.55239215760E+03  0.35981078970E+04  0.35554526214E+04 0.  0.
        5    1    3    3  502    0 -0.10982033177E+03 -0.13024755034E+04  0.14955521903E+04  0.19862531022E+04  0.46999998093E+01 0.  1.
       -5    1    3    3    0  502  0.10982033177E+03  0.13024755034E+04 -0.94316003267E+03  0.16118547948E+04  0.46999998093E+01 0. -1.
</event>
<event>
 5   0  0.2073287E-06  0.3510047E+04  0.7818609E-02  0.8111413E-01
       -2   -1    0    0    0  501  0.00000000000E+00  0.00000000000E+00  0.11314768077E+04  0.11314768077E+04  0.25500000920E-02 0. -1.
        2   -1    0    0  501    0  0.00000000000E+00  0.00000000000E+00 -0.27222019416E+04  0.27222019416E+04  0.25500000920E-02 0.  1.
    10030    2    1    2    0    0  0.00000000000E+00  0.00000000000E+00 -0.15907251339E+04  0.38536787493E+04  0.35100474998E+04 0.  0.
        1    1    3    3  502    0  0.66210397633E+03 -0.10032764256E+04  0.60855967235E+03  0.13473270340E+04  0.50400001928E-02 0. -1.
       -1    1    3    3    0  502 -0.66210397633E+03  0.10032764256E+04 -0.21992848063E+04  0.25063517153E+04  0.50400001928E-02 0.  1.
</event>
<event>
 5   0  0.2073287E-06  0.3478718E+04  0.7818609E-02  0.8118852E-01
       -2   -1    0    0    0  501  0.00000000000E+00  0.00000000000E+00  0.17427806622E+04  0.17427806622E+04  0.25500000920E-02 0. -1.
        2   -1    0    0  501    0  0.00000000000E+00  0.00000000000E+00 -0.17359436287E+04  0.17359436287E+04  0.25500000920E-02 0.  1.
    10030    2    1    2    0    0  0.00000000000E+00  0.00000000000E+00  0.68370335287E+01  0.34787242909E+04  0.34787175722E+04 0.  0.
        1    1    3    3  502    0 -0.14511531498E+04 -0.93648327087E+03 -0.20279198263E+03  0.17389568623E+04  0.50400001928E-02 0.  1.
       -1    1    3    3    0  502  0.14511531498E+04  0.93648327087E+03  0.20962901616E+03  0.17397674285E+04  0.50400001928E-02 0. -1.
</event>
<event>
 5   0  0.6630125E-07  0.2595743E+04  0.7818609E-02  0.8369649E-01
        1   -1    0    0  501    0  0.00000000000E+00  0.00000000000E+00  0.11500082013E+04  0.11500082013E+04  0.50400001928E-02 0. -1.
       -1   -1    0    0    0  501  0.00000000000E+00  0.00000000000E+00 -0.14647468325E+04  0.14647468325E+04  0.50400001928E-02 0.  1.
    10030    2    1    2    0    0  0.00000000000E+00  0.00000000000E+00 -0.31473863119E+03  0.26147550338E+04  0.25957433388E+04 0.  0.
        4    1    3    3  502    0  0.85910185036E+03  0.63394649030E+03  0.58595479084E+03  0.12179034328E+04  0.12699999809E+01 0.  1.
       -4    1    3    3    0  502 -0.85910185036E+03 -0.63394649030E+03 -0.90069342203E+03  0.13968516010E+04  0.12699999809E+01 0. -1.
</event>
<event>
 5   0  0.2001768E-06  0.3270081E+04  0.7818609E-02  0.8170550E-01
       -2   -1    0    0    0  501  0.00000000000E+00  0.00000000000E+00  0.13581283194E+04  0.13581283194E+04  0.25500000920E-02 0. -1.
        2   -1    0    0  501    0  0.00000000000E+00  0.00000000000E+00 -0.19684126760E+04  0.19684126760E+04  0.25500000920E-02 0.  1.
    10030    2    1    2    0    0  0.00000000000E+00  0.00000000000E+00 -0.61028435660E+03  0.33265409954E+04  0.32700807327E+04 0.  0.
        2    1    3    3  502    0  0.30912454057E+03 -0.17637677499E+03  0.13182463327E+04  0.13654450345E+04  0.25500000920E-02 0. -1.
       -2    1    3    3    0  502 -0.30912454057E+03  0.17637677499E+03 -0.19285306893E+04  0.19610959610E+04  0.25500000920E-02 0.  1.
</event>
<event>
 5   0  0.6630125E-07  0.3130552E+04  0.7818609E-02  0.8207403E-01
        3   -1    0    0  501    0  0.00000000000E+00  0.00000000000E+00  0.12552092755E+04  0.12552092795E+04  0.10100000352E+00 0. -1.
       -3   -1    0    0    0  501  0.00000000000E+00  0.00000000000E+00 -0.19519365878E+04  0.19519365905E+04  0.10100000352E+00 0.  1.
    10030    2    1    2    0    0  0.00000000000E+00  0.00000000000E+00 -0.69672731237E+03  0.32071458700E+04  0.31305519774E+04 0.  0.
        4    1    3    3  502    0  0.59446880724E+03  0.87802021928E+03 -0.15279579094E+04  0.18598305444E+04  0.12699999809E+01 0.  1.
       -4    1    3    3    0  502 -0.59446880724E+03 -0.87802021928E+03  0.83123059699E+03  0.13473153256E+04  0.12699999809E+01 0. -1.
</event>
<event>
 5   0  0.2023479E-06  0.3519456E+04  0.7818609E-02  0.8109195E-01
        2   -1    0    0  501    0  0.00000000000E+00  0.00000000000E+00  0.29338965820E+04  0.29338965820E+04  0.25500000920E-02 0. -1.
       -2   -1    0    0    0  501  0.00000000000E+00  0.00000000000E+00 -0.10554706794E+04  0.10554706794E+04  0.25500000920E-02 0.  1.
    10030    2    1    2    0    0  0.00000000000E+00  0.00000000000E+00  0.18784259026E+04  0.39893672613E+04  0.35194555366E+04 0.  0.
        5    1    3    3  502    0  0.14455543684E+04 -0.98117626091E+03  0.11777517494E+04  0.21070015567E+04  0.46999998093E+01 0.  1.
       -5    1    3    3    0  502 -0.14455543684E+04  0.98117626091E+03  0.70067415319E+03  0.18823657046E+04  0.46999998093E+01 0. -1.
</event>
<event>
 5   0  0.2023479E-06  0.3445037E+04  0.7818609E-02  0.8126940E-01
       -2   -1    0    0    0  501  0.00000000000E+00  0.00000000000E+00  0.15944616045E+04  0.15944616045E+04  0.25500000920E-02 0.  1.
        2   -1    0    0  501    0  0.00000000000E+00  0.00000000000E+00 -0.18608606077E+04  0.18608606077E+04  0.25500000920E-02 0. -1.
    10030    2    1    2    0    0  0.00000000000E+00  0.00000000000E+00 -0.26639900314E+03  0.34553222122E+04  0.34450374688E+04 0.  0.
        5    1    3    3  502    0  0.10848275464E+04 -0.12152965020E+04 -0.69455986082E+03  0.17709409599E+04  0.46999998093E+01 0.  1.
       -5    1    3    3    0  502 -0.10848275464E+04  0.12152965020E+04  0.42816085768E+03  0.16843812523E+04  0.46999998093E+01 0. -1.
</event>
<event>
 5   0  0.6630125E-07  0.3311652E+04  0.7818609E-02  0.8159937E-01
        1   -1    0    0  501    0  0.00000000000E+00  0.00000000000E+00  0.20225781748E+04  0.20225781748E+04  0.50400001928E-02 0. -1.
       -1   -1    0    0    0  501  0.00000000000E+00  0.00000000000E+00 -0.13555768888E+04  0.13555768888E+04  0.50400001928E-02 0.  1.
    10030    2    1    2    0    0  0.00000000000E+00  0.00000000000E+00  0.66700128593E+03  0.33781550636E+04  0.33116522943E+04 0.  0.
        1    1    3    3  502    0 -0.14467044418E+03  0.46119240542E+03  0.19490121864E+04  0.20080529064E+04  0.50400001928E-02 0. -1.
       -1    1    3    3    0  502  0.14467044418E+03 -0.46119240542E+03 -0.12820109005E+04  0.13701021572E+04  0.50400001928E-02 0.  1.
</event>
<event>
 5   0  0.6630125E-07  0.3497057E+04  0.7818609E-02  0.8114488E-01
       -1   -1    0    0    0  501  0.00000000000E+00  0.00000000000E+00  0.25678515286E+04  0.25678515286E+04  0.50400001928E-02 0. -1.
        1   -1    0    0  501    0  0.00000000000E+00  0.00000000000E+00 -0.11906265831E+04  0.11906265831E+04  0.50400001928E-02 0.  1.
    10030    2    1    2    0    0  0.00000000000E+00  0.00000000000E+00  0.13772249454E+04  0.37584781117E+04  0.34970572151E+04 0.  0.
        4    1    3    3  502    0  0.79934621130E+03 -0.14208177140E+04  0.91556316745E+01  0.16302646351E+04  0.12699999809E+01 0.  1.
       -4    1    3    3    0  502 -0.79934621130E+03  0.14208177140E+04  0.13680693138E+04  0.21282134766E+04  0.12699999809E+01 0. -1.
</event>
<event>
 5   0  0.2020725E-06  0.3656498E+04  0.7818609E-02  0.8077671E-01
       -2   -1    0    0    0  501  0.00000000000E+00  0.00000000000E+00  0.13803373180E+04  0.13803373180E+04  0.25500000920E-02 0.  1.
        2   -1    0    0  501    0  0.00000000000E+00  0.00000000000E+00 -0.24215056711E+04  0.24215056711E+04  0.25500000920E-02 0. -1.
    10030    2    1    2    0    0  0.00000000000E+00  0.00000000000E+00 -0.10411683531E+04  0.38018429891E+04  0.36564981299E+04 0.  0.
        3    1    3    3  502    0 -0.14968466435E+04 -0.12495710706E+03  0.56311764695E+03  0.16041401582E+04  0.10100000352E+00 0.  1.
       -3    1    3    3    0  502  0.14968466435E+04  0.12495710706E+03 -0.16042860001E+04  0.21977028309E+04  0.10100000352E+00 0. -1.
</event>
<event>
 5   0  0.2073287E-06  0.3473612E+04  0.7818609E-02  0.8120072E-01
       -2   -1    0    0    0  501  0.00000000000E+00  0.00000000000E+00  0.13953321562E+04  0.13953321562E+04  0.25500000920E-02 0.  1.
        2   -1    0    0  501    0  0.00000000000E+00  0.00000000000E+00 -0.21618472614E+04  0.21618472614E+04  0.25500000920E-02 0. -1.
    10030    2    1    2    0    0  0.00000000000E+00  0.00000000000E+00 -0.76651510517E+03  0.35571794176E+04  0.34736119534E+04 0.  0.
        1    1    3    3  502    0  0.50132910185E+03  0.81516307948E+03  0.11009810629E+04  0.14587600953E+04  0.50400001928E-02 0.  1.
       -1    1    3    3    0  502 -0.50132910185E+03 -0.81516307948E+03 -0.18674961681E+04  0.20984193224E+04  0.50400001928E-02 0. -1.
</event>
<event>
 5   0  0.2023479E-06  0.3389635E+04  0.7818609E-02  0.8140455E-01
       -2   -1    0    0    0  501  0.00000000000E+00  0.00000000000E+00  0.22668286798E+04  0.22668286798E+04  0.25500000920E-02 0.  1.
        2   -1    0    0  501    0  0.00000000000E+00  0.00000000000E+00 -0.12671472169E+04  0.12671472169E+04  0.25500000920E-02 0. -1.
    10030    2    1    2    0    0  0.00000000000E+00  0.00000000000E+00  0.99968146288E+03  0.35339758967E+04  0.33896345837E+04 0.  0.
        5    1    3    3  502    0  0.11063607484E+04  0.78414366648E+03 -0.56004550659E+03  0.14671702201E+04  0.46999998093E+01 0. -1.
       -5    1    3    3    0  502 -0.11063607484E+04 -0.78414366648E+03  0.15597269695E+04  0.20668056766E+04  0.46999998093E+01 0.  1.
</event>
<event>
 5   0  0.2023479E-06  0.3484694E+04  0.7818609E-02  0.8117427E-01
        2   -1    0    0  501    0  0.00000000000E+00  0.00000000000E+00  0.16043236138E+04  0.16043236138E+04  0.25500000920E-02 0.  1.
       -2   -1    0    0    0  501  0.00000000000E+00  0.00000000000E+00 -0.18922453108E+04  0.18922453108E+04  0.25500000920E-02 0. -1.
    10030    2    1    2    0    0  0.00000000000E+00  0.00000000000E+00 -0.28792169698E+03  0.34965689246E+04  0.34846944401E+04 0.  0.
        5    1    3    3  502    0 -0.95557720053E+03  0.34082801807E+03 -0.15652834696E+04  0.18653219439E+04  0.46999998093E+01 0. -1.
       -5    1    3    3    0  502  0.95557720053E+03 -0.34082801807E+03  0.12773617726E+04  0.16312469807E+04  0.46999998093E+01 0.  1.
</event>
<event>
 5   0  0.2020725E-06  0.3087273E+04  0.7818609E-02  0.8219239E-01
        2   -1    0    0  501    0  0.00000000000E+00  0.00000000000E+00  0.19000046116E+04  0.19000046116E+04  0.25500000920E-02 0.  1.
       -2   -1    0    0    0  501  0.00000000000E+00  0.00000000000E+00 -0.12541093441E+04  0.12541093441E+04  0.25500000920E-02 0. -1.
    10030    2    1    2    0    0  0.00000000000E+00  0.00000000000E+00  0.64589526750E+03  0.31541139558E+04  0.30872729308E+04 0.  0.
        3    1    3    3  502    0 -0.52951378269E+03 -0.94979209585E+03  0.14422606073E+04  0.18062684023E+04  0.10100000352E+00 0.  1.
       -3    1    3    3    0  502  0.52951378269E+03  0.94979209585E+03 -0.79636533984E+03  0.13478455535E+04  0.10100000352E+00 0. -1.
</event>
<event>
 5   0  0.1999883E-06  0.3380220E+04  0.7818609E-02  0.8142778E-01
        2   -1    0    0  501    0  0.00000000000E+00  0.00000000000E+00  0.26741545638E+04  0.26741545638E+04  0.25500000920E-02 0.  1.
       -2   -1    0    0    0  501  0.00000000000E+00  0.00000000000E+00 -0.10681773126E+04  0.10681773126E+04  0.25500000920E-02 0. -1.
    10030    2    1    2    0    0  0.00000000000E+00  0.00000000000E+00  0.16059772511E+04  0.37423318764E+04  0.33802196588E+04 0.  0.
        4    1    3    3  502    0  0.77125248566E+03 -0.74342137427E+03 -0.64432889094E+03  0.12500668258E+04  0.12699999809E+01 0. -1.
       -4    1    3    3    0  502 -0.77125248566E+03  0.74342137427E+03  0.22503061421E+04  0.24922650506E+04  0.12699999809E+01 0.  1.
</event>
<event>
 5   0  0.6630125E-07  0.2358433E+04  0.7818609E-02  0.8455232E-01
        1   -1    0    0  501    0  0.00000000000E+00  0.00000000000E+00  0.55263512214E+03  0.55263512216E+03  0.50400001928E-02 0. -1.
       -1   -1    0    0    0  501  0.00000000000E+00  0.00000000000E+00 -0.25162190016E+04  0.25162190016E+04  0.50400001928E-02 0.  1.
    10030    2    1    2    0    0  0.00000000000E+00  0.00000000000E+00 -0.19635838794E+04  0.30688541237E+04  0.23584325263E+04 0.  0.
        5    1    3    3  502    0  0.12311214733E+03  0.11057184076E+04 -0.14903685061E+04  0.18598360605E+04  0.46999998093E+01 0. -1.
       -5    1    3    3    0  502 -0.12311214733E+03 -0.11057184076E+04 -0.47321537328E+03  0.12090180632E+04  0.46999998093E+01 0.  1.
</event>
<event>
 5   0  0.2020725E-06  0.3388727E+04  0.7818609E-02  0.8140679E-01
       -2   -1    0    0    0  501  0.00000000000E+00  0.00000000000E+00  0.26409484825E+04  0.26409484825E+04  0.25500000920E-02 0. -1.
        2   -1    0    0  501    0  0.00000000000E+00  0.00000000000E+00 -0.10870595197E+04  0.10870595197E+04  0.25500000920E-02 0.  1.
    10030    2    1    2    0    0  0.00000000000E+00  0.00000000000E+00  0.15538889627E+04  0.37280080022E+04  0.33887273062E+04 0.  0.
        3    1    3    3  502    0 -0.63151651205E+03 -0.15148192851E+04  0.31361534681E+03  0.16708815540E+04  0.10100000352E+00 0.  1.
       -3    1    3    3    0  502  0.63151651205E+03  0.15148192851E+04  0.12402736159E+04  0.20571264482E+04  0.10100000352E+00 0. -1.
</event>
<event>
 5   0  0.1999883E-06  0.3519433E+04  0.7818609E-02  0.8109200E-01
        2   -1    0    0  501    0  0.00000000000E+00  0.00000000000E+00  0.21846064554E+04  0.21846064554E+04  0.25500000920E-02 0. -1.
       -2   -1    0    0    0  501  0.00000000000E+00  0.00000000000E+00 -0.14174647244E+04  0.14174647244E+04  0.25500000920E-02 0.  1.
    10030    2    1    2    0    0  0.00000000000E+00  0.00000000000E+00  0.76714173095E+03  0.36020711798E+04  0.35194332426E+04 0.  0.
        4    1    3    3  502    0 -0.73219924923E+02  0.14815565544E+04 -0.58535220263E+03  0.15946817222E+04  0.12699999809E+01 0.  1.
       -4    1    3    3    0  502  0.73219924923E+02 -0.14815565544E+04  0.13524939336E+04  0.20073894576E+04  0.12699999809E+01 0. -1.
</event>
<event>
 5   0  0.2073287E-06  0.2496933E+04  0.7818609E-02  0.8404079E-01
       -2   -1    0    0    0  501  0.00000000000E+00  0.00000000000E+00  0.60598370647E+03  0.60598370647E+03  0.25500000920E-02 0.  1.
        2   -1    0    0  501    0  0.00000000000E+00  0.00000000000E+00 -0.25721304291E+04  0.25721304291E+04  0.25500000920E-02 0. -1.
    10030    2    1    2    0    0  0.00000000000E+00  0.00000000000E+00 -0.19661467226E+04  0.31781141356E+04  0.24969334240E+04 0.  0.
        1    1    3    3  502    0 -0.42305397897E+03  0.13612662164E+03  0.50189689546E+03  0.67037722212E+03  0.50400001928E-02 0.  1.
       -1    1    3    3    0  502  0.42305397897E+03 -0.13612662164E+03 -0.24680436181E+04  0.25077369135E+04  0.50400001928E-02 0. -1.
</event>
<event>
 5   0  0.6630125E-07  0.3361036E+04  0.7818609E-02  0.8147536E-01
        1   -1    0    0  501    0  0.00000000000E+00  0.00000000000E+00  0.20329545023E+04  0.20329545023E+04  0.50400001928E-02 0.  1.
       -1   -1    0    0    0  501  0.00000000000E+00  0.00000000000E+00 -0.13891806854E+04  0.13891806855E+04  0.50400001928E-02 0. -1.
    10030    2    1    2    0    0  0.00000000000E+00  0.00000000000E+00  0.64377381687E+03  0.34221351878E+04  0.33610362265E+04 0.  0.
        4    1    3    3  502    0  0.18015542381E+03  0.14030513140E+04  0.12456451553E+04  0.18848454664E+04  0.12699999809E+01 0.  1.
       -4    1    3    3    0  502 -0.18015542381E+03 -0.14030513140E+04 -0.60187133847E+03  0.15372897213E+04  0.12699999809E+01 0. -1.
</event>
<event>
 5   0  0.2020725E-06  0.2401702E+04  0.7818609E-02  0.8438867E-01
       -2   -1    0    0    0  501  0.00000000000E+00  0.00000000000E+00  0.71232678768E+03  0.71232678768E+03  0.25500000920E-02 0. -1.
        2   -1    0    0  501    0  0.00000000000E+00  0.00000000000E+00 -0.20244118112E+04  0.20244118112E+04  0.25500000920E-02 0.  1.
    10030    2    1    2    0    0  0.00000000000E+00  0.00000000000E+00 -0.13120850235E+04  0.27367385989E+04  0.24017016987E+04 0.  0.
        3    1    3    3  502    0 -0.55461913840E+03  0.24920181522E+03 -0.18360377810E+04  0.19340989315E+04  0.10100000352E+00 0.  1.
       -3    1    3    3    0  502  0.55461913840E+03 -0.24920181522E+03  0.52395275747E+03  0.80263966738E+03  0.10100000352E+00 0. -1.
</event>
<event>
 5   0  0.2023479E-06  0.3445153E+04  0.7818609E-02  0.8126912E-01
       -2   -1    0    0    0  501  0.00000000000E+00  0.00000000000E+00  0.12861796676E+04  0.12861796676E+04  0.25500000920E-02 0.  1.
        2   -1    0    0  501    0  0.00000000000E+00  0.00000000000E+00 -0.23070409169E+04  0.23070409169E+04  0.25500000920E-02 0. -1.
    10030    2    1    2    0    0  0.00000000000E+00  0.00000000000E+00 -0.10208612493E+04  0.35932205846E+04  0.34451526061E+04 0.  0.
        5    1    3    3  502    0  0.31858981642E+03  0.16451319761E+04 -0.94168010152E+02  0.16783469231E+04  0.46999998093E+01 0.  1.
       -5    1    3    3    0  502 -0.31858981642E+03 -0.16451319761E+04 -0.92669323916E+03  0.19148736615E+04  0.46999998093E+01 0. -1.
</event>
<event>
 5   0  0.6890600E-07  0.3503539E+04  0.7818609E-02  0.8112952E-01
       -1   -1    0    0    0  501  0.00000000000E+00  0.00000000000E+00  0.14113875894E+04  0.14113875894E+04  0.50400001928E-02 0.  1.
        1   -1    0    0  501    0  0.00000000000E+00  0.00000000000E+00 -0.21742407591E+04  0.21742407591E+04  0.50400001928E-02 0. -1.
    10030    2    1    2    0    0  0.00000000000E+00  0.00000000000E+00 -0.76285316978E+03  0.35856283485E+04  0.35035390243E+04 0.  0.
        3    1    3    3  502    0 -0.13799945688E+04  0.10129053862E+04 -0.76207402204E+03  0.18737980565E+04  0.10100000352E+00 0. -1.
       -3    1    3    3    0  502  0.13799945688E+04 -0.10129053862E+04 -0.77914773937E+00  0.17118302920E+04  0.10100000352E+00 0.  1.
</event>
<event>
 5   0  0.6630125E-07  0.3534917E+04  0.7818609E-02  0.8105565E-01
        1   -1    0    0  501    0  0.00000000000E+00  0.00000000000E+00  0.23122184922E+04  0.23122184922E+04  0.50400001928E-02 0.  1.
       -1   -1    0    0    0  501  0.00000000000E+00  0.00000000000E+00 -0.13510444543E+04  0.13510444543E+04  0.50400001928E-02 0. -1.
    10030    2    1    2    0    0  0.00000000000E+00  0.00000000000E+00  0.96117403792E+03  0.36632629465E+04  0.35349172387E+04 0.  0.
        4    1    3    3  502    0  0.75831080364E+03 -0.15950798646E+04  0.41035233012E+03  0.18132031594E+04  0.12699999809E+01 0. -1.
       -4    1    3    3    0  502 -0.75831080364E+03  0.15950798646E+04  0.55082170780E+03  0.18500597872E+04  0.12699999809E+01 0.  1.
</event>
<event>
 5   0  0.1999883E-06  0.3488228E+04  0.7818609E-02  0.8116585E-01
        2   -1    0    0  501    0  0.00000000000E+00  0.00000000000E+00  0.27722765457E+04  0.27722765457E+04  0.25500000920E-02 0.  1.
       -2   -1    0    0    0  501  0.00000000000E+00  0.00000000000E+00 -0.10972691697E+04  0.10972691697E+04  0.25500000920E-02 0. -1.
    10030    2    1    2    0    0  0.00000000000E+00  0.00000000000E+00  0.16750073760E+04  0.38695457154E+04  0.34882279648E+04 0.  0.
        4    1    3    3  502    0 -0.58162710367E+03 -0.59862764750E+03 -0.86133876067E+03  0.11993961904E+04  0.12699999809E+01 0. -1.
       -4    1    3    3    0  502  0.58162710367E+03  0.59862764750E+03  0.25363461367E+04  0.26701495250E+04  0.12699999809E+01 0.  1.
</event>
<event>
 5   0  0.6890600E-07  0.3511541E+04  0.7818609E-02  0.8111060E-01
        1   -1    0    0  501    0  0.00000000000E+00  0.00000000000E+00  0.19551006101E+04  0.19551006101E+04  0.50400001928E-02 0.  1.
       -1   -1    0    0    0  501  0.00000000000E+00  0.00000000000E+00 -0.15767631414E+04  0.15767631414E+04  0.50400001928E-02 0. -1.
    10030    2    1    2    0    0  0.00000000000E+00  0.00000000000E+00  0.37833746875E+03  0.35318637515E+04  0.35115413024E+04 0.  0.
        3    1    3    3  502    0 -0.36283290989E+03 -0.81808700368E+03 -0.13301416947E+04  0.16031815257E+04  0.10100000352E+00 0. -1.
       -3    1    3    3    0  502  0.36283290989E+03  0.81808700368E+03  0.17084791634E+04  0.19286822258E+04  0.10100000352E+00 0.  1.
</event>
<event>
 5   0  0.2023479E-06  0.2395706E+04  0.7818609E-02  0.8441113E-01
       -2   -1    0    0    0  501  0.00000000000E+00  0.00000000000E+00  0.60379831264E+03  0.60379831264E+03  0.25500000920E-02 0.  1.
        2   -1    0    0  501    0  0.00000000000E+00  0.00000000000E+00 -0.23763752057E+04  0.23763752057E+04  0.25500000920E-02 0. -1.
    10030    2    1    2    0    0  0.00000000000E+00  0.00000000000E+00 -0.17725768931E+04  0.29801735184E+04  0.23957056075E+04 0.  0.
        5    1    3    3  502    0 -0.81286110830E+03  0.18663348732E+03  0.18327104525E+03  0.85392365350E+03  0.46999998093E+01 0.  1.
       -5    1    3    3    0  502  0.81286110830E+03 -0.18663348732E+03 -0.19558479384E+04  0.21262498649E+04  0.46999998093E+01 0. -1.
</event>
<event>
 5   0  0.2001768E-06  0.3330513E+04  0.7818609E-02  0.8155174E-01
        2   -1    0    0  501    0  0.00000000000E+00  0.00000000000E+00  0.28577318272E+04  0.28577318272E+04  0.25500000920E-02 0.  1.
       -2   -1    0    0    0  501  0.00000000000E+00  0.00000000000E+00 -0.97037791615E+03  0.97037791616E+03  0.25500000920E-02 0. -1.
    10030    2    1    2    0    0  0.00000000000E+00  0.00000000000E+00  0.18873539111E+04  0.38281097434E+04  0.33305133871E+04 0.  0.
        2    1    3    3  502    0 -0.50163917086E+03 -0.15457894286E+04  0.52611991906E+03  0.17081888023E+04  0.25500000920E-02 0. -1.
       -2    1    3    3    0  502  0.50163917086E+03  0.15457894286E+04  0.13612339920E+04  0.21199209410E+04  0.25500000920E-02 0.  1.
</event>
<event>
 5   0  0.2023479E-06  0.3558820E+04  0.7818609E-02  0.8099990E-01
       -2   -1    0    0    0  501  0.00000000000E+00  0.00000000000E+00  0.17273952854E+04  0.17273952854E+04  0.25500000920E-02 0. -1.
        2   -1    0    0  501    0  0.00000000000E+00  0.00000000000E+00 -0.18329913812E+04  0.18329913812E+04  0.25500000920E-02 0.  1.
    10030    2    1    2    0    0  0.00000000000E+00  0.00000000000E+00 -0.10559609580E+03  0.35603866667E+04  0.35588204058E+04 0.  0.
        5    1    3    3  502    0 -0.13020810067E+04 -0.58567925745E+03 -0.11152651772E+04  0.18117046245E+04  0.46999998093E+01 0.  1.
       -5    1    3    3    0  502  0.13020810067E+04  0.58567925745E+03  0.10096690814E+04  0.17486820422E+04  0.46999998093E+01 0. -1.
</event>
<event>
 5   0  0.6630125E-07  0.3379499E+04  0.7818609E-02  0.8142956E-01
       -1   -1    0    0    0  501  0.00000000000E+00  0.00000000000E+00  0.17501128542E+04  0.17501128542E+04  0.50400001928E-02 0.  1.
        1   -1    0    0  501    0  0.00000000000E+00  0.00000000000E+00 -0.16314681786E+04  0.16314681786E+04  0.50400001928E-02 0. -1.
    10030    2    1    2    0    0  0.00000000000E+00  0.00000000000E+00  0.11864467556E+03  0.33815810328E+04  0.33794990342E+04 0.  0.
        5    1    3    3  502    0  0.16854296341E+03 -0.14660176429E+04  0.88300434749E+03  0.17196898637E+04  0.46999998093E+01 0.  1.
       -5    1    3    3    0  502 -0.16854296341E+03  0.14660176429E+04 -0.76435967192E+03  0.16618911691E+04  0.46999998093E+01 0. -1.
</event>
<event>
 5   0  0.6630125E-07  0.3529463E+04  0.7818609E-02  0.8106843E-01
       -1   -1    0    0    0  501  0.00000000000E+00  0.00000000000E+00  0.11687667170E+04  0.11687667170E+04  0.50400001928E-02 0.  1.
        1   -1    0    0  501    0  0.00000000000E+00  0.00000000000E+00 -0.26645836515E+04  0.26645836515E+04  0.50400001928E-02 0. -1.
    10030    2    1    2    0    0  0.00000000000E+00  0.00000000000E+00 -0.14958169346E+04  0.38333503685E+04  0.35294626710E+04 0.  0.
        4    1    3    3  502    0 -0.16450382969E+04 -0.46445108286E+03 -0.27149622251E+03  0.17307737051E+04  0.12699999809E+01 0.  1.
       -4    1    3    3    0  502  0.16450382969E+04  0.46445108286E+03 -0.12243207121E+04  0.21025766634E+04  0.12699999809E+01 0. -1.
</event>
<event>
 5   0  0.2020725E-06  0.2438884E+04  0.7818609E-02  0.8425088E-01
        2   -1    0    0  501    0  0.00000000000E+00  0.00000000000E+00  0.23557530139E+04  0.23557530139E+04  0.25500000920E-02 0.  1.
       -2   -1    0    0    0  501  0.00000000000E+00  0.00000000000E+00 -0.63123715771E+03  0.63123715772E+03  0.25500000920E-02 0. -1.
    10030    2    1    2    0    0  0.00000000000E+00  0.00000000000E+00  0.17245158562E+04  0.29869901716E+04  0.24388840372E+04 0.  0.
        3    1    3    3  502    0 -0.51208088029E+03 -0.10899997870E+04  0.62759234311E+03  0.13580127109E+04  0.10100000352E+00 0.  1.
       -3    1    3    3    0  502  0.51208088029E+03  0.10899997870E+04  0.10969235131E+04  0.16289774607E+04  0.10100000352E+00 0. -1.
</event>
<event>
 5   0  0.7378896E-07  0.3300406E+04  0.7818609E-02  0.8162792E-01
       -1   -1    0    0    0  501  0.00000000000E+00  0.00000000000E+00  0.13986809794E+04  0.13986809794E+04  0.50400001928E-02 0.  1.
        1   -1    0    0  501    0  0.00000000000E+00  0.00000000000E+00 -0.19469553497E+04  0.19469553497E+04  0.50400001928E-02 0. -1.
    10030    2    1    2    0    0  0.00000000000E+00  0.00000000000E+00 -0.54827437031E+03  0.33456363291E+04  0.33004056813E+04 0.  0.
        2    1    3    3  502    0 -0.11538279927E+04  0.72384774579E+03  0.67023884048E+03  0.15180562240E+04  0.25500000920E-02 0.  1.
       -2    1    3    3    0  502  0.11538279927E+04 -0.72384774579E+03 -0.12185132108E+04  0.18275801051E+04  0.25500000920E-02 0. -1.
</event>
<event>
 5   0  0.1999883E-06  0.3516496E+04  0.7818609E-02  0.8109892E-01
       -2   -1    0    0    0  501  0.00000000000E+00  0.00000000000E+00  0.17302210579E+04  0.17302210579E+04  0.25500000920E-02 0.  1.
        2   -1    0    0  501    0  0.00000000000E+00  0.00000000000E+00 -0.17867290689E+04  0.17867290689E+04  0.25500000920E-02 0. -1.
    10030    2    1    2    0    0  0.00000000000E+00  0.00000000000E+00 -0.56508010971E+02  0.35169501268E+04  0.35164961309E+04 0.  0.
        4    1    3    3  502    0 -0.78313311157E+02 -0.17468033955E+04 -0.21261328553E+03  0.17614372254E+04  0.12699999809E+01 0. -1.
       -4    1    3    3    0  502  0.78313311157E+02  0.17468033955E+04  0.15610527456E+03  0.17555129013E+04  0.12699999809E+01 0.  1.
</event>
<event>
 5   0  0.6630125E-07  0.2853632E+04  0.7818609E-02  0.8286809E-01
        1   -1    0    0  501    0  0.00000000000E+00  0.00000000000E+00  0.10736271505E+04  0.10736271505E+04  0.50400001928E-02 0. -1.
       -1   -1    0    0    0  501  0.00000000000E+00  0.00000000000E+00 -0.18961922431E+04  0.18961922431E+04  0.50400001928E-02 0.  1.
    10030    2    1    2    0    0  0.00000000000E+00  0.00000000000E+00 -0.82256509259E+03  0.29698193937E+04  0.28536317035E+04 0.  0.
        4    1    3    3  502    0  0.10908415590E+04 -0.91579436622E+03 -0.49951188175E+03  0.15093469982E+04  0.12699999809E+01 0.  1.
       -4    1    3    3    0  502 -0.10908415590E+04  0.91579436622E+03 -0.32305321083E+03  0.14604723955E+04  0.12699999809E+01 0. -1.
</event>
<event>
 5   0  0.6630125E-07  0.3630522E+04  0.7818609E-02  0.8083536E-01
       -1   -1    0    0    0  501  0.00000000000E+00  0.00000000000E+00  0.14829013217E+04  0.14829013218E+04  0.50400001928E-02 0. -1.
        1   -1    0    0  501    0  0.00000000000E+00  0.00000000000E+00 -0.22221116703E+04  0.22221116703E+04  0.50400001928E-02 0.  1.
    10030    2    1    2    0    0  0.00000000000E+00  0.00000000000E+00 -0.73921034856E+03  0.37050129921E+04  0.36305219090E+04 0.  0.
        1    1    3    3  502    0 -0.30849514237E+03  0.20989119829E+03 -0.21825544172E+04  0.22142193550E+04  0.50400001928E-02 0.  1.
       -1    1    3    3    0  502  0.30849514237E+03 -0.20989119829E+03  0.14433440686E+04  0.14907936371E+04  0.50400001928E-02 0. -1.
</event>
<event>
 5   0  0.6630125E-07  0.3540783E+04  0.7818609E-02  0.8104192E-01
       -1   -1    0    0    0  501  0.00000000000E+00  0.00000000000E+00  0.13356219458E+04  0.13356219458E+04  0.50400001928E-02 0.  1.
        1   -1    0    0  501    0  0.00000000000E+00  0.00000000000E+00 -0.23466860171E+04  0.23466860171E+04  0.50400001928E-02 0. -1.
    10030    2    1    2    0    0  0.00000000000E+00  0.00000000000E+00 -0.10110640713E+04  0.36823079628E+04  0.35407825939E+04 0.  0.
        5    1    3    3  502    0 -0.70062383247E+03 -0.10257732672E+04 -0.18173703900E+04  0.22013499891E+04  0.46999998093E+01 0. -1.
       -5    1    3    3    0  502  0.70062383247E+03  0.10257732672E+04  0.80630631873E+03  0.14809579737E+04  0.46999998093E+01 0.  1.
</event>
<event>
 5   0  0.6890600E-07  0.3495607E+04  0.7818609E-02  0.8114832E-01
        1   -1    0    0  501    0  0.00000000000E+00  0.00000000000E+00  0.12565943882E+04  0.12565943882E+04  0.50400001928E-02 0.  1.
       -1   -1    0    0    0  501  0.00000000000E+00  0.00000000000E+00 -0.24310291943E+04  0.24310291943E+04  0.50400001928E-02 0. -1.
    10030    2    1    2    0    0  0.00000000000E+00  0.00000000000E+00 -0.11744348061E+04  0.36876235825E+04  0.34956073253E+04 0.  0.
        3    1    3    3  502    0 -0.28554334539E+02 -0.16779146398E+04 -0.11025213634E+04  0.20079258591E+04  0.10100000352E+00 0.  1.
       -3    1    3    3    0  502  0.28554334539E+02  0.16779146398E+04 -0.71913442680E+02  0.16796977234E+04  0.10100000352E+00 0. -1.
</event>
<event>
 5   0  0.2001768E-06  0.3458112E+04  0.7818609E-02  0.8123789E-01
        2   -1    0    0  501    0  0.00000000000E+00  0.00000000000E+00  0.18339626530E+04  0.18339626530E+04  0.25500000920E-02 0.  1.
       -2   -1    0    0    0  501  0.00000000000E+00  0.00000000000E+00 -0.16301500301E+04  0.16301500301E+04  0.25500000920E-02 0. -1.
    10030    2    1    2    0    0  0.00000000000E+00  0.00000000000E+00  0.20381262290E+03  0.34641126831E+04  0.34581117819E+04 0.  0.
        2    1    3    3  502    0 -0.11638470522E+04 -0.10391740489E+04  0.84832456633E+03  0.17759721942E+04  0.25500000920E-02 0.  1.
       -2    1    3    3    0  502  0.11638470522E+04  0.10391740489E+04 -0.64451194343E+03  0.16881404889E+04  0.25500000920E-02 0. -1.
</event>
<event>
 5   0  0.6630125E-07  0.3603603E+04  0.7818609E-02  0.8089667E-01
       -1   -1    0    0    0  501  0.00000000000E+00  0.00000000000E+00  0.28394797593E+04  0.28394797593E+04  0.50400001928E-02 0. -1.
        1   -1    0    0  501    0  0.00000000000E+00  0.00000000000E+00 -0.11433390239E+04  0.11433390239E+04  0.50400001928E-02 0.  1.
    10030    2    1    2    0    0  0.00000000000E+00  0.00000000000E+00  0.16961407354E+04  0.39828187831E+04  0.36036026508E+04 0.  0.
        4    1    3    3  502    0 -0.16440681534E+04  0.36619264922E+03  0.15552717224E+04  0.22925812729E+04  0.12699999809E+01 0. -1.
       -4    1    3    3    0  502  0.16440681534E+04 -0.36619264922E+03  0.14086901303E+03  0.16902375103E+04  0.12699999809E+01 0.  1.
</event>
<event>
 5   0  0.2020725E-06  0.3422414E+04  0.7818609E-02  0.8132427E-01
       -2   -1    0    0    0  501  0.00000000000E+00  0.00000000000E+00  0.11319226795E+04  0.11319226795E+04  0.25500000920E-02 0.  1.
        2   -1    0    0  501    0  0.00000000000E+00  0.00000000000E+00 -0.25869519589E+04  0.25869519589E+04  0.25500000920E-02 0. -1.
    10030    2    1    2    0    0  0.00000000000E+00  0.00000000000E+00 -0.14550292794E+04  0.37188746383E+04  0.34224141146E+04 0.  0.
        3    1    3    3  502    0  0.60465000606E+03  0.12729821360E+04  0.32720667776E+03  0.14467720514E+04  0.10100000352E+00 0.  1.
       -3    1    3    3    0  502 -0.60465000606E+03 -0.12729821360E+04 -0.17822359572E+04  0.22721025870E+04  0.10100000352E+00 0. -1.
</event>
<event>
 5   0  0.1999883E-06  0.3487693E+04  0.7818609E-02  0.8116713E-01
       -2   -1    0    0    0  501  0.00000000000E+00  0.00000000000E+00  0.14358568925E+04  0.14358568925E+04  0.25500000920E-02 0.  1.
        2   -1    0    0  501    0  0.00000000000E+00  0.00000000000E+00 -0.21179000947E+04  0.21179000947E+04  0.25500000920E-02 0. -1.
    10030    2    1    2    0    0  0.00000000000E+00  0.00000000000E+00 -0.68204320218E+03  0.35537569873E+04  0.34876934778E+04 0.  0.
        4    1    3    3  502    0 -0.32493653902E+03  0.11009195610E+04 -0.16786684756E+04  0.20336020009E+04  0.12699999809E+01 0. -1.
       -4    1    3    3    0  502  0.32493653902E+03 -0.11009195610E+04  0.99662527343E+03  0.15201549864E+04  0.12699999809E+01 0.  1.
</event>
<event>
 5   0  0.6630125E-07  0.3465625E+04  0.7818609E-02  0.8121985E-01
        1   -1    0    0  501    0  0.00000000000E+00  0.00000000000E+00  0.16498348966E+04  0.16498348966E+04  0.50400001928E-02 0. -1.
       -1   -1    0    0    0  501  0.00000000000E+00  0.00000000000E+00 -0.18199630510E+04  0.18199630510E+04  0.50400001928E-02 0.  1.
    10030    2    1    2    0    0  0.00000000000E+00  0.00000000000E+00 -0.17012815441E+03  0.34697979477E+04  0.34656246492E+04 0.  0.
        1    1    3    3  502    0  0.27335255381E+03  0.14235992289E+04 -0.10355661132E+04  0.17815031737E+04  0.50400001928E-02 0.  1.
       -1    1    3    3    0  502 -0.27335255381E+03 -0.14235992289E+04  0.86543795877E+03  0.16882947739E+04  0.50400001928E-02 0. -1.
</event>
<event>
 5   0  0.2023479E-06  0.3644324E+04  0.7818609E-02  0.8080414E-01
        2   -1    0    0  501    0  0.00000000000E+00  0.00000000000E+00  0.25079136806E+04  0.25079136806E+04  0.25500000920E-02 0. -1.
       -2   -1    0    0    0  501  0.00000000000E+00  0.00000000000E+00 -0.13239187667E+04  0.13239187667E+04  0.25500000920E-02 0.  1.
    10030    2    1    2    0    0  0.00000000000E+00  0.00000000000E+00  0.11839949139E+04  0.38318324473E+04  0.36443237985E+04 0.  0.
        5    1    3    3  502    0 -0.46584063647E+03  0.15290674220E+04 -0.32776619887E+03  0.16317191703E+04  0.46999998093E+01 0.  1.
       -5    1    3    3    0  502  0.46584063647E+03 -0.15290674220E+04  0.15117611127E+04  0.22001132770E+04  0.46999998093E+01 0. -1.
</event>
<event>
 5   0  0.2073287E-06  0.3576348E+04  0.7818609E-02  0.8095931E-01
        2   -1    0    0  501    0  0.00000000000E+00  0.00000000000E+00  0.13984208906E+04  0.13984208906E+04  0.25500000920E-02 0.  1.
       -2   -1    0    0    0  501  0.00000000000E+00  0.00000000000E+00 -0.22865549565E+04  0.22865549565E+04  0.25500000920E-02 0. -1.
    10030    2    1    2    0    0  0.00000000000E+00  0.00000000000E+00 -0.88813406590E+03  0.36849758472E+04  0.35763479802E+04 0.  0.
        1    1    3    3  502    0  0.87195628353E+03  0.15052916024E+04 -0.17542426577E+02  0.17396891405E+04  0.50400001928E-02 0.  1.
       -1    1    3    3    0  502 -0.87195628353E+03 -0.15052916024E+04 -0.87059163932E+03  0.19452867067E+04  0.50400001928E-02 0. -1.
</event>
<event>
 5   0  0.2020725E-06  0.3484727E+04  0.7818609E-02  0.8117419E-01
        2   -1    0    0  501    0  0.00000000000E+00  0.00000000000E+00  0.23565070686E+04  0.23565070686E+04  0.25500000920E-02 0. -1.
       -2   -1    0    0    0  501  0.00000000000E+00  0.00000000000E+00 -0.12882752723E+04  0.12882752723E+04  0.25500000920E-02 0.  1.
    10030    2    1    2    0    0  0.00000000000E+00  0.00000000000E+00  0.10682317963E+04  0.36447823409E+04  0.34847265519E+04 0.  0.
        3    1    3    3  502    0 -0.21680698425E+03 -0.17253052855E+04  0.41884419033E+03  0.17886067378E+04  0.10100000352E+00 0.  1.
       -3    1    3    3    0  502  0.21680698425E+03  0.17253052855E+04  0.64938760597E+03  0.18561756031E+04  0.10100000352E+00 0. -1.
</event>
<event>
 5   0  0.6630125E-07  0.3558843E+04  0.7818609E-02  0.8099985E-01
       -1   -1    0    0    0  501  0.00000000000E+00  0.00000000000E+00  0.15864374752E+04  0.15864374752E+04  0.50400001928E-02 0.  1.
        1   -1    0    0  501    0  0.00000000000E+00  0.00000000000E+00 -0.19958807736E+04  0.19958807736E+04  0.50400001928E-02 0. -1.
    10030    2    1    2    0    0  0.00000000000E+00  0.00000000000E+00 -0.40944329837E+03  0.35823182488E+04  0.35588425395E+04 0.  0.
        1    1    3    3  502    0 -0.28822165081E+03  0.83211001007E+03 -0.17611623548E+04  0.19690534855E+04  0.50400001928E-02 0. -1.
       -1    1    3    3    0  502  0.28822165081E+03 -0.83211001007E+03  0.13517190564E+04  0.16132647633E+04  0.50400001928E-02 0.  1.
</event>
<event>
 5   0  0.7378896E-07  0.3471031E+04  0.7818609E-02  0.8120690E-01
       -1   -1    0    0    0  501  0.00000000000E+00  0.00000000000E+00  0.15702682687E+04  0.15702682687E+04  0.50400001928E-02 0.  1.
        1   -1    0    0  501    0  0.00000000000E+00  0.00000000000E+00 -0.19181522508E+04  0.19181522508E+04  0.50400001928E-02 0. -1.
    10030    2    1    2    0    0  0.00000000000E+00  0.00000000000E+00 -0.34788398206E+03  0.34884205195E+04  0.34710307483E+04 0.  0.
        2    1    3    3  502    0 -0.83244998715E+03  0.10342802638E+04  0.94938088995E+03  0.16321864843E+04  0.25500000920E-02 0.  1.
       -2    1    3    3    0  502  0.83244998715E+03 -0.10342802638E+04 -0.12972648720E+04  0.18562340352E+04  0.25500000920E-02 0. -1.
</event>
<event>
 5   0  0.2073287E-06  0.3350644E+04  0.7818609E-02  0.8150127E-01
       -2   -1    0    0    0  501  0.00000000000E+00  0.00000000000E+00  0.16812671719E+04  0.16812671719E+04  0.25500000920E-02 0.  1.
        2   -1    0    0  501    0  0.00000000000E+00  0.00000000000E+00 -0.16693973745E+04  0.16693973745E+04  0.25500000920E-02 0. -1.
    10030    2    1    2    0    0  0.00000000000E+00  0.00000000000E+00  0.11869797430E+02  0.33506645463E+04  0.33506435218E+04 0.  0.
        1    1    3    3  502    0 -0.13523896941E+04  0.88261051229E+03 -0.43987480903E+03  0.16737529832E+04  0.50400001928E-02 0. -1.
       -1    1    3    3    0  502  0.13523896941E+04 -0.88261051229E+03  0.45174460646E+03  0.16769115631E+04  0.50400001928E-02 0.  1.
</event>
<event>
 5   0  0.2020725E-06  0.2149858E+04  0.7818609E-02  0.8539593E-01
        2   -1    0    0  501    0  0.00000000000E+00  0.00000000000E+00  0.15117448215E+04  0.15117448215E+04  0.25500000920E-02 0. -1.
       -2   -1    0    0    0  501  0.00000000000E+00  0.00000000000E+00 -0.76433023038E+03  0.76433023039E+03  0.25500000920E-02 0.  1.
    10030    2    1    2    0    0  0.00000000000E+00  0.00000000000E+00  0.74741459109E+03  0.22760750519E+04  0.21498579187E+04 0.  0.
        3    1    3    3  502    0 -0.12164326698E+03  0.10281318088E+04  0.67558673769E+02  0.10375048362E+04  0.10100000352E+00 0. -1.
       -3    1    3    3    0  502  0.12164326698E+03 -0.10281318088E+04  0.67985591732E+03  0.12385702156E+04  0.10100000352E+00 0.  1.
</event>
<event>
 5   0  0.6630125E-07  0.3236712E+04  0.7818609E-02  0.8179188E-01
        1   -1    0    0  501    0  0.00000000000E+00  0.00000000000E+00  0.21345101826E+04  0.21345101826E+04  0.50400001928E-02 0. -1.
       -1   -1    0    0    0  501  0.00000000000E+00  0.00000000000E+00 -0.12270149814E+04  0.12270149815E+04  0.50400001928E-02 0.  1.
    10030    2    1    2    0    0  0.00000000000E+00  0.00000000000E+00  0.90749520117E+03  0.33615251641E+04  0.32367118946E+04 0.  0.
        5    1    3    3  502    0 -0.10552962820E+04  0.60542192906E+03 -0.65458218344E+03  0.13815519823E+04  0.46999998093E+01 0.  1.
       -5    1    3    3    0  502  0.10552962820E+04 -0.60542192906E+03  0.15620773846E+04  0.19799731818E+04  0.46999998093E+01 0. -1.
</event>
<event>
 5   0  0.2020725E-06  0.3494142E+04  0.7818609E-02  0.8115180E-01
       -2   -1    0    0    0  501  0.00000000000E+00  0.00000000000E+00  0.12453816473E+04  0.12453816473E+04  0.25500000920E-02 0. -1.
        2   -1    0    0  501    0  0.00000000000E+00  0.00000000000E+00 -0.24508606566E+04  0.24508606566E+04  0.25500000920E-02 0.  1.
    10030    2    1    2    0    0  0.00000000000E+00  0.00000000000E+00 -0.12054790093E+04  0.36962423039E+04  0.34941418871E+04 0.  0.
        3    1    3    3  502    0  0.49748182807E+03  0.15717803234E+04 -0.12143459473E+04  0.20475882507E+04  0.10100000352E+00 0.  1.
       -3    1    3    3    0  502 -0.49748182807E+03 -0.15717803234E+04  0.88669380132E+01  0.16486540532E+04  0.10100000352E+00 0. -1.
</event>
<event>
 5   0  0.6630125E-07  0.3035684E+04  0.7818609E-02  0.8233614E-01
        1   -1    0    0  501    0  0.00000000000E+00  0.00000000000E+00  0.17375251648E+04  0.17375251649E+04  0.50400001928E-02 0.  1.
       -1   -1    0    0    0  501  0.00000000000E+00  0.00000000000E+00 -0.13259341793E+04  0.13259341793E+04  0.50400001928E-02 0. -1.
    10030    2    1    2    0    0  0.00000000000E+00  0.00000000000E+00  0.41159098559E+03  0.30634593441E+04  0.30356837802E+04 0.  0.
        4    1    3    3  502    0  0.56768423975E+03 -0.80354144949E+03  0.13721813966E+04  0.16884394142E+04  0.12699999809E+01 0.  1.
       -4    1    3    3    0  502 -0.56768423975E+03  0.80354144949E+03 -0.96059041105E+03  0.13750199300E+04  0.12699999809E+01 0. -1.
</event>
<event>
 5   0  0.6630125E-07  0.3449473E+04  0.7818609E-02  0.8125870E-01
       -1   -1    0    0    0  501  0.00000000000E+00  0.00000000000E+00  0.18271198436E+04  0.18271198436E+04  0.50400001928E-02 0.  1.
        1   -1    0    0  501    0  0.00000000000E+00  0.00000000000E+00 -0.16280898787E+04  0.16280898787E+04  0.50400001928E-02 0. -1.
    10030    2    1    2    0    0  0.00000000000E+00  0.00000000000E+00  0.19902996488E+03  0.34552097224E+04  0.34494726117E+04 0.  0.
        4    1    3    3  502    0 -0.69070849348E+01 -0.16750192745E+04  0.51126609591E+03  0.17513229033E+04  0.12699999809E+01 0.  1.
       -4    1    3    3    0  502  0.69070849348E+01  0.16750192745E+04 -0.31223613104E+03  0.17038868191E+04  0.12699999809E+01 0. -1.
</event>
<event>
 5   0  0.2020725E-06  0.3468878E+04  0.7818609E-02  0.8121205E-01
       -2   -1    0    0    0  501  0.00000000000E+00  0.00000000000E+00  0.11412969279E+04  0.11412969279E+04  0.25500000920E-02 0.  1.
        2   -1    0    0  501    0  0.00000000000E+00  0.00000000000E+00 -0.26358424053E+04  0.26358424053E+04  0.25500000920E-02 0. -1.
    10030    2    1    2    0    0  0.00000000000E+00  0.00000000000E+00 -0.14945454774E+04  0.37771393332E+04  0.34688781123E+04 0.  0.
        3    1    3    3  502    0  0.10289905159E+04 -0.72831713040E+03 -0.20443532195E+04  0.24018008703E+04  0.10100000352E+00 0. -1.
       -3    1    3    3    0  502 -0.10289905159E+04  0.72831713040E+03  0.54980774206E+03  0.13753384629E+04  0.10100000352E+00 0.  1.
</event>
<event>
 5   0  0.6890600E-07  0.3489662E+04  0.7818609E-02  0.8116244E-01
       -1   -1    0    0    0  501  0.00000000000E+00  0.00000000000E+00  0.93141880142E+03  0.93141880143E+03  0.50400001928E-02 0. -1.
        1   -1    0    0  501    0  0.00000000000E+00  0.00000000000E+00 -0.32685995725E+04  0.32685995725E+04  0.50400001928E-02 0.  1.
    10030    2    1    2    0    0  0.00000000000E+00  0.00000000000E+00 -0.23371807711E+04  0.42000183740E+04  0.34896619299E+04 0.  0.
        3    1    3    3  502    0  0.76886225864E+03  0.12975435194E+04 -0.22244816364E+04  0.26875801232E+04  0.10100000352E+00 0. -1.
       -3    1    3    3    0  502 -0.76886225864E+03 -0.12975435194E+04 -0.11269913470E+03  0.15124382508E+04  0.10100000352E+00 0.  1.
</event>
<event>
 5   0  0.6630125E-07  0.2491040E+04  0.7818609E-02  0.8406185E-01
       -1   -1    0    0    0  501  0.00000000000E+00  0.00000000000E+00  0.11612962840E+04  0.11612962840E+04  0.50400001928E-02 0.  1.
        1   -1    0    0  501    0  0.00000000000E+00  0.00000000000E+00 -0.13358517085E+04  0.13358517085E+04  0.50400001928E-02 0. -1.
    10030    2    1    2    0    0  0.00000000000E+00  0.00000000000E+00 -0.17455542448E+03  0.24971479925E+04  0.24910396424E+04 0.  0.
        1    1    3    3  502    0  0.65680012489E+03 -0.77551969666E+03 -0.80911454159E+03  0.12990317723E+04  0.50400001928E-02 0. -1.
       -1    1    3    3    0  502 -0.65680012489E+03  0.77551969666E+03  0.63455911711E+03  0.11981162202E+04  0.50400001928E-02 0.  1.
</event>
<event>
 5   0  0.6630125E-07  0.2370406E+04  0.7818609E-02  0.8450667E-01
       -1   -1    0    0    0  501  0.00000000000E+00  0.00000000000E+00  0.15625394016E+04  0.15625394016E+04  0.50400001928E-02 0.  1.
        1   -1    0    0  501    0  0.00000000000E+00  0.00000000000E+00 -0.89898961624E+03  0.89898961625E+03  0.50400001928E-02 0. -1.
    10030    2    1    2    0    0  0.00000000000E+00  0.00000000000E+00  0.66354978532E+03  0.24615290178E+04  0.23704064605E+04 0.  0.
        4    1    3    3  502    0  0.79529573567E+03  0.85051007206E+03  0.10227599173E+03  0.11688989183E+04  0.12699999809E+01 0.  1.
       -4    1    3    3    0  502 -0.79529573567E+03 -0.85051007206E+03  0.56127379359E+03  0.12926300995E+04  0.12699999809E+01 0. -1.
</event>
<event>
 5   0  0.2001768E-06  0.3506965E+04  0.7818609E-02  0.8112141E-01
       -2   -1    0    0    0  501  0.00000000000E+00  0.00000000000E+00  0.12108889027E+04  0.12108889027E+04  0.25500000920E-02 0.  1.
        2   -1    0    0  501    0  0.00000000000E+00  0.00000000000E+00 -0.25392101491E+04  0.25392101491E+04  0.25500000920E-02 0. -1.
    10030    2    1    2    0    0  0.00000000000E+00  0.00000000000E+00 -0.13283212464E+04  0.37500990518E+04  0.35069652927E+04 0.  0.
        2    1    3    3  502    0 -0.16431814554E+04 -0.33520567903E+03 -0.12118128110E+04  0.20690332118E+04  0.25500000920E-02 0.  1.
       -2    1    3    3    0  502  0.16431814554E+04  0.33520567903E+03 -0.11650843542E+03  0.16810658399E+04  0.25500000920E-02 0. -1.
</event>
<event>
 5   0  0.2001768E-06  0.3476777E+04  0.7818609E-02  0.8119316E-01
       -2   -1    0    0    0  501  0.00000000000E+00  0.00000000000E+00  0.20404789695E+04  0.20404789695E+04  0.25500000920E-02 0.  1.
        2   -1    0    0  501    0  0.00000000000E+00  0.00000000000E+00 -0.14810218380E+04  0.14810218380E+04  0.25500000920E-02 0. -1.
    10030    2    1    2    0    0  0.00000000000E+00  0.00000000000E+00  0.55945713146E+03  0.35215008075E+04  0.34767766186E+04 0.  0.
        2    1    3    3  502    0 -0.10032240585E+04  0.41391002928E+03  0.16552160666E+04  0.19792726571E+04  0.25500000920E-02 0.  1.
       -2    1    3    3    0  502  0.10032240585E+04 -0.41391002928E+03 -0.10957589351E+04  0.15422281504E+04  0.25500000920E-02 0. -1.
</event>
<event>
 5   0  0.2001768E-06  0.3462175E+04  0.7818609E-02  0.8122813E-01
       -2   -1    0    0    0  501  0.00000000000E+00  0.00000000000E+00  0.20038089651E+04  0.20038089651E+04  0.25500000920E-02 0. -1.
        2   -1    0    0  501    0  0.00000000000E+00  0.00000000000E+00 -0.14954835723E+04  0.14954835723E+04  0.25500000920E-02 0.  1.
    10030    2    1    2    0    0  0.00000000000E+00  0.00000000000E+00  0.50832539281E+03  0.34992925373E+04  0.34621746861E+04 0.  0.
        2    1    3    3  502    0 -0.12988518888E+04  0.18436715902E+03 -0.88739547403E+03  0.15838176050E+04  0.25500000920E-02 0.  1.
       -2    1    3    3    0  502  0.12988518888E+04 -0.18436715902E+03  0.13957208668E+04  0.19154749324E+04  0.25500000920E-02 0. -1.
</event>
<event>
 5   0  0.7378896E-07  0.3479770E+04  0.7818609E-02  0.8118601E-01
       -1   -1    0    0    0  501  0.00000000000E+00  0.00000000000E+00  0.26417316783E+04  0.26417316783E+04  0.50400001928E-02 0. -1.
        1   -1    0    0  501    0  0.00000000000E+00  0.00000000000E+00 -0.11459146386E+04  0.11459146386E+04  0.50400001928E-02 0.  1.
    10030    2    1    2    0    0  0.00000000000E+00  0.00000000000E+00  0.14958170397E+04  0.37876463169E+04  0.34797695334E+04 0.  0.
        2    1    3    3  502    0  0.37559051044E+03  0.54287714775E+03  0.25001236893E+04  0.25858078604E+04  0.25500000920E-02 0. -1.
       -2    1    3    3    0  502 -0.37559051044E+03 -0.54287714775E+03 -0.10043066496E+04  0.12018384565E+04  0.25500000920E-02 0.  1.
</event>
<event>
 5   0  0.6630125E-07  0.3513753E+04  0.7818609E-02  0.8110538E-01
       -1   -1    0    0    0  501  0.00000000000E+00  0.00000000000E+00  0.12195059844E+04  0.12195059844E+04  0.50400001928E-02 0.  1.
        1   -1    0    0  501    0  0.00000000000E+00  0.00000000000E+00 -0.25310368640E+04  0.25310368640E+04  0.50400001928E-02 0. -1.
    10030    2    1    2    0    0  0.00000000000E+00  0.00000000000E+00 -0.13115308796E+04  0.37505428484E+04  0.35137527531E+04 0.  0.
        4    1    3    3  502    0  0.15882129268E+04  0.61614053130E+03 -0.19720574281E+03  0.17149172496E+04  0.12699999809E+01 0.  1.
       -4    1    3    3    0  502 -0.15882129268E+04 -0.61614053130E+03 -0.11143251368E+04  0.20356255988E+04  0.12699999809E+01 0. -1.
</event>
<event>
 5   0  0.6890600E-07  0.3481273E+04  0.7818609E-02  0.8118242E-01
       -1   -1    0    0    0  501  0.00000000000E+00  0.00000000000E+00  0.13591686859E+04  0.13591686859E+04  0.50400001928E-02 0. -1.
        1   -1    0    0  501    0  0.00000000000E+00  0.00000000000E+00 -0.22291677858E+04  0.22291677858E+04  0.50400001928E-02 0.  1.
    10030    2    1    2    0    0  0.00000000000E+00  0.00000000000E+00 -0.86999909996E+03  0.35883364717E+04  0.34812727845E+04 0.  0.
        3    1    3    3  502    0  0.45826771356E+03 -0.14500466060E+03  0.12894061033E+04  0.13760827586E+04  0.10100000352E+00 0. -1.
       -3    1    3    3    0  502 -0.45826771356E+03  0.14500466060E+03 -0.21594052033E+04  0.22122537131E+04  0.10100000352E+00 0.  1.
</event>
<event>
 5   0  0.2023479E-06  0.3169739E+04  0.7818609E-02  0.8196855E-01
       -2   -1    0    0    0  501  0.00000000000E+00  0.00000000000E+00  0.10652125175E+04  0.10652125175E+04  0.25500000920E-02 0. -1.
        2   -1    0    0  501    0  0.00000000000E+00  0.00000000000E+00 -0.23580373796E+04  0.23580373796E+04  0.25500000920E-02 0.  1.
    10030    2    1    2    0    0  0.00000000000E+00  0.00000000000E+00 -0.12928248621E+04  0.34232498971E+04  0.31697387485E+04 0.  0.
        5    1    3    3  502    0 -0.11675230706E+03 -0.11222403431E+04  0.55558690009E+03  0.12576777737E+04  0.46999998093E+01 0. -1.
       -5    1    3    3    0  502  0.11675230706E+03  0.11222403431E+04 -0.18484117622E+04  0.21655721234E+04  0.46999998093E+01 0.  1.
</event>
<event>
 5   0  0.6630125E-07  0.3518972E+04  0.7818609E-02  0.8109308E-01
       -1   -1    0    0    0  501  0.00000000000E+00  0.00000000000E+00  0.13116066356E+04  0.13116066356E+04  0.50400001928E-02 0. -1.
        1   -1    0    0  501    0  0.00000000000E+00  0.00000000000E+00 -0.23603048385E+04  0.23603048385E+04  0.50400001928E-02 0.  1.
    10030    2    1    2    0    0  0.00000000000E+00  0.00000000000E+00 -0.10486982028E+04  0.36719114741E+04  0.35189722865E+04 0.  0.
        4    1    3    3  502    0  0.12835515990E+04  0.71208620183E+03  0.48797962807E+03  0.15468345731E+04  0.12699999809E+01 0. -1.
       -4    1    3    3    0  502 -0.12835515990E+04 -0.71208620183E+03 -0.15366778309E+04  0.21250769010E+04  0.12699999809E+01 0.  1.
</event>
<event>
 5   0  0.2020725E-06  0.2355979E+04  0.7818609E-02  0.8456171E-01
        2   -1    0    0  501    0  0.00000000000E+00  0.00000000000E+00  0.12205240772E+04  0.12205240772E+04  0.25500000920E-02 0. -1.
       -2   -1    0    0    0  501  0.00000000000E+00  0.00000000000E+00 -0.11369368759E+04  0.11369368759E+04  0.25500000920E-02 0.  1.
    10030    2    1    2    0    0  0.00000000000E+00  0.00000000000E+00  0.83587201358E+02  0.23574609531E+04  0.23559786343E+04 0.  0.
        3    1    3    3  502    0 -0.56321907366E+03 -0.51766530720E+02 -0.99218287944E+03  0.11420693390E+04  0.10100000352E+00 0.  1.
       -3    1    3    3    0  502  0.56321907366E+03  0.51766530720E+02  0.10757700808E+04  0.12153916141E+04  0.10100000352E+00 0. -1.
</event>
<event>
 5   0  0.6630125E-07  0.2368660E+04  0.7818609E-02  0.8451331E-01
        1   -1    0    0  501    0  0.00000000000E+00  0.00000000000E+00  0.13929586086E+04  0.13929586086E+04  0.50400001928E-02 0.  1.
       -1   -1    0    0    0  501  0.00000000000E+00  0.00000000000E+00 -0.10069487311E+04  0.10069487311E+04  0.50400001928E-02 0. -1.
    10030    2    1    2    0    0  0.00000000000E+00  0.00000000000E+00  0.38600987745E+03  0.23999073397E+04  0.23686602994E+04 0.  0.
        4    1    3    3  502    0  0.38171120784E+01  0.87854751489E+03 -0.61168629089E+03  0.10705241882E+04  0.12699999809E+01 0. -1.
       -4    1    3    3    0  502 -0.38171120784E+01 -0.87854751489E+03  0.99769616833E+03  0.13293831515E+04  0.12699999809E+01 0.  1.
</event>
<event>
 5   0  0.6630125E-07  0.3563874E+04  0.7818609E-02  0.8098817E-01
        1   -1    0    0  501    0  0.00000000000E+00  0.00000000000E+00  0.92482773433E+03  0.92482773435E+03  0.50400001928E-02 0.  1.
       -1   -1    0    0    0  501  0.00000000000E+00  0.00000000000E+00 -0.34333961018E+04  0.34333961018E+04  0.50400001928E-02 0. -1.
    10030    2    1    2    0    0  0.00000000000E+00  0.00000000000E+00 -0.25085683674E+04  0.43582238361E+04  0.35638742615E+04 0.  0.
        5    1    3    3  502    0  0.11622076726E+04 -0.71188904808E+02 -0.29038179005E+04  0.31285739601E+04  0.46999998093E+01 0. -1.
       -5    1    3    3    0  502 -0.11622076726E+04  0.71188904808E+02  0.39524953305E+03  0.12296498761E+04  0.46999998093E+01 0.  1.
</event>
<event>
 5   0  0.6890600E-07  0.3496711E+04  0.7818609E-02  0.8114570E-01
       -1   -1    0    0    0  501  0.00000000000E+00  0.00000000000E+00  0.14572531924E+04  0.14572531924E+04  0.50400001928E-02 0. -1.
        1   -1    0    0  501    0  0.00000000000E+00  0.00000000000E+00 -0.20976085603E+04  0.20976085603E+04  0.50400001928E-02 0.  1.
    10030    2    1    2    0    0  0.00000000000E+00  0.00000000000E+00 -0.64035536793E+03  0.35548617527E+04  0.34967108951E+04 0.  0.
        3    1    3    3  502    0 -0.16736411345E+04 -0.27144956730E+03  0.11351636786E+03  0.16993073561E+04  0.10100000352E+00 0. -1.
       -3    1    3    3    0  502  0.16736411345E+04  0.27144956730E+03 -0.75387173579E+03  0.18555543966E+04  0.10100000352E+00 0.  1.
</event>
<event>
 5   0  0.6630125E-07  0.3413918E+04  0.7818609E-02  0.8134499E-01
       -1   -1    0    0    0  501  0.00000000000E+00  0.00000000000E+00  0.13997753863E+04  0.13997753863E+04  0.50400001928E-02 0. -1.
        1   -1    0    0  501    0  0.00000000000E+00  0.00000000000E+00 -0.20815548135E+04  0.20815548135E+04  0.50400001928E-02 0.  1.
    10030    2    1    2    0    0  0.00000000000E+00  0.00000000000E+00 -0.68177942724E+03  0.34813301998E+04  0.34139180969E+04 0.  0.
        1    1    3    3  502    0  0.96582660442E+03  0.51093977440E+02 -0.17751756270E+04  0.20215538902E+04  0.50400001928E-02 0.  1.
       -1    1    3    3    0  502 -0.96582660442E+03 -0.51093977440E+02  0.10933961997E+04  0.14597763096E+04  0.50400001928E-02 0. -1.
</event>
<event>
 5   0  0.1999883E-06  0.3346354E+04  0.7818609E-02  0.8151200E-01
        2   -1    0    0  501    0  0.00000000000E+00  0.00000000000E+00  0.14629446571E+04  0.14629446571E+04  0.25500000920E-02 0. -1.
       -2   -1    0    0    0  501  0.00000000000E+00  0.00000000000E+00 -0.19136207610E+04  0.19136207610E+04  0.25500000920E-02 0.  1.
    10030    2    1    2    0    0  0.00000000000E+00  0.00000000000E+00 -0.45067610392E+03  0.33765654180E+04  0.33463539968E+04 0.  0.
        4    1    3    3  502    0  0.93652241121E+03  0.10047946042E+04  0.73871072510E+03  0.15596094292E+04  0.12699999809E+01 0. -1.
       -4    1    3    3    0  502 -0.93652241121E+03 -0.10047946042E+04 -0.11893868290E+04  0.18169559888E+04  0.12699999809E+01 0.  1.
</event>
<event>
 5   0  0.2001768E-06  0.3494309E+04  0.7818609E-02  0.8115140E-01
        2   -1    0    0  501    0  0.00000000000E+00  0.00000000000E+00  0.21767043220E+04  0.21767043220E+04  0.25500000920E-02 0.  1.
       -2   -1    0    0    0  501  0.00000000000E+00  0.00000000000E+00 -0.14023717044E+04  0.14023717044E+04  0.25500000920E-02 0. -1.
    10030    2    1    2    0    0  0.00000000000E+00  0.00000000000E+00  0.77433261758E+03  0.35790760265E+04  0.34943088302E+04 0.  0.
        2    1    3    3  502    0 -0.89233420601E+03 -0.14851359012E+04  0.61770317627E+03  0.18394146335E+04  0.25500000920E-02 0. -1.
       -2    1    3    3    0  502  0.89233420601E+03  0.14851359012E+04  0.15662944131E+03  0.17396613929E+04  0.25500000920E-02 0.  1.
</event>
<event>
 5   0  0.6890600E-07  0.3491224E+04  0.7818609E-02  0.8115873E-01
        1   -1    0    0  501    0  0.00000000000E+00  0.00000000000E+00  0.16812913067E+04  0.16812913067E+04  0.50400001928E-02 0.  1.
       -1   -1    0    0    0  501  0.00000000000E+00  0.00000000000E+00 -0.18123929339E+04  0.18123929339E+04  0.50400001928E-02 0. -1.
    10030    2    1    2    0    0  0.00000000000E+00  0.00000000000E+00 -0.13110162715E+03  0.34936842407E+04  0.34912235587E+04 0.  0.
        3    1    3    3  502    0 -0.11820109812E+04 -0.11032430051E+04 -0.72393959297E+03  0.17715483715E+04  0.10100000352E+00 0.  1.
       -3    1    3    3    0  502  0.11820109812E+04  0.11032430051E+04  0.59283796581E+03  0.17221358692E+04  0.10100000352E+00 0. -1.
</event>
<event>
 5   0  0.2020725E-06  0.3457903E+04  0.7818609E-02  0.8123840E-01
       -2   -1    0    0    0  501  0.00000000000E+00  0.00000000000E+00  0.17592136091E+04  0.17592136091E+04  0.25500000920E-02 0. -1.
        2   -1    0    0  501    0  0.00000000000E+00  0.00000000000E+00 -0.16992096370E+04  0.16992096370E+04  0.25500000920E-02 0.  1.
    10030    2    1    2    0    0  0.00000000000E+00  0.00000000000E+00  0.60003972102E+02  0.34584232460E+04  0.34579026695E+04 0.  0.
        3    1    3    3  502    0  0.70648368802E+03  0.34105526908E+01 -0.15482539175E+04  0.17018287330E+04  0.10100000352E+00 0.  1.
       -3    1    3    3    0  502 -0.70648368802E+03 -0.34105526908E+01  0.16082578896E+04  0.17565945130E+04  0.10100000352E+00 0. -1.
</event>
<event>
 5   0  0.6630125E-07  0.3501857E+04  0.7818609E-02  0.8113350E-01
       -1   -1    0    0    0  501  0.00000000000E+00  0.00000000000E+00  0.19890348844E+04  0.19890348844E+04  0.50400001928E-02 0. -1.
        1   -1    0    0  501    0  0.00000000000E+00  0.00000000000E+00 -0.15413253421E+04  0.15413253421E+04  0.50400001928E-02 0.  1.
    10030    2    1    2    0    0  0.00000000000E+00  0.00000000000E+00  0.44770954222E+03  0.35303602265E+04  0.35018565783E+04 0.  0.
        1    1    3    3  502    0 -0.11074472681E+04  0.10911574826E+04 -0.58811124383E+03  0.16622090538E+04  0.50400001928E-02 0.  1.
       -1    1    3    3    0  502  0.11074472681E+04 -0.10911574826E+04  0.10358207860E+04  0.18681511727E+04  0.50400001928E-02 0. -1.
</event>
<event>
 5   0  0.6630125E-07  0.3621062E+04  0.7818609E-02  0.8085684E-01
       -1   -1    0    0    0  501  0.00000000000E+00  0.00000000000E+00  0.14533572543E+04  0.14533572543E+04  0.50400001928E-02 0. -1.
        1   -1    0    0  501    0  0.00000000000E+00  0.00000000000E+00 -0.22554833390E+04  0.22554833390E+04  0.50400001928E-02 0.  1.
    10030    2    1    2    0    0  0.00000000000E+00  0.00000000000E+00 -0.80212608474E+03  0.37088405934E+04  0.36210623153E+04 0.  0.
        4    1    3    3  502    0  0.60497782139E+03 -0.60352835114E+03 -0.20359316715E+04  0.22080000043E+04  0.12699999809E+01 0.  1.
       -4    1    3    3    0  502 -0.60497782139E+03  0.60352835114E+03  0.12338055868E+04  0.15008405891E+04  0.12699999809E+01 0. -1.
</event>
<event>
 5   0  0.6630125E-07  0.2520181E+04  0.7818609E-02  0.8395831E-01
        1   -1    0    0  501    0  0.00000000000E+00  0.00000000000E+00  0.12761264707E+04  0.12761264707E+04  0.50400001928E-02 0. -1.
       -1   -1    0    0    0  501  0.00000000000E+00  0.00000000000E+00 -0.12442561651E+04  0.12442561651E+04  0.50400001928E-02 0.  1.
    10030    2    1    2    0    0  0.00000000000E+00  0.00000000000E+00  0.31870305624E+02  0.25203826358E+04  0.25201811273E+04 0.  0.
        5    1    3    3  502    0 -0.51928734495E+02 -0.93643489008E+03 -0.82567788094E+03  0.12495490986E+04  0.46999998093E+01 0.  1.
       -5    1    3    3    0  502  0.51928734495E+02  0.93643489008E+03  0.85754818656E+03  0.12708335371E+04  0.46999998093E+01 0. -1.
</event>
<event>
 5   0  0.2020725E-06  0.3572077E+04  0.7818609E-02  0.8096918E-01
       -2   -1    0    0    0  501  0.00000000000E+00  0.00000000000E+00  0.13447547363E+04  0.13447547363E+04  0.25500000920E-02 0. -1.
        2   -1    0    0  501    0  0.00000000000E+00  0.00000000000E+00 -0.23721307722E+04  0.23721307722E+04  0.25500000920E-02 0.  1.
    10030    2    1    2    0    0  0.00000000000E+00  0.00000000000E+00 -0.10273760360E+04  0.37168855085E+04  0.35720773177E+04 0.  0.
        3    1    3    3  502    0  0.12853087436E+04 -0.12311074162E+04 -0.35833711009E+03  0.18155025562E+04  0.10100000352E+00 0. -1.
       -3    1    3    3    0  502 -0.12853087436E+04  0.12311074162E+04 -0.66903892588E+03  0.19013829523E+04  0.10100000352E+00 0.  1.
</event>
<event>
 5   0  0.6769504E-07  0.2143097E+04  0.7818609E-02  0.8542493E-01
       -1   -1    0    0    0  501  0.00000000000E+00  0.00000000000E+00  0.12660041717E+04  0.12660041717E+04  0.50400001928E-02 0. -1.
        1   -1    0    0  501    0  0.00000000000E+00  0.00000000000E+00 -0.90696082448E+03  0.90696082450E+03  0.50400001928E-02 0.  1.
    10030    2    1    2    0    0  0.00000000000E+00  0.00000000000E+00  0.35904334722E+03  0.21729649962E+04  0.21430969996E+04 0.  0.
        1    1    3    3  502    0  0.27508143839E+03  0.47639772787E+03  0.11118979846E+04  0.12405408986E+04  0.50400001928E-02 0. -1.
       -1    1    3    3    0  502 -0.27508143839E+03 -0.47639772787E+03 -0.75285463736E+03  0.93242409765E+03  0.50400001928E-02 0.  1.
</event>
<event>
 5   0  0.2073287E-06  0.3082955E+04  0.7818609E-02  0.8220431E-01
       -2   -1    0    0    0  501  0.00000000000E+00  0.00000000000E+00  0.15226812647E+04  0.15226812647E+04  0.25500000920E-02 0.  1.
        2   -1    0    0  501    0  0.00000000000E+00  0.00000000000E+00 -0.15605059762E+04  0.15605059762E+04  0.25500000920E-02 0. -1.
    10030    2    1    2    0    0  0.00000000000E+00  0.00000000000E+00 -0.37824711581E+02  0.30831872409E+04  0.30829552143E+04 0.  0.
        1    1    3    3  502    0  0.11470786601E+04 -0.10074914357E+04  0.19399981076E+03  0.15389816022E+04  0.50400001928E-02 0.  1.
       -1    1    3    3    0  502 -0.11470786601E+04  0.10074914357E+04 -0.23182452234E+03  0.15442056387E+04  0.50400001928E-02 0. -1.
</event>
<event>
 5   0  0.6630125E-07  0.3562886E+04  0.7818609E-02  0.8099046E-01
        1   -1    0    0  501    0  0.00000000000E+00  0.00000000000E+00  0.18681994000E+04  0.18681994000E+04  0.50400001928E-02 0.  1.
       -1   -1    0    0    0  501  0.00000000000E+00  0.00000000000E+00 -0.16987154446E+04  0.16987154446E+04  0.50400001928E-02 0. -1.
    10030    2    1    2    0    0  0.00000000000E+00  0.00000000000E+00  0.16948395541E+03  0.35669148447E+04  0.35628860069E+04 0.  0.
        4    1    3    3  502    0  0.13599358105E+04 -0.96257404307E+03 -0.54649726833E+03  0.17534637362E+04  0.12699999809E+01 0. -1.
       -4    1    3    3    0  502 -0.13599358105E+04  0.96257404307E+03  0.71598122375E+03  0.18134511085E+04  0.12699999809E+01 0.  1.
</event>
<event>
 5   0  0.6630125E-07  0.3627544E+04  0.7818609E-02  0.8084211E-01
        1   -1    0    0  501    0  0.00000000000E+00  0.00000000000E+00  0.22850173882E+04  0.22850173882E+04  0.50400001928E-02 0.  1.
       -1   -1    0    0    0  501  0.00000000000E+00  0.00000000000E+00 -0.14397127156E+04  0.14397127156E+04  0.50400001928E-02 0. -1.
    10030    2    1    2    0    0  0.00000000000E+00  0.00000000000E+00  0.84530467264E+03  0.37247301038E+04  0.36275438463E+04 0.  0.
        5    1    3    3  502    0  0.82062806981E+03 -0.44391502362E+03 -0.11744141967E+04  0.14999205887E+04  0.46999998093E+01 0. -1.
       -5    1    3    3    0  502 -0.82062806981E+03  0.44391502362E+03  0.20197188693E+04  0.22248095151E+04  0.46999998093E+01 0.  1.
</event>
<event>
 5   0  0.7378896E-07  0.3542063E+04  0.7818609E-02  0.8103893E-01
       -1   -1    0    0    0  501  0.00000000000E+00  0.00000000000E+00  0.12241381854E+04  0.12241381854E+04  0.50400001928E-02 0. -1.
        1   -1    0    0  501    0  0.00000000000E+00  0.00000000000E+00 -0.25622537272E+04  0.25622537272E+04  0.50400001928E-02 0.  1.
    10030    2    1    2    0    0  0.00000000000E+00  0.00000000000E+00 -0.13381155418E+04  0.37863919127E+04  0.35420630307E+04 0.  0.
        2    1    3    3  502    0 -0.69495890505E+03 -0.15789483702E+04 -0.24078941402E+03  0.17418453942E+04  0.25500000920E-02 0.  1.
       -2    1    3    3    0  502  0.69495890505E+03  0.15789483702E+04 -0.10973261278E+04  0.20445465185E+04  0.25500000920E-02 0. -1.
</event>
<event>
 5   0  0.6630125E-07  0.2850036E+04  0.7818609E-02  0.8287900E-01
        1   -1    0    0  501    0  0.00000000000E+00  0.00000000000E+00  0.87387042067E+03  0.87387042069E+03  0.50400001928E-02 0.  1.
       -1   -1    0    0    0  501  0.00000000000E+00  0.00000000000E+00 -0.23237727132E+04  0.23237727132E+04  0.50400001928E-02 0. -1.
    10030    2    1    2    0    0  0.00000000000E+00  0.00000000000E+00 -0.14499022925E+04  0.31976431338E+04  0.28500359566E+04 0.  0.
        4    1    3    3  502    0  0.12132003398E+04  0.21703990015E+03 -0.15275397387E+04  0.19627380490E+04  0.12699999809E+01 0. -1.
       -4    1    3    3    0  502 -0.12132003398E+04 -0.21703990015E+03  0.77637446219E+02  0.12349050849E+04  0.12699999809E+01 0.  1.
</event>
<event>
 5   0  0.6630125E-07  0.3469177E+04  0.7818609E-02  0.8121134E-01
        1   -1    0    0  501    0  0.00000000000E+00  0.00000000000E+00  0.29014323397E+04  0.29014323397E+04  0.50400001928E-02 0. -1.
       -1   -1    0    0    0  501  0.00000000000E+00  0.00000000000E+00 -0.10370042557E+04  0.10370042557E+04  0.50400001928E-02 0.  1.
    10030    2    1    2    0    0  0.00000000000E+00  0.00000000000E+00  0.18644280840E+04  0.39384365954E+04  0.34691772419E+04 0.  0.
        5    1    3    3  502    0 -0.10620977390E+04 -0.46679680112E+03  0.23961450415E+04  0.26622328994E+04  0.46999998093E+01 0. -1.
       -5    1    3    3    0  502  0.10620977390E+04  0.46679680112E+03 -0.53171695753E+03  0.12762036960E+04  0.46999998093E+01 0.  1.
</event>
<event>
 5   0  0.2001768E-06  0.3505687E+04  0.7818609E-02  0.8112444E-01
       -2   -1    0    0    0  501  0.00000000000E+00  0.00000000000E+00  0.19768521093E+04  0.19768521093E+04  0.25500000920E-02 0.  1.
        2   -1    0    0  501    0  0.00000000000E+00  0.00000000000E+00 -0.15542183141E+04  0.15542183141E+04  0.25500000920E-02 0. -1.
    10030    2    1    2    0    0  0.00000000000E+00  0.00000000000E+00  0.42263379522E+03  0.35310704235E+04  0.35056866675E+04 0.  0.
        2    1    3    3  502    0 -0.13728719295E+04 -0.85518705812E+03  0.89173579682E+03  0.18469745452E+04  0.25500000920E-02 0.  1.
       -2    1    3    3    0  502  0.13728719295E+04  0.85518705812E+03 -0.46910200160E+03  0.16840958783E+04  0.25500000920E-02 0. -1.
</event>
<event>
 5   0  0.6630125E-07  0.2457012E+04  0.7818609E-02  0.8418462E-01
       -1   -1    0    0    0  501  0.00000000000E+00  0.00000000000E+00  0.90969494327E+03  0.90969494328E+03  0.50400001928E-02 0.  1.
        1   -1    0    0  501    0  0.00000000000E+00  0.00000000000E+00 -0.16590472834E+04  0.16590472834E+04  0.50400001928E-02 0. -1.
    10030    2    1    2    0    0  0.00000000000E+00  0.00000000000E+00 -0.74935234010E+03  0.25687422267E+04  0.24570119449E+04 0.  0.
        1    1    3    3  502    0  0.17686820349E+03 -0.10571380273E+04 -0.10023122630E+04  0.14674648353E+04  0.50400001928E-02 0. -1.
       -1    1    3    3    0  502 -0.17686820349E+03  0.10571380273E+04  0.25295992293E+03  0.11012773914E+04  0.50400001928E-02 0.  1.
</event>
<event>
 5   0  0.6630125E-07  0.3486469E+04  0.7818609E-02  0.8117004E-01
        1   -1    0    0  501    0  0.00000000000E+00  0.00000000000E+00  0.21222144189E+04  0.21222144189E+04  0.50400001928E-02 0.  1.
       -1   -1    0    0    0  501  0.00000000000E+00  0.00000000000E+00 -0.14319318059E+04  0.14319318060E+04  0.50400001928E-02 0. -1.
    10030    2    1    2    0    0  0.00000000000E+00  0.00000000000E+00  0.69028261297E+03  0.35541462249E+04  0.34864688873E+04 0.  0.
        1    1    3    3  502    0  0.70995517038E+03  0.34163156380E+03 -0.12400738996E+04  0.14691942506E+04  0.50400001928E-02 0. -1.
       -1    1    3    3    0  502 -0.70995517038E+03 -0.34163156380E+03  0.19303565126E+04  0.20849519743E+04  0.50400001928E-02 0.  1.
</event>
<event>
 5   0  0.6630125E-07  0.3564032E+04  0.7818609E-02  0.8098781E-01
       -1   -1    0    0    0  501  0.00000000000E+00  0.00000000000E+00  0.32797147944E+04  0.32797147944E+04  0.50400001928E-02 0. -1.
        1   -1    0    0  501    0  0.00000000000E+00  0.00000000000E+00 -0.96824934785E+03  0.96824934786E+03  0.50400001928E-02 0.  1.
    10030    2    1    2    0    0  0.00000000000E+00  0.00000000000E+00  0.23114654466E+04  0.42479641423E+04  0.35640323853E+04 0.  0.
        1    1    3    3  502    0  0.89410677151E+03 -0.74653861561E+03 -0.45171122659E+03  0.12493157550E+04  0.50400001928E-02 0.  1.
       -1    1    3    3    0  502 -0.89410677151E+03  0.74653861561E+03  0.27631766732E+04  0.29986483873E+04  0.50400001928E-02 0. -1.
</event>
<event>
 5   0  0.1999883E-06  0.3530519E+04  0.7818609E-02  0.8106595E-01
        2   -1    0    0  501    0  0.00000000000E+00  0.00000000000E+00  0.18568879201E+04  0.18568879201E+04  0.25500000920E-02 0.  1.
       -2   -1    0    0    0  501  0.00000000000E+00  0.00000000000E+00 -0.16781521066E+04  0.16781521066E+04  0.25500000920E-02 0. -1.
    10030    2    1    2    0    0  0.00000000000E+00  0.00000000000E+00  0.17873581347E+03  0.35350400267E+04  0.35305185879E+04 0.  0.
        4    1    3    3  502    0  0.37789677721E+03 -0.59085102386E+03 -0.15326535831E+04  0.16855086844E+04  0.12699999809E+01 0. -1.
       -4    1    3    3    0  502 -0.37789677721E+03  0.59085102386E+03  0.17113893966E+04  0.18495313423E+04  0.12699999809E+01 0.  1.
</event>
<event>
 5   0  0.6890600E-07  0.3471229E+04  0.7818609E-02  0.8120642E-01
        1   -1    0    0  501    0  0.00000000000E+00  0.00000000000E+00  0.22096852238E+04  0.22096852238E+04  0.50400001928E-02 0.  1.
       -1   -1    0    0    0  501  0.00000000000E+00  0.00000000000E+00 -0.13632517115E+04  0.13632517115E+04  0.50400001928E-02 0. -1.
    10030    2    1    2    0    0  0.00000000000E+00  0.00000000000E+00  0.84643351232E+03  0.35729369353E+04  0.34712286950E+04 0.  0.
        3    1    3    3  502    0  0.11866459508E+04 -0.51338950120E+03 -0.76857783650E+03  0.15041307435E+04  0.10100000352E+00 0. -1.
       -3    1    3    3    0  502 -0.11866459508E+04  0.51338950120E+03  0.16150113488E+04  0.20688061919E+04  0.10100000352E+00 0.  1.
</event>
<event>
 5   0  0.1999883E-06  0.3499318E+04  0.7818609E-02  0.8113952E-01
       -2   -1    0    0    0  501  0.00000000000E+00  0.00000000000E+00  0.15290737175E+04  0.15290737175E+04  0.25500000920E-02 0. -1.
        2   -1    0    0  501    0  0.00000000000E+00  0.00000000000E+00 -0.20020656763E+04  0.20020656763E+04  0.25500000920E-02 0.  1.
    10030    2    1    2    0    0  0.00000000000E+00  0.00000000000E+00 -0.47299195887E+03  0.35311393938E+04  0.34993176514E+04 0.  0.
        4    1    3    3  502    0 -0.36264794592E+03 -0.82694359771E+03  0.12757834122E+04  0.15630016553E+04  0.12699999809E+01 0. -1.
       -4    1    3    3    0  502  0.36264794592E+03  0.82694359771E+03 -0.17487753711E+04  0.19681377386E+04  0.12699999809E+01 0.  1.
</event>
<event>
 5   0  0.2020725E-06  0.2872015E+04  0.7818609E-02  0.8281253E-01
       -2   -1    0    0    0  501  0.00000000000E+00  0.00000000000E+00  0.10918364870E+04  0.10918364870E+04  0.25500000920E-02 0. -1.
        2   -1    0    0  501    0  0.00000000000E+00  0.00000000000E+00 -0.18886692309E+04  0.18886692309E+04  0.25500000920E-02 0.  1.
    10030    2    1    2    0    0  0.00000000000E+00  0.00000000000E+00 -0.79683274385E+03  0.29805057179E+04  0.28720153051E+04 0.  0.
        3    1    3    3  502    0 -0.12468319192E+03  0.11667680751E+04  0.46063591118E+03  0.12605868047E+04  0.10100000352E+00 0. -1.
       -3    1    3    3    0  502  0.12468319192E+03 -0.11667680751E+04 -0.12574686550E+04  0.17199189132E+04  0.10100000352E+00 0.  1.
</event>
<event>
 5   0  0.2073287E-06  0.3517942E+04  0.7818609E-02  0.8109551E-01
        2   -1    0    0  501    0  0.00000000000E+00  0.00000000000E+00  0.21259101076E+04  0.21259101076E+04  0.25500000920E-02 0.  1.
       -2   -1    0    0    0  501  0.00000000000E+00  0.00000000000E+00 -0.14553668874E+04  0.14553668874E+04  0.25500000920E-02 0. -1.
    10030    2    1    2    0    0  0.00000000000E+00  0.00000000000E+00  0.67054322027E+03  0.35812769950E+04  0.35179421122E+04 0.  0.
        1    1    3    3  502    0 -0.11488668359E+04  0.86575820622E+03 -0.69515044425E+03  0.15977066122E+04  0.50400001928E-02 0. -1.
       -1    1    3    3    0  502  0.11488668359E+04 -0.86575820622E+03  0.13656936645E+04  0.19835703828E+04  0.50400001928E-02 0.  1.
</event>
<event>
 5   0  0.1999883E-06  0.3586284E+04  0.7818609E-02  0.8093641E-01
        2   -1    0    0  501    0  0.00000000000E+00  0.00000000000E+00  0.11798367087E+04  0.11798367087E+04  0.25500000920E-02 0. -1.
       -2   -1    0    0    0  501  0.00000000000E+00  0.00000000000E+00 -0.27252566063E+04  0.27252566063E+04  0.25500000920E-02 0.  1.
    10030    2    1    2    0    0  0.00000000000E+00  0.00000000000E+00 -0.15454198977E+04  0.39050933150E+04  0.35862837505E+04 0.  0.
        4    1    3    3  502    0 -0.20725359740E+03  0.17289510217E+04 -0.30673015187E+03  0.17681376327E+04  0.12699999809E+01 0. -1.
       -4    1    3    3    0  502  0.20725359740E+03 -0.17289510217E+04 -0.12386897458E+04  0.21369556824E+04  0.12699999809E+01 0.  1.
</event>
<event>
 5   0  0.6890600E-07  0.3418757E+04  0.7818609E-02  0.8133318E-01
        1   -1    0    0  501    0  0.00000000000E+00  0.00000000000E+00  0.20964591256E+04  0.20964591256E+04  0.50400001928E-02 0. -1.
       -1   -1    0    0    0  501  0.00000000000E+00  0.00000000000E+00 -0.13937668235E+04  0.13937668235E+04  0.50400001928E-02 0.  1.
    10030    2    1    2    0    0  0.00000000000E+00  0.00000000000E+00  0.70269230215E+03  0.34902259491E+04  0.34187571871E+04 0.  0.
        3    1    3    3  502    0 -0.49777924838E+03  0.13654721870E+04 -0.56728486649E+03  0.15601636464E+04  0.10100000352E+00 0. -1.
       -3    1    3    3    0  502  0.49777924838E+03 -0.13654721870E+04  0.12699771686E+04  0.19300623028E+04  0.10100000352E+00 0.  1.
</event>
<event>
 5   0  0.2020725E-06  0.3438928E+04  0.7818609E-02  0.8128418E-01
       -2   -1    0    0    0  501  0.00000000000E+00  0.00000000000E+00  0.12880720248E+04  0.12880720248E+04  0.25500000920E-02 0. -1.
        2   -1    0    0  501    0  0.00000000000E+00  0.00000000000E+00 -0.22953344933E+04  0.22953344933E+04  0.25500000920E-02 0.  1.
    10030    2    1    2    0    0  0.00000000000E+00  0.00000000000E+00 -0.10072624685E+04  0.35834065181E+04  0.34389278262E+04 0.  0.
        3    1    3    3  502    0 -0.10485877172E+04 -0.13166836046E+04 -0.13764257207E+03  0.16888272271E+04  0.10100000352E+00 0. -1.
       -3    1    3    3    0  502  0.10485877172E+04  0.13166836046E+04 -0.86961989647E+03  0.18945792910E+04  0.10100000352E+00 0.  1.
</event>
<event>
 5   0  0.6890600E-07  0.3551227E+04  0.7818609E-02  0.8101756E-01
        1   -1    0    0  501    0  0.00000000000E+00  0.00000000000E+00  0.33044628750E+04  0.33044628750E+04  0.50400001928E-02 0.  1.
       -1   -1    0    0    0  501  0.00000000000E+00  0.00000000000E+00 -0.95410456436E+03  0.95410456437E+03  0.50400001928E-02 0. -1.
    10030    2    1    2    0    0  0.00000000000E+00  0.00000000000E+00  0.23503583107E+04  0.42585674394E+04  0.35512268933E+04 0.  0.
        3    1    3    3  502    0 -0.76195244551E+03 -0.11575059514E+04  0.25064394748E+04  0.28640234649E+04  0.10100000352E+00 0.  1.
       -3    1    3    3    0  502  0.76195244551E+03  0.11575059514E+04 -0.15608116409E+03  0.13945439745E+04  0.10100000352E+00 0. -1.
</event>
<event>
 5   0  0.1999883E-06  0.3476523E+04  0.7818609E-02  0.8119376E-01
       -2   -1    0    0    0  501  0.00000000000E+00  0.00000000000E+00  0.13410132273E+04  0.13410132273E+04  0.25500000920E-02 0.  1.
        2   -1    0    0  501    0  0.00000000000E+00  0.00000000000E+00 -0.22531868385E+04  0.22531868385E+04  0.25500000920E-02 0. -1.
    10030    2    1    2    0    0  0.00000000000E+00  0.00000000000E+00 -0.91217361120E+03  0.35942000657E+04  0.34765231792E+04 0.  0.
        4    1    3    3  502    0  0.15620551903E+03  0.10591761032E+04 -0.18718551992E+04  0.21564085145E+04  0.12699999809E+01 0. -1.
       -4    1    3    3    0  502 -0.15620551903E+03 -0.10591761032E+04  0.95968158796E+03  0.14377915513E+04  0.12699999809E+01 0.  1.
</event>
<event>
 5   0  0.2001768E-06  0.3474409E+04  0.7818609E-02  0.8119882E-01
        2   -1    0    0  501    0  0.00000000000E+00  0.00000000000E+00  0.19086746790E+04  0.19086746790E+04  0.25500000920E-02 0.  1.
       -2   -1    0    0    0  501  0.00000000000E+00  0.00000000000E+00 -0.15811389779E+04  0.15811389779E+04  0.25500000920E-02 0. -1.
    10030    2    1    2    0    0  0.00000000000E+00  0.00000000000E+00  0.32753570109E+03  0.34898136569E+04  0.34744092627E+04 0.  0.
        2    1    3    3  502    0  0.12770699976E+04 -0.60433144876E+03  0.11790687902E+04  0.18401976771E+04  0.25500000920E-02 0.  1.
       -2    1    3    3    0  502 -0.12770699976E+04  0.60433144876E+03 -0.85153308913E+03  0.16496159798E+04  0.25500000920E-02 0. -1.
</event>
<event>
 5   0  0.2073287E-06  0.3618556E+04  0.7818609E-02  0.8086254E-01
       -2   -1    0    0    0  501  0.00000000000E+00  0.00000000000E+00  0.17933168701E+04  0.17933168701E+04  0.25500000920E-02 0.  1.
        2   -1    0    0  501    0  0.00000000000E+00  0.00000000000E+00 -0.18253813461E+04  0.18253813461E+04  0.25500000920E-02 0. -1.
    10030    2    1    2    0    0  0.00000000000E+00  0.00000000000E+00 -0.32064475933E+02  0.36186982162E+04  0.36185561553E+04 0.  0.
        1    1    3    3  502    0  0.14747749726E+04  0.10196200299E+04 -0.25873691854E+03  0.18114996600E+04  0.50400001928E-02 0. -1.
       -1    1    3    3    0  502 -0.14747749726E+04 -0.10196200299E+04  0.22667244261E+03  0.18071985562E+04  0.50400001928E-02 0.  1.
</event>
<event>
 5   0  0.2073287E-06  0.3519401E+04  0.7818609E-02  0.8109207E-01
       -2   -1    0    0    0  501  0.00000000000E+00  0.00000000000E+00  0.12230810942E+04  0.12230810942E+04  0.25500000920E-02 0.  1.
        2   -1    0    0  501    0  0.00000000000E+00  0.00000000000E+00 -0.25317585266E+04  0.25317585266E+04  0.25500000920E-02 0. -1.
    10030    2    1    2    0    0  0.00000000000E+00  0.00000000000E+00 -0.13086774323E+04  0.37548396208E+04  0.35194010792E+04 0.  0.
        1    1    3    3  502    0  0.62603158578E+03  0.29782502481E+03 -0.23799212892E+04  0.24788385657E+04  0.50400001928E-02 0. -1.
       -1    1    3    3    0  502 -0.62603158578E+03 -0.29782502481E+03  0.10712438569E+04  0.12760010551E+04  0.50400001928E-02 0.  1.
</event>
<event>
 5   0  0.2001768E-06  0.3346686E+04  0.7818609E-02  0.8151117E-01
       -2   -1    0    0    0  501  0.00000000000E+00  0.00000000000E+00  0.16954425508E+04  0.16954425508E+04  0.25500000920E-02 0.  1.
        2   -1    0    0  501    0  0.00000000000E+00  0.00000000000E+00 -0.16515317183E+04  0.16515317183E+04  0.25500000920E-02 0. -1.
    10030    2    1    2    0    0  0.00000000000E+00  0.00000000000E+00  0.43910832489E+02  0.33469742690E+04  0.33466862112E+04 0.  0.
        2    1    3    3  502    0 -0.62528613573E+03 -0.70544551138E+02  0.15726106773E+04  0.16938310505E+04  0.25500000920E-02 0.  1.
       -2    1    3    3    0  502  0.62528613573E+03  0.70544551138E+02 -0.15286998449E+04  0.16531432185E+04  0.25500000920E-02 0. -1.
</event>
<event>
 5   0  0.7378896E-07  0.3218311E+04  0.7818609E-02  0.8183998E-01
        1   -1    0    0  501    0  0.00000000000E+00  0.00000000000E+00  0.24466861220E+04  0.24466861220E+04  0.50400001928E-02 0. -1.
       -1   -1    0    0    0  501  0.00000000000E+00  0.00000000000E+00 -0.10583216044E+04  0.10583216044E+04  0.50400001928E-02 0.  1.
    10030    2    1    2    0    0  0.00000000000E+00  0.00000000000E+00  0.13883645176E+04  0.35050077264E+04  0.32183106016E+04 0.  0.
        2    1    3    3  502    0 -0.55455059392E+03  0.13610594703E+04 -0.19455220924E+02  0.14698257544E+04  0.25500000920E-02 0.  1.
       -2    1    3    3    0  502  0.55455059392E+03 -0.13610594703E+04  0.14078197385E+04  0.20351819720E+04  0.25500000920E-02 0. -1.
</event>
<event>
 5   0  0.7378896E-07  0.3607575E+04  0.7818609E-02  0.8088759E-01
       -1   -1    0    0    0  501  0.00000000000E+00  0.00000000000E+00  0.15319566741E+04  0.15319566741E+04  0.50400001928E-02 0.  1.
        1   -1    0    0  501    0  0.00000000000E+00  0.00000000000E+00 -0.21238521982E+04  0.21238521982E+04  0.50400001928E-02 0. -1.
    10030    2    1    2    0    0  0.00000000000E+00  0.00000000000E+00 -0.59189552409E+03  0.36558088722E+04  0.36075751134E+04 0.  0.
        2    1    3    3  502    0 -0.72724354783E+02  0.10698147937E+04  0.11739130503E+04  0.15899259022E+04  0.25500000920E-02 0.  1.
       -2    1    3    3    0  502  0.72724354783E+02 -0.10698147937E+04 -0.17658085744E+04  0.20658829701E+04  0.25500000920E-02 0. -1.
</event>
<event>
 5   0  0.6630125E-07  0.3611621E+04  0.7818609E-02  0.8087835E-01
        1   -1    0    0  501    0  0.00000000000E+00  0.00000000000E+00  0.22433711998E+04  0.22433711999E+04  0.50400001928E-02 0.  1.
       -1   -1    0    0    0  501  0.00000000000E+00  0.00000000000E+00 -0.14535941974E+04  0.14535941975E+04  0.50400001928E-02 0. -1.
    10030    2    1    2    0    0  0.00000000000E+00  0.00000000000E+00  0.78977700240E+03  0.36969653973E+04  0.36116208875E+04 0.  0.
        4    1    3    3  502    0  0.15178274585E+04 -0.97833879620E+03  0.39658659995E+03  0.18488454609E+04  0.12699999809E+01 0. -1.
       -4    1    3    3    0  502 -0.15178274585E+04  0.97833879620E+03  0.39319040244E+03  0.18481199364E+04  0.12699999809E+01 0.  1.
</event>
<event>
 5   0  0.6630125E-07  0.3347798E+04  0.7818609E-02  0.8150839E-01
       -1   -1    0    0    0  501  0.00000000000E+00  0.00000000000E+00  0.12874689501E+04  0.12874689501E+04  0.50400001928E-02 0. -1.
        1   -1    0    0  501    0  0.00000000000E+00  0.00000000000E+00 -0.21763146816E+04  0.21763146816E+04  0.50400001928E-02 0.  1.
    10030    2    1    2    0    0  0.00000000000E+00  0.00000000000E+00 -0.88884573148E+03  0.34637836318E+04  0.33477978304E+04 0.  0.
        5    1    3    3  502    0 -0.98143939383E+03  0.13449853362E+04 -0.62275038666E+03  0.17776526580E+04  0.46999998093E+01 0. -1.
       -5    1    3    3    0  502  0.98143939383E+03 -0.13449853362E+04 -0.26609534482E+03  0.16861309738E+04  0.46999998093E+01 0.  1.
</event>
<event>
 5   0  0.6630125E-07  0.3475588E+04  0.7818609E-02  0.8119600E-01
        1   -1    0    0  501    0  0.00000000000E+00  0.00000000000E+00  0.22402144505E+04  0.22402144505E+04  0.50400001928E-02 0. -1.
       -1   -1    0    0    0  501  0.00000000000E+00  0.00000000000E+00 -0.13480528910E+04  0.13480528910E+04  0.50400001928E-02 0.  1.
    10030    2    1    2    0    0  0.00000000000E+00  0.00000000000E+00  0.89216155948E+03  0.35882673415E+04  0.34755877584E+04 0.  0.
        5    1    3    3  502    0 -0.12937970443E+04  0.86970611964E+03  0.12388329915E+04  0.19912380062E+04  0.46999998093E+01 0. -1.
       -5    1    3    3    0  502  0.12937970443E+04 -0.86970611964E+03 -0.34667143205E+03  0.15970293354E+04  0.46999998093E+01 0.  1.
</event>
<event>
 5   0  0.2020725E-06  0.3756502E+04  0.7818609E-02  0.8055554E-01
        2   -1    0    0  501    0  0.00000000000E+00  0.00000000000E+00  0.22575143979E+04  0.22575143979E+04  0.25500000920E-02 0.  1.
       -2   -1    0    0    0  501  0.00000000000E+00  0.00000000000E+00 -0.15627044118E+04  0.15627044118E+04  0.25500000920E-02 0. -1.
    10030    2    1    2    0    0  0.00000000000E+00  0.00000000000E+00  0.69480998602E+03  0.38202188097E+04  0.37565024740E+04 0.  0.
        3    1    3    3  502    0  0.78553638399E+03 -0.15780439537E+04  0.10068930865E+04  0.20300551294E+04  0.10100000352E+00 0. -1.
       -3    1    3    3    0  502 -0.78553638399E+03  0.15780439537E+04 -0.31208310050E+03  0.17901636803E+04  0.10100000352E+00 0.  1.
</event>
<event>
 5   0  0.2020725E-06  0.3534846E+04  0.7818609E-02  0.8105581E-01
        2   -1    0    0  501    0  0.00000000000E+00  0.00000000000E+00  0.93234781647E+03  0.93234781647E+03  0.25500000920E-02 0. -1.
       -2   -1    0    0    0  501  0.00000000000E+00  0.00000000000E+00 -0.33504486832E+04  0.33504486832E+04  0.25500000920E-02 0.  1.
    10030    2    1    2    0    0  0.00000000000E+00  0.00000000000E+00 -0.24181008667E+04  0.42827964997E+04  0.35348456905E+04 0.  0.
        3    1    3    3  502    0  0.16062908022E+04  0.60639566021E+03 -0.70090618135E+03  0.18544959755E+04  0.10100000352E+00 0. -1.
       -3    1    3    3    0  502 -0.16062908022E+04 -0.60639566021E+03 -0.17171946854E+04  0.24283005242E+04  0.10100000352E+00 0.  1.
</event>
<event>
 5   0  0.6630125E-07  0.3567281E+04  0.7818609E-02  0.8098028E-01
        1   -1    0    0  501    0  0.00000000000E+00  0.00000000000E+00  0.17990316699E+04  0.17990316699E+04  0.50400001928E-02 0. -1.
       -1   -1    0    0    0  501  0.00000000000E+00  0.00000000000E+00 -0.17683805625E+04  0.17683805625E+04  0.50400001928E-02 0.  1.
    10030    2    1    2    0    0  0.00000000000E+00  0.00000000000E+00  0.30651107392E+02  0.35674122324E+04  0.35672805533E+04 0.  0.
        5    1    3    3  502    0  0.20713479975E+02 -0.52869071103E+03  0.17187403105E+04  0.17983418088E+04  0.46999998093E+01 0. -1.
       -5    1    3    3    0  502 -0.20713479975E+02  0.52869071103E+03 -0.16880892031E+04  0.17690704237E+04  0.46999998093E+01 0.  1.
</event>
<event>
 5   0  0.2073287E-06  0.3599589E+04  0.7818609E-02  0.8090586E-01
       -2   -1    0    0    0  501  0.00000000000E+00  0.00000000000E+00  0.17248043343E+04  0.17248043343E+04  0.25500000920E-02 0.  1.
        2   -1    0    0  501    0  0.00000000000E+00  0.00000000000E+00 -0.18780451103E+04  0.18780451103E+04  0.25500000920E-02 0. -1.
    10030    2    1    2    0    0  0.00000000000E+00  0.00000000000E+00 -0.15324077594E+03  0.36028494446E+04  0.35995890578E+04 0.  0.
        1    1    3    3  502    0 -0.12371022367E+04  0.86841362303E+03  0.90135017808E+03  0.17598284883E+04  0.50400001928E-02 0.  1.
       -1    1    3    3    0  502  0.12371022367E+04 -0.86841362303E+03 -0.10545909540E+04  0.18430209562E+04  0.50400001928E-02 0. -1.
</event>
<event>
 5   0  0.7378896E-07  0.3431031E+04  0.7818609E-02  0.8130332E-01
       -1   -1    0    0    0  501  0.00000000000E+00  0.00000000000E+00  0.10950444847E+04  0.10950444847E+04  0.50400001928E-02 0. -1.
        1   -1    0    0  501    0  0.00000000000E+00  0.00000000000E+00 -0.26875553683E+04  0.26875553683E+04  0.50400001928E-02 0.  1.
    10030    2    1    2    0    0  0.00000000000E+00  0.00000000000E+00 -0.15925108835E+04  0.37825998530E+04  0.34310305644E+04 0.  0.
        2    1    3    3  502    0  0.66925538221E+03 -0.11513860388E+04  0.39593978583E+03  0.13893742804E+04  0.25500000920E-02 0. -1.
       -2    1    3    3    0  502 -0.66925538221E+03  0.11513860388E+04 -0.19884506694E+04  0.23932255726E+04  0.25500000920E-02 0.  1.
</event>
<event>
 5   0  0.2020725E-06  0.3000563E+04  0.7818609E-02  0.8243570E-01
       -2   -1    0    0    0  501  0.00000000000E+00  0.00000000000E+00  0.10630917193E+04  0.10630917194E+04  0.25500000920E-02 0. -1.
        2   -1    0    0  501    0  0.00000000000E+00  0.00000000000E+00 -0.21172634261E+04  0.21172634261E+04  0.25500000920E-02 0.  1.
    10030    2    1    2    0    0  0.00000000000E+00  0.00000000000E+00 -0.10541717067E+04  0.31803551455E+04  0.30005634244E+04 0.  0.
        3    1    3    3  502    0  0.10944684650E+04  0.75302698517E+03  0.21177321174E+03  0.13452727473E+04  0.10100000352E+00 0. -1.
       -3    1    3    3    0  502 -0.10944684650E+04 -0.75302698517E+03 -0.12659449185E+04  0.18350823982E+04  0.10100000352E+00 0.  1.
</event>
<event>
 5   0  0.1999883E-06  0.3505481E+04  0.7818609E-02  0.8112492E-01
       -2   -1    0    0    0  501  0.00000000000E+00  0.00000000000E+00  0.17327031369E+04  0.17327031369E+04  0.25500000920E-02 0. -1.
        2   -1    0    0  501    0  0.00000000000E+00  0.00000000000E+00 -0.17730093488E+04  0.17730093488E+04  0.25500000920E-02 0.  1.
    10030    2    1    2    0    0  0.00000000000E+00  0.00000000000E+00 -0.40306211862E+02  0.35057124857E+04  0.35054807718E+04 0.  0.
        4    1    3    3  502    0 -0.13364517966E+04  0.11331280234E+04 -0.65041768572E+02  0.17533723411E+04  0.12699999809E+01 0.  1.
       -4    1    3    3    0  502  0.13364517966E+04 -0.11331280234E+04  0.24735556709E+02  0.17523401446E+04  0.12699999809E+01 0. -1.
</event>
<event>
 5   0  0.2023479E-06  0.3458340E+04  0.7818609E-02  0.8123734E-01
       -2   -1    0    0    0  501  0.00000000000E+00  0.00000000000E+00  0.14704599011E+04  0.14704599011E+04  0.25500000920E-02 0.  1.
        2   -1    0    0  501    0  0.00000000000E+00  0.00000000000E+00 -0.20333965493E+04  0.20333965493E+04  0.25500000920E-02 0. -1.
    10030    2    1    2    0    0  0.00000000000E+00  0.00000000000E+00 -0.56293664816E+03  0.35038564504E+04  0.34583395373E+04 0.  0.
        5    1    3    3  502    0  0.13321758280E+04 -0.42322560510E+03 -0.13128018568E+04  0.19176243518E+04  0.46999998093E+01 0. -1.
       -5    1    3    3    0  502 -0.13321758280E+04  0.42322560510E+03  0.74986520861E+03  0.15862320986E+04  0.46999998093E+01 0.  1.
</event>
<event>
 5   0  0.6630125E-07  0.2549181E+04  0.7818609E-02  0.8385671E-01
        1   -1    0    0  501    0  0.00000000000E+00  0.00000000000E+00  0.15483262713E+04  0.15483262713E+04  0.50400001928E-02 0. -1.
       -1   -1    0    0    0  501  0.00000000000E+00  0.00000000000E+00 -0.10492500961E+04  0.10492500961E+04  0.50400001928E-02 0.  1.
    10030    2    1    2    0    0  0.00000000000E+00  0.00000000000E+00  0.49907617520E+03  0.25975763674E+04  0.25491814286E+04 0.  0.
        1    1    3    3  502    0  0.44438901754E+03 -0.10686666010E+04  0.79357618025E+03  0.14033150241E+04  0.50400001928E-02 0. -1.
       -1    1    3    3    0  502 -0.44438901754E+03  0.10686666010E+04 -0.29450000505E+03  0.11942613433E+04  0.50400001928E-02 0.  1.
</event>
<event>
 5   0  0.6890600E-07  0.3647397E+04  0.7818609E-02  0.8079720E-01
        1   -1    0    0  501    0  0.00000000000E+00  0.00000000000E+00  0.17801719094E+04  0.17801719094E+04  0.50400001928E-02 0.  1.
       -1   -1    0    0    0  501  0.00000000000E+00  0.00000000000E+00 -0.18682892178E+04  0.18682892178E+04  0.50400001928E-02 0. -1.
    10030    2    1    2    0    0  0.00000000000E+00  0.00000000000E+00 -0.88117308373E+02  0.36484611272E+04  0.36473968713E+04 0.  0.
        3    1    3    3  502    0 -0.59551838864E+03  0.65992682553E+03 -0.16369209835E+04  0.18627012328E+04  0.10100000352E+00 0. -1.
       -3    1    3    3    0  502  0.59551838864E+03 -0.65992682553E+03  0.15488036751E+04  0.17857598944E+04  0.10100000352E+00 0.  1.
</event>
<event>
 5   0  0.6630125E-07  0.3632992E+04  0.7818609E-02  0.8082976E-01
        1   -1    0    0  501    0  0.00000000000E+00  0.00000000000E+00  0.12286688432E+04  0.12286688432E+04  0.50400001928E-02 0.  1.
       -1   -1    0    0    0  501  0.00000000000E+00  0.00000000000E+00 -0.26855542435E+04  0.26855542435E+04  0.50400001928E-02 0. -1.
    10030    2    1    2    0    0  0.00000000000E+00  0.00000000000E+00 -0.14568854003E+04  0.39142230867E+04  0.36329915088E+04 0.  0.
        4    1    3    3  502    0 -0.23571117449E+03 -0.14821129571E+04 -0.18311114628E+04  0.23675281155E+04  0.12699999809E+01 0. -1.
       -4    1    3    3    0  502  0.23571117449E+03  0.14821129571E+04  0.37422606252E+03  0.15466949712E+04  0.12699999809E+01 0.  1.
</event>
<event>
 5   0  0.6630125E-07  0.3455015E+04  0.7818609E-02  0.8124534E-01
       -1   -1    0    0    0  501  0.00000000000E+00  0.00000000000E+00  0.15173693672E+04  0.15173693672E+04  0.50400001928E-02 0. -1.
        1   -1    0    0  501    0  0.00000000000E+00  0.00000000000E+00 -0.19667470187E+04  0.19667470187E+04  0.50400001928E-02 0.  1.
    10030    2    1    2    0    0  0.00000000000E+00  0.00000000000E+00 -0.44937765156E+03  0.34841163859E+04  0.34550147202E+04 0.  0.
        5    1    3    3  502    0 -0.62263448916E+03  0.13384425108E+04  0.68017490460E+03  0.16253498247E+04  0.46999998093E+01 0. -1.
       -5    1    3    3    0  502  0.62263448916E+03 -0.13384425108E+04 -0.11295525562E+04  0.18587665612E+04  0.46999998093E+01 0.  1.
</event>
<event>
 5   0  0.2020725E-06  0.3523513E+04  0.7818609E-02  0.8108240E-01
       -2   -1    0    0    0  501  0.00000000000E+00  0.00000000000E+00  0.10968937154E+04  0.10968937154E+04  0.25500000920E-02 0.  1.
        2   -1    0    0  501    0  0.00000000000E+00  0.00000000000E+00 -0.28296146779E+04  0.28296146779E+04  0.25500000920E-02 0. -1.
    10030    2    1    2    0    0  0.00000000000E+00  0.00000000000E+00 -0.17327209624E+04  0.39265083933E+04  0.35235133360E+04 0.  0.
        3    1    3    3  502    0 -0.45774085968E+03 -0.46153314900E+03 -0.26910922059E+04  0.27684863759E+04  0.10100000352E+00 0. -1.
       -3    1    3    3    0  502  0.45774085968E+03  0.46153314900E+03  0.95837124351E+03  0.11580220174E+04  0.10100000352E+00 0.  1.
</event>
<event>
 5   0  0.7378896E-07  0.3572158E+04  0.7818609E-02  0.8096899E-01
        1   -1    0    0  501    0  0.00000000000E+00  0.00000000000E+00  0.18991520529E+04  0.18991520529E+04  0.50400001928E-02 0. -1.
       -1   -1    0    0    0  501  0.00000000000E+00  0.00000000000E+00 -0.16797381954E+04  0.16797381954E+04  0.50400001928E-02 0.  1.
    10030    2    1    2    0    0  0.00000000000E+00  0.00000000000E+00  0.21941385750E+03  0.35788902484E+04  0.35721580269E+04 0.  0.
        2    1    3    3  502    0  0.13777366253E+04 -0.16508790137E+03  0.12364000473E+04  0.18585201911E+04  0.25500000920E-02 0. -1.
       -2    1    3    3    0  502 -0.13777366253E+04  0.16508790137E+03 -0.10169861898E+04  0.17203700573E+04  0.25500000920E-02 0.  1.
</event>
<event>
 5   0  0.6630125E-07  0.3479306E+04  0.7818609E-02  0.8118712E-01
        1   -1    0    0  501    0  0.00000000000E+00  0.00000000000E+00  0.30021084744E+04  0.30021084744E+04  0.50400001928E-02 0. -1.
       -1   -1    0    0    0  501  0.00000000000E+00  0.00000000000E+00 -0.10080892609E+04  0.10080892609E+04  0.50400001928E-02 0.  1.
    10030    2    1    2    0    0  0.00000000000E+00  0.00000000000E+00  0.19940192135E+04  0.40101977353E+04  0.34793064327E+04 0.  0.
        4    1    3    3  502    0 -0.14337424903E+04 -0.96528604331E+03  0.76940090915E+03  0.18919233721E+04  0.12699999809E+01 0.  1.
       -4    1    3    3    0  502  0.14337424903E+04  0.96528604331E+03  0.12246183043E+04  0.21182743632E+04  0.12699999809E+01 0. -1.
</event>
<event>
 5   0  0.6890600E-07  0.3504374E+04  0.7818609E-02  0.8112754E-01
       -1   -1    0    0    0  501  0.00000000000E+00  0.00000000000E+00  0.16043484221E+04  0.16043484221E+04  0.50400001928E-02 0.  1.
        1   -1    0    0  501    0  0.00000000000E+00  0.00000000000E+00 -0.19136483480E+04  0.19136483480E+04  0.50400001928E-02 0. -1.
    10030    2    1    2    0    0  0.00000000000E+00  0.00000000000E+00 -0.30929992586E+03  0.35179967701E+04  0.35043736716E+04 0.  0.
        3    1    3    3  502    0 -0.83492403850E+03  0.10076930765E+04  0.10150470348E+04  0.16561594064E+04  0.10100000352E+00 0.  1.
       -3    1    3    3    0  502  0.83492403850E+03 -0.10076930765E+04 -0.13243469607E+04  0.18618373637E+04  0.10100000352E+00 0. -1.
</event>
<event>
 5   0  0.6630125E-07  0.3531808E+04  0.7818609E-02  0.8106293E-01
        1   -1    0    0  501    0  0.00000000000E+00  0.00000000000E+00  0.22869984619E+04  0.22869984619E+04  0.50400001928E-02 0. -1.
       -1   -1    0    0    0  501  0.00000000000E+00  0.00000000000E+00 -0.13635415253E+04  0.13635415253E+04  0.50400001928E-02 0.  1.
    10030    2    1    2    0    0  0.00000000000E+00  0.00000000000E+00  0.92345693662E+03  0.36505399872E+04  0.35318082457E+04 0.  0.
        4    1    3    3  502    0  0.13881576675E+03  0.16973657119E+04  0.94443527960E+03  0.19473776694E+04  0.12699999809E+01 0. -1.
       -4    1    3    3    0  502 -0.13881576675E+03 -0.16973657119E+04 -0.20978342974E+02  0.17031623178E+04  0.12699999809E+01 0.  1.
</event>
<event>
 5   0  0.2001768E-06  0.3460686E+04  0.7818609E-02  0.8123171E-01
        2   -1    0    0  501    0  0.00000000000E+00  0.00000000000E+00  0.19439648392E+04  0.19439648392E+04  0.25500000920E-02 0.  1.
       -2   -1    0    0    0  501  0.00000000000E+00  0.00000000000E+00 -0.15401961660E+04  0.15401961660E+04  0.25500000920E-02 0. -1.
    10030    2    1    2    0    0  0.00000000000E+00  0.00000000000E+00  0.40376867320E+03  0.34841610053E+04  0.34606861703E+04 0.  0.
        2    1    3    3  502    0  0.13901118738E+04 -0.16316224541E+03  0.12261616539E+04  0.18607808419E+04  0.25500000920E-02 0.  1.
       -2    1    3    3    0  502 -0.13901118738E+04  0.16316224541E+03 -0.82239298071E+03  0.16233801634E+04  0.25500000920E-02 0. -1.
</event>
<event>
 5   0  0.2023479E-06  0.3518259E+04  0.7818609E-02  0.8109476E-01
       -2   -1    0    0    0  501  0.00000000000E+00  0.00000000000E+00  0.11737945435E+04  0.11737945435E+04  0.25500000920E-02 0.  1.
        2   -1    0    0  501    0  0.00000000000E+00  0.00000000000E+00 -0.26363532922E+04  0.26363532922E+04  0.25500000920E-02 0. -1.
    10030    2    1    2    0    0  0.00000000000E+00  0.00000000000E+00 -0.14625587487E+04  0.38101478357E+04  0.35182592907E+04 0.  0.
        5    1    3    3  502    0 -0.17503143743E+03  0.84606105876E+03 -0.23907461090E+04  0.25420748154E+04  0.46999998093E+01 0. -1.
       -5    1    3    3    0  502  0.17503143743E+03 -0.84606105876E+03  0.92818736027E+03  0.12680730204E+04  0.46999998093E+01 0.  1.
</event>
<event>
 5   0  0.2020725E-06  0.2922121E+04  0.7818609E-02  0.8266326E-01
       -2   -1    0    0    0  501  0.00000000000E+00  0.00000000000E+00  0.94157791314E+03  0.94157791315E+03  0.25500000920E-02 0. -1.
        2   -1    0    0  501    0  0.00000000000E+00  0.00000000000E+00 -0.22671489957E+04  0.22671489957E+04  0.25500000920E-02 0.  1.
    10030    2    1    2    0    0  0.00000000000E+00  0.00000000000E+00 -0.13255710825E+04  0.32087269088E+04  0.29221207505E+04 0.  0.
        3    1    3    3  502    0  0.53646094974E+03  0.21678438130E+03 -0.21359803675E+04  0.22129613551E+04  0.10100000352E+00 0.  1.
       -3    1    3    3    0  502 -0.53646094974E+03 -0.21678438130E+03  0.81040928499E+03  0.99576555371E+03  0.10100000352E+00 0. -1.
</event>
<event>
 5   0  0.2023479E-06  0.2764649E+04  0.7818609E-02  0.8314328E-01
       -2   -1    0    0    0  501  0.00000000000E+00  0.00000000000E+00  0.84508244390E+03  0.84508244391E+03  0.25500000920E-02 0.  1.
        2   -1    0    0  501    0  0.00000000000E+00  0.00000000000E+00 -0.22611067900E+04  0.22611067901E+04  0.25500000920E-02 0. -1.
    10030    2    1    2    0    0  0.00000000000E+00  0.00000000000E+00 -0.14160243461E+04  0.31061892340E+04  0.27646494549E+04 0.  0.
        5    1    3    3  502    0 -0.50797212306E+03 -0.29962741347E+02 -0.21520389957E+04  0.22113858489E+04  0.46999998093E+01 0. -1.
       -5    1    3    3    0  502  0.50797212306E+03  0.29962741347E+02  0.73601464952E+03  0.89480338510E+03  0.46999998093E+01 0.  1.
</event>
<event>
 5   0  0.6630125E-07  0.3443175E+04  0.7818609E-02  0.8127390E-01
       -1   -1    0    0    0  501  0.00000000000E+00  0.00000000000E+00  0.14070633843E+04  0.14070633843E+04  0.50400001928E-02 0. -1.
        1   -1    0    0  501    0  0.00000000000E+00  0.00000000000E+00 -0.21064182157E+04  0.21064182157E+04  0.50400001928E-02 0.  1.
    10030    2    1    2    0    0  0.00000000000E+00  0.00000000000E+00 -0.69935483146E+03  0.35134816000E+04  0.34431752458E+04 0.  0.
        4    1    3    3  502    0  0.13287853685E+04  0.30932857399E+03  0.72176627970E+03  0.15434710550E+04  0.12699999809E+01 0. -1.
       -4    1    3    3    0  502 -0.13287853685E+04 -0.30932857399E+03 -0.14211211112E+04  0.19700105450E+04  0.12699999809E+01 0.  1.
</event>
<event>
 5   0  0.6890600E-07  0.3640227E+04  0.7818609E-02  0.8081339E-01
        1   -1    0    0  501    0  0.00000000000E+00  0.00000000000E+00  0.11450445376E+04  0.11450445377E+04  0.50400001928E-02 0. -1.
       -1   -1    0    0    0  501  0.00000000000E+00  0.00000000000E+00 -0.28931733170E+04  0.28931733171E+04  0.50400001928E-02 0.  1.
    10030    2    1    2    0    0  0.00000000000E+00  0.00000000000E+00 -0.17481287794E+04  0.40382178547E+04  0.36402265332E+04 0.  0.
        3    1    3    3  502    0 -0.99257825519E+03  0.13430997411E+04 -0.16768431945E+04  0.23666287449E+04  0.10100000352E+00 0.  1.
       -3    1    3    3    0  502  0.99257825519E+03 -0.13430997411E+04 -0.71285584905E+02  0.16715891098E+04  0.10100000352E+00 0. -1.
</event>
<event>
 5   0  0.6890600E-07  0.3435437E+04  0.7818609E-02  0.8129263E-01
        1   -1    0    0  501    0  0.00000000000E+00  0.00000000000E+00  0.21212136184E+04  0.21212136184E+04  0.50400001928E-02 0. -1.
       -1   -1    0    0    0  501  0.00000000000E+00  0.00000000000E+00 -0.13909757407E+04  0.13909757407E+04  0.50400001928E-02 0.  1.
    10030    2    1    2    0    0  0.00000000000E+00  0.00000000000E+00  0.73023787769E+03  0.35121893592E+04  0.34354369062E+04 0.  0.
        3    1    3    3  502    0  0.10813660966E+04 -0.12524934181E+04 -0.10611754363E+03  0.16581174085E+04  0.10100000352E+00 0.  1.
       -3    1    3    3    0  502 -0.10813660966E+04  0.12524934181E+04  0.83635542133E+03  0.18540719506E+04  0.10100000352E+00 0. -1.
</event>
<event>
 5   0  0.6630125E-07  0.3480033E+04  0.7818609E-02  0.8118538E-01
       -1   -1    0    0    0  501  0.00000000000E+00  0.00000000000E+00  0.18229951845E+04  0.18229951845E+04  0.50400001928E-02 0.  1.
        1   -1    0    0  501    0  0.00000000000E+00  0.00000000000E+00 -0.16608146666E+04  0.16608146666E+04  0.50400001928E-02 0. -1.
    10030    2    1    2    0    0  0.00000000000E+00  0.00000000000E+00  0.16218051788E+03  0.34838098511E+04  0.34800328387E+04 0.  0.
        5    1    3    3  502    0  0.40543646768E+03 -0.16625054963E+04  0.39660179491E+03  0.17565928180E+04  0.46999998093E+01 0. -1.
       -5    1    3    3    0  502 -0.40543646768E+03  0.16625054963E+04 -0.23442127703E+03  0.17272170331E+04  0.46999998093E+01 0.  1.
</event>
<event>
 5   0  0.2001768E-06  0.3401861E+04  0.7818609E-02  0.8137450E-01
       -2   -1    0    0    0  501  0.00000000000E+00  0.00000000000E+00  0.17792302409E+04  0.17792302409E+04  0.25500000920E-02 0.  1.
        2   -1    0    0  501    0  0.00000000000E+00  0.00000000000E+00 -0.16260767974E+04  0.16260767974E+04  0.25500000920E-02 0. -1.
    10030    2    1    2    0    0  0.00000000000E+00  0.00000000000E+00  0.15315344352E+03  0.34053070384E+04  0.34018612624E+04 0.  0.
        2    1    3    3  502    0 -0.14280104279E+04 -0.41744891179E+02 -0.84750979364E+03  0.16610927934E+04  0.25500000920E-02 0. -1.
       -2    1    3    3    0  502  0.14280104279E+04  0.41744891179E+02  0.10006632372E+04  0.17442142449E+04  0.25500000920E-02 0.  1.
</event>
<event>
 5   0  0.2020725E-06  0.3306556E+04  0.7818609E-02  0.8161229E-01
        2   -1    0    0  501    0  0.00000000000E+00  0.00000000000E+00  0.17230317366E+04  0.17230317366E+04  0.25500000920E-02 0. -1.
       -2   -1    0    0    0  501  0.00000000000E+00  0.00000000000E+00 -0.15863479697E+04  0.15863479697E+04  0.25500000920E-02 0.  1.
    10030    2    1    2    0    0  0.00000000000E+00  0.00000000000E+00  0.13668376689E+03  0.33093797063E+04  0.33065558499E+04 0.  0.
        3    1    3    3  502    0 -0.12961321698E+04 -0.15645364439E+03  0.10835510617E+04  0.16966199509E+04  0.10100000352E+00 0. -1.
       -3    1    3    3    0  502  0.12961321698E+04  0.15645364439E+03 -0.94686729479E+03  0.16127597554E+04  0.10100000352E+00 0.  1.
</event>
<event>
 5   0  0.2020725E-06  0.3520265E+04  0.7818609E-02  0.8109004E-01
        2   -1    0    0  501    0  0.00000000000E+00  0.00000000000E+00  0.25144606596E+04  0.25144606596E+04  0.25500000920E-02 0. -1.
       -2   -1    0    0    0  501  0.00000000000E+00  0.00000000000E+00 -0.12320996966E+04  0.12320996966E+04  0.25500000920E-02 0.  1.
    10030    2    1    2    0    0  0.00000000000E+00  0.00000000000E+00  0.12823609630E+04  0.37465603562E+04  0.35202648854E+04 0.  0.
        3    1    3    3  502    0  0.47197493177E+03  0.78314120481E+03 -0.95949495155E+03  0.13254059963E+04  0.10100000352E+00 0.  1.
       -3    1    3    3    0  502 -0.47197493177E+03 -0.78314120481E+03  0.22418559145E+04  0.24211543599E+04  0.10100000352E+00 0. -1.
</event>
<event>
 5   0  0.7378896E-07  0.3585639E+04  0.7818609E-02  0.8093789E-01
        1   -1    0    0  501    0  0.00000000000E+00  0.00000000000E+00  0.26476899416E+04  0.26476899416E+04  0.50400001928E-02 0.  1.
       -1   -1    0    0    0  501  0.00000000000E+00  0.00000000000E+00 -0.12139644714E+04  0.12139644714E+04  0.50400001928E-02 0. -1.
    10030    2    1    2    0    0  0.00000000000E+00  0.00000000000E+00  0.14337254702E+04  0.38616544130E+04  0.35856388665E+04 0.  0.
        2    1    3    3  502    0  0.11977931113E+04  0.88181612527E+03  0.17948599504E+04  0.23310577551E+04  0.25500000920E-02 0.  1.
       -2    1    3    3    0  502 -0.11977931113E+04 -0.88181612527E+03 -0.36113448017E+03  0.15305966578E+04  0.25500000920E-02 0. -1.
</event>
<event>
 5   0  0.1999883E-06  0.3342490E+04  0.7818609E-02  0.8152167E-01
       -2   -1    0    0    0  501  0.00000000000E+00  0.00000000000E+00  0.15636996603E+04  0.15636996603E+04  0.25500000920E-02 0. -1.
        2   -1    0    0  501    0  0.00000000000E+00  0.00000000000E+00 -0.17861865371E+04  0.17861865371E+04  0.25500000920E-02 0.  1.
    10030    2    1    2    0    0  0.00000000000E+00  0.00000000000E+00 -0.22248687671E+03  0.33498861974E+04  0.33424896597E+04 0.  0.
        4    1    3    3  502    0 -0.10483188442E+04 -0.56347776191E+03  0.10646295283E+04  0.15968460266E+04  0.12699999809E+01 0. -1.
       -4    1    3    3    0  502  0.10483188442E+04  0.56347776191E+03 -0.12871164051E+04  0.17530401708E+04  0.12699999809E+01 0.  1.
</event>
<event>
 5   0  0.2020725E-06  0.3453813E+04  0.7818609E-02  0.8124824E-01
        2   -1    0    0  501    0  0.00000000000E+00  0.00000000000E+00  0.18960452597E+04  0.18960452597E+04  0.25500000920E-02 0.  1.
       -2   -1    0    0    0  501  0.00000000000E+00  0.00000000000E+00 -0.15728559775E+04  0.15728559775E+04  0.25500000920E-02 0. -1.
    10030    2    1    2    0    0  0.00000000000E+00  0.00000000000E+00  0.32318928223E+03  0.34689012372E+04  0.34538130351E+04 0.  0.
        3    1    3    3  502    0 -0.98652631930E+03 -0.12072886742E+04  0.90741927959E+03  0.18039373273E+04  0.10100000352E+00 0.  1.
       -3    1    3    3    0  502  0.98652631930E+03  0.12072886742E+04 -0.58422999736E+03  0.16649639100E+04  0.10100000352E+00 0. -1.
</event>
<event>
 5   0  0.2020725E-06  0.3469291E+04  0.7818609E-02  0.8121106E-01
       -2   -1    0    0    0  501  0.00000000000E+00  0.00000000000E+00  0.12393500032E+04  0.12393500032E+04  0.25500000920E-02 0. -1.
        2   -1    0    0  501    0  0.00000000000E+00  0.00000000000E+00 -0.24278813913E+04  0.24278813913E+04  0.25500000920E-02 0.  1.
    10030    2    1    2    0    0  0.00000000000E+00  0.00000000000E+00 -0.11885313882E+04  0.36672313945E+04  0.34692908844E+04 0.  0.
        3    1    3    3  502    0  0.12573355275E+04  0.91714769105E+03  0.21556698494E+03  0.15711529687E+04  0.10100000352E+00 0. -1.
       -3    1    3    3    0  502 -0.12573355275E+04 -0.91714769105E+03 -0.14040983731E+04  0.20960784258E+04  0.10100000352E+00 0.  1.
</event>
<event>
 5   0  0.2020725E-06  0.3508497E+04  0.7818609E-02  0.8111779E-01
       -2   -1    0    0    0  501  0.00000000000E+00  0.00000000000E+00  0.21369221860E+04  0.21369221860E+04  0.25500000920E-02 0.  1.
        2   -1    0    0  501    0  0.00000000000E+00  0.00000000000E+00 -0.14401030360E+04  0.14401030360E+04  0.25500000920E-02 0. -1.
    10030    2    1    2    0    0  0.00000000000E+00  0.00000000000E+00  0.69681914997E+03  0.35770252221E+04  0.35084971870E+04 0.  0.
        3    1    3    3  502    0 -0.72417881044E+03  0.15591775552E+04 -0.75787131147E+01  0.17191646359E+04  0.10100000352E+00 0.  1.
       -3    1    3    3    0  502  0.72417881044E+03 -0.15591775552E+04  0.70439786308E+03  0.18578605862E+04  0.10100000352E+00 0. -1.
</event>
<event>
 5   0  0.2023479E-06  0.3573832E+04  0.7818609E-02  0.8096512E-01
       -2   -1    0    0    0  501  0.00000000000E+00  0.00000000000E+00  0.26053959786E+04  0.26053959786E+04  0.25500000920E-02 0. -1.
        2   -1    0    0  501    0  0.00000000000E+00  0.00000000000E+00 -0.12255602112E+04  0.12255602112E+04  0.25500000920E-02 0.  1.
    10030    2    1    2    0    0  0.00000000000E+00  0.00000000000E+00  0.13798357674E+04  0.38309561898E+04  0.35738324784E+04 0.  0.
        5    1    3    3  502    0 -0.99424795223E+03 -0.72941242563E+03  0.20762042483E+04  0.24147914295E+04  0.46999998093E+01 0. -1.
       -5    1    3    3    0  502  0.99424795223E+03  0.72941242563E+03 -0.69636848092E+03  0.14161647603E+04  0.46999998093E+01 0.  1.
</event>
<event>
 5   0  0.6890600E-07  0.3489417E+04  0.7818609E-02  0.8116302E-01
       -1   -1    0    0    0  501  0.00000000000E+00  0.00000000000E+00  0.19076278883E+04  0.19076278884E+04  0.50400001928E-02 0.  1.
        1   -1    0    0  501    0  0.00000000000E+00  0.00000000000E+00 -0.15957035277E+04  0.15957035277E+04  0.50400001928E-02 0. -1.
    10030    2    1    2    0    0  0.00000000000E+00  0.00000000000E+00  0.31192436064E+03  0.35033314161E+04  0.34894174591E+04 0.  0.
        3    1    3    3  502    0  0.63111221829E+03 -0.93817715830E+03 -0.11780684047E+04  0.16328882965E+04  0.10100000352E+00 0. -1.
       -3    1    3    3    0  502 -0.63111221829E+03  0.93817715830E+03  0.14899927654E+04  0.18704431196E+04  0.10100000352E+00 0.  1.
</event>
<event>
 5   0  0.7378896E-07  0.3048218E+04  0.7818609E-02  0.8230095E-01
       -1   -1    0    0    0  501  0.00000000000E+00  0.00000000000E+00  0.11366267340E+04  0.11366267341E+04  0.50400001928E-02 0.  1.
        1   -1    0    0  501    0  0.00000000000E+00  0.00000000000E+00 -0.20436857007E+04  0.20436857008E+04  0.50400001928E-02 0. -1.
    10030    2    1    2    0    0  0.00000000000E+00  0.00000000000E+00 -0.90705896670E+03  0.31803124348E+04  0.30482177110E+04 0.  0.
        2    1    3    3  502    0  0.80795859572E+02  0.12568399646E+04 -0.13490569424E+04  0.18455701833E+04  0.25500000920E-02 0. -1.
       -2    1    3    3    0  502 -0.80795859572E+02 -0.12568399646E+04  0.44199797568E+03  0.13347422515E+04  0.25500000920E-02 0.  1.
</event>
<event>
 5   0  0.6630125E-07  0.3178032E+04  0.7818609E-02  0.8194643E-01
       -1   -1    0    0    0  501  0.00000000000E+00  0.00000000000E+00  0.15728465618E+04  0.15728465618E+04  0.50400001928E-02 0.  1.
        1   -1    0    0  501    0  0.00000000000E+00  0.00000000000E+00 -0.16053519720E+04  0.16053519720E+04  0.50400001928E-02 0. -1.
    10030    2    1    2    0    0  0.00000000000E+00  0.00000000000E+00 -0.32505410180E+02  0.31781985338E+04  0.31780323030E+04 0.  0.
        4    1    3    3  502    0 -0.10770484514E+04  0.53693128380E+03 -0.10539206576E+04  0.15997121415E+04  0.12699999809E+01 0. -1.
       -4    1    3    3    0  502  0.10770484514E+04 -0.53693128380E+03  0.10214152474E+04  0.15784863923E+04  0.12699999809E+01 0.  1.
</event>
<event>
 5   0  0.2020725E-06  0.3363510E+04  0.7818609E-02  0.8146921E-01
        2   -1    0    0  501    0  0.00000000000E+00  0.00000000000E+00  0.27642366165E+04  0.27642366165E+04  0.25500000920E-02 0. -1.
       -2   -1    0    0    0  501  0.00000000000E+00  0.00000000000E+00 -0.10231755016E+04  0.10231755016E+04  0.25500000920E-02 0.  1.
    10030    2    1    2    0    0  0.00000000000E+00  0.00000000000E+00  0.17410611149E+04  0.37874121181E+04  0.33635095877E+04 0.  0.
        3    1    3    3  502    0 -0.91455565719E+03  0.12429370577E+04  0.11769342597E+03  0.15476292619E+04  0.10100000352E+00 0.  1.
       -3    1    3    3    0  502  0.91455565719E+03 -0.12429370577E+04  0.16233676889E+04  0.22397828562E+04  0.10100000352E+00 0. -1.
</event>
<event>
 5   0  0.2020725E-06  0.3148460E+04  0.7818609E-02  0.8202563E-01
        2   -1    0    0  501    0  0.00000000000E+00  0.00000000000E+00  0.10334035371E+04  0.10334035371E+04  0.25500000920E-02 0.  1.
       -2   -1    0    0    0  501  0.00000000000E+00  0.00000000000E+00 -0.23980954089E+04  0.23980954089E+04  0.25500000920E-02 0. -1.
    10030    2    1    2    0    0  0.00000000000E+00  0.00000000000E+00 -0.13646918718E+04  0.34314989461E+04  0.31484601176E+04 0.  0.
        3    1    3    3  502    0  0.18821265654E+03 -0.14110621073E+04  0.50143052948E+02  0.14244418594E+04  0.10100000352E+00 0.  1.
       -3    1    3    3    0  502 -0.18821265654E+03  0.14110621073E+04 -0.14148349247E+04  0.20070570867E+04  0.10100000352E+00 0. -1.
</event>
<event>
 5   0  0.2073287E-06  0.3509731E+04  0.7818609E-02  0.8111488E-01
       -2   -1    0    0    0  501  0.00000000000E+00  0.00000000000E+00  0.20841413754E+04  0.20841413754E+04  0.25500000920E-02 0.  1.
        2   -1    0    0  501    0  0.00000000000E+00  0.00000000000E+00 -0.14776126021E+04  0.14776126021E+04  0.25500000920E-02 0. -1.
    10030    2    1    2    0    0  0.00000000000E+00  0.00000000000E+00  0.60652877335E+03  0.35617539775E+04  0.35097313634E+04 0.  0.
        1    1    3    3  502    0  0.27176086551E+03 -0.33758113050E+03  0.20289812995E+04  0.20747482019E+04  0.50400001928E-02 0.  1.
       -1    1    3    3    0  502 -0.27176086551E+03  0.33758113050E+03 -0.14224525261E+04  0.14870057756E+04  0.50400001928E-02 0. -1.
</event>
<event>
 5   0  0.6630125E-07  0.3428049E+04  0.7818609E-02  0.8131056E-01
        1   -1    0    0  501    0  0.00000000000E+00  0.00000000000E+00  0.21442998819E+04  0.21442998820E+04  0.50400001928E-02 0.  1.
       -1   -1    0    0    0  501  0.00000000000E+00  0.00000000000E+00 -0.13700885813E+04  0.13700885813E+04  0.50400001928E-02 0. -1.
    10030    2    1    2    0    0  0.00000000000E+00  0.00000000000E+00  0.77421130065E+03  0.35143884633E+04  0.34280494647E+04 0.  0.
        1    1    3    3  502    0  0.69465585976E+03  0.56327353081E+03  0.18861425352E+04  0.20874284412E+04  0.50400001928E-02 0.  1.
       -1    1    3    3    0  502 -0.69465585976E+03 -0.56327353081E+03 -0.11119312346E+04  0.14269600220E+04  0.50400001928E-02 0. -1.
</event>
<event>
 5   0  0.2001768E-06  0.3443528E+04  0.7818609E-02  0.8127305E-01
       -2   -1    0    0    0  501  0.00000000000E+00  0.00000000000E+00  0.14379013041E+04  0.14379013041E+04  0.25500000920E-02 0.  1.
        2   -1    0    0  501    0  0.00000000000E+00  0.00000000000E+00 -0.20616655605E+04  0.20616655605E+04  0.25500000920E-02 0. -1.
    10030    2    1    2    0    0  0.00000000000E+00  0.00000000000E+00 -0.62376425635E+03  0.34995668646E+04  0.34435281895E+04 0.  0.
        2    1    3    3  502    0  0.68943390031E+03 -0.44231034922E+03  0.12271984425E+04  0.14754570700E+04  0.25500000920E-02 0.  1.
       -2    1    3    3    0  502 -0.68943390031E+03  0.44231034922E+03 -0.18509626989E+04  0.20241097946E+04  0.25500000920E-02 0. -1.
</event>
<event>
 5   0  0.2020725E-06  0.3550285E+04  0.7818609E-02  0.8101975E-01
       -2   -1    0    0    0  501  0.00000000000E+00  0.00000000000E+00  0.16638290289E+04  0.16638290289E+04  0.25500000920E-02 0.  1.
        2   -1    0    0  501    0  0.00000000000E+00  0.00000000000E+00 -0.18939026674E+04  0.18939026674E+04  0.25500000920E-02 0. -1.
    10030    2    1    2    0    0  0.00000000000E+00  0.00000000000E+00 -0.23007363850E+03  0.35577316963E+04  0.35502846285E+04 0.  0.
        3    1    3    3  502    0 -0.13719865958E+04  0.11194413537E+04  0.10261700756E+02  0.17707629644E+04  0.10100000352E+00 0.  1.
       -3    1    3    3    0  502  0.13719865958E+04 -0.11194413537E+04 -0.24033533926E+03  0.17869687319E+04  0.10100000352E+00 0. -1.
</event>
<event>
 5   0  0.6630125E-07  0.3619031E+04  0.7818609E-02  0.8086146E-01
       -1   -1    0    0    0  501  0.00000000000E+00  0.00000000000E+00  0.12534902441E+04  0.12534902441E+04  0.50400001928E-02 0.  1.
        1   -1    0    0  501    0  0.00000000000E+00  0.00000000000E+00 -0.26121833439E+04  0.26121833439E+04  0.50400001928E-02 0. -1.
    10030    2    1    2    0    0  0.00000000000E+00  0.00000000000E+00 -0.13586930998E+04  0.38656735880E+04  0.36190309960E+04 0.  0.
        1    1    3    3  502    0  0.84401306079E+03  0.15984333709E+04 -0.58998464623E+03  0.19014281924E+04  0.50400001928E-02 0.  1.
       -1    1    3    3    0  502 -0.84401306079E+03 -0.15984333709E+04 -0.76870845353E+03  0.19642453957E+04  0.50400001928E-02 0. -1.
</event>
<event>
 5   0  0.1999883E-06  0.3461241E+04  0.7818609E-02  0.8123037E-01
       -2   -1    0    0    0  501  0.00000000000E+00  0.00000000000E+00  0.22250759454E+04  0.22250759454E+04  0.25500000920E-02 0.  1.
        2   -1    0    0  501    0  0.00000000000E+00  0.00000000000E+00 -0.13460429805E+04  0.13460429805E+04  0.25500000920E-02 0. -1.
    10030    2    1    2    0    0  0.00000000000E+00  0.00000000000E+00  0.87903296485E+03  0.35711189259E+04  0.34612413134E+04 0.  0.
        4    1    3    3  502    0 -0.29170933655E+03 -0.76635066556E+03 -0.11328910687E+04  0.13985104455E+04  0.12699999809E+01 0. -1.
       -4    1    3    3    0  502  0.29170933655E+03  0.76635066556E+03  0.20119240336E+04  0.21726084805E+04  0.12699999809E+01 0.  1.
</event>
<event>
 5   0  0.6630125E-07  0.2669816E+04  0.7818609E-02  0.8344866E-01
        1   -1    0    0  501    0  0.00000000000E+00  0.00000000000E+00  0.23591290831E+04  0.23591290831E+04  0.50400001928E-02 0. -1.
       -1   -1    0    0    0  501  0.00000000000E+00  0.00000000000E+00 -0.75535448013E+03  0.75535448014E+03  0.50400001928E-02 0.  1.
    10030    2    1    2    0    0  0.00000000000E+00  0.00000000000E+00  0.16037746029E+04  0.31144835632E+04  0.26698155158E+04 0.  0.
        5    1    3    3  502    0 -0.10575420793E+04  0.45097789317E+03  0.15932376766E+04  0.19647403630E+04  0.46999998093E+01 0. -1.
       -5    1    3    3    0  502  0.10575420793E+04 -0.45097789317E+03  0.10536926299E+02  0.11497432002E+04  0.46999998093E+01 0.  1.
</event>
<event>
 5   0  0.2023479E-06  0.3561357E+04  0.7818609E-02  0.8099401E-01
       -2   -1    0    0    0  501  0.00000000000E+00  0.00000000000E+00  0.31119924732E+04  0.31119924732E+04  0.25500000920E-02 0.  1.
        2   -1    0    0  501    0  0.00000000000E+00  0.00000000000E+00 -0.10189019301E+04  0.10189019301E+04  0.25500000920E-02 0. -1.
    10030    2    1    2    0    0  0.00000000000E+00  0.00000000000E+00  0.20930905431E+04  0.41308944033E+04  0.35613565603E+04 0.  0.
        5    1    3    3  502    0  0.23631852552E+03 -0.15499206509E+04  0.20257640973E+04  0.25616094038E+04  0.46999998093E+01 0.  1.
       -5    1    3    3    0  502 -0.23631852552E+03  0.15499206509E+04  0.67326445853E+02  0.15692849996E+04  0.46999998093E+01 0. -1.
</event>
<event>
 5   0  0.1999883E-06  0.3524222E+04  0.7818609E-02  0.8108074E-01
        2   -1    0    0  501    0  0.00000000000E+00  0.00000000000E+00  0.10001963568E+04  0.10001963568E+04  0.25500000920E-02 0.  1.
       -2   -1    0    0    0  501  0.00000000000E+00  0.00000000000E+00 -0.31044254601E+04  0.31044254601E+04  0.25500000920E-02 0. -1.
    10030    2    1    2    0    0  0.00000000000E+00  0.00000000000E+00 -0.21042291033E+04  0.41046218169E+04  0.35242219199E+04 0.  0.
        4    1    3    3  502    0  0.10346344231E+04  0.26689145286E+03  0.57983599180E+03  0.12156935581E+04  0.12699999809E+01 0.  1.
       -4    1    3    3    0  502 -0.10346344231E+04 -0.26689145286E+03 -0.26840650951E+04  0.28889282588E+04  0.12699999809E+01 0. -1.
</event>
<event>
 5   0  0.2020725E-06  0.3195285E+04  0.7818609E-02  0.8190063E-01
       -2   -1    0    0    0  501  0.00000000000E+00  0.00000000000E+00  0.19130342310E+04  0.19130342310E+04  0.25500000920E-02 0.  1.
        2   -1    0    0  501    0  0.00000000000E+00  0.00000000000E+00 -0.13342480760E+04  0.13342480760E+04  0.25500000920E-02 0. -1.
    10030    2    1    2    0    0  0.00000000000E+00  0.00000000000E+00  0.57878615499E+03  0.32472823070E+04  0.31952854283E+04 0.  0.
        3    1    3    3  502    0  0.82569513928E+03 -0.80709042326E+03 -0.83279267713E+03  0.14236260280E+04  0.10100000352E+00 0. -1.
       -3    1    3    3    0  502 -0.82569513928E+03  0.80709042326E+03  0.14115788321E+04  0.18236562790E+04  0.10100000352E+00 0.  1.
</event>
<event>
 5   0  0.2020725E-06  0.2321492E+04  0.7818609E-02  0.8469495E-01
        2   -1    0    0  501    0  0.00000000000E+00  0.00000000000E+00  0.10429146325E+04  0.10429146325E+04  0.25500000920E-02 0. -1.
       -2   -1    0    0    0  501  0.00000000000E+00  0.00000000000E+00 -0.12918904258E+04  0.12918904258E+04  0.25500000920E-02 0.  1.
    10030    2    1    2    0    0  0.00000000000E+00  0.00000000000E+00 -0.24897579328E+03  0.23348050582E+04  0.23214921310E+04 0.  0.
        3    1    3    3  502    0  0.10632067383E+04 -0.41094820014E+03  0.95959471180E+02  0.11438947600E+04  0.10100000352E+00 0.  1.
       -3    1    3    3    0  502 -0.10632067383E+04  0.41094820014E+03 -0.34493526446E+03  0.11909102983E+04  0.10100000352E+00 0. -1.
</event>
<event>
 5   0  0.2001768E-06  0.3053526E+04  0.7818609E-02  0.8228609E-01
        2   -1    0    0  501    0  0.00000000000E+00  0.00000000000E+00  0.16043841395E+04  0.16043841395E+04  0.25500000920E-02 0.  1.
       -2   -1    0    0    0  501  0.00000000000E+00  0.00000000000E+00 -0.14528973564E+04  0.14528973564E+04  0.25500000920E-02 0. -1.
    10030    2    1    2    0    0  0.00000000000E+00  0.00000000000E+00  0.15148678316E+03  0.30572814959E+04  0.30535261420E+04 0.  0.
        2    1    3    3  502    0  0.14735305279E+04  0.39875904456E+03  0.49168657545E+02  0.15273239830E+04  0.25500000920E-02 0.  1.
       -2    1    3    3    0  502 -0.14735305279E+04 -0.39875904456E+03  0.10231812562E+03  0.15299575129E+04  0.25500000920E-02 0. -1.
</event>
<event>
 5   0  0.2020725E-06  0.3454538E+04  0.7818609E-02  0.8124649E-01
       -2   -1    0    0    0  501  0.00000000000E+00  0.00000000000E+00  0.22782233847E+04  0.22782233847E+04  0.25500000920E-02 0. -1.
        2   -1    0    0  501    0  0.00000000000E+00  0.00000000000E+00 -0.13095550262E+04  0.13095550262E+04  0.25500000920E-02 0.  1.
    10030    2    1    2    0    0  0.00000000000E+00  0.00000000000E+00  0.96866835847E+03  0.35877784109E+04  0.34545383971E+04 0.  0.
        3    1    3    3  502    0  0.14223859245E+04 -0.49268262360E+03 -0.39541515167E+03  0.15563646868E+04  0.10100000352E+00 0.  1.
       -3    1    3    3    0  502 -0.14223859245E+04  0.49268262360E+03  0.13640835101E+04  0.20314137242E+04  0.10100000352E+00 0. -1.
</event>
<event>
 5   0  0.6630125E-07  0.3400446E+04  0.7818609E-02  0.8137797E-01
       -1   -1    0    0    0  501  0.00000000000E+00  0.00000000000E+00  0.11544231894E+04  0.11544231894E+04  0.50400001928E-02 0. -1.
        1   -1    0    0  501    0  0.00000000000E+00  0.00000000000E+00 -0.25040720608E+04  0.25040720608E+04  0.50400001928E-02 0.  1.
    10030    2    1    2    0    0  0.00000000000E+00  0.00000000000E+00 -0.13496488714E+04  0.36584952501E+04  0.34004463559E+04 0.  0.
        5    1    3    3  502    0 -0.13510171368E+04  0.50729841006E+03 -0.16420088150E+04  0.21860498666E+04  0.46999998093E+01 0.  1.
       -5    1    3    3    0  502  0.13510171368E+04 -0.50729841006E+03  0.29235994362E+03  0.14724453835E+04  0.46999998093E+01 0. -1.
</event>
<event>
 5   0  0.2073287E-06  0.3329311E+04  0.7818609E-02  0.8155477E-01
        2   -1    0    0  501    0  0.00000000000E+00  0.00000000000E+00  0.23238325998E+04  0.23238325998E+04  0.25500000920E-02 0.  1.
       -2   -1    0    0    0  501  0.00000000000E+00  0.00000000000E+00 -0.11924599387E+04  0.11924599388E+04  0.25500000920E-02 0. -1.
    10030    2    1    2    0    0  0.00000000000E+00  0.00000000000E+00  0.11313726610E+04  0.35162925385E+04  0.33293106071E+04 0.  0.
        1    1    3    3  502    0  0.10593226227E+04  0.22138373693E+03  0.19015969098E+04  0.21879776017E+04  0.50400001928E-02 0.  1.
       -1    1    3    3    0  502 -0.10593226227E+04 -0.22138373693E+03 -0.77022424878E+03  0.13283149369E+04  0.50400001928E-02 0. -1.
</event>
<event>
 5   0  0.6890600E-07  0.3516397E+04  0.7818609E-02  0.8109915E-01
        1   -1    0    0  501    0  0.00000000000E+00  0.00000000000E+00  0.15045283764E+04  0.15045283764E+04  0.50400001928E-02 0. -1.
       -1   -1    0    0    0  501  0.00000000000E+00  0.00000000000E+00 -0.20546384577E+04  0.20546384577E+04  0.50400001928E-02 0.  1.
    10030    2    1    2    0    0  0.00000000000E+00  0.00000000000E+00 -0.55011008129E+03  0.35591668341E+04  0.35163969417E+04 0.  0.
        3    1    3    3  502    0 -0.96920957491E+03  0.14317174880E+04  0.48330142352E+02  0.17296005257E+04  0.10100000352E+00 0. -1.
       -3    1    3    3    0  502  0.96920957491E+03 -0.14317174880E+04 -0.59844022365E+03  0.18295663085E+04  0.10100000352E+00 0.  1.
</event>
<event>
 5   0  0.1999883E-06  0.3542652E+04  0.7818609E-02  0.8103756E-01
        2   -1    0    0  501    0  0.00000000000E+00  0.00000000000E+00  0.17963136511E+04  0.17963136511E+04  0.25500000920E-02 0. -1.
       -2   -1    0    0    0  501  0.00000000000E+00  0.00000000000E+00 -0.17466860637E+04  0.17466860637E+04  0.25500000920E-02 0.  1.
    10030    2    1    2    0    0  0.00000000000E+00  0.00000000000E+00  0.49627587454E+02  0.35429997148E+04  0.35426521254E+04 0.  0.
        4    1    3    3  502    0  0.54200130256E+03  0.45659775784E+03 -0.15987208212E+04  0.17487586458E+04  0.12699999809E+01 0.  1.
       -4    1    3    3    0  502 -0.54200130256E+03 -0.45659775784E+03  0.16483484086E+04  0.17942410690E+04  0.12699999809E+01 0. -1.
</event>
<event>
 5   0  0.1999883E-06  0.3472225E+04  0.7818609E-02  0.8120404E-01
       -2   -1    0    0    0  501  0.00000000000E+00  0.00000000000E+00  0.13164054291E+04  0.13164054291E+04  0.25500000920E-02 0. -1.
        2   -1    0    0  501    0  0.00000000000E+00  0.00000000000E+00 -0.22896344036E+04  0.22896344036E+04  0.25500000920E-02 0.  1.
    10030    2    1    2    0    0  0.00000000000E+00  0.00000000000E+00 -0.97322897449E+03  0.36060398326E+04  0.34722253149E+04 0.  0.
        4    1    3    3  502    0  0.12123965307E+04  0.11625775955E+04 -0.94238211090E+03  0.19260263937E+04  0.12699999809E+01 0.  1.
       -4    1    3    3    0  502 -0.12123965307E+04 -0.11625775955E+04 -0.30846863597E+02  0.16800134390E+04  0.12699999809E+01 0. -1.
</event>
<event>
 5   0  0.6630125E-07  0.3392645E+04  0.7818609E-02  0.8139714E-01
        3   -1    0    0  501    0  0.00000000000E+00  0.00000000000E+00  0.21341250310E+04  0.21341250334E+04  0.10100000352E+00 0.  1.
       -3   -1    0    0    0  501  0.00000000000E+00  0.00000000000E+00 -0.13483325167E+04  0.13483325205E+04  0.10100000352E+00 0. -1.
    10030    2    1    2    0    0  0.00000000000E+00  0.00000000000E+00  0.78579251432E+03  0.34824575539E+04  0.33926450947E+04 0.  0.
        1    1    3    3  502    0 -0.76112823916E+03  0.91475159278E+03  0.16337924336E+04  0.20212284356E+04  0.50400001928E-02 0.  1.
       -1    1    3    3    0  502  0.76112823916E+03 -0.91475159278E+03 -0.84799991925E+03  0.14612291182E+04  0.50400001928E-02 0. -1.
</event>
<event>
 5   0  0.1999883E-06  0.3097144E+04  0.7818609E-02  0.8216522E-01
        2   -1    0    0  501    0  0.00000000000E+00  0.00000000000E+00  0.20044235260E+04  0.20044235260E+04  0.25500000920E-02 0. -1.
       -2   -1    0    0    0  501  0.00000000000E+00  0.00000000000E+00 -0.11963915406E+04  0.11963915406E+04  0.25500000920E-02 0.  1.
    10030    2    1    2    0    0  0.00000000000E+00  0.00000000000E+00  0.80803198549E+03  0.32008150666E+04  0.30971440717E+04 0.  0.
        4    1    3    3  502    0 -0.42471814263E+03 -0.37257145044E+03  0.18941102967E+04  0.19765754261E+04  0.12699999809E+01 0. -1.
       -4    1    3    3    0  502  0.42471814263E+03  0.37257145044E+03 -0.10860783112E+04  0.12242396405E+04  0.12699999809E+01 0.  1.
</event>
<event>
 5   0  0.2073287E-06  0.3472235E+04  0.7818609E-02  0.8120402E-01
       -2   -1    0    0    0  501  0.00000000000E+00  0.00000000000E+00  0.24899235788E+04  0.24899235788E+04  0.25500000920E-02 0.  1.
        2   -1    0    0  501    0  0.00000000000E+00  0.00000000000E+00 -0.12105206919E+04  0.12105206919E+04  0.25500000920E-02 0. -1.
    10030    2    1    2    0    0  0.00000000000E+00  0.00000000000E+00  0.12794028869E+04  0.37004442706E+04  0.34722350227E+04 0.  0.
        1    1    3    3  502    0 -0.46158749041E+03 -0.15426811837E+04  0.13313356157E+04  0.20893498432E+04  0.50400001928E-02 0.  1.
       -1    1    3    3    0  502  0.46158749041E+03  0.15426811837E+04 -0.51932728737E+02  0.16110944274E+04  0.50400001928E-02 0. -1.
</event>
<event>
 5   0  0.6630125E-07  0.3805909E+04  0.7818609E-02  0.8044888E-01
       -1   -1    0    0    0  501  0.00000000000E+00  0.00000000000E+00  0.16593878565E+04  0.16593878566E+04  0.50400001928E-02 0. -1.
        1   -1    0    0  501    0  0.00000000000E+00  0.00000000000E+00 -0.21822718279E+04  0.21822718279E+04  0.50400001928E-02 0.  1.
    10030    2    1    2    0    0  0.00000000000E+00  0.00000000000E+00 -0.52288397132E+03  0.38416596844E+04  0.38059087592E+04 0.  0.
        4    1    3    3  502    0 -0.10199739366E+04  0.57542268788E+03 -0.17754567981E+04  0.21269006925E+04  0.12699999809E+01 0.  1.
       -4    1    3    3    0  502  0.10199739366E+04 -0.57542268788E+03  0.12525728268E+04  0.17147589919E+04  0.12699999809E+01 0. -1.
</event>
<event>
 5   0  0.6630125E-07  0.3473584E+04  0.7818609E-02  0.8120079E-01
       -3   -1    0    0    0  501  0.00000000000E+00  0.00000000000E+00  0.14427925737E+04  0.14427925773E+04  0.10100000352E+00 0.  1.
        3   -1    0    0  501    0  0.00000000000E+00  0.00000000000E+00 -0.20906998602E+04  0.20906998627E+04  0.10100000352E+00 0. -1.
    10030    2    1    2    0    0  0.00000000000E+00  0.00000000000E+00 -0.64790728649E+03  0.35334924399E+04  0.34735838799E+04 0.  0.
        3    1    3    3  502    0  0.13918751664E+04 -0.10360347491E+04 -0.40116899839E+03  0.17809045610E+04  0.10100000352E+00 0. -1.
       -3    1    3    3    0  502 -0.13918751664E+04  0.10360347491E+04 -0.24673828810E+03  0.17525878789E+04  0.10100000352E+00 0.  1.
</event>
<event>
 5   0  0.6630125E-07  0.3345528E+04  0.7818609E-02  0.8151406E-01
        1   -1    0    0  501    0  0.00000000000E+00  0.00000000000E+00  0.17845298367E+04  0.17845298367E+04  0.50400001928E-02 0.  1.
       -1   -1    0    0    0  501  0.00000000000E+00  0.00000000000E+00 -0.15679980136E+04  0.15679980136E+04  0.50400001928E-02 0. -1.
    10030    2    1    2    0    0  0.00000000000E+00  0.00000000000E+00  0.21653182307E+03  0.33525278503E+04  0.33455279040E+04 0.  0.
        5    1    3    3  502    0  0.10344074448E+04  0.95369542986E+03  0.10149149563E+04  0.17348222368E+04  0.46999998093E+01 0.  1.
       -5    1    3    3    0  502 -0.10344074448E+04 -0.95369542986E+03 -0.79838313319E+03  0.16177056135E+04  0.46999998093E+01 0. -1.
</event>
<event>
 5   0  0.1999883E-06  0.3505691E+04  0.7818609E-02  0.8112443E-01
        2   -1    0    0  501    0  0.00000000000E+00  0.00000000000E+00  0.20574542812E+04  0.20574542812E+04  0.25500000920E-02 0.  1.
       -2   -1    0    0    0  501  0.00000000000E+00  0.00000000000E+00 -0.14933341798E+04  0.14933341798E+04  0.25500000920E-02 0. -1.
    10030    2    1    2    0    0  0.00000000000E+00  0.00000000000E+00  0.56412010137E+03  0.35507884610E+04  0.35056906889E+04 0.  0.
        4    1    3    3  502    0 -0.15956374116E+03  0.14854801756E+04 -0.64644045899E+03  0.16278816971E+04  0.12699999809E+01 0. -1.
       -4    1    3    3    0  502  0.15956374116E+03 -0.14854801756E+04  0.12105605604E+04  0.19229067640E+04  0.12699999809E+01 0.  1.
</event>
<event>
 5   0  0.2073287E-06  0.3448044E+04  0.7818609E-02  0.8126214E-01
        2   -1    0    0  501    0  0.00000000000E+00  0.00000000000E+00  0.20828639786E+04  0.20828639786E+04  0.25500000920E-02 0.  1.
       -2   -1    0    0    0  501  0.00000000000E+00  0.00000000000E+00 -0.14270025787E+04  0.14270025787E+04  0.25500000920E-02 0. -1.
    10030    2    1    2    0    0  0.00000000000E+00  0.00000000000E+00  0.65586139992E+03  0.35098665572E+04  0.34480442389E+04 0.  0.
        1    1    3    3  502    0 -0.15085394485E+04  0.18631547228E+03  0.11560573429E+04  0.19096788481E+04  0.50400001928E-02 0.  1.
       -1    1    3    3    0  502  0.15085394485E+04 -0.18631547228E+03 -0.50019594300E+03  0.16001877091E+04  0.50400001928E-02 0. -1.
</event>
<event>
 5   0  0.2001768E-06  0.3339518E+04  0.7818609E-02  0.8152912E-01
       -2   -1    0    0    0  501  0.00000000000E+00  0.00000000000E+00  0.19747094304E+04  0.19747094304E+04  0.25500000920E-02 0.  1.
        2   -1    0    0  501    0  0.00000000000E+00  0.00000000000E+00 -0.14119017728E+04  0.14119017728E+04  0.25500000920E-02 0. -1.
    10030    2    1    2    0    0  0.00000000000E+00  0.00000000000E+00  0.56280765763E+03  0.33866112032E+04  0.33395183757E+04 0.  0.
        2    1    3    3  502    0  0.33721349863E+03  0.75919321608E+03 -0.11874721241E+04  0.14491988575E+04  0.25500000920E-02 0. -1.
       -2    1    3    3    0  502 -0.33721349863E+03 -0.75919321608E+03  0.17502797817E+04  0.19374123457E+04  0.25500000920E-02 0.  1.
</event>
<event>
 5   0  0.2023479E-06  0.3527681E+04  0.7818609E-02  0.8107261E-01
       -2   -1    0    0    0  501  0.00000000000E+00  0.00000000000E+00  0.17957391546E+04  0.17957391546E+04  0.25500000920E-02 0. -1.
        2   -1    0    0  501    0  0.00000000000E+00  0.00000000000E+00 -0.17325084680E+04  0.17325084680E+04  0.25500000920E-02 0.  1.
    10030    2    1    2    0    0  0.00000000000E+00  0.00000000000E+00  0.63230686546E+02  0.35282476226E+04  0.35276809899E+04 0.  0.
        5    1    3    3  502    0  0.11931853538E+04  0.74595758024E+03  0.10952555800E+04  0.17831855976E+04  0.46999998093E+01 0. -1.
       -5    1    3    3    0  502 -0.11931853538E+04 -0.74595758024E+03 -0.10320248935E+04  0.17450620249E+04  0.46999998093E+01 0.  1.
</event>
<event>
 5   0  0.2001768E-06  0.3011192E+04  0.7818609E-02  0.8240542E-01
       -2   -1    0    0    0  501  0.00000000000E+00  0.00000000000E+00  0.11845039055E+04  0.11845039055E+04  0.25500000920E-02 0. -1.
        2   -1    0    0  501    0  0.00000000000E+00  0.00000000000E+00 -0.19137284571E+04  0.19137284571E+04  0.25500000920E-02 0.  1.
    10030    2    1    2    0    0  0.00000000000E+00  0.00000000000E+00 -0.72922455163E+03  0.30982323626E+04  0.30111916787E+04 0.  0.
        2    1    3    3  502    0  0.78838849980E+03  0.11339870916E+04  0.25216129588E+03  0.14039474597E+04  0.25500000920E-02 0. -1.
       -2    1    3    3    0  502 -0.78838849980E+03 -0.11339870916E+04 -0.98138584751E+03  0.16942849029E+04  0.25500000920E-02 0.  1.
</event>
<event>
 5   0  0.6890600E-07  0.3273107E+04  0.7818609E-02  0.8169772E-01
        1   -1    0    0  501    0  0.00000000000E+00  0.00000000000E+00  0.30124510877E+04  0.30124510877E+04  0.50400001928E-02 0. -1.
       -1   -1    0    0    0  501  0.00000000000E+00  0.00000000000E+00 -0.88907911208E+03  0.88907911209E+03  0.50400001928E-02 0.  1.
    10030    2    1    2    0    0  0.00000000000E+00  0.00000000000E+00  0.21233719757E+04  0.39015301998E+04  0.32731069877E+04 0.  0.
        3    1    3    3  502    0  0.14429264729E+03  0.12949646885E+04 -0.11866291328E+03  0.13083710520E+04  0.10100000352E+00 0.  1.
       -3    1    3    3    0  502 -0.14429264729E+03 -0.12949646885E+04  0.22420348890E+04  0.25931591478E+04  0.10100000352E+00 0. -1.
</event>
<event>
 5   0  0.2073287E-06  0.3313917E+04  0.7818609E-02  0.8159363E-01
       -2   -1    0    0    0  501  0.00000000000E+00  0.00000000000E+00  0.17367929736E+04  0.17367929736E+04  0.25500000920E-02 0.  1.
        2   -1    0    0  501    0  0.00000000000E+00  0.00000000000E+00 -0.15807938058E+04  0.15807938058E+04  0.25500000920E-02 0. -1.
    10030    2    1    2    0    0  0.00000000000E+00  0.00000000000E+00  0.15599916788E+03  0.33175867794E+04  0.33139170627E+04 0.  0.
        1    1    3    3  502    0  0.16301954207E+03 -0.94231750031E+03 -0.12766336842E+04  0.15950959865E+04  0.50400001928E-02 0. -1.
       -1    1    3    3    0  502 -0.16301954207E+03  0.94231750031E+03  0.14326328521E+04  0.17224907929E+04  0.50400001928E-02 0.  1.
</event>
<event>
 5   0  0.7378896E-07  0.3436798E+04  0.7818609E-02  0.8128933E-01
       -1   -1    0    0    0  501  0.00000000000E+00  0.00000000000E+00  0.15742876917E+04  0.15742876917E+04  0.50400001928E-02 0.  1.
        1   -1    0    0  501    0  0.00000000000E+00  0.00000000000E+00 -0.18757025056E+04  0.18757025056E+04  0.50400001928E-02 0. -1.
    10030    2    1    2    0    0  0.00000000000E+00  0.00000000000E+00 -0.30141481389E+03  0.34499901972E+04  0.34367981423E+04 0.  0.
        2    1    3    3  502    0  0.63266925564E+03  0.11772439496E+04  0.93358762308E+03  0.16302636455E+04  0.25500000920E-02 0.  1.
       -2    1    3    3    0  502 -0.63266925564E+03 -0.11772439496E+04 -0.12350024370E+04  0.18197265517E+04  0.25500000920E-02 0. -1.
</event>
<event>
 5   0  0.6630125E-07  0.3507279E+04  0.7818609E-02  0.8112067E-01
        1   -1    0    0  501    0  0.00000000000E+00  0.00000000000E+00  0.14216281552E+04  0.14216281552E+04  0.50400001928E-02 0.  1.
       -1   -1    0    0    0  501  0.00000000000E+00  0.00000000000E+00 -0.21631892602E+04  0.21631892602E+04  0.50400001928E-02 0. -1.
    10030    2    1    2    0    0  0.00000000000E+00  0.00000000000E+00 -0.74156110508E+03  0.35848174154E+04  0.35072785788E+04 0.  0.
        4    1    3    3  502    0  0.84861300727E+03  0.13781347359E+04 -0.10608735846E+04  0.19351624639E+04  0.12699999809E+01 0. -1.
       -4    1    3    3    0  502 -0.84861300727E+03 -0.13781347359E+04  0.31931247948E+03  0.16496549515E+04  0.12699999809E+01 0.  1.
</event>
<event>
 5   0  0.2020725E-06  0.3593981E+04  0.7818609E-02  0.8091872E-01
       -2   -1    0    0    0  501  0.00000000000E+00  0.00000000000E+00  0.25631012454E+04  0.25631012454E+04  0.25500000920E-02 0.  1.
        2   -1    0    0  501    0  0.00000000000E+00  0.00000000000E+00 -0.12598702686E+04  0.12598702686E+04  0.25500000920E-02 0. -1.
    10030    2    1    2    0    0  0.00000000000E+00  0.00000000000E+00  0.13032309768E+04  0.38229715141E+04  0.35939811099E+04 0.  0.
        3    1    3    3  502    0 -0.26551513992E+03 -0.29689283984E+02  0.25418568368E+04  0.25558591377E+04  0.10100000352E+00 0.  1.
       -3    1    3    3    0  502  0.26551513992E+03  0.29689283984E+02 -0.12386258599E+04  0.12671123763E+04  0.10100000352E+00 0. -1.
</event>
<event>
 5   0  0.2023479E-06  0.3663841E+04  0.7818609E-02  0.8076023E-01
        2   -1    0    0  501    0  0.00000000000E+00  0.00000000000E+00  0.21652412091E+04  0.21652412092E+04  0.25500000920E-02 0.  1.
       -2   -1    0    0    0  501  0.00000000000E+00  0.00000000000E+00 -0.15499115473E+04  0.15499115473E+04  0.25500000920E-02 0. -1.
    10030    2    1    2    0    0  0.00000000000E+00  0.00000000000E+00  0.61532966182E+03  0.37151527565E+04  0.36638408005E+04 0.  0.
        5    1    3    3  502    0 -0.41065057837E+03  0.11703260425E+04  0.16747350705E+04  0.20840001415E+04  0.46999998093E+01 0.  1.
       -5    1    3    3    0  502  0.41065057837E+03 -0.11703260425E+04 -0.10594054087E+04  0.16311526150E+04  0.46999998093E+01 0. -1.
</event>
<event>
 5   0  0.6630125E-07  0.3545480E+04  0.7818609E-02  0.8103095E-01
       -3   -1    0    0    0  501  0.00000000000E+00  0.00000000000E+00  0.23553127359E+04  0.23553127380E+04  0.10100000352E+00 0.  1.
        3   -1    0    0  501    0  0.00000000000E+00  0.00000000000E+00 -0.13342634568E+04  0.13342634606E+04  0.10100000352E+00 0. -1.
    10030    2    1    2    0    0  0.00000000000E+00  0.00000000000E+00  0.10210492791E+04  0.36895761986E+04  0.35454803476E+04 0.  0.
        3    1    3    3  502    0 -0.89701310088E+03  0.14610702042E+04  0.41370358245E+02  0.17149548570E+04  0.10100000352E+00 0. -1.
       -3    1    3    3    0  502  0.89701310088E+03 -0.14610702042E+04  0.97967892085E+03  0.19746213416E+04  0.10100000352E+00 0.  1.
</event>
<event>
 5   0  0.2023479E-06  0.3526292E+04  0.7818609E-02  0.8107587E-01
       -2   -1    0    0    0  501  0.00000000000E+00  0.00000000000E+00  0.10773793704E+04  0.10773793704E+04  0.25500000920E-02 0. -1.
        2   -1    0    0  501    0  0.00000000000E+00  0.00000000000E+00 -0.28854131972E+04  0.28854131972E+04  0.25500000920E-02 0.  1.
    10030    2    1    2    0    0  0.00000000000E+00  0.00000000000E+00 -0.18080338267E+04  0.39627925676E+04  0.35262924744E+04 0.  0.
        5    1    3    3  502    0 -0.15994239955E+04  0.48764228960E+03 -0.27559083017E+03  0.16946753423E+04  0.46999998093E+01 0.  1.
       -5    1    3    3    0  502  0.15994239955E+04 -0.48764228960E+03 -0.15324429966E+04  0.22681172253E+04  0.46999998093E+01 0. -1.
</event>
<event>
 5   0  0.2073287E-06  0.2984304E+04  0.7818609E-02  0.8248227E-01
       -2   -1    0    0    0  501  0.00000000000E+00  0.00000000000E+00  0.88250870687E+03  0.88250870687E+03  0.25500000920E-02 0.  1.
        2   -1    0    0  501    0  0.00000000000E+00  0.00000000000E+00 -0.25229409424E+04  0.25229409424E+04  0.25500000920E-02 0. -1.
    10030    2    1    2    0    0  0.00000000000E+00  0.00000000000E+00 -0.16404322355E+04  0.34054496492E+04  0.29843038374E+04 0.  0.
        1    1    3    3  502    0 -0.62113040928E+03 -0.20456092607E+03 -0.23507086608E+04  0.24399752797E+04  0.50400001928E-02 0. -1.
       -1    1    3    3    0  502  0.62113040928E+03  0.20456092607E+03  0.71027642529E+03  0.96547436950E+03  0.50400001928E-02 0.  1.
</event>
<event>
 5   0  0.6630125E-07  0.3447915E+04  0.7818609E-02  0.8126246E-01
       -1   -1    0    0    0  501  0.00000000000E+00  0.00000000000E+00  0.23348179846E+04  0.23348179846E+04  0.50400001928E-02 0. -1.
        1   -1    0    0  501    0  0.00000000000E+00  0.00000000000E+00 -0.12729170893E+04  0.12729170894E+04  0.50400001928E-02 0.  1.
    10030    2    1    2    0    0  0.00000000000E+00  0.00000000000E+00  0.10619008953E+04  0.36077350740E+04  0.34479151458E+04 0.  0.
        4    1    3    3  502    0  0.23252982962E+02  0.24757594509E+03 -0.12540527826E+04  0.12784696102E+04  0.12699999809E+01 0.  1.
       -4    1    3    3    0  502 -0.23252982962E+02 -0.24757594509E+03  0.23159536779E+04  0.23292654638E+04  0.12699999809E+01 0. -1.
</event>
<event>
 5   0  0.6630125E-07  0.3462556E+04  0.7818609E-02  0.8122722E-01
        1   -1    0    0  501    0  0.00000000000E+00  0.00000000000E+00  0.10115544276E+04  0.10115544276E+04  0.50400001928E-02 0. -1.
       -1   -1    0    0    0  501  0.00000000000E+00  0.00000000000E+00 -0.29630860489E+04  0.29630860489E+04  0.50400001928E-02 0.  1.
    10030    2    1    2    0    0  0.00000000000E+00  0.00000000000E+00 -0.19515316213E+04  0.39746404766E+04  0.34625555951E+04 0.  0.
        5    1    3    3  502    0 -0.11043744939E+04 -0.10089318485E+04  0.24755226841E+02  0.14960686511E+04  0.46999998093E+01 0. -1.
       -5    1    3    3    0  502  0.11043744939E+04  0.10089318485E+04 -0.19762868482E+04  0.24785718254E+04  0.46999998093E+01 0.  1.
</event>
<event>
 5   0  0.2023479E-06  0.3462141E+04  0.7818609E-02  0.8122821E-01
       -2   -1    0    0    0  501  0.00000000000E+00  0.00000000000E+00  0.13666255323E+04  0.13666255323E+04  0.25500000920E-02 0. -1.
        2   -1    0    0  501    0  0.00000000000E+00  0.00000000000E+00 -0.21927039163E+04  0.21927039163E+04  0.25500000920E-02 0.  1.
    10030    2    1    2    0    0  0.00000000000E+00  0.00000000000E+00 -0.82607838397E+03  0.35593294486E+04  0.34621410467E+04 0.  0.
        5    1    3    3  502    0 -0.45909050105E+02 -0.87719938536E+03 -0.19465544907E+04  0.21355755378E+04  0.46999998093E+01 0.  1.
       -5    1    3    3    0  502  0.45909050105E+02  0.87719938536E+03  0.11204761067E+04  0.14237539107E+04  0.46999998093E+01 0. -1.
</event>
<event>
 5   0  0.2001768E-06  0.3555974E+04  0.7818609E-02  0.8100651E-01
       -2   -1    0    0    0  501  0.00000000000E+00  0.00000000000E+00  0.12351933120E+04  0.12351933120E+04  0.25500000920E-02 0.  1.
        2   -1    0    0  501    0  0.00000000000E+00  0.00000000000E+00 -0.25593065876E+04  0.25593065876E+04  0.25500000920E-02 0. -1.
    10030    2    1    2    0    0  0.00000000000E+00  0.00000000000E+00 -0.13241132756E+04  0.37944998996E+04  0.35559743421E+04 0.  0.
        2    1    3    3  502    0 -0.19113615359E+03 -0.11811166413E+04  0.74133022470E+03  0.14075297694E+04  0.25500000920E-02 0.  1.
       -2    1    3    3    0  502  0.19113615359E+03  0.11811166413E+04 -0.20654435003E+04  0.23869701302E+04  0.25500000920E-02 0. -1.
</event>
<event>
 5   0  0.2020725E-06  0.2192892E+04  0.7818609E-02  0.8521392E-01
       -2   -1    0    0    0  501  0.00000000000E+00  0.00000000000E+00  0.77770882890E+03  0.77770882890E+03  0.25500000920E-02 0. -1.
        2   -1    0    0  501    0  0.00000000000E+00  0.00000000000E+00 -0.15458154196E+04  0.15458154196E+04  0.25500000920E-02 0.  1.
    10030    2    1    2    0    0  0.00000000000E+00  0.00000000000E+00 -0.76810659073E+03  0.23235242485E+04  0.21928924275E+04 0.  0.
        3    1    3    3  502    0  0.21209037207E+03 -0.13703270210E+03 -0.15145877707E+04  0.15354922380E+04  0.10100000352E+00 0.  1.
       -3    1    3    3    0  502 -0.21209037207E+03  0.13703270210E+03  0.74648118001E+03  0.78803201057E+03  0.10100000352E+00 0. -1.
</event>
<event>
 5   0  0.6630125E-07  0.3478939E+04  0.7818609E-02  0.8118799E-01
       -1   -1    0    0    0  501  0.00000000000E+00  0.00000000000E+00  0.17845769237E+04  0.17845769237E+04  0.50400001928E-02 0.  1.
        1   -1    0    0  501    0  0.00000000000E+00  0.00000000000E+00 -0.16955026347E+04  0.16955026347E+04  0.50400001928E-02 0. -1.
    10030    2    1    2    0    0  0.00000000000E+00  0.00000000000E+00  0.89074288974E+02  0.34800795584E+04  0.34789394222E+04 0.  0.
        1    1    3    3  502    0  0.52780898529E+03 -0.51749574408E+03 -0.15305806532E+04  0.16997238911E+04  0.50400001928E-02 0. -1.
       -1    1    3    3    0  502 -0.52780898529E+03  0.51749574408E+03  0.16196549422E+04  0.17803556672E+04  0.50400001928E-02 0.  1.
</event>
<event>
 5   0  0.2020725E-06  0.2554786E+04  0.7818609E-02  0.8383724E-01
       -2   -1    0    0    0  501  0.00000000000E+00  0.00000000000E+00  0.93238106627E+03  0.93238106627E+03  0.25500000920E-02 0.  1.
        2   -1    0    0  501    0  0.00000000000E+00  0.00000000000E+00 -0.17500708427E+04  0.17500708427E+04  0.25500000920E-02 0. -1.
    10030    2    1    2    0    0  0.00000000000E+00  0.00000000000E+00 -0.81768977640E+03  0.26824519089E+04  0.25547860328E+04 0.  0.
        3    1    3    3  502    0 -0.55561117724E+03  0.32397640045E+02 -0.16160742098E+04  0.17092247509E+04  0.10100000352E+00 0. -1.
       -3    1    3    3    0  502  0.55561117724E+03 -0.32397640045E+02  0.79838443342E+03  0.97322715801E+03  0.10100000352E+00 0.  1.
</event>
<event>
 5   0  0.2023479E-06  0.3494437E+04  0.7818609E-02  0.8115110E-01
       -2   -1    0    0    0  501  0.00000000000E+00  0.00000000000E+00  0.13883990015E+04  0.13883990015E+04  0.25500000920E-02 0.  1.
        2   -1    0    0  501    0  0.00000000000E+00  0.00000000000E+00 -0.21987719690E+04  0.21987719690E+04  0.25500000920E-02 0. -1.
    10030    2    1    2    0    0  0.00000000000E+00  0.00000000000E+00 -0.81037296755E+03  0.35871709705E+04  0.34944371829E+04 0.  0.
        5    1    3    3  502    0  0.81597825560E+03  0.15443950192E+04 -0.44842586414E+03  0.18033536355E+04  0.46999998093E+01 0. -1.
       -5    1    3    3    0  502 -0.81597825560E+03 -0.15443950192E+04 -0.36194710342E+03  0.17838173350E+04  0.46999998093E+01 0.  1.
</event>
<event>
 5   0  0.6630125E-07  0.3779293E+04  0.7818609E-02  0.8050613E-01
       -1   -1    0    0    0  501  0.00000000000E+00  0.00000000000E+00  0.26025858768E+04  0.26025858768E+04  0.50400001928E-02 0.  1.
        1   -1    0    0  501    0  0.00000000000E+00  0.00000000000E+00 -0.13720061410E+04  0.13720061410E+04  0.50400001928E-02 0. -1.
    10030    2    1    2    0    0  0.00000000000E+00  0.00000000000E+00  0.12305797358E+04  0.39745920178E+04  0.37792929526E+04 0.  0.
        1    1    3    3  502    0 -0.48854238884E+03  0.13660998595E+04 -0.65800339149E+03  0.15930696642E+04  0.50400001928E-02 0. -1.
       -1    1    3    3    0  502  0.48854238884E+03 -0.13660998595E+04  0.18885831273E+04  0.23815223536E+04  0.50400001928E-02 0.  1.
</event>
<event>
 5   0  0.7378896E-07  0.3484321E+04  0.7818609E-02  0.8117516E-01
       -1   -1    0    0    0  501  0.00000000000E+00  0.00000000000E+00  0.15968989819E+04  0.15968989819E+04  0.50400001928E-02 0.  1.
        1   -1    0    0  501    0  0.00000000000E+00  0.00000000000E+00 -0.19006361703E+04  0.19006361703E+04  0.50400001928E-02 0. -1.
    10030    2    1    2    0    0  0.00000000000E+00  0.00000000000E+00 -0.30373718836E+03  0.34975351522E+04  0.34843214348E+04 0.  0.
        2    1    3    3  502    0 -0.34819784667E+03 -0.94195654856E+03 -0.15808543633E+04  0.18728652909E+04  0.25500000920E-02 0. -1.
       -2    1    3    3    0  502  0.34819784667E+03  0.94195654856E+03  0.12771171749E+04  0.16246698613E+04  0.25500000920E-02 0.  1.
</event>
<event>
 5   0  0.1999883E-06  0.3475715E+04  0.7818609E-02  0.8119569E-01
        2   -1    0    0  501    0  0.00000000000E+00  0.00000000000E+00  0.24954279051E+04  0.24954279051E+04  0.25500000920E-02 0. -1.
       -2   -1    0    0    0  501  0.00000000000E+00  0.00000000000E+00 -0.12102729496E+04  0.12102729496E+04  0.25500000920E-02 0.  1.
    10030    2    1    2    0    0  0.00000000000E+00  0.00000000000E+00  0.12851549554E+04  0.37057008547E+04  0.34757151156E+04 0.  0.
        4    1    3    3  502    0  0.16095924887E+04 -0.61174053042E+03  0.39223687308E+03  0.17660310965E+04  0.12699999809E+01 0. -1.
       -4    1    3    3    0  502 -0.16095924887E+04  0.61174053042E+03  0.89291808236E+03  0.19396697582E+04  0.12699999809E+01 0.  1.
</event>
<event>
 5   0  0.1999883E-06  0.3490920E+04  0.7818609E-02  0.8115945E-01
       -2   -1    0    0    0  501  0.00000000000E+00  0.00000000000E+00  0.18930291390E+04  0.18930291390E+04  0.25500000920E-02 0. -1.
        2   -1    0    0  501    0  0.00000000000E+00  0.00000000000E+00 -0.16093940172E+04  0.16093940172E+04  0.25500000920E-02 0.  1.
    10030    2    1    2    0    0  0.00000000000E+00  0.00000000000E+00  0.28363512180E+03  0.35024231561E+04  0.34909195182E+04 0.  0.
        4    1    3    3  502    0 -0.86909909333E+03  0.95318117706E+03  0.13215924043E+04  0.18467527410E+04  0.12699999809E+01 0. -1.
       -4    1    3    3    0  502  0.86909909333E+03 -0.95318117706E+03 -0.10379572825E+04  0.16556704151E+04  0.12699999809E+01 0.  1.
</event>
<event>
 5   0  0.2001768E-06  0.3461727E+04  0.7818609E-02  0.8122921E-01
       -2   -1    0    0    0  501  0.00000000000E+00  0.00000000000E+00  0.12786073464E+04  0.12786073464E+04  0.25500000920E-02 0.  1.
        2   -1    0    0  501    0  0.00000000000E+00  0.00000000000E+00 -0.23430866529E+04  0.23430866529E+04  0.25500000920E-02 0. -1.
    10030    2    1    2    0    0  0.00000000000E+00  0.00000000000E+00 -0.10644793066E+04  0.36216939993E+04  0.34617266256E+04 0.  0.
        2    1    3    3  502    0  0.15480390704E+04  0.19542463735E+03 -0.13160404401E+04  0.20412197805E+04  0.25500000920E-02 0. -1.
       -2    1    3    3    0  502 -0.15480390704E+04 -0.19542463735E+03  0.25156113350E+03  0.15804742188E+04  0.25500000920E-02 0.  1.
</event>
<event>
 5   0  0.2073287E-06  0.2160417E+04  0.7818609E-02  0.8535087E-01
       -2   -1    0    0    0  501  0.00000000000E+00  0.00000000000E+00  0.48627896836E+03  0.48627896837E+03  0.25500000920E-02 0.  1.
        2   -1    0    0  501    0  0.00000000000E+00  0.00000000000E+00 -0.23995487160E+04  0.23995487160E+04  0.25500000920E-02 0. -1.
    10030    2    1    2    0    0  0.00000000000E+00  0.00000000000E+00 -0.19132697477E+04  0.28858276844E+04  0.21604166952E+04 0.  0.
        1    1    3    3  502    0  0.41989653007E+03  0.84658015596E+03 -0.25762946740E+03  0.97948149494E+03  0.50400001928E-02 0. -1.
       -1    1    3    3    0  502 -0.41989653007E+03 -0.84658015596E+03 -0.16556402803E+04  0.19063461895E+04  0.50400001928E-02 0.  1.
</event>
<event>
 5   0  0.1999883E-06  0.3282663E+04  0.7818609E-02  0.8167321E-01
       -2   -1    0    0    0  501  0.00000000000E+00  0.00000000000E+00  0.93254806321E+03  0.93254806322E+03  0.25500000920E-02 0. -1.
        2   -1    0    0  501    0  0.00000000000E+00  0.00000000000E+00 -0.28888255322E+04  0.28888255322E+04  0.25500000920E-02 0.  1.
    10030    2    1    2    0    0  0.00000000000E+00  0.00000000000E+00 -0.19562774690E+04  0.38213735954E+04  0.32826627332E+04 0.  0.
        4    1    3    3  502    0  0.64258250604E+03 -0.62448815325E+03  0.62269768871E+03  0.10911699020E+04  0.12699999809E+01 0. -1.
       -4    1    3    3    0  502 -0.64258250604E+03  0.62448815325E+03 -0.25789751577E+04  0.27302036934E+04  0.12699999809E+01 0.  1.
</event>
<event>
 5   0  0.2020725E-06  0.2208403E+04  0.7818609E-02  0.8514939E-01
       -2   -1    0    0    0  501  0.00000000000E+00  0.00000000000E+00  0.76567311678E+03  0.76567311678E+03  0.25500000920E-02 0.  1.
        2   -1    0    0  501    0  0.00000000000E+00  0.00000000000E+00 -0.15924037951E+04  0.15924037951E+04  0.25500000920E-02 0. -1.
    10030    2    1    2    0    0  0.00000000000E+00  0.00000000000E+00 -0.82673067834E+03  0.23580769119E+04  0.22084028410E+04 0.  0.
        3    1    3    3  502    0 -0.83993806064E+03  0.70979717372E+03 -0.30684018771E+03  0.11416912387E+04  0.10100000352E+00 0. -1.
       -3    1    3    3    0  502  0.83993806064E+03 -0.70979717372E+03 -0.51989049064E+03  0.12163856732E+04  0.10100000352E+00 0.  1.
</event>
<event>
 5   0  0.6890600E-07  0.2618863E+04  0.7818609E-02  0.8361822E-01
       -1   -1    0    0    0  501  0.00000000000E+00  0.00000000000E+00  0.71592877307E+03  0.71592877309E+03  0.50400001928E-02 0. -1.
        1   -1    0    0  501    0  0.00000000000E+00  0.00000000000E+00 -0.23949453353E+04  0.23949453353E+04  0.50400001928E-02 0.  1.
    10030    2    1    2    0    0  0.00000000000E+00  0.00000000000E+00 -0.16790165622E+04  0.31108741084E+04  0.26188625588E+04 0.  0.
        3    1    3    3  502    0  0.99502095725E+03  0.26531654785E+03  0.12123782140E+03  0.10368983535E+04  0.10100000352E+00 0. -1.
       -3    1    3    3    0  502 -0.99502095725E+03 -0.26531654785E+03 -0.18002543836E+04  0.20739757549E+04  0.10100000352E+00 0.  1.
</event>
<event>
 5   0  0.6890600E-07  0.3500804E+04  0.7818609E-02  0.8113600E-01
       -1   -1    0    0    0  501  0.00000000000E+00  0.00000000000E+00  0.17715152860E+04  0.17715152860E+04  0.50400001928E-02 0.  1.
        1   -1    0    0  501    0  0.00000000000E+00  0.00000000000E+00 -0.17295398564E+04  0.17295398564E+04  0.50400001928E-02 0. -1.
    10030    2    1    2    0    0  0.00000000000E+00  0.00000000000E+00  0.41975429563E+02  0.35010551424E+04  0.35008035039E+04 0.  0.
        3    1    3    3  502    0  0.13282424932E+04  0.71270559068E+02  0.11588738200E+04  0.17641701035E+04  0.10100000352E+00 0.  1.
       -3    1    3    3    0  502 -0.13282424932E+04 -0.71270559068E+02 -0.11168983904E+04  0.17368850388E+04  0.10100000352E+00 0. -1.
</event>
<event>
 5   0  0.6630125E-07  0.3461942E+04  0.7818609E-02  0.8122869E-01
        1   -1    0    0  501    0  0.00000000000E+00  0.00000000000E+00  0.14804441149E+04  0.14804441149E+04  0.50400001928E-02 0.  1.
       -1   -1    0    0    0  501  0.00000000000E+00  0.00000000000E+00 -0.20238931802E+04  0.20238931802E+04  0.50400001928E-02 0. -1.
    10030    2    1    2    0    0  0.00000000000E+00  0.00000000000E+00 -0.54344906523E+03  0.35043372951E+04  0.34619420838E+04 0.  0.
        4    1    3    3  502    0 -0.71001066166E+03 -0.27451607352E+02  0.13260187352E+04  0.15043922458E+04  0.12699999809E+01 0.  1.
       -4    1    3    3    0  502  0.71001066166E+03  0.27451607352E+02 -0.18694678004E+04  0.19999450493E+04  0.12699999809E+01 0. -1.
</event>
<event>
 5   0  0.6630125E-07  0.3488223E+04  0.7818609E-02  0.8116587E-01
        1   -1    0    0  501    0  0.00000000000E+00  0.00000000000E+00  0.15932196714E+04  0.15932196714E+04  0.50400001928E-02 0.  1.
       -1   -1    0    0    0  501  0.00000000000E+00  0.00000000000E+00 -0.19092941198E+04  0.19092941198E+04  0.50400001928E-02 0. -1.
    10030    2    1    2    0    0  0.00000000000E+00  0.00000000000E+00 -0.31607444838E+03  0.35025137912E+04  0.34882230148E+04 0.  0.
        1    1    3    3  502    0 -0.13106406888E+04 -0.11089033275E+04 -0.46667142393E+03  0.17791087158E+04  0.50400001928E-02 0. -1.
       -1    1    3    3    0  502  0.13106406888E+04  0.11089033275E+04  0.15059697556E+03  0.17234050754E+04  0.50400001928E-02 0.  1.
</event>
<event>
 5   0  0.2073287E-06  0.3612012E+04  0.7818609E-02  0.8087746E-01
       -2   -1    0    0    0  501  0.00000000000E+00  0.00000000000E+00  0.14488941976E+04  0.14488941976E+04  0.25500000920E-02 0.  1.
        2   -1    0    0  501    0  0.00000000000E+00  0.00000000000E+00 -0.22511362438E+04  0.22511362438E+04  0.25500000920E-02 0. -1.
    10030    2    1    2    0    0  0.00000000000E+00  0.00000000000E+00 -0.80224204612E+03  0.37000304414E+04  0.36120123154E+04 0.  0.
        1    1    3    3  502    0 -0.43153185983E+03  0.17182628534E+04 -0.76039727554E+03  0.19279136382E+04  0.50400001928E-02 0. -1.
       -1    1    3    3    0  502  0.43153185983E+03 -0.17182628534E+04 -0.41844770580E+02  0.17721168032E+04  0.50400001928E-02 0.  1.
</event>
<event>
 5   0  0.1999883E-06  0.3513004E+04  0.7818609E-02  0.8110715E-01
        2   -1    0    0  501    0  0.00000000000E+00  0.00000000000E+00  0.31762825880E+04  0.31762825880E+04  0.25500000920E-02 0.  1.
       -2   -1    0    0    0  501  0.00000000000E+00  0.00000000000E+00 -0.97135518836E+03  0.97135518836E+03  0.25500000920E-02 0. -1.
    10030    2    1    2    0    0  0.00000000000E+00  0.00000000000E+00  0.22049273997E+04  0.41476377764E+04  0.35130035990E+04 0.  0.
        4    1    3    3  502    0  0.13777517622E+04 -0.52515140882E+03  0.22295470093E+04  0.26729881032E+04  0.12699999809E+01 0.  1.
       -4    1    3    3    0  502 -0.13777517622E+04  0.52515140882E+03 -0.24619609597E+02  0.14746496732E+04  0.12699999809E+01 0. -1.
</event>
<event>
 5   0  0.2001768E-06  0.3519802E+04  0.7818609E-02  0.8109113E-01
        2   -1    0    0  501    0  0.00000000000E+00  0.00000000000E+00  0.18259845863E+04  0.18259845863E+04  0.25500000920E-02 0.  1.
       -2   -1    0    0    0  501  0.00000000000E+00  0.00000000000E+00 -0.16962093149E+04  0.16962093149E+04  0.25500000920E-02 0. -1.
    10030    2    1    2    0    0  0.00000000000E+00  0.00000000000E+00  0.12977527134E+03  0.35221939012E+04  0.35198023036E+04 0.  0.
        2    1    3    3  502    0 -0.84671939053E+03 -0.81422445917E+03 -0.12464824278E+04  0.17127795068E+04  0.25500000920E-02 0. -1.
       -2    1    3    3    0  502  0.84671939053E+03  0.81422445917E+03  0.13762576991E+04  0.18094143944E+04  0.25500000920E-02 0.  1.
</event>
<event>
 5   0  0.6630125E-07  0.3400444E+04  0.7818609E-02  0.8137797E-01
       -1   -1    0    0    0  501  0.00000000000E+00  0.00000000000E+00  0.21360956481E+04  0.21360956481E+04  0.50400001928E-02 0.  1.
        1   -1    0    0  501    0  0.00000000000E+00  0.00000000000E+00 -0.13532892513E+04  0.13532892513E+04  0.50400001928E-02 0. -1.
    10030    2    1    2    0    0  0.00000000000E+00  0.00000000000E+00  0.78280639680E+03  0.34893848994E+04  0.34004442535E+04 0.  0.
        5    1    3    3  502    0  0.12596550499E+04 -0.67604349180E+03  0.13357828083E+04  0.19565539728E+04  0.46999998093E+01 0.  1.
       -5    1    3    3    0  502 -0.12596550499E+04  0.67604349180E+03 -0.55297641152E+03  0.15328309265E+04  0.46999998093E+01 0. -1.
</event>
<event>
 5   0  0.6890600E-07  0.3501271E+04  0.7818609E-02  0.8113489E-01
        1   -1    0    0  501    0  0.00000000000E+00  0.00000000000E+00  0.28341845398E+04  0.28341845398E+04  0.50400001928E-02 0. -1.
       -1   -1    0    0    0  501  0.00000000000E+00  0.00000000000E+00 -0.10813423865E+04  0.10813423865E+04  0.50400001928E-02 0.  1.
    10030    2    1    2    0    0  0.00000000000E+00  0.00000000000E+00  0.17528421533E+04  0.39155269263E+04  0.35012705546E+04 0.  0.
        3    1    3    3  502    0 -0.65420928569E+03 -0.14222769980E+04  0.17526145112E+04  0.23500041029E+04  0.10100000352E+00 0. -1.
       -3    1    3    3    0  502  0.65420928569E+03  0.14222769980E+04  0.22764210636E+00  0.15655228234E+04  0.10100000352E+00 0.  1.
</event>
<event>
 5   0  0.2073287E-06  0.3466674E+04  0.7818609E-02  0.8121733E-01
       -2   -1    0    0    0  501  0.00000000000E+00  0.00000000000E+00  0.12460501090E+04  0.12460501090E+04  0.25500000920E-02 0.  1.
        2   -1    0    0  501    0  0.00000000000E+00  0.00000000000E+00 -0.24111852853E+04  0.24111852853E+04  0.25500000920E-02 0. -1.
    10030    2    1    2    0    0  0.00000000000E+00  0.00000000000E+00 -0.11651351762E+04  0.36572353943E+04  0.34666743070E+04 0.  0.
        1    1    3    3  502    0 -0.28476995624E+03  0.16900944309E+04 -0.30960849654E+03  0.17416574102E+04  0.50400001928E-02 0.  1.
       -1    1    3    3    0  502  0.28476995624E+03 -0.16900944309E+04 -0.85552667969E+03  0.19155779841E+04  0.50400001928E-02 0. -1.
</event>
<event>
 5   0  0.6630125E-07  0.3105556E+04  0.7818609E-02  0.8214215E-01
       -1   -1    0    0    0  501  0.00000000000E+00  0.00000000000E+00  0.12234998609E+04  0.12234998609E+04  0.50400001928E-02 0.  1.
        1   -1    0    0  501    0  0.00000000000E+00  0.00000000000E+00 -0.19706738282E+04  0.19706738283E+04  0.50400001928E-02 0. -1.
    10030    2    1    2    0    0  0.00000000000E+00  0.00000000000E+00 -0.74717396731E+03  0.31941736892E+04  0.31055557666E+04 0.  0.
        4    1    3    3  502    0 -0.15319003891E+04 -0.17521296205E+03 -0.56239860369E+03  0.16412532366E+04  0.12699999809E+01 0. -1.
       -4    1    3    3    0  502  0.15319003891E+04  0.17521296205E+03 -0.18477536363E+03  0.15529204526E+04  0.12699999809E+01 0.  1.
</event>
<event>
 5   0  0.6890600E-07  0.3378731E+04  0.7818609E-02  0.8143146E-01
       -1   -1    0    0    0  501  0.00000000000E+00  0.00000000000E+00  0.28013642884E+04  0.28013642885E+04  0.50400001928E-02 0.  1.
        1   -1    0    0  501    0  0.00000000000E+00  0.00000000000E+00 -0.10187734870E+04  0.10187734870E+04  0.50400001928E-02 0. -1.
    10030    2    1    2    0    0  0.00000000000E+00  0.00000000000E+00  0.17825908014E+04  0.38201377755E+04  0.33787309242E+04 0.  0.
        3    1    3    3  502    0 -0.72744437854E+03 -0.12542035589E+04  0.18716049315E+04  0.23675107013E+04  0.10100000352E+00 0.  1.
       -3    1    3    3    0  502  0.72744437854E+03  0.12542035589E+04 -0.89014130005E+02  0.14526270742E+04  0.10100000352E+00 0. -1.
</event>
<event>
 5   0  0.6630125E-07  0.3459525E+04  0.7818609E-02  0.8123450E-01
       -1   -1    0    0    0  501  0.00000000000E+00  0.00000000000E+00  0.13207499443E+04  0.13207499443E+04  0.50400001928E-02 0. -1.
        1   -1    0    0  501    0  0.00000000000E+00  0.00000000000E+00 -0.22654387936E+04  0.22654387936E+04  0.50400001928E-02 0.  1.
    10030    2    1    2    0    0  0.00000000000E+00  0.00000000000E+00 -0.94468884926E+03  0.35861887379E+04  0.34595249157E+04 0.  0.
        1    1    3    3  502    0 -0.10890768826E+04 -0.60242345056E+03 -0.17176078568E+04  0.21211268750E+04  0.50400001928E-02 0.  1.
       -1    1    3    3    0  502  0.10890768826E+04  0.60242345056E+03  0.77291900752E+03  0.14650618630E+04  0.50400001928E-02 0. -1.
</event>
<event>
 5   0  0.6630125E-07  0.3528541E+04  0.7818609E-02  0.8107059E-01
       -1   -1    0    0    0  501  0.00000000000E+00  0.00000000000E+00  0.14504482675E+04  0.14504482675E+04  0.50400001928E-02 0.  1.
        1   -1    0    0  501    0  0.00000000000E+00  0.00000000000E+00 -0.21459914891E+04  0.21459914891E+04  0.50400001928E-02 0. -1.
    10030    2    1    2    0    0  0.00000000000E+00  0.00000000000E+00 -0.69554322156E+03  0.35964397566E+04  0.35285405694E+04 0.  0.
        5    1    3    3  502    0  0.41462048259E+03 -0.15523005576E+04  0.39500428904E+03  0.16545687185E+04  0.46999998093E+01 0. -1.
       -5    1    3    3    0  502 -0.41462048259E+03  0.15523005576E+04 -0.10905475106E+04  0.19418710381E+04  0.46999998093E+01 0.  1.
</event>
<event>
 5   0  0.6890600E-07  0.2890771E+04  0.7818609E-02  0.8275629E-01
       -1   -1    0    0    0  501  0.00000000000E+00  0.00000000000E+00  0.17459197997E+04  0.17459197997E+04  0.50400001928E-02 0. -1.
        1   -1    0    0  501    0  0.00000000000E+00  0.00000000000E+00 -0.11965834999E+04  0.11965834999E+04  0.50400001928E-02 0.  1.
    10030    2    1    2    0    0  0.00000000000E+00  0.00000000000E+00  0.54933629981E+03  0.29425032996E+04  0.28907707101E+04 0.  0.
        3    1    3    3  502    0  0.67163531627E+03  0.10777079077E+04  0.97737792561E+03  0.16024406235E+04  0.10100000352E+00 0.  1.
       -3    1    3    3    0  502 -0.67163531627E+03 -0.10777079077E+04 -0.42804162581E+03  0.13400626761E+04  0.10100000352E+00 0. -1.
</event>
<event>
 5   0  0.1999883E-06  0.3502696E+04  0.7818609E-02  0.8113151E-01
       -2   -1    0    0    0  501  0.00000000000E+00  0.00000000000E+00  0.13095894897E+04  0.13095894897E+04  0.25500000920E-02 0.  1.
        2   -1    0    0  501    0  0.00000000000E+00  0.00000000000E+00 -0.23421231470E+04  0.23421231470E+04  0.25500000920E-02 0. -1.
    10030    2    1    2    0    0  0.00000000000E+00  0.00000000000E+00 -0.10325336574E+04  0.36517126367E+04  0.35026960227E+04 0.  0.
        4    1    3    3  502    0  0.98484511193E+03  0.14234869160E+04 -0.23850511086E+03  0.17473182868E+04  0.12699999809E+01 0. -1.
       -4    1    3    3    0  502 -0.98484511193E+03 -0.14234869160E+04 -0.79402854650E+03  0.19043943499E+04  0.12699999809E+01 0.  1.
</event>
<event>
 5   0  0.2073287E-06  0.3432850E+04  0.7818609E-02  0.8129891E-01
        2   -1    0    0  501    0  0.00000000000E+00  0.00000000000E+00  0.14177540597E+04  0.14177540597E+04  0.25500000920E-02 0.  1.
       -2   -1    0    0    0  501  0.00000000000E+00  0.00000000000E+00 -0.20780155567E+04  0.20780155567E+04  0.25500000920E-02 0. -1.
    10030    2    1    2    0    0  0.00000000000E+00  0.00000000000E+00 -0.66026149696E+03  0.34957696163E+04  0.34328501229E+04 0.  0.
        1    1    3    3  502    0  0.10418862229E+04 -0.80269925465E+03  0.79292555337E+03  0.15357681883E+04  0.50400001928E-02 0.  1.
       -1    1    3    3    0  502 -0.10418862229E+04  0.80269925465E+03 -0.14531870503E+04  0.19600014281E+04  0.50400001928E-02 0. -1.
</event>
<event>
 5   0  0.6630125E-07  0.3620227E+04  0.7818609E-02  0.8085874E-01
        1   -1    0    0  501    0  0.00000000000E+00  0.00000000000E+00  0.25133529818E+04  0.25133529819E+04  0.50400001928E-02 0.  1.
       -1   -1    0    0    0  501  0.00000000000E+00  0.00000000000E+00 -0.13036410264E+04  0.13036410264E+04  0.50400001928E-02 0. -1.
    10030    2    1    2    0    0  0.00000000000E+00  0.00000000000E+00  0.12097119554E+04  0.38169940083E+04  0.36202265460E+04 0.  0.
        4    1    3    3  502    0 -0.13501049536E+04  0.12011881364E+04  0.71479273314E+03  0.19433390309E+04  0.12699999809E+01 0.  1.
       -4    1    3    3    0  502  0.13501049536E+04 -0.12011881364E+04  0.49491922227E+03  0.18736549774E+04  0.12699999809E+01 0. -1.
</event>
<event>
 5   0  0.2023479E-06  0.3490807E+04  0.7818609E-02  0.8115972E-01
       -2   -1    0    0    0  501  0.00000000000E+00  0.00000000000E+00  0.12722183763E+04  0.12722183763E+04  0.25500000920E-02 0.  1.
        2   -1    0    0  501    0  0.00000000000E+00  0.00000000000E+00 -0.23945841404E+04  0.23945841404E+04  0.25500000920E-02 0. -1.
    10030    2    1    2    0    0  0.00000000000E+00  0.00000000000E+00 -0.11223657641E+04  0.36668025167E+04  0.34908073261E+04 0.  0.
        5    1    3    3  502    0  0.44807504767E+03  0.16124018008E+04 -0.40403836424E+02  0.16739968266E+04  0.46999998093E+01 0. -1.
       -5    1    3    3    0  502 -0.44807504767E+03 -0.16124018008E+04 -0.10819619277E+04  0.19928056901E+04  0.46999998093E+01 0.  1.
</event>
<event>
 5   0  0.6630125E-07  0.3527784E+04  0.7818609E-02  0.8107237E-01
        1   -1    0    0  501    0  0.00000000000E+00  0.00000000000E+00  0.20528380355E+04  0.20528380355E+04  0.50400001928E-02 0. -1.
       -1   -1    0    0    0  501  0.00000000000E+00  0.00000000000E+00 -0.15156167323E+04  0.15156167323E+04  0.50400001928E-02 0.  1.
    10030    2    1    2    0    0  0.00000000000E+00  0.00000000000E+00  0.53722130324E+03  0.35684547678E+04  0.35277843899E+04 0.  0.
        4    1    3    3  502    0  0.17353618114E+04 -0.15210709958E+03 -0.11524107741E+02  0.17420538465E+04  0.12699999809E+01 0. -1.
       -4    1    3    3    0  502 -0.17353618114E+04  0.15210709958E+03  0.54874541098E+03  0.18264009213E+04  0.12699999809E+01 0.  1.
</event>
<event>
 5   0  0.6630125E-07  0.2824882E+04  0.7818609E-02  0.8295585E-01
        1   -1    0    0  501    0  0.00000000000E+00  0.00000000000E+00  0.20313415077E+04  0.20313415077E+04  0.50400001928E-02 0. -1.
       -1   -1    0    0    0  501  0.00000000000E+00  0.00000000000E+00 -0.98210445255E+03  0.98210445256E+03  0.50400001928E-02 0.  1.
    10030    2    1    2    0    0  0.00000000000E+00  0.00000000000E+00  0.10492370551E+04  0.30134459603E+04  0.28248819723E+04 0.  0.
        1    1    3    3  502    0  0.43305602611E+03  0.58871002491E+03 -0.76472683085E+03  0.10577921067E+04  0.50400001928E-02 0.  1.
       -1    1    3    3    0  502 -0.43305602611E+03 -0.58871002491E+03  0.18139638860E+04  0.19556538535E+04  0.50400001928E-02 0. -1.
</event>
<event>
 5   0  0.6630125E-07  0.3517148E+04  0.7818609E-02  0.8109738E-01
        1   -1    0    0  501    0  0.00000000000E+00  0.00000000000E+00  0.26800596351E+04  0.26800596351E+04  0.50400001928E-02 0.  1.
       -1   -1    0    0    0  501  0.00000000000E+00  0.00000000000E+00 -0.11539232962E+04  0.11539232962E+04  0.50400001928E-02 0. -1.
    10030    2    1    2    0    0  0.00000000000E+00  0.00000000000E+00  0.15261363389E+04  0.38339829313E+04  0.35171484177E+04 0.  0.
        1    1    3    3  502    0  0.11238388986E+04  0.16946521480E+03 -0.69977699622E+03  0.13346985328E+04  0.50400001928E-02 0. -1.
       -1    1    3    3    0  502 -0.11238388986E+04 -0.16946521480E+03  0.22259133351E+04  0.24992843985E+04  0.50400001928E-02 0.  1.
</event>
<event>
 5   0  0.6890600E-07  0.3563404E+04  0.7818609E-02  0.8098926E-01
       -1   -1    0    0    0  501  0.00000000000E+00  0.00000000000E+00  0.12238154647E+04  0.12238154647E+04  0.50400001928E-02 0.  1.
        1   -1    0    0  501    0  0.00000000000E+00  0.00000000000E+00 -0.25939063864E+04  0.25939063864E+04  0.50400001928E-02 0. -1.
    10030    2    1    2    0    0  0.00000000000E+00  0.00000000000E+00 -0.13700909217E+04  0.38177218511E+04  0.35634044113E+04 0.  0.
        3    1    3    3  502    0 -0.16326404509E+04  0.66841907561E+03 -0.41792443303E+03  0.18129974474E+04  0.10100000352E+00 0.  1.
       -3    1    3    3    0  502  0.16326404509E+04 -0.66841907561E+03 -0.95216648871E+03  0.20047244037E+04  0.10100000352E+00 0. -1.
</event>
<event>
 5   0  0.2023479E-06  0.3574785E+04  0.7818609E-02  0.8096292E-01
        2   -1    0    0  501    0  0.00000000000E+00  0.00000000000E+00  0.29309938837E+04  0.29309938837E+04  0.25500000920E-02 0. -1.
       -2   -1    0    0    0  501  0.00000000000E+00  0.00000000000E+00 -0.10899961971E+04  0.10899961971E+04  0.25500000920E-02 0.  1.
    10030    2    1    2    0    0  0.00000000000E+00  0.00000000000E+00  0.18409976866E+04  0.40209900807E+04  0.35747851330E+04 0.  0.
        5    1    3    3  502    0  0.69196012418E+03  0.16326850344E+04  0.66827600125E+03  0.18950156039E+04  0.46999998093E+01 0.  1.
       -5    1    3    3    0  502 -0.69196012418E+03 -0.16326850344E+04  0.11727216853E+04  0.21259744769E+04  0.46999998093E+01 0. -1.
</event>
<event>
 5   0  0.2073287E-06  0.3204911E+04  0.7818609E-02  0.8187521E-01
        2   -1    0    0  501    0  0.00000000000E+00  0.00000000000E+00  0.14850530847E+04  0.14850530847E+04  0.25500000920E-02 0.  1.
       -2   -1    0    0    0  501  0.00000000000E+00  0.00000000000E+00 -0.17291396330E+04  0.17291396330E+04  0.25500000920E-02 0. -1.
    10030    2    1    2    0    0  0.00000000000E+00  0.00000000000E+00 -0.24408654838E+03  0.32141927177E+04  0.32049113223E+04 0.  0.
        1    1    3    3  502    0 -0.71128735317E+03 -0.13217613193E+04 -0.68481133546E+03  0.16498330973E+04  0.50400001928E-02 0. -1.
       -1    1    3    3    0  502  0.71128735317E+03  0.13217613193E+04  0.44072478708E+03  0.15643596204E+04  0.50400001928E-02 0.  1.
</event>
<event>
 5   0  0.6630125E-07  0.2140415E+04  0.7818609E-02  0.8543646E-01
       -1   -1    0    0    0  501  0.00000000000E+00  0.00000000000E+00  0.80418865931E+03  0.80418865932E+03  0.50400001928E-02 0. -1.
        1   -1    0    0  501    0  0.00000000000E+00  0.00000000000E+00 -0.14242232752E+04  0.14242232752E+04  0.50400001928E-02 0.  1.
    10030    2    1    2    0    0  0.00000000000E+00  0.00000000000E+00 -0.62003461593E+03  0.22284119346E+04  0.21404151058E+04 0.  0.
        4    1    3    3  502    0 -0.73319298469E+03  0.41512210977E+03  0.37699380268E+03  0.92305160147E+03  0.12699999809E+01 0. -1.
       -4    1    3    3    0  502  0.73319298469E+03 -0.41512210977E+03 -0.99702841861E+03  0.13053603331E+04  0.12699999809E+01 0.  1.
</event>
<event>
 5   0  0.6890600E-07  0.3525637E+04  0.7818609E-02  0.8107741E-01
       -1   -1    0    0    0  501  0.00000000000E+00  0.00000000000E+00  0.33367821865E+04  0.33367821865E+04  0.50400001928E-02 0.  1.
        1   -1    0    0  501    0  0.00000000000E+00  0.00000000000E+00 -0.93129526359E+03  0.93129526361E+03  0.50400001928E-02 0. -1.
    10030    2    1    2    0    0  0.00000000000E+00  0.00000000000E+00  0.24054869229E+04  0.42680774501E+04  0.35256372167E+04 0.  0.
        3    1    3    3  502    0  0.11439740160E+03 -0.17155119122E+04  0.16738790022E+04  0.23995705472E+04  0.10100000352E+00 0.  1.
       -3    1    3    3    0  502 -0.11439740160E+03  0.17155119122E+04  0.73160792067E+03  0.18685069029E+04  0.10100000352E+00 0. -1.
</event>
<event>
 5   0  0.2023479E-06  0.2677690E+04  0.7818609E-02  0.8342280E-01
        2   -1    0    0  501    0  0.00000000000E+00  0.00000000000E+00  0.90671699241E+03  0.90671699242E+03  0.25500000920E-02 0.  1.
       -2   -1    0    0    0  501  0.00000000000E+00  0.00000000000E+00 -0.19769183220E+04  0.19769183220E+04  0.25500000920E-02 0. -1.
    10030    2    1    2    0    0  0.00000000000E+00  0.00000000000E+00 -0.10702013295E+04  0.28836353144E+04  0.26776896274E+04 0.  0.
        5    1    3    3  502    0 -0.85638307607E+03 -0.51536232893E+03 -0.14943945157E+04  0.17978396373E+04  0.46999998093E+01 0.  1.
       -5    1    3    3    0  502  0.85638307607E+03  0.51536232893E+03  0.42419318617E+03  0.10857956770E+04  0.46999998093E+01 0. -1.
</event>
<event>
 5   0  0.6890600E-07  0.2699637E+04  0.7818609E-02  0.8335123E-01
       -1   -1    0    0    0  501  0.00000000000E+00  0.00000000000E+00  0.91837368383E+03  0.91837368384E+03  0.50400001928E-02 0.  1.
        1   -1    0    0  501    0  0.00000000000E+00  0.00000000000E+00 -0.19839525839E+04  0.19839525839E+04  0.50400001928E-02 0. -1.
    10030    2    1    2    0    0  0.00000000000E+00  0.00000000000E+00 -0.10655789000E+04  0.29023262677E+04  0.26996368963E+04 0.  0.
        3    1    3    3  502    0  0.55801523055E+01 -0.71038663698E+03 -0.17667125355E+04  0.19041936628E+04  0.10100000352E+00 0. -1.
       -3    1    3    3    0  502 -0.55801523055E+01  0.71038663698E+03  0.70113363544E+03  0.99813260494E+03  0.10100000352E+00 0.  1.
</event>
<event>
 5   0  0.6890600E-07  0.3528559E+04  0.7818609E-02  0.8107055E-01
        1   -1    0    0  501    0  0.00000000000E+00  0.00000000000E+00  0.21609089126E+04  0.21609089126E+04  0.50400001928E-02 0.  1.
       -1   -1    0    0    0  501  0.00000000000E+00  0.00000000000E+00 -0.14404506347E+04  0.14404506347E+04  0.50400001928E-02 0. -1.
    10030    2    1    2    0    0  0.00000000000E+00  0.00000000000E+00  0.72045827795E+03  0.36013595473E+04  0.35285592610E+04 0.  0.
        3    1    3    3  502    0 -0.13894277814E+04  0.58999394719E+03  0.12923515908E+04  0.19871525009E+04  0.10100000352E+00 0.  1.
       -3    1    3    3    0  502  0.13894277814E+04 -0.58999394719E+03 -0.57189331281E+03  0.16142070464E+04  0.10100000352E+00 0. -1.
</event>
<event>
 5   0  0.1999883E-06  0.3442440E+04  0.7818609E-02  0.8127568E-01
        2   -1    0    0  501    0  0.00000000000E+00  0.00000000000E+00  0.15640856707E+04  0.15640856707E+04  0.25500000920E-02 0. -1.
       -2   -1    0    0    0  501  0.00000000000E+00  0.00000000000E+00 -0.18941405529E+04  0.18941405529E+04  0.25500000920E-02 0.  1.
    10030    2    1    2    0    0  0.00000000000E+00  0.00000000000E+00 -0.33005488221E+03  0.34582262236E+04  0.34424398888E+04 0.  0.
        4    1    3    3  502    0 -0.12392160200E+04 -0.51058924832E+03 -0.12499051099E+04  0.18326543922E+04  0.12699999809E+01 0.  1.
       -4    1    3    3    0  502  0.12392160200E+04  0.51058924832E+03  0.91985022771E+03  0.16255718314E+04  0.12699999809E+01 0. -1.
</event>
<event>
 5   0  0.2001768E-06  0.3482597E+04  0.7818609E-02  0.8117927E-01
        2   -1    0    0  501    0  0.00000000000E+00  0.00000000000E+00  0.15359326352E+04  0.15359326352E+04  0.25500000920E-02 0.  1.
       -2   -1    0    0    0  501  0.00000000000E+00  0.00000000000E+00 -0.19741238771E+04  0.19741238771E+04  0.25500000920E-02 0. -1.
    10030    2    1    2    0    0  0.00000000000E+00  0.00000000000E+00 -0.43819124195E+03  0.35100565123E+04  0.34825974724E+04 0.  0.
        2    1    3    3  502    0 -0.43327633391E+03 -0.15692872408E+04 -0.84181049295E+03  0.18327672333E+04  0.25500000920E-02 0.  1.
       -2    1    3    3    0  502  0.43327633391E+03  0.15692872408E+04  0.40361925101E+03  0.16772892790E+04  0.25500000920E-02 0. -1.
</event>
<event>
 5   0  0.7378896E-07  0.3418974E+04  0.7818609E-02  0.8133265E-01
       -1   -1    0    0    0  501  0.00000000000E+00  0.00000000000E+00  0.13633379391E+04  0.13633379391E+04  0.50400001928E-02 0.  1.
        1   -1    0    0  501    0  0.00000000000E+00  0.00000000000E+00 -0.21435222322E+04  0.21435222322E+04  0.50400001928E-02 0. -1.
    10030    2    1    2    0    0  0.00000000000E+00  0.00000000000E+00 -0.78018429315E+03  0.35068601713E+04  0.34189736369E+04 0.  0.
        2    1    3    3  502    0 -0.11293702926E+04 -0.93006058735E+03 -0.12970474192E+04  0.19552038159E+04  0.25500000920E-02 0. -1.
       -2    1    3    3    0  502  0.11293702926E+04  0.93006058735E+03  0.51686312607E+03  0.15516563554E+04  0.25500000920E-02 0.  1.
</event>
<event>
 5   0  0.2001768E-06  0.3676767E+04  0.7818609E-02  0.8073130E-01
        2   -1    0    0  501    0  0.00000000000E+00  0.00000000000E+00  0.22029746705E+04  0.22029746705E+04  0.25500000920E-02 0.  1.
       -2   -1    0    0    0  501  0.00000000000E+00  0.00000000000E+00 -0.15341320268E+04  0.15341320268E+04  0.25500000920E-02 0. -1.
    10030    2    1    2    0    0  0.00000000000E+00  0.00000000000E+00  0.66884264376E+03  0.37371066973E+04  0.36767670561E+04 0.  0.
        2    1    3    3  502    0  0.80994957906E+03  0.12940893372E+04  0.13754210052E+04  0.20548645880E+04  0.25500000920E-02 0.  1.
       -2    1    3    3    0  502 -0.80994957906E+03 -0.12940893372E+04 -0.70657836147E+03  0.16822421093E+04  0.25500000920E-02 0. -1.
</event>
<event>
 5   0  0.7378896E-07  0.3905487E+04  0.7818609E-02  0.8023889E-01
        1   -1    0    0  501    0  0.00000000000E+00  0.00000000000E+00  0.23362619698E+04  0.23362619698E+04  0.50400001928E-02 0. -1.
       -1   -1    0    0    0  501  0.00000000000E+00  0.00000000000E+00 -0.16321833394E+04  0.16321833394E+04  0.50400001928E-02 0.  1.
    10030    2    1    2    0    0  0.00000000000E+00  0.00000000000E+00  0.70407863037E+03  0.39684453092E+04  0.39054873517E+04 0.  0.
        2    1    3    3  502    0  0.79312199263E+03  0.12396165012E+04 -0.95220821703E+03  0.17528240225E+04  0.25500000920E-02 0.  1.
       -2    1    3    3    0  502 -0.79312199263E+03 -0.12396165012E+04  0.16562868474E+04  0.22156212867E+04  0.25500000920E-02 0. -1.
</event>
<event>
 5   0  0.6630125E-07  0.3540175E+04  0.7818609E-02  0.8104334E-01
       -3   -1    0    0    0  501  0.00000000000E+00  0.00000000000E+00  0.21821771029E+04  0.21821771052E+04  0.10100000352E+00 0.  1.
        3   -1    0    0  501    0  0.00000000000E+00  0.00000000000E+00 -0.14358183312E+04  0.14358183347E+04  0.10100000352E+00 0. -1.
    10030    2    1    2    0    0  0.00000000000E+00  0.00000000000E+00  0.74635877171E+03  0.36179954399E+04  0.35401750786E+04 0.  0.
        1    1    3    3  502    0  0.12754610269E+03 -0.13982041948E+04  0.14748205524E+04  0.20362560351E+04  0.50400001928E-02 0.  1.
       -1    1    3    3    0  502 -0.12754610269E+03  0.13982041948E+04 -0.72846178069E+03  0.15817394048E+04  0.50400001928E-02 0. -1.
</event>
<event>
 5   0  0.6630125E-07  0.3440733E+04  0.7818609E-02  0.8127981E-01
        1   -1    0    0  501    0  0.00000000000E+00  0.00000000000E+00  0.21326524731E+04  0.21326524731E+04  0.50400001928E-02 0.  1.
       -1   -1    0    0    0  501  0.00000000000E+00  0.00000000000E+00 -0.13877840795E+04  0.13877840795E+04  0.50400001928E-02 0. -1.
    10030    2    1    2    0    0  0.00000000000E+00  0.00000000000E+00  0.74486839368E+03  0.35204365526E+04  0.34407331482E+04 0.  0.
        1    1    3    3  502    0  0.12490859438E+04  0.87977046152E+03 -0.43673923807E+03  0.15890100447E+04  0.50400001928E-02 0. -1.
       -1    1    3    3    0  502 -0.12490859438E+04 -0.87977046152E+03  0.11816076317E+04  0.19314265079E+04  0.50400001928E-02 0.  1.
</event>
<event>
 5   0  0.2001768E-06  0.3330546E+04  0.7818609E-02  0.8155166E-01
        2   -1    0    0  501    0  0.00000000000E+00  0.00000000000E+00  0.26344179986E+04  0.26344179986E+04  0.25500000920E-02 0. -1.
       -2   -1    0    0    0  501  0.00000000000E+00  0.00000000000E+00 -0.10526552267E+04  0.10526552267E+04  0.25500000920E-02 0.  1.
    10030    2    1    2    0    0  0.00000000000E+00  0.00000000000E+00  0.15817627719E+04  0.36870732253E+04  0.33305458265E+04 0.  0.
        2    1    3    3  502    0 -0.47202443423E+03 -0.96553613731E+03  0.21990821300E+04  0.24476579241E+04  0.25500000920E-02 0. -1.
       -2    1    3    3    0  502  0.47202443423E+03  0.96553613731E+03 -0.61731935811E+03  0.12394153012E+04  0.25500000920E-02 0.  1.
</event>
<event>
 5   0  0.1999883E-06  0.3507172E+04  0.7818609E-02  0.8112092E-01
        2   -1    0    0  501    0  0.00000000000E+00  0.00000000000E+00  0.20171631613E+04  0.20171631613E+04  0.25500000920E-02 0. -1.
       -2   -1    0    0    0  501  0.00000000000E+00  0.00000000000E+00 -0.15244499208E+04  0.15244499208E+04  0.25500000920E-02 0.  1.
    10030    2    1    2    0    0  0.00000000000E+00  0.00000000000E+00  0.49271324049E+03  0.35416130820E+04  0.35071722064E+04 0.  0.
        4    1    3    3  502    0  0.43401997777E+03  0.16128845439E+04  0.78572982031E+03  0.18458447541E+04  0.12699999809E+01 0. -1.
       -4    1    3    3    0  502 -0.43401997777E+03 -0.16128845439E+04 -0.29301657982E+03  0.16957683279E+04  0.12699999809E+01 0.  1.
</event>
<event>
 5   0  0.2073287E-06  0.3483118E+04  0.7818609E-02  0.8117802E-01
        2   -1    0    0  501    0  0.00000000000E+00  0.00000000000E+00  0.21051338159E+04  0.21051338159E+04  0.25500000920E-02 0. -1.
       -2   -1    0    0    0  501  0.00000000000E+00  0.00000000000E+00 -0.14407765364E+04  0.14407765364E+04  0.25500000920E-02 0.  1.
    10030    2    1    2    0    0  0.00000000000E+00  0.00000000000E+00  0.66435727950E+03  0.35459103523E+04  0.34831178033E+04 0.  0.
        1    1    3    3  502    0 -0.16574132926E+04 -0.31864773054E+03 -0.10506657282E+03  0.16910334661E+04  0.50400001928E-02 0.  1.
       -1    1    3    3    0  502  0.16574132926E+04  0.31864773054E+03  0.76942385233E+03  0.18548768863E+04  0.50400001928E-02 0. -1.
</event>
<event>
 5   0  0.2073287E-06  0.3464988E+04  0.7818609E-02  0.8122138E-01
       -2   -1    0    0    0  501  0.00000000000E+00  0.00000000000E+00  0.14717325087E+04  0.14717325087E+04  0.25500000920E-02 0.  1.
        2   -1    0    0  501    0  0.00000000000E+00  0.00000000000E+00 -0.20394566766E+04  0.20394566766E+04  0.25500000920E-02 0. -1.
    10030    2    1    2    0    0  0.00000000000E+00  0.00000000000E+00 -0.56772416787E+03  0.35111891854E+04  0.34649875562E+04 0.  0.
        1    1    3    3  502    0  0.16510841939E+04  0.49299018361E+03 -0.46630820709E+03  0.17850943057E+04  0.50400001928E-02 0.  1.
       -1    1    3    3    0  502 -0.16510841939E+04 -0.49299018361E+03 -0.10141596078E+03  0.17260948796E+04  0.50400001928E-02 0. -1.
</event>
<event>
 5   0  0.7378896E-07  0.3426094E+04  0.7818609E-02  0.8131532E-01
       -1   -1    0    0    0  501  0.00000000000E+00  0.00000000000E+00  0.25758529554E+04  0.25758529554E+04  0.50400001928E-02 0. -1.
        1   -1    0    0  501    0  0.00000000000E+00  0.00000000000E+00 -0.11392459659E+04  0.11392459659E+04  0.50400001928E-02 0.  1.
    10030    2    1    2    0    0  0.00000000000E+00  0.00000000000E+00  0.14366069895E+04  0.37150989213E+04  0.34260940373E+04 0.  0.
        2    1    3    3  502    0  0.18360497002E+03  0.35913007318E+03  0.25236291975E+04  0.25556583341E+04  0.25500000920E-02 0. -1.
       -2    1    3    3    0  502 -0.18360497002E+03 -0.35913007318E+03 -0.10870222080E+04  0.11594405871E+04  0.25500000920E-02 0.  1.
</event>
<event>
 5   0  0.2023479E-06  0.3459376E+04  0.7818609E-02  0.8123485E-01
       -2   -1    0    0    0  501  0.00000000000E+00  0.00000000000E+00  0.27647176076E+04  0.27647176076E+04  0.25500000920E-02 0.  1.
        2   -1    0    0  501    0  0.00000000000E+00  0.00000000000E+00 -0.10821432219E+04  0.10821432219E+04  0.25500000920E-02 0. -1.
    10030    2    1    2    0    0  0.00000000000E+00  0.00000000000E+00  0.16825743857E+04  0.38468608295E+04  0.34593759087E+04 0.  0.
        5    1    3    3  502    0  0.13200229357E+04 -0.28970270735E+02  0.20838053131E+04  0.24668940999E+04  0.46999998093E+01 0. -1.
       -5    1    3    3    0  502 -0.13200229357E+04  0.28970270735E+02 -0.40123092740E+03  0.13799667295E+04  0.46999998093E+01 0.  1.
</event>
<event>
 5   0  0.2073287E-06  0.2750954E+04  0.7818609E-02  0.8318659E-01
        2   -1    0    0  501    0  0.00000000000E+00  0.00000000000E+00  0.99025157181E+03  0.99025157182E+03  0.25500000920E-02 0. -1.
       -2   -1    0    0    0  501  0.00000000000E+00  0.00000000000E+00 -0.19105618964E+04  0.19105618964E+04  0.25500000920E-02 0.  1.
    10030    2    1    2    0    0  0.00000000000E+00  0.00000000000E+00 -0.92031032457E+03  0.29008134682E+04  0.27509539589E+04 0.  0.
        1    1    3    3  502    0  0.11303536996E+04 -0.96882482315E+02  0.35993341256E+03  0.11902259294E+04  0.50400001928E-02 0. -1.
       -1    1    3    3    0  502 -0.11303536996E+04  0.96882482315E+02 -0.12802437371E+04  0.17105875388E+04  0.50400001928E-02 0.  1.
</event>
<event>
 5   0  0.2023479E-06  0.2347205E+04  0.7818609E-02  0.8459538E-01
        2   -1    0    0  501    0  0.00000000000E+00  0.00000000000E+00  0.13898538102E+04  0.13898538102E+04  0.25500000920E-02 0.  1.
       -2   -1    0    0    0  501  0.00000000000E+00  0.00000000000E+00 -0.99099811245E+03  0.99099811245E+03  0.25500000920E-02 0. -1.
    10030    2    1    2    0    0  0.00000000000E+00  0.00000000000E+00  0.39885569773E+03  0.23808519226E+04  0.23472047226E+04 0.  0.
        5    1    3    3  502    0  0.79012597152E+03  0.33846155653E+03 -0.61106653276E+03  0.10546467056E+04  0.46999998093E+01 0. -1.
       -5    1    3    3    0  502 -0.79012597152E+03 -0.33846155653E+03  0.10099222305E+04  0.13262052171E+04  0.46999998093E+01 0.  1.
</event>
<event>
 5   0  0.1999883E-06  0.3505649E+04  0.7818609E-02  0.8112453E-01
        2   -1    0    0  501    0  0.00000000000E+00  0.00000000000E+00  0.19563412787E+04  0.19563412787E+04  0.25500000920E-02 0. -1.
       -2   -1    0    0    0  501  0.00000000000E+00  0.00000000000E+00 -0.15704792168E+04  0.15704792168E+04  0.25500000920E-02 0.  1.
    10030    2    1    2    0    0  0.00000000000E+00  0.00000000000E+00  0.38586206194E+03  0.35268204955E+04  0.35056487669E+04 0.  0.
        4    1    3    3  502    0 -0.25776020951E+03 -0.13026292480E+04 -0.95814169285E+03  0.16374737860E+04  0.12699999809E+01 0.  1.
       -4    1    3    3    0  502  0.25776020951E+03  0.13026292480E+04  0.13440037548E+04  0.18893467096E+04  0.12699999809E+01 0. -1.
</event>
<event>
 5   0  0.6630125E-07  0.3514483E+04  0.7818609E-02  0.8110366E-01
        1   -1    0    0  501    0  0.00000000000E+00  0.00000000000E+00  0.21452789274E+04  0.21452789274E+04  0.50400001928E-02 0.  1.
       -1   -1    0    0    0  501  0.00000000000E+00  0.00000000000E+00 -0.14393924485E+04  0.14393924485E+04  0.50400001928E-02 0. -1.
    10030    2    1    2    0    0  0.00000000000E+00  0.00000000000E+00  0.70588647884E+03  0.35846713759E+04  0.35144833408E+04 0.  0.
        1    1    3    3  502    0  0.79750582769E+03 -0.44698018413E+03  0.18836107729E+04  0.20937517460E+04  0.50400001928E-02 0.  1.
       -1    1    3    3    0  502 -0.79750582769E+03  0.44698018413E+03 -0.11777242940E+04  0.14909196299E+04  0.50400001928E-02 0. -1.
</event>
<event>
 5   0  0.2020725E-06  0.3422709E+04  0.7818609E-02  0.8132355E-01
       -2   -1    0    0    0  501  0.00000000000E+00  0.00000000000E+00  0.16516617066E+04  0.16516617066E+04  0.25500000920E-02 0.  1.
        2   -1    0    0  501    0  0.00000000000E+00  0.00000000000E+00 -0.17732044405E+04  0.17732044405E+04  0.25500000920E-02 0. -1.
    10030    2    1    2    0    0  0.00000000000E+00  0.00000000000E+00 -0.12154273395E+03  0.34248661471E+04  0.34227087941E+04 0.  0.
        3    1    3    3  502    0 -0.49336762059E+03 -0.33228077961E+03 -0.16664359405E+04  0.17694154062E+04  0.10100000352E+00 0. -1.
       -3    1    3    3    0  502  0.49336762059E+03  0.33228077961E+03  0.15448932066E+04  0.16554507409E+04  0.10100000352E+00 0.  1.
</event>
<event>
 5   0  0.2073287E-06  0.3377704E+04  0.7818609E-02  0.8143400E-01
       -2   -1    0    0    0  501  0.00000000000E+00  0.00000000000E+00  0.12848521505E+04  0.12848521506E+04  0.25500000920E-02 0. -1.
        2   -1    0    0  501    0  0.00000000000E+00  0.00000000000E+00 -0.22198828447E+04  0.22198828447E+04  0.25500000920E-02 0.  1.
    10030    2    1    2    0    0  0.00000000000E+00  0.00000000000E+00 -0.93503069415E+03  0.35047349953E+04  0.33777041001E+04 0.  0.
        1    1    3    3  502    0 -0.12990354465E+04  0.47418708807E+03  0.53841654632E+03  0.14839942261E+04  0.50400001928E-02 0. -1.
       -1    1    3    3    0  502  0.12990354465E+04 -0.47418708807E+03 -0.14734472405E+04  0.20207407692E+04  0.50400001928E-02 0.  1.
</event>
<event>
 5   0  0.6630125E-07  0.3653396E+04  0.7818609E-02  0.8078369E-01
        1   -1    0    0  501    0  0.00000000000E+00  0.00000000000E+00  0.23676686575E+04  0.23676686575E+04  0.50400001928E-02 0. -1.
       -1   -1    0    0    0  501  0.00000000000E+00  0.00000000000E+00 -0.14093298191E+04  0.14093298191E+04  0.50400001928E-02 0.  1.
    10030    2    1    2    0    0  0.00000000000E+00  0.00000000000E+00  0.95833883840E+03  0.37769984765E+04  0.36533962504E+04 0.  0.
        4    1    3    3  502    0 -0.48594509261E+01 -0.10166532563E+04 -0.10898107585E+04  0.14904014762E+04  0.12699999809E+01 0.  1.
       -4    1    3    3    0  502  0.48594509261E+01  0.10166532563E+04  0.20481495969E+04  0.22865970004E+04  0.12699999809E+01 0. -1.
</event>
<event>
 5   0  0.2020725E-06  0.3453523E+04  0.7818609E-02  0.8124894E-01
       -2   -1    0    0    0  501  0.00000000000E+00  0.00000000000E+00  0.13172584336E+04  0.13172584336E+04  0.25500000920E-02 0.  1.
        2   -1    0    0  501    0  0.00000000000E+00  0.00000000000E+00 -0.22635686088E+04  0.22635686088E+04  0.25500000920E-02 0. -1.
    10030    2    1    2    0    0  0.00000000000E+00  0.00000000000E+00 -0.94631017523E+03  0.35808270424E+04  0.34535227464E+04 0.  0.
        3    1    3    3  502    0  0.12707008924E+04  0.93581319373E+03 -0.11999042942E+04  0.19824725514E+04  0.10100000352E+00 0. -1.
       -3    1    3    3    0  502 -0.12707008924E+04 -0.93581319373E+03  0.25359411899E+03  0.15983544910E+04  0.10100000352E+00 0.  1.
</event>
<event>
 5   0  0.2073287E-06  0.3361132E+04  0.7818609E-02  0.8147512E-01
       -2   -1    0    0    0  501  0.00000000000E+00  0.00000000000E+00  0.88555044650E+03  0.88555044650E+03  0.25500000920E-02 0.  1.
        2   -1    0    0  501    0  0.00000000000E+00  0.00000000000E+00 -0.31893178077E+04  0.31893178077E+04  0.25500000920E-02 0. -1.
    10030    2    1    2    0    0  0.00000000000E+00  0.00000000000E+00 -0.23037673612E+04  0.40748682542E+04  0.33611318383E+04 0.  0.
        1    1    3    3  502    0 -0.10872214689E+04 -0.89011547115E+03 -0.22695794923E+04  0.26693345887E+04  0.50400001928E-02 0.  1.
       -1    1    3    3    0  502  0.10872214689E+04  0.89011547115E+03 -0.34187868899E+02  0.14055336655E+04  0.50400001928E-02 0. -1.
</event>
<event>
 5   0  0.7378896E-07  0.2255543E+04  0.7818609E-02  0.8495659E-01
       -1   -1    0    0    0  501  0.00000000000E+00  0.00000000000E+00  0.68680157434E+03  0.68680157436E+03  0.50400001928E-02 0.  1.
        1   -1    0    0  501    0  0.00000000000E+00  0.00000000000E+00 -0.18518719350E+04  0.18518719350E+04  0.50400001928E-02 0. -1.
    10030    2    1    2    0    0  0.00000000000E+00  0.00000000000E+00 -0.11650703606E+04  0.25386735093E+04  0.22555430037E+04 0.  0.
        2    1    3    3  502    0  0.74692616166E+03 -0.80315471847E+03 -0.28707134888E+03  0.11337398962E+04  0.25500000920E-02 0.  1.
       -2    1    3    3    0  502 -0.74692616166E+03  0.80315471847E+03 -0.87799901175E+03  0.14049336132E+04  0.25500000920E-02 0. -1.
</event>
<event>
 5   0  0.2023479E-06  0.3470357E+04  0.7818609E-02  0.8120851E-01
       -2   -1    0    0    0  501  0.00000000000E+00  0.00000000000E+00  0.11784883700E+04  0.11784883700E+04  0.25500000920E-02 0.  1.
        2   -1    0    0  501    0  0.00000000000E+00  0.00000000000E+00 -0.25548363105E+04  0.25548363105E+04  0.25500000920E-02 0. -1.
    10030    2    1    2    0    0  0.00000000000E+00  0.00000000000E+00 -0.13763479405E+04  0.37333246805E+04  0.34703572607E+04 0.  0.
        5    1    3    3  502    0 -0.12122814376E+04 -0.12259113566E+04 -0.89881135747E+03  0.19443170740E+04  0.46999998093E+01 0. -1.
       -5    1    3    3    0  502  0.12122814376E+04  0.12259113566E+04 -0.47753658304E+03  0.17890076065E+04  0.46999998093E+01 0.  1.
</event>
<event>
 5   0  0.6630125E-07  0.3720595E+04  0.7818609E-02  0.8063413E-01
        1   -1    0    0  501    0  0.00000000000E+00  0.00000000000E+00  0.23111925820E+04  0.23111925820E+04  0.50400001928E-02 0. -1.
       -1   -1    0    0    0  501  0.00000000000E+00  0.00000000000E+00 -0.14973685256E+04  0.14973685256E+04  0.50400001928E-02 0.  1.
    10030    2    1    2    0    0  0.00000000000E+00  0.00000000000E+00  0.81382405648E+03  0.38085611076E+04  0.37205951292E+04 0.  0.
        1    1    3    3  502    0 -0.33627976775E+03  0.53805787813E+03 -0.13831807471E+04  0.15217684914E+04  0.50400001928E-02 0.  1.
       -1    1    3    3    0  502  0.33627976775E+03 -0.53805787813E+03  0.21970048036E+04  0.22867926162E+04  0.50400001928E-02 0. -1.
</event>
<event>
 5   0  0.2073287E-06  0.3412872E+04  0.7818609E-02  0.8134754E-01
        2   -1    0    0  501    0  0.00000000000E+00  0.00000000000E+00  0.19244010334E+04  0.19244010335E+04  0.25500000920E-02 0. -1.
       -2   -1    0    0    0  501  0.00000000000E+00  0.00000000000E+00 -0.15131581192E+04  0.15131581192E+04  0.25500000920E-02 0.  1.
    10030    2    1    2    0    0  0.00000000000E+00  0.00000000000E+00  0.41124291422E+03  0.34375591527E+04  0.34128715466E+04 0.  0.
        1    1    3    3  502    0 -0.99978529303E+02 -0.34215433905E+02  0.19211023510E+04  0.19240064047E+04  0.50400001928E-02 0. -1.
       -1    1    3    3    0  502  0.99978529303E+02  0.34215433905E+02 -0.15098594368E+04  0.15135527480E+04  0.50400001928E-02 0.  1.
</event>
<event>
 5   0  0.2001768E-06  0.3473728E+04  0.7818609E-02  0.8120044E-01
       -2   -1    0    0    0  501  0.00000000000E+00  0.00000000000E+00  0.14911941109E+04  0.14911941109E+04  0.25500000920E-02 0.  1.
        2   -1    0    0  501    0  0.00000000000E+00  0.00000000000E+00 -0.20230069862E+04  0.20230069862E+04  0.25500000920E-02 0. -1.
    10030    2    1    2    0    0  0.00000000000E+00  0.00000000000E+00 -0.53181287537E+03  0.35142010971E+04  0.34737277407E+04 0.  0.
        2    1    3    3  502    0 -0.84115892652E+03  0.77187809942E+03  0.10582952178E+04  0.15567057873E+04  0.25500000920E-02 0.  1.
       -2    1    3    3    0  502  0.84115892652E+03 -0.77187809942E+03 -0.15901080932E+04  0.19574953098E+04  0.25500000920E-02 0. -1.
</event>
<event>
 5   0  0.6630125E-07  0.3488909E+04  0.7818609E-02  0.8116423E-01
        1   -1    0    0  501    0  0.00000000000E+00  0.00000000000E+00  0.10360076080E+04  0.10360076080E+04  0.50400001928E-02 0.  1.
       -1   -1    0    0    0  501  0.00000000000E+00  0.00000000000E+00 -0.29373546000E+04  0.29373546000E+04  0.50400001928E-02 0. -1.
    10030    2    1    2    0    0  0.00000000000E+00  0.00000000000E+00 -0.19013469920E+04  0.39733622080E+04  0.34889091206E+04 0.  0.
        5    1    3    3  502    0  0.63877700084E+03  0.12519735524E+04  0.22605976140E+03  0.14235866459E+04  0.46999998093E+01 0.  1.
       -5    1    3    3    0  502 -0.63877700084E+03 -0.12519735524E+04 -0.21274067534E+04  0.25497755621E+04  0.46999998093E+01 0. -1.
</event>
<event>
 5   0  0.6890600E-07  0.2853231E+04  0.7818609E-02  0.8286930E-01
       -1   -1    0    0    0  501  0.00000000000E+00  0.00000000000E+00  0.81143295551E+03  0.81143295552E+03  0.50400001928E-02 0.  1.
        1   -1    0    0  501    0  0.00000000000E+00  0.00000000000E+00 -0.25081951040E+04  0.25081951040E+04  0.50400001928E-02 0. -1.
    10030    2    1    2    0    0  0.00000000000E+00  0.00000000000E+00 -0.16967621485E+04  0.33196280595E+04  0.28532312673E+04 0.  0.
        3    1    3    3  502    0  0.10013279278E+04  0.39370537798E+03 -0.19382982282E+04  0.22169036008E+04  0.10100000352E+00 0. -1.
       -3    1    3    3    0  502 -0.10013279278E+04 -0.39370537798E+03  0.24153607976E+03  0.11027244587E+04  0.10100000352E+00 0.  1.
</event>
<event>
 5   0  0.2073287E-06  0.3252155E+04  0.7818609E-02  0.8175177E-01
       -2   -1    0    0    0  501  0.00000000000E+00  0.00000000000E+00  0.13733487111E+04  0.13733487111E+04  0.25500000920E-02 0.  1.
        2   -1    0    0  501    0  0.00000000000E+00  0.00000000000E+00 -0.19253145021E+04  0.19253145021E+04  0.25500000920E-02 0. -1.
    10030    2    1    2    0    0  0.00000000000E+00  0.00000000000E+00 -0.55196579105E+03  0.32986632132E+04  0.32521550946E+04 0.  0.
        1    1    3    3  502    0  0.57994012407E+03  0.14558768852E+04  0.16406482088E+03  0.15756983588E+04  0.50400001928E-02 0. -1.
       -1    1    3    3    0  502 -0.57994012407E+03 -0.14558768852E+04 -0.71603061193E+03  0.17229648544E+04  0.50400001928E-02 0.  1.
</event>
<event>
 5   0  0.2023479E-06  0.3648207E+04  0.7818609E-02  0.8079538E-01
       -2   -1    0    0    0  501  0.00000000000E+00  0.00000000000E+00  0.15957679881E+04  0.15957679881E+04  0.25500000920E-02 0.  1.
        2   -1    0    0  501    0  0.00000000000E+00  0.00000000000E+00 -0.20851105881E+04  0.20851105881E+04  0.25500000920E-02 0. -1.
    10030    2    1    2    0    0  0.00000000000E+00  0.00000000000E+00 -0.48934260004E+03  0.36808785762E+04  0.36482065337E+04 0.  0.
        5    1    3    3  502    0  0.11392379742E+04 -0.96009148474E+03  0.81722363230E+03  0.16992690711E+04  0.46999998093E+01 0.  1.
       -5    1    3    3    0  502 -0.11392379742E+04  0.96009148474E+03 -0.13065662323E+04  0.19816095050E+04  0.46999998093E+01 0. -1.
</event>
<event>
 5   0  0.6630125E-07  0.2552953E+04  0.7818609E-02  0.8384360E-01
        1   -1    0    0  501    0  0.00000000000E+00  0.00000000000E+00  0.62020940755E+03  0.62020940757E+03  0.50400001928E-02 0.  1.
       -1   -1    0    0    0  501  0.00000000000E+00  0.00000000000E+00 -0.26271644131E+04  0.26271644131E+04  0.50400001928E-02 0. -1.
    10030    2    1    2    0    0  0.00000000000E+00  0.00000000000E+00 -0.20069550055E+04  0.32473738206E+04  0.25529528662E+04 0.  0.
        5    1    3    3  502    0  0.11307941175E+04  0.10094289483E+02 -0.25033254219E+03  0.11582252382E+04  0.46999998093E+01 0. -1.
       -5    1    3    3    0  502 -0.11307941175E+04 -0.10094289483E+02 -0.17566224633E+04  0.20891485824E+04  0.46999998093E+01 0.  1.
</event>
<event>
 5   0  0.2073287E-06  0.2205776E+04  0.7818609E-02  0.8516028E-01
       -2   -1    0    0    0  501  0.00000000000E+00  0.00000000000E+00  0.91342248289E+03  0.91342248289E+03  0.25500000920E-02 0.  1.
        2   -1    0    0  501    0  0.00000000000E+00  0.00000000000E+00 -0.13316530221E+04  0.13316530221E+04  0.25500000920E-02 0. -1.
    10030    2    1    2    0    0  0.00000000000E+00  0.00000000000E+00 -0.41823053920E+03  0.22450755050E+04  0.22057758814E+04 0.  0.
        1    1    3    3  502    0 -0.17269388213E+03  0.13480592222E+03  0.89105276467E+03  0.91758969210E+03  0.50400001928E-02 0.  1.
       -1    1    3    3    0  502  0.17269388213E+03 -0.13480592222E+03 -0.13092833039E+04  0.13274858129E+04  0.50400001928E-02 0. -1.
</event>
<event>
 5   0  0.6630125E-07  0.3377436E+04  0.7818609E-02  0.8143467E-01
        1   -1    0    0  501    0  0.00000000000E+00  0.00000000000E+00  0.17472627531E+04  0.17472627531E+04  0.50400001928E-02 0. -1.
       -1   -1    0    0    0  501  0.00000000000E+00  0.00000000000E+00 -0.16321346608E+04  0.16321346608E+04  0.50400001928E-02 0.  1.
    10030    2    1    2    0    0  0.00000000000E+00  0.00000000000E+00  0.11512809234E+03  0.33793974140E+04  0.33774357735E+04 0.  0.
        1    1    3    3  502    0  0.75179719620E+03  0.61228658809E+03 -0.13258720693E+04  0.16425683043E+04  0.50400001928E-02 0.  1.
       -1    1    3    3    0  502 -0.75179719620E+03 -0.61228658809E+03  0.14410001616E+04  0.17368291096E+04  0.50400001928E-02 0. -1.
</event>
<event>
 5   0  0.2020725E-06  0.3346216E+04  0.7818609E-02  0.8151234E-01
       -2   -1    0    0    0  501  0.00000000000E+00  0.00000000000E+00  0.12892866540E+04  0.12892866540E+04  0.25500000920E-02 0.  1.
        2   -1    0    0  501    0  0.00000000000E+00  0.00000000000E+00 -0.21711937773E+04  0.21711937773E+04  0.25500000920E-02 0. -1.
    10030    2    1    2    0    0  0.00000000000E+00  0.00000000000E+00 -0.88190712327E+03  0.34604804313E+04  0.33462164666E+04 0.  0.
        3    1    3    3  502    0  0.17649809176E+03  0.16344227942E+04 -0.76270749548E+03  0.18122395484E+04  0.10100000352E+00 0. -1.
       -3    1    3    3    0  502 -0.17649809176E+03 -0.16344227942E+04 -0.11919962779E+03  0.16482408829E+04  0.10100000352E+00 0.  1.
</event>
<event>
 5   0  0.1999883E-06  0.3474692E+04  0.7818609E-02  0.8119814E-01
       -2   -1    0    0    0  501  0.00000000000E+00  0.00000000000E+00  0.19338160553E+04  0.19338160553E+04  0.25500000920E-02 0.  1.
        2   -1    0    0  501    0  0.00000000000E+00  0.00000000000E+00 -0.15608371455E+04  0.15608371455E+04  0.25500000920E-02 0. -1.
    10030    2    1    2    0    0  0.00000000000E+00  0.00000000000E+00  0.37297890981E+03  0.34946532009E+04  0.34746924651E+04 0.  0.
        4    1    3    3  502    0 -0.10633225171E+04 -0.53477882923E+03 -0.10863744753E+04  0.16114758096E+04  0.12699999809E+01 0. -1.
       -4    1    3    3    0  502  0.10633225171E+04  0.53477882923E+03  0.14593533851E+04  0.18831773913E+04  0.12699999809E+01 0.  1.
</event>
<event>
 5   0  0.2001768E-06  0.3531155E+04  0.7818609E-02  0.8106446E-01
        2   -1    0    0  501    0  0.00000000000E+00  0.00000000000E+00  0.16240734986E+04  0.16240734986E+04  0.25500000920E-02 0.  1.
       -2   -1    0    0    0  501  0.00000000000E+00  0.00000000000E+00 -0.19194103909E+04  0.19194103909E+04  0.25500000920E-02 0. -1.
    10030    2    1    2    0    0  0.00000000000E+00  0.00000000000E+00 -0.29533689226E+03  0.35434838895E+04  0.35311547962E+04 0.  0.
        2    1    3    3  502    0  0.28395951456E+03 -0.38320524425E+03  0.15582034671E+04  0.16295635336E+04  0.25500000920E-02 0.  1.
       -2    1    3    3    0  502 -0.28395951456E+03  0.38320524425E+03 -0.18535403593E+04  0.19139203559E+04  0.25500000920E-02 0. -1.
</event>
<event>
 5   0  0.2001768E-06  0.3206381E+04  0.7818609E-02  0.8187134E-01
        2   -1    0    0  501    0  0.00000000000E+00  0.00000000000E+00  0.11604657416E+04  0.11604657416E+04  0.25500000920E-02 0.  1.
       -2   -1    0    0    0  501  0.00000000000E+00  0.00000000000E+00 -0.22148171639E+04  0.22148171639E+04  0.25500000920E-02 0. -1.
    10030    2    1    2    0    0  0.00000000000E+00  0.00000000000E+00 -0.10543514223E+04  0.33752829056E+04  0.32063807901E+04 0.  0.
        2    1    3    3  502    0 -0.71146463334E+03 -0.11729642174E+04 -0.14004487215E+04  0.19604294431E+04  0.25500000920E-02 0. -1.
       -2    1    3    3    0  502  0.71146463334E+03  0.11729642174E+04  0.34609729922E+03  0.14148534625E+04  0.25500000920E-02 0.  1.
</event>
<event>
 5   0  0.2073287E-06  0.3498751E+04  0.7818609E-02  0.8114086E-01
       -2   -1    0    0    0  501  0.00000000000E+00  0.00000000000E+00  0.17113445171E+04  0.17113445171E+04  0.25500000920E-02 0.  1.
        2   -1    0    0  501    0  0.00000000000E+00  0.00000000000E+00 -0.17882515781E+04  0.17882515781E+04  0.25500000920E-02 0. -1.
    10030    2    1    2    0    0  0.00000000000E+00  0.00000000000E+00 -0.76907061016E+02  0.34995960953E+04  0.34987509391E+04 0.  0.
        1    1    3    3  502    0 -0.43651970658E+03  0.49149469861E+03  0.15831098897E+04  0.17141625990E+04  0.50400001928E-02 0.  1.
       -1    1    3    3    0  502  0.43651970658E+03 -0.49149469861E+03 -0.16600169507E+04  0.17854334963E+04  0.50400001928E-02 0. -1.
</event>
<event>
 5   0  0.6630125E-07  0.3326096E+04  0.7818609E-02  0.8156287E-01
        1   -1    0    0  501    0  0.00000000000E+00  0.00000000000E+00  0.84490737143E+03  0.84490737144E+03  0.50400001928E-02 0.  1.
       -1   -1    0    0    0  501  0.00000000000E+00  0.00000000000E+00 -0.32734113937E+04  0.32734113937E+04  0.50400001928E-02 0. -1.
    10030    2    1    2    0    0  0.00000000000E+00  0.00000000000E+00 -0.24285040223E+04  0.41183187651E+04  0.33260964606E+04 0.  0.
        5    1    3    3  502    0  0.62046358328E+03  0.15339043712E+04 -0.10075470684E+04  0.19372689186E+04  0.46999998093E+01 0.  1.
       -5    1    3    3    0  502 -0.62046358328E+03 -0.15339043712E+04 -0.14209569539E+04  0.21810498465E+04  0.46999998093E+01 0. -1.
</event>
<event>
 5   0  0.6630125E-07  0.3514244E+04  0.7818609E-02  0.8110423E-01
        1   -1    0    0  501    0  0.00000000000E+00  0.00000000000E+00  0.15899169073E+04  0.15899169073E+04  0.50400001928E-02 0. -1.
       -1   -1    0    0    0  501  0.00000000000E+00  0.00000000000E+00 -0.19419110172E+04  0.19419110172E+04  0.50400001928E-02 0.  1.
    10030    2    1    2    0    0  0.00000000000E+00  0.00000000000E+00 -0.35199410988E+03  0.35318279245E+04  0.35142436789E+04 0.  0.
        1    1    3    3  502    0  0.17070891664E+04  0.25851596541E+03 -0.50396293805E+03  0.17986001694E+04  0.50400001928E-02 0. -1.
       -1    1    3    3    0  502 -0.17070891664E+04 -0.25851596541E+03  0.15196882817E+03  0.17332277551E+04  0.50400001928E-02 0.  1.
</event>
<event>
 5   0  0.2073287E-06  0.3537074E+04  0.7818609E-02  0.8105060E-01
       -2   -1    0    0    0  501  0.00000000000E+00  0.00000000000E+00  0.11908241308E+04  0.11908241308E+04  0.25500000920E-02 0.  1.
        2   -1    0    0  501    0  0.00000000000E+00  0.00000000000E+00 -0.26265201656E+04  0.26265201656E+04  0.25500000920E-02 0. -1.
    10030    2    1    2    0    0  0.00000000000E+00  0.00000000000E+00 -0.14356960348E+04  0.38173442964E+04  0.35370742674E+04 0.  0.
        1    1    3    3  502    0 -0.89573581551E+03 -0.47759446679E+03  0.84510464058E+03  0.13208485831E+04  0.50400001928E-02 0.  1.
       -1    1    3    3    0  502  0.89573581551E+03  0.47759446679E+03 -0.22808006754E+04  0.24964957133E+04  0.50400001928E-02 0. -1.
</event>
<event>
 5   0  0.7378896E-07  0.3498081E+04  0.7818609E-02  0.8114245E-01
        1   -1    0    0  501    0  0.00000000000E+00  0.00000000000E+00  0.14679939318E+04  0.14679939318E+04  0.50400001928E-02 0. -1.
       -1   -1    0    0    0  501  0.00000000000E+00  0.00000000000E+00 -0.20838936026E+04  0.20838936026E+04  0.50400001928E-02 0.  1.
    10030    2    1    2    0    0  0.00000000000E+00  0.00000000000E+00 -0.61589967080E+03  0.35518875344E+04  0.34980812816E+04 0.  0.
        2    1    3    3  502    0  0.77621070150E+03 -0.72145774484E+03  0.11049050485E+04  0.15309537867E+04  0.25500000920E-02 0. -1.
       -2    1    3    3    0  502 -0.77621070150E+03  0.72145774484E+03 -0.17208047193E+04  0.20209337477E+04  0.25500000920E-02 0.  1.
</event>
<event>
 5   0  0.6890600E-07  0.3422977E+04  0.7818609E-02  0.8132290E-01
        1   -1    0    0  501    0  0.00000000000E+00  0.00000000000E+00  0.13629541279E+04  0.13629541279E+04  0.50400001928E-02 0. -1.
       -1   -1    0    0    0  501  0.00000000000E+00  0.00000000000E+00 -0.21491497239E+04  0.21491497239E+04  0.50400001928E-02 0.  1.
    10030    2    1    2    0    0  0.00000000000E+00  0.00000000000E+00 -0.78619559604E+03  0.35121038518E+04  0.34229767674E+04 0.  0.
        3    1    3    3  502    0 -0.13708330959E+04 -0.82223672842E+02  0.65489248263E+03  0.15214559748E+04  0.10100000352E+00 0. -1.
       -3    1    3    3    0  502  0.13708330959E+04  0.82223672842E+02 -0.14410880787E+04  0.19906478769E+04  0.10100000352E+00 0.  1.
</event>
<event>
 5   0  0.6630125E-07  0.3464923E+04  0.7818609E-02  0.8122153E-01
       -1   -1    0    0    0  501  0.00000000000E+00  0.00000000000E+00  0.18815479590E+04  0.18815479590E+04  0.50400001928E-02 0. -1.
        1   -1    0    0  501    0  0.00000000000E+00  0.00000000000E+00 -0.15951879383E+04  0.15951879383E+04  0.50400001928E-02 0.  1.
    10030    2    1    2    0    0  0.00000000000E+00  0.00000000000E+00  0.28636002073E+03  0.34767358973E+04  0.34649228618E+04 0.  0.
        4    1    3    3  502    0  0.81110166375E+03  0.90395984141E+02  0.16765797656E+04  0.18646658323E+04  0.12699999809E+01 0. -1.
       -4    1    3    3    0  502 -0.81110166375E+03 -0.90395984141E+02 -0.13902197448E+04  0.16120700651E+04  0.12699999809E+01 0.  1.
</event>
<event>
 5   0  0.2073287E-06  0.3436504E+04  0.7818609E-02  0.8129005E-01
        2   -1    0    0  501    0  0.00000000000E+00  0.00000000000E+00  0.25895692416E+04  0.25895692416E+04  0.25500000920E-02 0. -1.
       -2   -1    0    0    0  501  0.00000000000E+00  0.00000000000E+00 -0.11401084969E+04  0.11401084969E+04  0.25500000920E-02 0.  1.
    10030    2    1    2    0    0  0.00000000000E+00  0.00000000000E+00  0.14494607447E+04  0.37296777386E+04  0.34365039769E+04 0.  0.
        1    1    3    3  502    0  0.13906864186E+04  0.27522106655E+03  0.17784525807E+04  0.22743458251E+04  0.50400001928E-02 0. -1.
       -1    1    3    3    0  502 -0.13906864186E+04 -0.27522106655E+03 -0.32899183602E+03  0.14553319135E+04  0.50400001928E-02 0.  1.
</event>
<event>
 5   0  0.7378896E-07  0.3514056E+04  0.7818609E-02  0.8110467E-01
        1   -1    0    0  501    0  0.00000000000E+00  0.00000000000E+00  0.21853248594E+04  0.21853248594E+04  0.50400001928E-02 0. -1.
       -1   -1    0    0    0  501  0.00000000000E+00  0.00000000000E+00 -0.14126716750E+04  0.14126716750E+04  0.50400001928E-02 0.  1.
    10030    2    1    2    0    0  0.00000000000E+00  0.00000000000E+00  0.77265318438E+03  0.35979965344E+04  0.35140555087E+04 0.  0.
        2    1    3    3  502    0  0.95642445914E+03  0.12313544353E+04  0.12157163475E+04  0.19771058972E+04  0.25500000920E-02 0. -1.
       -2    1    3    3    0  502 -0.95642445914E+03 -0.12313544353E+04 -0.44306316311E+03  0.16208906372E+04  0.25500000920E-02 0.  1.
</event>
<event>
 5   0  0.6890600E-07  0.3520719E+04  0.7818609E-02  0.8108897E-01
        1   -1    0    0  501    0  0.00000000000E+00  0.00000000000E+00  0.11206994615E+04  0.11206994615E+04  0.50400001928E-02 0. -1.
       -1   -1    0    0    0  501  0.00000000000E+00  0.00000000000E+00 -0.27651174300E+04  0.27651174300E+04  0.50400001928E-02 0.  1.
    10030    2    1    2    0    0  0.00000000000E+00  0.00000000000E+00 -0.16444179685E+04  0.38858168914E+04  0.35207190258E+04 0.  0.
        3    1    3    3  502    0 -0.90442760996E+03  0.30980871746E+03 -0.24536306901E+04  0.26333010304E+04  0.10100000352E+00 0.  1.
       -3    1    3    3    0  502  0.90442760996E+03 -0.30980871746E+03  0.80921272163E+03  0.12525158610E+04  0.10100000352E+00 0. -1.
</event>
<event>
 5   0  0.6630125E-07  0.3480269E+04  0.7818609E-02  0.8118482E-01
       -1   -1    0    0    0  501  0.00000000000E+00  0.00000000000E+00  0.13029413415E+04  0.13029413415E+04  0.50400001928E-02 0. -1.
        1   -1    0    0  501    0  0.00000000000E+00  0.00000000000E+00 -0.23240244634E+04  0.23240244634E+04  0.50400001928E-02 0.  1.
    10030    2    1    2    0    0  0.00000000000E+00  0.00000000000E+00 -0.10210831219E+04  0.36269658049E+04  0.34802686977E+04 0.  0.
        5    1    3    3  502    0  0.71592796379E+02  0.69073970154E+03  0.11522687435E+04  0.13453595100E+04  0.46999998093E+01 0. -1.
       -5    1    3    3    0  502 -0.71592796379E+02 -0.69073970154E+03 -0.21733518655E+04  0.22816062949E+04  0.46999998093E+01 0.  1.
</event>
<event>
 5   0  0.2073287E-06  0.3458493E+04  0.7818609E-02  0.8123698E-01
        2   -1    0    0  501    0  0.00000000000E+00  0.00000000000E+00  0.15475945471E+04  0.15475945471E+04  0.25500000920E-02 0.  1.
       -2   -1    0    0    0  501  0.00000000000E+00  0.00000000000E+00 -0.19322197731E+04  0.19322197731E+04  0.25500000920E-02 0. -1.
    10030    2    1    2    0    0  0.00000000000E+00  0.00000000000E+00 -0.38462522604E+03  0.34798143203E+04  0.34584926108E+04 0.  0.
        1    1    3    3  502    0  0.58596795606E+03 -0.16171676113E+04 -0.37146440389E+03  0.17597088770E+04  0.50400001928E-02 0.  1.
       -1    1    3    3    0  502 -0.58596795606E+03  0.16171676113E+04 -0.13160822145E+02  0.17201054432E+04  0.50400001928E-02 0. -1.
</event>
<event>
 5   0  0.6630125E-07  0.2918793E+04  0.7818609E-02  0.8267308E-01
        1   -1    0    0  501    0  0.00000000000E+00  0.00000000000E+00  0.12953612648E+04  0.12953612648E+04  0.50400001928E-02 0.  1.
       -1   -1    0    0    0  501  0.00000000000E+00  0.00000000000E+00 -0.16442038904E+04  0.16442038905E+04  0.50400001928E-02 0. -1.
    10030    2    1    2    0    0  0.00000000000E+00  0.00000000000E+00 -0.34884262563E+03  0.29395651553E+04  0.29187929225E+04 0.  0.
        5    1    3    3  502    0  0.57410442821E+03  0.13249452276E+04 -0.38744540395E+03  0.14950624675E+04  0.46999998093E+01 0.  1.
       -5    1    3    3    0  502 -0.57410442821E+03 -0.13249452276E+04  0.38602778320E+02  0.14445026878E+04  0.46999998093E+01 0. -1.
</event>
<event>
 5   0  0.2001768E-06  0.3476792E+04  0.7818609E-02  0.8119312E-01
       -2   -1    0    0    0  501  0.00000000000E+00  0.00000000000E+00  0.11483234922E+04  0.11483234922E+04  0.25500000920E-02 0.  1.
        2   -1    0    0  501    0  0.00000000000E+00  0.00000000000E+00 -0.26316802894E+04  0.26316802894E+04  0.25500000920E-02 0. -1.
    10030    2    1    2    0    0  0.00000000000E+00  0.00000000000E+00 -0.14833567973E+04  0.37800037816E+04  0.34767917972E+04 0.  0.
        2    1    3    3  502    0 -0.65821214476E+03  0.49306536205E+03 -0.24068017688E+04  0.25434330015E+04  0.25500000920E-02 0. -1.
       -2    1    3    3    0  502  0.65821214476E+03 -0.49306536205E+03  0.92344497153E+03  0.12365707801E+04  0.25500000920E-02 0.  1.
</event>
<event>
 5   0  0.7378896E-07  0.3503616E+04  0.7818609E-02  0.8112934E-01
        1   -1    0    0  501    0  0.00000000000E+00  0.00000000000E+00  0.16681594901E+04  0.16681594901E+04  0.50400001928E-02 0. -1.
       -1   -1    0    0    0  501  0.00000000000E+00  0.00000000000E+00 -0.18396511281E+04  0.18396511281E+04  0.50400001928E-02 0.  1.
    10030    2    1    2    0    0  0.00000000000E+00  0.00000000000E+00 -0.17149163803E+03  0.35078106182E+04  0.35036161250E+04 0.  0.
        2    1    3    3  502    0 -0.56732831100E+03  0.14242768840E+04 -0.93434855177E+03  0.17953922331E+04  0.25500000920E-02 0.  1.
       -2    1    3    3    0  502  0.56732831100E+03 -0.14242768840E+04  0.76285691374E+03  0.17124183851E+04  0.25500000920E-02 0. -1.
</event>
<event>
 5   0  0.2023479E-06  0.3223340E+04  0.7818609E-02  0.8182680E-01
       -2   -1    0    0    0  501  0.00000000000E+00  0.00000000000E+00  0.11998427328E+04  0.11998427328E+04  0.25500000920E-02 0.  1.
        2   -1    0    0  501    0  0.00000000000E+00  0.00000000000E+00 -0.21648503074E+04  0.21648503074E+04  0.25500000920E-02 0. -1.
    10030    2    1    2    0    0  0.00000000000E+00  0.00000000000E+00 -0.96500757461E+03  0.33646930402E+04  0.32233398263E+04 0.  0.
        5    1    3    3  502    0 -0.78192795580E+03  0.67081258027E+03 -0.17762319067E+04  0.20533929781E+04  0.46999998093E+01 0. -1.
       -5    1    3    3    0  502  0.78192795580E+03 -0.67081258027E+03  0.81122433211E+03  0.13113000621E+04  0.46999998093E+01 0.  1.
</event>
<event>
 5   0  0.1999883E-06  0.3554519E+04  0.7818609E-02  0.8100990E-01
        2   -1    0    0  501    0  0.00000000000E+00  0.00000000000E+00  0.27429342660E+04  0.27429342660E+04  0.25500000920E-02 0. -1.
       -2   -1    0    0    0  501  0.00000000000E+00  0.00000000000E+00 -0.11515594575E+04  0.11515594575E+04  0.25500000920E-02 0.  1.
    10030    2    1    2    0    0  0.00000000000E+00  0.00000000000E+00  0.15913748084E+04  0.38944937235E+04  0.35545193179E+04 0.  0.
        4    1    3    3  502    0  0.91090633348E+03 -0.52179484539E+03  0.23669480038E+04  0.25892981047E+04  0.12699999809E+01 0. -1.
       -4    1    3    3    0  502 -0.91090633348E+03  0.52179484539E+03 -0.77557319540E+03  0.13051956188E+04  0.12699999809E+01 0.  1.
</event>
<event>
 5   0  0.1999883E-06  0.3571421E+04  0.7818609E-02  0.8097070E-01
       -2   -1    0    0    0  501  0.00000000000E+00  0.00000000000E+00  0.10808820579E+04  0.10808820579E+04  0.25500000920E-02 0.  1.
        2   -1    0    0  501    0  0.00000000000E+00  0.00000000000E+00 -0.29501478064E+04  0.29501478064E+04  0.25500000920E-02 0. -1.
    10030    2    1    2    0    0  0.00000000000E+00  0.00000000000E+00 -0.18692657485E+04  0.40310298643E+04  0.35714209117E+04 0.  0.
        4    1    3    3  502    0  0.12018892391E+04  0.11284494470E+03  0.55056658874E+03  0.13267994973E+04  0.12699999809E+01 0.  1.
       -4    1    3    3    0  502 -0.12018892391E+04 -0.11284494470E+03 -0.24198323372E+04  0.27042303670E+04  0.12699999809E+01 0. -1.
</event>
<event>
 5   0  0.6630125E-07  0.3267845E+04  0.7818609E-02  0.8171126E-01
       -1   -1    0    0    0  501  0.00000000000E+00  0.00000000000E+00  0.16136548961E+04  0.16136548961E+04  0.50400001928E-02 0. -1.
        1   -1    0    0  501    0  0.00000000000E+00  0.00000000000E+00 -0.16544446856E+04  0.16544446857E+04  0.50400001928E-02 0.  1.
    10030    2    1    2    0    0  0.00000000000E+00  0.00000000000E+00 -0.40789789568E+02  0.32680995817E+04  0.32678450192E+04 0.  0.
        5    1    3    3  502    0 -0.15657811963E+04 -0.46086226978E+03  0.54550190176E+02  0.16331143866E+04  0.46999998093E+01 0. -1.
       -5    1    3    3    0  502  0.15657811963E+04  0.46086226978E+03 -0.95339979744E+02  0.16349851951E+04  0.46999998093E+01 0.  1.
</event>
<event>
 5   0  0.6630125E-07  0.3478499E+04  0.7818609E-02  0.8118904E-01
       -1   -1    0    0    0  501  0.00000000000E+00  0.00000000000E+00  0.19901607999E+04  0.19901607999E+04  0.50400001928E-02 0. -1.
        1   -1    0    0  501    0  0.00000000000E+00  0.00000000000E+00 -0.15199718558E+04  0.15199718558E+04  0.50400001928E-02 0.  1.
    10030    2    1    2    0    0  0.00000000000E+00  0.00000000000E+00  0.47018894414E+03  0.35101326557E+04  0.34784987592E+04 0.  0.
        5    1    3    3  502    0  0.16629909110E+04  0.45878509050E+03  0.45833880999E+03  0.17849703314E+04  0.46999998093E+01 0.  1.
       -5    1    3    3    0  502 -0.16629909110E+04 -0.45878509050E+03  0.11850134150E+02  0.17251623243E+04  0.46999998093E+01 0. -1.
</event>
<event>
 5   0  0.6630125E-07  0.3478671E+04  0.7818609E-02  0.8118863E-01
       -1   -1    0    0    0  501  0.00000000000E+00  0.00000000000E+00  0.11264696269E+04  0.11264696269E+04  0.50400001928E-02 0. -1.
        1   -1    0    0  501    0  0.00000000000E+00  0.00000000000E+00 -0.26856359062E+04  0.26856359062E+04  0.50400001928E-02 0.  1.
    10030    2    1    2    0    0  0.00000000000E+00  0.00000000000E+00 -0.15591662794E+04  0.38121055331E+04  0.34786705950E+04 0.  0.
        5    1    3    3  502    0 -0.15218995685E+04 -0.81116559232E+03 -0.53186918787E+03  0.18047367780E+04  0.46999998093E+01 0. -1.
       -5    1    3    3    0  502  0.15218995685E+04  0.81116559232E+03 -0.10272970915E+04  0.20073687551E+04  0.46999998093E+01 0.  1.
</event>
<event>
 5   0  0.1999883E-06  0.2943092E+04  0.7818609E-02  0.8260171E-01
        2   -1    0    0  501    0  0.00000000000E+00  0.00000000000E+00  0.13760393453E+04  0.13760393453E+04  0.25500000920E-02 0.  1.
       -2   -1    0    0    0  501  0.00000000000E+00  0.00000000000E+00 -0.15736816535E+04  0.15736816535E+04  0.25500000920E-02 0. -1.
    10030    2    1    2    0    0  0.00000000000E+00  0.00000000000E+00 -0.19764230815E+03  0.29497209988E+04  0.29430921645E+04 0.  0.
        4    1    3    3  502    0 -0.39494840824E+03  0.11057990658E+03  0.13175972578E+04  0.13799551831E+04  0.12699999809E+01 0.  1.
       -4    1    3    3    0  502  0.39494840824E+03 -0.11057990658E+03 -0.15152395659E+04  0.15697658156E+04  0.12699999809E+01 0. -1.
</event>
<event>
 5   0  0.2023479E-06  0.3521821E+04  0.7818609E-02  0.8108638E-01
        2   -1    0    0  501    0  0.00000000000E+00  0.00000000000E+00  0.19965564756E+04  0.19965564756E+04  0.25500000920E-02 0.  1.
       -2   -1    0    0    0  501  0.00000000000E+00  0.00000000000E+00 -0.15530770754E+04  0.15530770754E+04  0.25500000920E-02 0. -1.
    10030    2    1    2    0    0  0.00000000000E+00  0.00000000000E+00  0.44347940021E+03  0.35496335510E+04  0.35218211720E+04 0.  0.
        5    1    3    3  502    0 -0.36793365597E+03  0.52624419262E+03  0.18743455763E+04  0.19812878526E+04  0.46999998093E+01 0.  1.
       -5    1    3    3    0  502  0.36793365597E+03 -0.52624419262E+03 -0.14308661761E+04  0.15683456983E+04  0.46999998093E+01 0. -1.
</event>
<event>
 5   0  0.6890600E-07  0.3505267E+04  0.7818609E-02  0.8112543E-01
        1   -1    0    0  501    0  0.00000000000E+00  0.00000000000E+00  0.19014125543E+04  0.19014125543E+04  0.50400001928E-02 0. -1.
       -1   -1    0    0    0  501  0.00000000000E+00  0.00000000000E+00 -0.16154962700E+04  0.16154962700E+04  0.50400001928E-02 0.  1.
    10030    2    1    2    0    0  0.00000000000E+00  0.00000000000E+00  0.28591628434E+03  0.35169088243E+04  0.35052674016E+04 0.  0.
        3    1    3    3  502    0  0.54786418621E+02 -0.17515820832E+04  0.11672684686E+03  0.17563218705E+04  0.10100000352E+00 0.  1.
       -3    1    3    3    0  502 -0.54786418621E+02  0.17515820832E+04  0.16918943747E+03  0.17605869538E+04  0.10100000352E+00 0. -1.
</event>
<event>
 5   0  0.1999883E-06  0.3435538E+04  0.7818609E-02  0.8129239E-01
       -2   -1    0    0    0  501  0.00000000000E+00  0.00000000000E+00  0.18281763768E+04  0.18281763768E+04  0.25500000920E-02 0. -1.
        2   -1    0    0  501    0  0.00000000000E+00  0.00000000000E+00 -0.16140291555E+04  0.16140291555E+04  0.25500000920E-02 0.  1.
    10030    2    1    2    0    0  0.00000000000E+00  0.00000000000E+00  0.21414722131E+03  0.34422055322E+04  0.34355377881E+04 0.  0.
        4    1    3    3  502    0  0.13240232579E+04  0.58158536186E+03 -0.82179050294E+03  0.16633160747E+04  0.12699999809E+01 0. -1.
       -4    1    3    3    0  502 -0.13240232579E+04 -0.58158536186E+03  0.10359377242E+04  0.17788894575E+04  0.12699999809E+01 0.  1.
</event>
<event>
 5   0  0.2073287E-06  0.3505992E+04  0.7818609E-02  0.8112371E-01
        2   -1    0    0  501    0  0.00000000000E+00  0.00000000000E+00  0.21857475604E+04  0.21857475604E+04  0.25500000920E-02 0.  1.
       -2   -1    0    0    0  501  0.00000000000E+00  0.00000000000E+00 -0.14059236525E+04  0.14059236525E+04  0.25500000920E-02 0. -1.
    10030    2    1    2    0    0  0.00000000000E+00  0.00000000000E+00  0.77982390793E+03  0.35916712129E+04  0.35059915537E+04 0.  0.
        1    1    3    3  502    0 -0.92675693372E+03 -0.11683226789E+04 -0.55409418886E+03  0.15908729259E+04  0.50400001928E-02 0. -1.
       -1    1    3    3    0  502  0.92675693372E+03  0.11683226789E+04  0.13339180968E+04  0.20007982870E+04  0.50400001928E-02 0.  1.
</event>
<event>
 5   0  0.6890600E-07  0.3466028E+04  0.7818609E-02  0.8121888E-01
       -1   -1    0    0    0  501  0.00000000000E+00  0.00000000000E+00  0.15632754381E+04  0.15632754381E+04  0.50400001928E-02 0. -1.
        1   -1    0    0  501    0  0.00000000000E+00  0.00000000000E+00 -0.19211823363E+04  0.19211823363E+04  0.50400001928E-02 0.  1.
    10030    2    1    2    0    0  0.00000000000E+00  0.00000000000E+00 -0.35790689821E+03  0.34844577745E+04  0.34660277890E+04 0.  0.
        3    1    3    3  502    0  0.41150559755E+02  0.16484417282E+04 -0.71497111839E+03  0.17972860680E+04  0.10100000352E+00 0.  1.
       -3    1    3    3    0  502 -0.41150559755E+02 -0.16484417282E+04  0.35706422017E+03  0.16871717065E+04  0.10100000352E+00 0. -1.
</event>
<event>
 5   0  0.2020725E-06  0.3249399E+04  0.7818609E-02  0.8175892E-01
        2   -1    0    0  501    0  0.00000000000E+00  0.00000000000E+00  0.15741050427E+04  0.15741050427E+04  0.25500000920E-02 0. -1.
       -2   -1    0    0    0  501  0.00000000000E+00  0.00000000000E+00 -0.16769197487E+04  0.16769197487E+04  0.25500000920E-02 0.  1.
    10030    2    1    2    0    0  0.00000000000E+00  0.00000000000E+00 -0.10281470599E+03  0.32510247915E+04  0.32493986107E+04 0.  0.
        3    1    3    3  502    0  0.53198277871E+03 -0.14409042456E+04 -0.58123549841E+03  0.16422683815E+04  0.10100000352E+00 0. -1.
       -3    1    3    3    0  502 -0.53198277871E+03  0.14409042456E+04  0.47842079241E+03  0.16087564100E+04  0.10100000352E+00 0.  1.
</event>
<event>
 5   0  0.6890600E-07  0.3665330E+04  0.7818609E-02  0.8075689E-01
        1   -1    0    0  501    0  0.00000000000E+00  0.00000000000E+00  0.22663834368E+04  0.22663834368E+04  0.50400001928E-02 0.  1.
       -1   -1    0    0    0  501  0.00000000000E+00  0.00000000000E+00 -0.14819471237E+04  0.14819471238E+04  0.50400001928E-02 0. -1.
    10030    2    1    2    0    0  0.00000000000E+00  0.00000000000E+00  0.78443631308E+03  0.37483305606E+04  0.36653296799E+04 0.  0.
        3    1    3    3  502    0  0.34402921475E+03  0.11071415203E+04 -0.10592683366E+04  0.15704037270E+04  0.10100000352E+00 0. -1.
       -3    1    3    3    0  502 -0.34402921475E+03 -0.11071415203E+04  0.18437046497E+04  0.21779268336E+04  0.10100000352E+00 0.  1.
</event>
<event>
 5   0  0.6630125E-07  0.3505992E+04  0.7818609E-02  0.8112371E-01
        1   -1    0    0  501    0  0.00000000000E+00  0.00000000000E+00  0.20042177573E+04  0.20042177574E+04  0.50400001928E-02 0. -1.
       -1   -1    0    0    0  501  0.00000000000E+00  0.00000000000E+00 -0.15332641783E+04  0.15332641783E+04  0.50400001928E-02 0.  1.
    10030    2    1    2    0    0  0.00000000000E+00  0.00000000000E+00  0.47095357908E+03  0.35374819356E+04  0.35059921807E+04 0.  0.
        5    1    3    3  502    0 -0.94662537888E+03  0.11714435102E+03  0.17194521342E+04  0.19663062169E+04  0.46999998093E+01 0. -1.
       -5    1    3    3    0  502  0.94662537888E+03 -0.11714435102E+03 -0.12484985551E+04  0.15711757187E+04  0.46999998093E+01 0.  1.
</event>
<event>
 5   0  0.6630125E-07  0.3361820E+04  0.7818609E-02  0.8147341E-01
       -1   -1    0    0    0  501  0.00000000000E+00  0.00000000000E+00  0.10609831728E+04  0.10609831728E+04  0.50400001928E-02 0. -1.
        1   -1    0    0  501    0  0.00000000000E+00  0.00000000000E+00 -0.26630561685E+04  0.26630561685E+04  0.50400001928E-02 0.  1.
    10030    2    1    2    0    0  0.00000000000E+00  0.00000000000E+00 -0.16020729958E+04  0.37240393413E+04  0.33618196162E+04 0.  0.
        1    1    3    3  502    0  0.14606174631E+03 -0.14657060709E+04 -0.16981250507E+04  0.22479450634E+04  0.50400001928E-02 0.  1.
       -1    1    3    3    0  502 -0.14606174631E+03  0.14657060709E+04  0.96052054990E+02  0.14760942779E+04  0.50400001928E-02 0. -1.
</event>
<event>
 5   0  0.6630125E-07  0.3542487E+04  0.7818609E-02  0.8103794E-01
       -1   -1    0    0    0  501  0.00000000000E+00  0.00000000000E+00  0.15918798460E+04  0.15918798460E+04  0.50400001928E-02 0. -1.
        1   -1    0    0  501    0  0.00000000000E+00  0.00000000000E+00 -0.19708166529E+04  0.19708166529E+04  0.50400001928E-02 0.  1.
    10030    2    1    2    0    0  0.00000000000E+00  0.00000000000E+00 -0.37893680692E+03  0.35626964989E+04  0.35424868722E+04 0.  0.
        1    1    3    3  502    0  0.16836283595E+03 -0.78294871785E+03 -0.17783385082E+04  0.19503442232E+04  0.50400001928E-02 0.  1.
       -1    1    3    3    0  502 -0.16836283595E+03  0.78294871785E+03  0.13994017013E+04  0.16123522757E+04  0.50400001928E-02 0. -1.
</event>
<event>
 5   0  0.2020725E-06  0.2527370E+04  0.7818609E-02  0.8393299E-01
       -2   -1    0    0    0  501  0.00000000000E+00  0.00000000000E+00  0.87457284656E+03  0.87457284657E+03  0.25500000920E-02 0. -1.
        2   -1    0    0  501    0  0.00000000000E+00  0.00000000000E+00 -0.18259191682E+04  0.18259191682E+04  0.25500000920E-02 0.  1.
    10030    2    1    2    0    0  0.00000000000E+00  0.00000000000E+00 -0.95134632162E+03  0.27004920148E+04  0.25273696402E+04 0.  0.
        3    1    3    3  502    0  0.80630819012E+03 -0.56419571370E+03 -0.13227237813E+04  0.16486503306E+04  0.10100000352E+00 0.  1.
       -3    1    3    3    0  502 -0.80630819012E+03  0.56419571370E+03  0.37137745965E+03  0.10518416842E+04  0.10100000352E+00 0. -1.
</event>
<event>
 5   0  0.6630125E-07  0.3280215E+04  0.7818609E-02  0.8167948E-01
       -1   -1    0    0    0  501  0.00000000000E+00  0.00000000000E+00  0.22839246197E+04  0.22839246197E+04  0.50400001928E-02 0. -1.
        1   -1    0    0  501    0  0.00000000000E+00  0.00000000000E+00 -0.11777767645E+04  0.11777767645E+04  0.50400001928E-02 0.  1.
    10030    2    1    2    0    0  0.00000000000E+00  0.00000000000E+00  0.11061478552E+04  0.34617013842E+04  0.32802154496E+04 0.  0.
        1    1    3    3  502    0  0.12851839263E+04  0.13709317640E+03 -0.51247294381E+03  0.13903671392E+04  0.50400001928E-02 0.  1.
       -1    1    3    3    0  502 -0.12851839263E+04 -0.13709317640E+03  0.16186207991E+04  0.20713342450E+04  0.50400001928E-02 0. -1.
</event>
<event>
 5   0  0.7378896E-07  0.3644394E+04  0.7818609E-02  0.8080398E-01
       -1   -1    0    0    0  501  0.00000000000E+00  0.00000000000E+00  0.15130045286E+04  0.15130045287E+04  0.50400001928E-02 0.  1.
        1   -1    0    0  501    0  0.00000000000E+00  0.00000000000E+00 -0.21945745745E+04  0.21945745745E+04  0.50400001928E-02 0. -1.
    10030    2    1    2    0    0  0.00000000000E+00  0.00000000000E+00 -0.68157004587E+03  0.37075791032E+04  0.36443936504E+04 0.  0.
        2    1    3    3  502    0  0.14056849708E+04  0.30780127838E+03 -0.14780709460E+04  0.20628585956E+04  0.25500000920E-02 0. -1.
       -2    1    3    3    0  502 -0.14056849708E+04 -0.30780127838E+03  0.79650090018E+03  0.16447205076E+04  0.25500000920E-02 0.  1.
</event>
<event>
 5   0  0.6630125E-07  0.3497900E+04  0.7818609E-02  0.8114288E-01
       -1   -1    0    0    0  501  0.00000000000E+00  0.00000000000E+00  0.15546152219E+04  0.15546152219E+04  0.50400001928E-02 0. -1.
        1   -1    0    0  501    0  0.00000000000E+00  0.00000000000E+00 -0.19675775306E+04  0.19675775306E+04  0.50400001928E-02 0.  1.
    10030    2    1    2    0    0  0.00000000000E+00  0.00000000000E+00 -0.41296230865E+03  0.35221927525E+04  0.34978999296E+04 0.  0.
        5    1    3    3  502    0 -0.45772009390E+03 -0.14984099339E+04 -0.98909435766E+03  0.18528544877E+04  0.46999998093E+01 0.  1.
       -5    1    3    3    0  502  0.45772009390E+03  0.14984099339E+04  0.57613204901E+03  0.16693382648E+04  0.46999998093E+01 0. -1.
</event>
<event>
 5   0  0.1999883E-06  0.2295141E+04  0.7818609E-02  0.8479839E-01
       -2   -1    0    0    0  501  0.00000000000E+00  0.00000000000E+00  0.87835949396E+03  0.87835949396E+03  0.25500000920E-02 0.  1.
        2   -1    0    0  501    0  0.00000000000E+00  0.00000000000E+00 -0.14992930646E+04  0.14992930646E+04  0.25500000920E-02 0. -1.
    10030    2    1    2    0    0  0.00000000000E+00  0.00000000000E+00 -0.62093357068E+03  0.23776525586E+04  0.22951412136E+04 0.  0.
        4    1    3    3  502    0  0.89983112619E+02  0.11270184198E+04 -0.10680513142E+03  0.11356392156E+04  0.12699999809E+01 0.  1.
       -4    1    3    3    0  502 -0.89983112619E+02 -0.11270184198E+04 -0.51412843925E+03  0.12420133430E+04  0.12699999809E+01 0. -1.
</event>
<event>
 5   0  0.2020725E-06  0.3446749E+04  0.7818609E-02  0.8126527E-01
       -2   -1    0    0    0  501  0.00000000000E+00  0.00000000000E+00  0.16301728914E+04  0.16301728914E+04  0.25500000920E-02 0.  1.
        2   -1    0    0  501    0  0.00000000000E+00  0.00000000000E+00 -0.18219041919E+04  0.18219041919E+04  0.25500000920E-02 0. -1.
    10030    2    1    2    0    0  0.00000000000E+00  0.00000000000E+00 -0.19173130044E+03  0.34520770833E+04  0.34467485109E+04 0.  0.
        3    1    3    3  502    0  0.61191074064E+03  0.14466024021E+04  0.61440314978E+03  0.16865896077E+04  0.10100000352E+00 0. -1.
       -3    1    3    3    0  502 -0.61191074064E+03 -0.14466024021E+04 -0.80613445022E+03  0.17654874755E+04  0.10100000352E+00 0.  1.
</event>
<event>
 5   0  0.6630125E-07  0.3509546E+04  0.7818609E-02  0.8111531E-01
        1   -1    0    0  501    0  0.00000000000E+00  0.00000000000E+00  0.24835955450E+04  0.24835955450E+04  0.50400001928E-02 0. -1.
       -1   -1    0    0    0  501  0.00000000000E+00  0.00000000000E+00 -0.12398268284E+04  0.12398268284E+04  0.50400001928E-02 0.  1.
    10030    2    1    2    0    0  0.00000000000E+00  0.00000000000E+00  0.12437687166E+04  0.37234223735E+04  0.35095460605E+04 0.  0.
        4    1    3    3  502    0 -0.15238469021E+04 -0.41356840821E+02  0.15439925103E+04  0.21697313783E+04  0.12699999809E+01 0. -1.
       -4    1    3    3    0  502  0.15238469021E+04  0.41356840821E+02 -0.30022379374E+03  0.15536909952E+04  0.12699999809E+01 0.  1.
</event>
<event>
 5   0  0.7378896E-07  0.3493023E+04  0.7818609E-02  0.8115445E-01
        1   -1    0    0  501    0  0.00000000000E+00  0.00000000000E+00  0.21368096494E+04  0.21368096494E+04  0.50400001928E-02 0.  1.
       -1   -1    0    0    0  501  0.00000000000E+00  0.00000000000E+00 -0.14275030733E+04  0.14275030733E+04  0.50400001928E-02 0. -1.
    10030    2    1    2    0    0  0.00000000000E+00  0.00000000000E+00  0.70930657615E+03  0.35643127227E+04  0.34930229553E+04 0.  0.
        2    1    3    3  502    0  0.14268463107E+04  0.98427925910E+03  0.57256808475E+03  0.18255219161E+04  0.25500000920E-02 0.  1.
       -2    1    3    3    0  502 -0.14268463107E+04 -0.98427925910E+03  0.13673849141E+03  0.17387908067E+04  0.25500000920E-02 0. -1.
</event>
<event>
 5   0  0.6630125E-07  0.3652295E+04  0.7818609E-02  0.8078617E-01
       -1   -1    0    0    0  501  0.00000000000E+00  0.00000000000E+00  0.14983710324E+04  0.14983710324E+04  0.50400001928E-02 0. -1.
        1   -1    0    0  501    0  0.00000000000E+00  0.00000000000E+00 -0.22256266576E+04  0.22256266576E+04  0.50400001928E-02 0.  1.
    10030    2    1    2    0    0  0.00000000000E+00  0.00000000000E+00 -0.72725562516E+03  0.37239976900E+04  0.36522949020E+04 0.  0.
        4    1    3    3  502    0  0.13227562379E+03  0.48726763318E+03 -0.21530421335E+04  0.22114517016E+04  0.12699999809E+01 0.  1.
       -4    1    3    3    0  502 -0.13227562379E+03 -0.48726763318E+03  0.14257865083E+04  0.15125459884E+04  0.12699999809E+01 0. -1.
</event>
<event>
 5   0  0.6630125E-07  0.3418693E+04  0.7818609E-02  0.8133334E-01
       -1   -1    0    0    0  501  0.00000000000E+00  0.00000000000E+00  0.10052166943E+04  0.10052166943E+04  0.50400001928E-02 0. -1.
        1   -1    0    0  501    0  0.00000000000E+00  0.00000000000E+00 -0.29067025812E+04  0.29067025812E+04  0.50400001928E-02 0.  1.
    10030    2    1    2    0    0  0.00000000000E+00  0.00000000000E+00 -0.19014858869E+04  0.39119192756E+04  0.34186932943E+04 0.  0.
        1    1    3    3  502    0 -0.10456160164E+04  0.13398691973E+04 -0.74192125707E+03  0.18544566513E+04  0.50400001928E-02 0.  1.
       -1    1    3    3    0  502  0.10456160164E+04 -0.13398691973E+04 -0.11595646298E+04  0.20574626243E+04  0.50400001928E-02 0. -1.
</event>
<event>
 5   0  0.6630125E-07  0.3522476E+04  0.7818609E-02  0.8108484E-01
        3   -1    0    0  501    0  0.00000000000E+00  0.00000000000E+00  0.14849574728E+04  0.14849574762E+04  0.10100000352E+00 0.  1.
       -3   -1    0    0    0  501  0.00000000000E+00  0.00000000000E+00 -0.20889216938E+04  0.20889216963E+04  0.10100000352E+00 0. -1.
    10030    2    1    2    0    0  0.00000000000E+00  0.00000000000E+00 -0.60396422107E+03  0.35738791725E+04  0.35224763391E+04 0.  0.
        1    1    3    3  502    0 -0.76735779157E+02  0.38400883171E+03  0.14402272962E+04  0.14925166087E+04  0.50400001928E-02 0.  1.
       -1    1    3    3    0  502  0.76735779157E+02 -0.38400883171E+03 -0.20441915173E+04  0.20813625638E+04  0.50400001928E-02 0. -1.
</event>
<event>
 5   0  0.6630125E-07  0.2701099E+04  0.7818609E-02  0.8334649E-01
       -1   -1    0    0    0  501  0.00000000000E+00  0.00000000000E+00  0.10957703564E+04  0.10957703564E+04  0.50400001928E-02 0. -1.
        1   -1    0    0  501    0  0.00000000000E+00  0.00000000000E+00 -0.16645671688E+04  0.16645671688E+04  0.50400001928E-02 0.  1.
    10030    2    1    2    0    0  0.00000000000E+00  0.00000000000E+00 -0.56879681236E+03  0.27603375252E+04  0.27010985616E+04 0.  0.
        4    1    3    3  502    0 -0.45066507263E+02  0.73184220133E+03  0.87465284834E+03  0.11413339633E+04  0.12699999809E+01 0. -1.
       -4    1    3    3    0  502  0.45066507263E+02 -0.73184220133E+03 -0.14434496607E+04  0.16190035619E+04  0.12699999809E+01 0.  1.
</event>
<event>
 5   0  0.1999883E-06  0.2803244E+04  0.7818609E-02  0.8302262E-01
       -2   -1    0    0    0  501  0.00000000000E+00  0.00000000000E+00  0.94529435892E+03  0.94529435893E+03  0.25500000920E-02 0.  1.
        2   -1    0    0  501    0  0.00000000000E+00  0.00000000000E+00 -0.20782351948E+04  0.20782351948E+04  0.25500000920E-02 0. -1.
    10030    2    1    2    0    0  0.00000000000E+00  0.00000000000E+00 -0.11329408359E+04  0.30235295537E+04  0.28032438397E+04 0.  0.
        4    1    3    3  502    0 -0.66167018401E+03 -0.17701277820E+03 -0.18854322811E+04  0.20059903927E+04  0.12699999809E+01 0. -1.
       -4    1    3    3    0  502  0.66167018401E+03  0.17701277820E+03  0.75249144526E+03  0.10175391610E+04  0.12699999809E+01 0.  1.
</event>
<event>
 5   0  0.1999883E-06  0.3612632E+04  0.7818609E-02  0.8087604E-01
        2   -1    0    0  501    0  0.00000000000E+00  0.00000000000E+00  0.25006910590E+04  0.25006910590E+04  0.25500000920E-02 0. -1.
       -2   -1    0    0    0  501  0.00000000000E+00  0.00000000000E+00 -0.13047500298E+04  0.13047500298E+04  0.25500000920E-02 0.  1.
    10030    2    1    2    0    0  0.00000000000E+00  0.00000000000E+00  0.11959410292E+04  0.38054410888E+04  0.36126315803E+04 0.  0.
        4    1    3    3  502    0  0.96029373268E+03  0.15131021447E+04  0.83616506848E+03  0.19775782634E+04  0.12699999809E+01 0. -1.
       -4    1    3    3    0  502 -0.96029373268E+03 -0.15131021447E+04  0.35977596071E+03  0.18278628253E+04  0.12699999809E+01 0.  1.
</event>
<event>
 5   0  0.6630125E-07  0.2352805E+04  0.7818609E-02  0.8457387E-01
        1   -1    0    0  501    0  0.00000000000E+00  0.00000000000E+00  0.86434791217E+03  0.86434791218E+03  0.50400001928E-02 0. -1.
       -1   -1    0    0    0  501  0.00000000000E+00  0.00000000000E+00 -0.16011177499E+04  0.16011177499E+04  0.50400001928E-02 0.  1.
    10030    2    1    2    0    0  0.00000000000E+00  0.00000000000E+00 -0.73676983777E+03  0.24654656621E+04  0.23528049510E+04 0.  0.
        1    1    3    3  502    0 -0.71048293641E+02  0.70781288734E+03 -0.13501997350E+04  0.15261344200E+04  0.50400001928E-02 0.  1.
       -1    1    3    3    0  502  0.71048293641E+02 -0.70781288734E+03  0.61342989725E+03  0.93933124210E+03  0.50400001928E-02 0. -1.
</event>
<event>
 5   0  0.6630125E-07  0.3470605E+04  0.7818609E-02  0.8120792E-01
       -1   -1    0    0    0  501  0.00000000000E+00  0.00000000000E+00  0.16854934593E+04  0.16854934593E+04  0.50400001928E-02 0. -1.
        1   -1    0    0  501    0  0.00000000000E+00  0.00000000000E+00 -0.17865836503E+04  0.17865836504E+04  0.50400001928E-02 0.  1.
    10030    2    1    2    0    0  0.00000000000E+00  0.00000000000E+00 -0.10109019102E+03  0.34720771097E+04  0.34706051675E+04 0.  0.
        4    1    3    3  502    0 -0.10244222177E+04  0.12687751259E+04  0.54303802538E+03  0.17187562684E+04  0.12699999809E+01 0. -1.
       -4    1    3    3    0  502  0.10244222177E+04 -0.12687751259E+04 -0.64412821640E+03  0.17533208413E+04  0.12699999809E+01 0.  1.
</event>
<event>
 5   0  0.1999883E-06  0.3506094E+04  0.7818609E-02  0.8112347E-01
       -2   -1    0    0    0  501  0.00000000000E+00  0.00000000000E+00  0.12372298585E+04  0.12372298585E+04  0.25500000920E-02 0.  1.
        2   -1    0    0  501    0  0.00000000000E+00  0.00000000000E+00 -0.24839145287E+04  0.24839145287E+04  0.25500000920E-02 0. -1.
    10030    2    1    2    0    0  0.00000000000E+00  0.00000000000E+00 -0.12466846702E+04  0.37211443871E+04  0.35060936786E+04 0.  0.
        4    1    3    3  502    0 -0.79004183815E+03  0.29946399989E+03 -0.22535654919E+04  0.24067413306E+04  0.12699999809E+01 0. -1.
       -4    1    3    3    0  502  0.79004183815E+03 -0.29946399989E+03  0.10068808216E+04  0.13144030566E+04  0.12699999809E+01 0.  1.
</event>
<event>
 5   0  0.1999883E-06  0.3129292E+04  0.7818609E-02  0.8207745E-01
        2   -1    0    0  501    0  0.00000000000E+00  0.00000000000E+00  0.22085472143E+04  0.22085472143E+04  0.25500000920E-02 0. -1.
       -2   -1    0    0    0  501  0.00000000000E+00  0.00000000000E+00 -0.11084742991E+04  0.11084742991E+04  0.25500000920E-02 0.  1.
    10030    2    1    2    0    0  0.00000000000E+00  0.00000000000E+00  0.11000729152E+04  0.33170215134E+04  0.31292924602E+04 0.  0.
        4    1    3    3  502    0  0.10315665482E+04 -0.97322664576E+03 -0.15053378173E+03  0.14261702842E+04  0.12699999809E+01 0.  1.
       -4    1    3    3    0  502 -0.10315665482E+04  0.97322664576E+03  0.12506066969E+04  0.18908512291E+04  0.12699999809E+01 0. -1.
</event>
<event>
 5   0  0.2023479E-06  0.3567788E+04  0.7818609E-02  0.8097910E-01
       -2   -1    0    0    0  501  0.00000000000E+00  0.00000000000E+00  0.16556599679E+04  0.16556599679E+04  0.25500000920E-02 0.  1.
        2   -1    0    0  501    0  0.00000000000E+00  0.00000000000E+00 -0.19220598604E+04  0.19220598604E+04  0.25500000920E-02 0. -1.
    10030    2    1    2    0    0  0.00000000000E+00  0.00000000000E+00 -0.26639989248E+03  0.35777198283E+04  0.35677878675E+04 0.  0.
        5    1    3    3  502    0  0.81340408523E+03 -0.13431141920E+04  0.71572244409E+03  0.17256484710E+04  0.46999998093E+01 0.  1.
       -5    1    3    3    0  502 -0.81340408523E+03  0.13431141920E+04 -0.98212233657E+03  0.18520713573E+04  0.46999998093E+01 0. -1.
</event>
<event>
 5   0  0.2073287E-06  0.3456246E+04  0.7818609E-02  0.8124238E-01
        2   -1    0    0  501    0  0.00000000000E+00  0.00000000000E+00  0.19195391297E+04  0.19195391297E+04  0.25500000920E-02 0.  1.
       -2   -1    0    0    0  501  0.00000000000E+00  0.00000000000E+00 -0.15557945585E+04  0.15557945585E+04  0.25500000920E-02 0. -1.
    10030    2    1    2    0    0  0.00000000000E+00  0.00000000000E+00  0.36374457120E+03  0.34753336883E+04  0.34562456701E+04 0.  0.
        1    1    3    3  502    0  0.72052730990E+03 -0.79303595113E+03  0.15452153959E+04  0.18803606685E+04  0.50400001928E-02 0.  1.
       -1    1    3    3    0  502 -0.72052730990E+03  0.79303595113E+03 -0.11814708247E+04  0.15949730197E+04  0.50400001928E-02 0. -1.
</event>
<event>
 5   0  0.6630125E-07  0.3468610E+04  0.7818609E-02  0.8121269E-01
        1   -1    0    0  501    0  0.00000000000E+00  0.00000000000E+00  0.18844997698E+04  0.18844997698E+04  0.50400001928E-02 0.  1.
       -1   -1    0    0    0  501  0.00000000000E+00  0.00000000000E+00 -0.15960811522E+04  0.15960811522E+04  0.50400001928E-02 0. -1.
    10030    2    1    2    0    0  0.00000000000E+00  0.00000000000E+00  0.28841861757E+03  0.34805809220E+04  0.34686104215E+04 0.  0.
        5    1    3    3  502    0  0.11860848145E+04 -0.10517148784E+04 -0.56170345269E+03  0.16817949434E+04  0.46999998093E+01 0.  1.
       -5    1    3    3    0  502 -0.11860848145E+04  0.10517148784E+04  0.85012207026E+03  0.17987859787E+04  0.46999998093E+01 0. -1.
</event>
<event>
 5   0  0.2023479E-06  0.2162611E+04  0.7818609E-02  0.8534153E-01
        2   -1    0    0  501    0  0.00000000000E+00  0.00000000000E+00  0.89485514773E+03  0.89485514774E+03  0.25500000920E-02 0. -1.
       -2   -1    0    0    0  501  0.00000000000E+00  0.00000000000E+00 -0.13066046513E+04  0.13066046513E+04  0.25500000920E-02 0.  1.
    10030    2    1    2    0    0  0.00000000000E+00  0.00000000000E+00 -0.41174950353E+03  0.22014597990E+04  0.21626112903E+04 0.  0.
        5    1    3    3  502    0 -0.37123427079E+03 -0.80735127048E+03 -0.83303363128E+03  0.12180304096E+04  0.46999998093E+01 0.  1.
       -5    1    3    3    0  502  0.37123427079E+03  0.80735127048E+03  0.42128412774E+03  0.98342938945E+03  0.46999998093E+01 0. -1.
</event>
<event>
 5   0  0.7378896E-07  0.3564569E+04  0.7818609E-02  0.8098656E-01
        1   -1    0    0  501    0  0.00000000000E+00  0.00000000000E+00  0.28551631384E+04  0.28551631384E+04  0.50400001928E-02 0. -1.
       -1   -1    0    0    0  501  0.00000000000E+00  0.00000000000E+00 -0.11125590860E+04  0.11125590860E+04  0.50400001928E-02 0.  1.
    10030    2    1    2    0    0  0.00000000000E+00  0.00000000000E+00  0.17426040524E+04  0.39677222244E+04  0.35645688052E+04 0.  0.
        2    1    3    3  502    0  0.10104571488E+04  0.24764148998E+03 -0.73949961647E+03  0.12764049670E+04  0.25500000920E-02 0.  1.
       -2    1    3    3    0  502 -0.10104571488E+04 -0.24764148998E+03  0.24821036688E+04  0.26913172574E+04  0.25500000920E-02 0. -1.
</event>
<event>
 5   0  0.2023479E-06  0.3330435E+04  0.7818609E-02  0.8155194E-01
        2   -1    0    0  501    0  0.00000000000E+00  0.00000000000E+00  0.31226184685E+04  0.31226184685E+04  0.25500000920E-02 0. -1.
       -2   -1    0    0    0  501  0.00000000000E+00  0.00000000000E+00 -0.88802027156E+03  0.88802027156E+03  0.25500000920E-02 0.  1.
    10030    2    1    2    0    0  0.00000000000E+00  0.00000000000E+00  0.22345981969E+04  0.40106387401E+04  0.33304345064E+04 0.  0.
        5    1    3    3  502    0 -0.52026201997E+03  0.97015039775E+03  0.26219048909E+04  0.28436370568E+04  0.46999998093E+01 0. -1.
       -5    1    3    3    0  502  0.52026201997E+03 -0.97015039775E+03 -0.38730669396E+03  0.11670016833E+04  0.46999998093E+01 0.  1.
</event>
<event>
 5   0  0.6890600E-07  0.3529896E+04  0.7818609E-02  0.8106741E-01
       -1   -1    0    0    0  501  0.00000000000E+00  0.00000000000E+00  0.17525234452E+04  0.17525234452E+04  0.50400001928E-02 0.  1.
        1   -1    0    0  501    0  0.00000000000E+00  0.00000000000E+00 -0.17774608048E+04  0.17774608048E+04  0.50400001928E-02 0. -1.
    10030    2    1    2    0    0  0.00000000000E+00  0.00000000000E+00 -0.24937359636E+02  0.35299842501E+04  0.35298961647E+04 0.  0.
        3    1    3    3  502    0 -0.10200405568E+04  0.97903364176E+03 -0.10689287192E+04  0.17724554229E+04  0.10100000352E+00 0. -1.
       -3    1    3    3    0  502  0.10200405568E+04 -0.97903364176E+03  0.10439913596E+04  0.17575288272E+04  0.10100000352E+00 0.  1.
</event>
<event>
 5   0  0.6630125E-07  0.3489475E+04  0.7818609E-02  0.8116289E-01
        1   -1    0    0  501    0  0.00000000000E+00  0.00000000000E+00  0.26320101427E+04  0.26320101427E+04  0.50400001928E-02 0. -1.
       -1   -1    0    0    0  501  0.00000000000E+00  0.00000000000E+00 -0.11565721041E+04  0.11565721041E+04  0.50400001928E-02 0.  1.
    10030    2    1    2    0    0  0.00000000000E+00  0.00000000000E+00  0.14754380386E+04  0.37885822468E+04  0.34894753237E+04 0.  0.
        4    1    3    3  502    0  0.86369917946E+03  0.15159394397E+04  0.72936264620E+03  0.18910367897E+04  0.12699999809E+01 0.  1.
       -4    1    3    3    0  502 -0.86369917946E+03 -0.15159394397E+04  0.74607539240E+03  0.18975454570E+04  0.12699999809E+01 0. -1.
</event>
<event>
 5   0  0.6890600E-07  0.3534280E+04  0.7818609E-02  0.8105714E-01
        1   -1    0    0  501    0  0.00000000000E+00  0.00000000000E+00  0.18268396600E+04  0.18268396600E+04  0.50400001928E-02 0. -1.
       -1   -1    0    0    0  501  0.00000000000E+00  0.00000000000E+00 -0.17093911263E+04  0.17093911263E+04  0.50400001928E-02 0.  1.
    10030    2    1    2    0    0  0.00000000000E+00  0.00000000000E+00  0.11744853364E+03  0.35362307863E+04  0.35342798441E+04 0.  0.
        3    1    3    3  502    0 -0.15819578021E+04 -0.78307930300E+03 -0.24867116269E+02  0.17653390796E+04  0.10100000352E+00 0. -1.
       -3    1    3    3    0  502  0.15819578021E+04  0.78307930300E+03  0.14231564991E+03  0.17708917067E+04  0.10100000352E+00 0.  1.
</event>
<event>
 5   0  0.6890600E-07  0.2212533E+04  0.7818609E-02  0.8513230E-01
        1   -1    0    0  501    0  0.00000000000E+00  0.00000000000E+00  0.15470435728E+04  0.15470435728E+04  0.50400001928E-02 0. -1.
       -1   -1    0    0    0  501  0.00000000000E+00  0.00000000000E+00 -0.79107397368E+03  0.79107397370E+03  0.50400001928E-02 0.  1.
    10030    2    1    2    0    0  0.00000000000E+00  0.00000000000E+00  0.75596959913E+03  0.23381175465E+04  0.22125333052E+04 0.  0.
        3    1    3    3  502    0  0.30930589866E+03 -0.24342856368E+02 -0.74415500433E+03  0.80624400418E+03  0.10100000352E+00 0.  1.
       -3    1    3    3    0  502 -0.30930589866E+03  0.24342856368E+02  0.15001246035E+04  0.15318735423E+04  0.10100000352E+00 0. -1.
</event>
<event>
 5   0  0.2001768E-06  0.3495488E+04  0.7818609E-02  0.8114860E-01
       -2   -1    0    0    0  501  0.00000000000E+00  0.00000000000E+00  0.18707409993E+04  0.18707409993E+04  0.25500000920E-02 0.  1.
        2   -1    0    0  501    0  0.00000000000E+00  0.00000000000E+00 -0.16328340661E+04  0.16328340661E+04  0.25500000920E-02 0. -1.
    10030    2    1    2    0    0  0.00000000000E+00  0.00000000000E+00  0.23790693326E+03  0.35035750654E+04  0.34954883106E+04 0.  0.
        2    1    3    3  502    0  0.95274842682E+03  0.37013528922E+03 -0.13020287081E+04  0.16552970893E+04  0.25500000920E-02 0. -1.
       -2    1    3    3    0  502 -0.95274842682E+03 -0.37013528922E+03  0.15399356414E+04  0.18482779760E+04  0.25500000920E-02 0.  1.
</event>
<event>
 5   0  0.6630125E-07  0.3460286E+04  0.7818609E-02  0.8123267E-01
       -1   -1    0    0    0  501  0.00000000000E+00  0.00000000000E+00  0.18762023793E+04  0.18762023793E+04  0.50400001928E-02 0. -1.
        1   -1    0    0  501    0  0.00000000000E+00  0.00000000000E+00 -0.15954536616E+04  0.15954536616E+04  0.50400001928E-02 0.  1.
    10030    2    1    2    0    0  0.00000000000E+00  0.00000000000E+00  0.28074871763E+03  0.34716560409E+04  0.34602855119E+04 0.  0.
        5    1    3    3  502    0 -0.10431453455E+04  0.90206296538E+02  0.15222465029E+04  0.18475783862E+04  0.46999998093E+01 0. -1.
       -5    1    3    3    0  502  0.10431453455E+04 -0.90206296538E+02 -0.12414977852E+04  0.16240776547E+04  0.46999998093E+01 0.  1.
</event>
<event>
 5   0  0.7378896E-07  0.3549221E+04  0.7818609E-02  0.8102223E-01
       -1   -1    0    0    0  501  0.00000000000E+00  0.00000000000E+00  0.12968367529E+04  0.12968367529E+04  0.50400001928E-02 0.  1.
        1   -1    0    0  501    0  0.00000000000E+00  0.00000000000E+00 -0.24284029619E+04  0.24284029619E+04  0.50400001928E-02 0. -1.
    10030    2    1    2    0    0  0.00000000000E+00  0.00000000000E+00 -0.11315662090E+04  0.37252397149E+04  0.35492208790E+04 0.  0.
        2    1    3    3  502    0  0.30202820839E+03  0.94524514233E+02  0.12669788216E+04  0.13059062971E+04  0.25500000920E-02 0.  1.
       -2    1    3    3    0  502 -0.30202820839E+03 -0.94524514233E+02 -0.23985450306E+04  0.24193334178E+04  0.25500000920E-02 0. -1.
</event>
<event>
 5   0  0.6890600E-07  0.3560583E+04  0.7818609E-02  0.8099581E-01
        1   -1    0    0  501    0  0.00000000000E+00  0.00000000000E+00  0.26431632099E+04  0.26431632099E+04  0.50400001928E-02 0. -1.
       -1   -1    0    0    0  501  0.00000000000E+00  0.00000000000E+00 -0.11991082126E+04  0.11991082126E+04  0.50400001928E-02 0.  1.
    10030    2    1    2    0    0  0.00000000000E+00  0.00000000000E+00  0.14440549974E+04  0.38422714225E+04  0.35605834984E+04 0.  0.
        3    1    3    3  502    0  0.58323954271E+03 -0.53693923936E+03 -0.99812259484E+03  0.12746453764E+04  0.10100000352E+00 0.  1.
       -3    1    3    3    0  502 -0.58323954271E+03  0.53693923936E+03  0.24421775922E+04  0.25676260462E+04  0.10100000352E+00 0. -1.
</event>
<event>
 5   0  0.2073287E-06  0.3170691E+04  0.7818609E-02  0.8196601E-01
       -2   -1    0    0    0  501  0.00000000000E+00  0.00000000000E+00  0.87944933781E+03  0.87944933781E+03  0.25500000920E-02 0.  1.
        2   -1    0    0  501    0  0.00000000000E+00  0.00000000000E+00 -0.28578342497E+04  0.28578342497E+04  0.25500000920E-02 0. -1.
    10030    2    1    2    0    0  0.00000000000E+00  0.00000000000E+00 -0.19783849118E+04  0.37372835875E+04  0.31706910530E+04 0.  0.
        1    1    3    3  502    0 -0.35314474093E+03 -0.82335474930E+03 -0.25308523348E+04  0.26847416621E+04  0.50400001928E-02 0. -1.
       -1    1    3    3    0  502  0.35314474093E+03  0.82335474930E+03  0.55246742299E+03  0.10525419254E+04  0.50400001928E-02 0.  1.
</event>
<event>
 5   0  0.2001768E-06  0.3425555E+04  0.7818609E-02  0.8131663E-01
       -2   -1    0    0    0  501  0.00000000000E+00  0.00000000000E+00  0.17002390523E+04  0.17002390523E+04  0.25500000920E-02 0. -1.
        2   -1    0    0  501    0  0.00000000000E+00  0.00000000000E+00 -0.17254086367E+04  0.17254086367E+04  0.25500000920E-02 0.  1.
    10030    2    1    2    0    0  0.00000000000E+00  0.00000000000E+00 -0.25169584418E+02  0.34256476890E+04  0.34255552223E+04 0.  0.
        2    1    3    3  502    0 -0.62475645813E+03  0.11078907929E+03 -0.16035432880E+04  0.17245132439E+04  0.25500000920E-02 0.  1.
       -2    1    3    3    0  502  0.62475645813E+03 -0.11078907929E+03  0.15783737036E+04  0.17011344451E+04  0.25500000920E-02 0. -1.
</event>
<event>
 5   0  0.6890600E-07  0.3601791E+04  0.7818609E-02  0.8090082E-01
        1   -1    0    0  501    0  0.00000000000E+00  0.00000000000E+00  0.21699258751E+04  0.21699258751E+04  0.50400001928E-02 0. -1.
       -1   -1    0    0    0  501  0.00000000000E+00  0.00000000000E+00 -0.14946245536E+04  0.14946245536E+04  0.50400001928E-02 0.  1.
    10030    2    1    2    0    0  0.00000000000E+00  0.00000000000E+00  0.67530132149E+03  0.36645504287E+04  0.36017909392E+04 0.  0.
        3    1    3    3  502    0  0.66501360325E+01  0.41622832831E+03  0.21203033448E+04  0.21607814627E+04  0.10100000352E+00 0. -1.
       -3    1    3    3    0  502 -0.66501360325E+01 -0.41622832831E+03 -0.14450020233E+04  0.15037689660E+04  0.10100000352E+00 0.  1.
</event>
<event>
 5   0  0.2073287E-06  0.3529290E+04  0.7818609E-02  0.8106883E-01
        2   -1    0    0  501    0  0.00000000000E+00  0.00000000000E+00  0.27983834438E+04  0.27983834438E+04  0.25500000920E-02 0. -1.
       -2   -1    0    0    0  501  0.00000000000E+00  0.00000000000E+00 -0.11127755919E+04  0.11127755919E+04  0.25500000920E-02 0.  1.
    10030    2    1    2    0    0  0.00000000000E+00  0.00000000000E+00  0.16856078519E+04  0.39111590357E+04  0.35292904630E+04 0.  0.
        1    1    3    3  502    0  0.11424868256E+04 -0.83901675416E+03 -0.32199133012E+03  0.14535830479E+04  0.50400001928E-02 0.  1.
       -1    1    3    3    0  502 -0.11424868256E+04  0.83901675416E+03  0.20075991820E+04  0.24575759879E+04  0.50400001928E-02 0. -1.
</event>
<event>
 5   0  0.6630125E-07  0.2591139E+04  0.7818609E-02  0.8371217E-01
       -1   -1    0    0    0  501  0.00000000000E+00  0.00000000000E+00  0.11181351522E+04  0.11181351523E+04  0.50400001928E-02 0. -1.
        1   -1    0    0  501    0  0.00000000000E+00  0.00000000000E+00 -0.15011604379E+04  0.15011604379E+04  0.50400001928E-02 0.  1.
    10030    2    1    2    0    0  0.00000000000E+00  0.00000000000E+00 -0.38302528564E+03  0.26192955901E+04  0.25911389425E+04 0.  0.
        1    1    3    3  502    0 -0.71672265105E+03  0.55174243865E+03 -0.11291637696E+04  0.14467625568E+04  0.50400001928E-02 0.  1.
       -1    1    3    3    0  502  0.71672265105E+03 -0.55174243865E+03  0.74613848393E+03  0.11725330334E+04  0.50400001928E-02 0. -1.
</event>
<event>
 5   0  0.6890600E-07  0.3378085E+04  0.7818609E-02  0.8143306E-01
        1   -1    0    0  501    0  0.00000000000E+00  0.00000000000E+00  0.14807454514E+04  0.14807454514E+04  0.50400001928E-02 0.  1.
       -1   -1    0    0    0  501  0.00000000000E+00  0.00000000000E+00 -0.19266412467E+04  0.19266412467E+04  0.50400001928E-02 0. -1.
    10030    2    1    2    0    0  0.00000000000E+00  0.00000000000E+00 -0.44589579528E+03  0.34073866982E+04  0.33780854120E+04 0.  0.
        3    1    3    3  502    0  0.34174766411E+03 -0.59326518972E+03 -0.17803973506E+04  0.19075035485E+04  0.10100000352E+00 0. -1.
       -3    1    3    3    0  502 -0.34174766411E+03  0.59326518972E+03  0.13345015553E+04  0.14998831497E+04  0.10100000352E+00 0.  1.
</event>
<event>
 5   0  0.1999883E-06  0.3489195E+04  0.7818609E-02  0.8116355E-01
        2   -1    0    0  501    0  0.00000000000E+00  0.00000000000E+00  0.15895157893E+04  0.15895157893E+04  0.25500000920E-02 0.  1.
       -2   -1    0    0    0  501  0.00000000000E+00  0.00000000000E+00 -0.19148095308E+04  0.19148095308E+04  0.25500000920E-02 0. -1.
    10030    2    1    2    0    0  0.00000000000E+00  0.00000000000E+00 -0.32529374143E+03  0.35043253201E+04  0.34891947396E+04 0.  0.
        4    1    3    3  502    0 -0.96767817873E+03 -0.96371630331E+02 -0.16173510472E+04  0.18871975444E+04  0.12699999809E+01 0. -1.
       -4    1    3    3    0  502  0.96767817873E+03  0.96371630331E+02  0.12920573058E+04  0.16171277757E+04  0.12699999809E+01 0.  1.
</event>
<event>
 5   0  0.2023479E-06  0.3536378E+04  0.7818609E-02  0.8105223E-01
        2   -1    0    0  501    0  0.00000000000E+00  0.00000000000E+00  0.19930404650E+04  0.19930404650E+04  0.25500000920E-02 0. -1.
       -2   -1    0    0    0  501  0.00000000000E+00  0.00000000000E+00 -0.15687045071E+04  0.15687045071E+04  0.25500000920E-02 0.  1.
    10030    2    1    2    0    0  0.00000000000E+00  0.00000000000E+00  0.42433595789E+03  0.35617449721E+04  0.35363775592E+04 0.  0.
        5    1    3    3  502    0  0.10616582781E+04 -0.13870465779E+04 -0.64489451641E+02  0.17479123228E+04  0.46999998093E+01 0.  1.
       -5    1    3    3    0  502 -0.10616582781E+04  0.13870465779E+04  0.48882540953E+03  0.18138326493E+04  0.46999998093E+01 0. -1.
</event>
<event>
 5   0  0.6630125E-07  0.3472388E+04  0.7818609E-02  0.8120365E-01
       -3   -1    0    0    0  501  0.00000000000E+00  0.00000000000E+00  0.11276013561E+04  0.11276013606E+04  0.10100000352E+00 0.  1.
        3   -1    0    0  501    0  0.00000000000E+00  0.00000000000E+00 -0.26732578881E+04  0.26732578900E+04  0.10100000352E+00 0. -1.
    10030    2    1    2    0    0  0.00000000000E+00  0.00000000000E+00 -0.15456565320E+04  0.38008592506E+04  0.34723877848E+04 0.  0.
        5    1    3    3  502    0 -0.38834474062E+03 -0.16091165143E+04 -0.13460864719E+04  0.21335506730E+04  0.46999998093E+01 0. -1.
       -5    1    3    3    0  502  0.38834474062E+03  0.16091165143E+04 -0.19957006010E+03  0.16673085777E+04  0.46999998093E+01 0.  1.
</event>
<event>
 5   0  0.2073287E-06  0.2885649E+04  0.7818609E-02  0.8277160E-01
       -2   -1    0    0    0  501  0.00000000000E+00  0.00000000000E+00  0.12113076353E+04  0.12113076353E+04  0.25500000920E-02 0. -1.
        2   -1    0    0  501    0  0.00000000000E+00  0.00000000000E+00 -0.17185905416E+04  0.17185905416E+04  0.25500000920E-02 0.  1.
    10030    2    1    2    0    0  0.00000000000E+00  0.00000000000E+00 -0.50728290635E+03  0.29298981769E+04  0.28856485198E+04 0.  0.
        1    1    3    3  502    0  0.13829920091E+04  0.87039147241E+02 -0.66167342625E+03  0.15355957910E+04  0.50400001928E-02 0.  1.
       -1    1    3    3    0  502 -0.13829920091E+04 -0.87039147241E+02  0.15439051990E+03  0.13943023858E+04  0.50400001928E-02 0. -1.
</event>
<event>
 5   0  0.2023479E-06  0.3437152E+04  0.7818609E-02  0.8128848E-01
       -2   -1    0    0    0  501  0.00000000000E+00  0.00000000000E+00  0.13550214111E+04  0.13550214111E+04  0.25500000920E-02 0. -1.
        2   -1    0    0  501    0  0.00000000000E+00  0.00000000000E+00 -0.21796729566E+04  0.21796729566E+04  0.25500000920E-02 0.  1.
    10030    2    1    2    0    0  0.00000000000E+00  0.00000000000E+00 -0.82465154548E+03  0.35346943677E+04  0.34371520335E+04 0.  0.
        5    1    3    3  502    0 -0.12808444732E+04 -0.84476133549E+03 -0.12084378899E+04  0.19530817961E+04  0.46999998093E+01 0.  1.
       -5    1    3    3    0  502  0.12808444732E+04  0.84476133549E+03  0.38378634443E+03  0.15816125716E+04  0.46999998093E+01 0. -1.
</event>
<event>
 5   0  0.1999883E-06  0.3092185E+04  0.7818609E-02  0.8217886E-01
       -2   -1    0    0    0  501  0.00000000000E+00  0.00000000000E+00  0.93598658613E+03  0.93598658614E+03  0.25500000920E-02 0. -1.
        2   -1    0    0  501    0  0.00000000000E+00  0.00000000000E+00 -0.25538849887E+04  0.25538849887E+04  0.25500000920E-02 0.  1.
    10030    2    1    2    0    0  0.00000000000E+00  0.00000000000E+00 -0.16178984026E+04  0.34898715748E+04  0.30921850475E+04 0.  0.
        4    1    3    3  502    0  0.58017871194E+03 -0.13264814839E+04 -0.14211513309E+04  0.20287516317E+04  0.12699999809E+01 0.  1.
       -4    1    3    3    0  502 -0.58017871194E+03  0.13264814839E+04 -0.19674707162E+03  0.14611199431E+04  0.12699999809E+01 0. -1.
</event>
<event>
 5   0  0.6890600E-07  0.3246027E+04  0.7818609E-02  0.8176766E-01
        1   -1    0    0  501    0  0.00000000000E+00  0.00000000000E+00  0.18327888362E+04  0.18327888362E+04  0.50400001928E-02 0. -1.
       -1   -1    0    0    0  501  0.00000000000E+00  0.00000000000E+00 -0.14372482951E+04  0.14372482951E+04  0.50400001928E-02 0.  1.
    10030    2    1    2    0    0  0.00000000000E+00  0.00000000000E+00  0.39554054118E+03  0.32700371313E+04  0.32460268823E+04 0.  0.
        3    1    3    3  502    0 -0.71679011767E+03  0.91547482051E+03  0.13385289123E+04  0.17730036320E+04  0.10100000352E+00 0. -1.
       -3    1    3    3    0  502  0.71679011767E+03 -0.91547482051E+03 -0.94298837114E+03  0.14970334993E+04  0.10100000352E+00 0.  1.
</event>
<event>
 5   0  0.6890600E-07  0.2276765E+04  0.7818609E-02  0.8487139E-01
        1   -1    0    0  501    0  0.00000000000E+00  0.00000000000E+00  0.21692364211E+04  0.21692364211E+04  0.50400001928E-02 0.  1.
       -1   -1    0    0    0  501  0.00000000000E+00  0.00000000000E+00 -0.59740599039E+03  0.59740599041E+03  0.50400001928E-02 0. -1.
    10030    2    1    2    0    0  0.00000000000E+00  0.00000000000E+00  0.15718304307E+04  0.27666424115E+04  0.22767651021E+04 0.  0.
        3    1    3    3  502    0  0.20654603046E+03  0.98399093255E+03  0.13717776329E+03  0.10147498051E+04  0.10100000352E+00 0. -1.
       -3    1    3    3    0  502 -0.20654603046E+03 -0.98399093255E+03  0.14346526674E+04  0.17518926064E+04  0.10100000352E+00 0.  1.
</event>
<event>
 5   0  0.2020725E-06  0.2153310E+04  0.7818609E-02  0.8538117E-01
       -2   -1    0    0    0  501  0.00000000000E+00  0.00000000000E+00  0.12886158147E+04  0.12886158147E+04  0.25500000920E-02 0. -1.
        2   -1    0    0  501    0  0.00000000000E+00  0.00000000000E+00 -0.89955926410E+03  0.89955926410E+03  0.25500000920E-02 0.  1.
    10030    2    1    2    0    0  0.00000000000E+00  0.00000000000E+00  0.38905655057E+03  0.21881750788E+04  0.21533102832E+04 0.  0.
        3    1    3    3  502    0 -0.86300093148E+03 -0.11709525869E+03  0.83778968180E+03  0.12084591298E+04  0.10100000352E+00 0. -1.
       -3    1    3    3    0  502  0.86300093148E+03  0.11709525869E+03 -0.44873313123E+03  0.97971594894E+03  0.10100000352E+00 0.  1.
</event>
<event>
 5   0  0.1999883E-06  0.3520240E+04  0.7818609E-02  0.8109010E-01
        2   -1    0    0  501    0  0.00000000000E+00  0.00000000000E+00  0.21115802707E+04  0.21115802707E+04  0.25500000920E-02 0. -1.
       -2   -1    0    0    0  501  0.00000000000E+00  0.00000000000E+00 -0.14671582016E+04  0.14671582016E+04  0.25500000920E-02 0.  1.
    10030    2    1    2    0    0  0.00000000000E+00  0.00000000000E+00  0.64442206910E+03  0.35787384723E+04  0.35202399421E+04 0.  0.
        4    1    3    3  502    0 -0.96220434387E+03 -0.14738272846E+04  0.31806460925E+03  0.17886225909E+04  0.12699999809E+01 0. -1.
       -4    1    3    3    0  502  0.96220434387E+03  0.14738272846E+04  0.32635745985E+03  0.17901158814E+04  0.12699999809E+01 0.  1.
</event>
<event>
 5   0  0.7378896E-07  0.3819062E+04  0.7818609E-02  0.8042077E-01
        1   -1    0    0  501    0  0.00000000000E+00  0.00000000000E+00  0.13490737943E+04  0.13490737943E+04  0.50400001928E-02 0. -1.
       -1   -1    0    0    0  501  0.00000000000E+00  0.00000000000E+00 -0.27028233410E+04  0.27028233410E+04  0.50400001928E-02 0.  1.
    10030    2    1    2    0    0  0.00000000000E+00  0.00000000000E+00 -0.13537495466E+04  0.40518971353E+04  0.38190617382E+04 0.  0.
        2    1    3    3  502    0 -0.72625433830E+03 -0.13930984874E+04 -0.18284705641E+04  0.24106997663E+04  0.25500000920E-02 0.  1.
       -2    1    3    3    0  502  0.72625433830E+03  0.13930984874E+04  0.47472101749E+03  0.16411973690E+04  0.25500000920E-02 0. -1.
</event>
<event>
 5   0  0.6630125E-07  0.3421592E+04  0.7818609E-02  0.8132627E-01
       -1   -1    0    0    0  501  0.00000000000E+00  0.00000000000E+00  0.10404862332E+04  0.10404862332E+04  0.50400001928E-02 0. -1.
        1   -1    0    0  501    0  0.00000000000E+00  0.00000000000E+00 -0.28129380043E+04  0.28129380043E+04  0.50400001928E-02 0.  1.
    10030    2    1    2    0    0  0.00000000000E+00  0.00000000000E+00 -0.17724517711E+04  0.38534242375E+04  0.34215921839E+04 0.  0.
        1    1    3    3  502    0 -0.82994912645E+03 -0.60058005448E+03  0.65684802417E+03  0.12169475261E+04  0.50400001928E-02 0. -1.
       -1    1    3    3    0  502  0.82994912645E+03  0.60058005448E+03 -0.24292997953E+04  0.26364767114E+04  0.50400001928E-02 0.  1.
</event>
<event>
 5   0  0.7378896E-07  0.3419677E+04  0.7818609E-02  0.8133094E-01
       -1   -1    0    0    0  501  0.00000000000E+00  0.00000000000E+00  0.13778761788E+04  0.13778761788E+04  0.50400001928E-02 0. -1.
        1   -1    0    0  501    0  0.00000000000E+00  0.00000000000E+00 -0.21217787152E+04  0.21217787152E+04  0.50400001928E-02 0.  1.
    10030    2    1    2    0    0  0.00000000000E+00  0.00000000000E+00 -0.74390253644E+03  0.34996548940E+04  0.34196773814E+04 0.  0.
        2    1    3    3  502    0  0.70494795266E+03 -0.36554625574E+03 -0.19216223298E+04  0.20792325650E+04  0.25500000920E-02 0.  1.
       -2    1    3    3    0  502 -0.70494795266E+03  0.36554625574E+03  0.11777197933E+04  0.14204223290E+04  0.25500000920E-02 0. -1.
</event>
<event>
 5   0  0.1999883E-06  0.3455399E+04  0.7818609E-02  0.8124442E-01
        2   -1    0    0  501    0  0.00000000000E+00  0.00000000000E+00  0.29089180631E+04  0.29089180631E+04  0.25500000920E-02 0.  1.
       -2   -1    0    0    0  501  0.00000000000E+00  0.00000000000E+00 -0.10261359140E+04  0.10261359140E+04  0.25500000920E-02 0. -1.
    10030    2    1    2    0    0  0.00000000000E+00  0.00000000000E+00  0.18827821491E+04  0.39350539771E+04  0.34553988455E+04 0.  0.
        4    1    3    3  502    0  0.39423907989E+03 -0.29140407565E+03 -0.94526296015E+03  0.10648307209E+04  0.12699999809E+01 0. -1.
       -4    1    3    3    0  502 -0.39423907989E+03  0.29140407565E+03  0.28280451093E+04  0.28702232562E+04  0.12699999809E+01 0.  1.
</event>
<event>
 5   0  0.1999883E-06  0.3214745E+04  0.7818609E-02  0.8184934E-01
        2   -1    0    0  501    0  0.00000000000E+00  0.00000000000E+00  0.20592504289E+04  0.20592504289E+04  0.25500000920E-02 0. -1.
       -2   -1    0    0    0  501  0.00000000000E+00  0.00000000000E+00 -0.12546535512E+04  0.12546535512E+04  0.25500000920E-02 0.  1.
    10030    2    1    2    0    0  0.00000000000E+00  0.00000000000E+00  0.80459687763E+03  0.33139039801E+04  0.32147446950E+04 0.  0.
        4    1    3    3  502    0  0.12084855132E+04 -0.21429391575E+03 -0.66763993873E+03  0.13971770892E+04  0.12699999809E+01 0.  1.
       -4    1    3    3    0  502 -0.12084855132E+04  0.21429391575E+03  0.14722368164E+04  0.19167268909E+04  0.12699999809E+01 0. -1.
</event>
<event>
 5   0  0.2023479E-06  0.2749327E+04  0.7818609E-02  0.8319175E-01
        2   -1    0    0  501    0  0.00000000000E+00  0.00000000000E+00  0.21170793078E+04  0.21170793078E+04  0.25500000920E-02 0. -1.
       -2   -1    0    0    0  501  0.00000000000E+00  0.00000000000E+00 -0.89259777799E+03  0.89259777800E+03  0.25500000920E-02 0.  1.
    10030    2    1    2    0    0  0.00000000000E+00  0.00000000000E+00  0.12244815298E+04  0.30096770858E+04  0.27493273984E+04 0.  0.
        5    1    3    3  502    0 -0.11086933918E+04 -0.25264671860E+03 -0.23333416367E+03  0.11608179544E+04  0.46999998093E+01 0.  1.
       -5    1    3    3    0  502  0.11086933918E+04  0.25264671860E+03  0.14578156934E+04  0.18488591313E+04  0.46999998093E+01 0. -1.
</event>
<event>
 5   0  0.6890600E-07  0.3494050E+04  0.7818609E-02  0.8115202E-01
        1   -1    0    0  501    0  0.00000000000E+00  0.00000000000E+00  0.25523654478E+04  0.25523654478E+04  0.50400001928E-02 0. -1.
       -1   -1    0    0    0  501  0.00000000000E+00  0.00000000000E+00 -0.11957910587E+04  0.11957910587E+04  0.50400001928E-02 0.  1.
    10030    2    1    2    0    0  0.00000000000E+00  0.00000000000E+00  0.13565743891E+04  0.37481565065E+04  0.34940496740E+04 0.  0.
        3    1    3    3  502    0 -0.35314314625E+03  0.89575992901E+03 -0.88546557758E+03  0.13081075000E+04  0.10100000352E+00 0.  1.
       -3    1    3    3    0  502  0.35314314625E+03 -0.89575992901E+03  0.22420399667E+04  0.24400490066E+04  0.10100000352E+00 0. -1.
</event>
<event>
 5   0  0.7378896E-07  0.3437899E+04  0.7818609E-02  0.8128667E-01
       -1   -1    0    0    0  501  0.00000000000E+00  0.00000000000E+00  0.97654087650E+03  0.97654087651E+03  0.50400001928E-02 0.  1.
        1   -1    0    0  501    0  0.00000000000E+00  0.00000000000E+00 -0.30257685166E+04  0.30257685166E+04  0.50400001928E-02 0. -1.
    10030    2    1    2    0    0  0.00000000000E+00  0.00000000000E+00 -0.20492276401E+04  0.40023093931E+04  0.34378985671E+04 0.  0.
        2    1    3    3  502    0 -0.12166784883E+04  0.21172090892E+03  0.36736659386E+03  0.12884449936E+04  0.25500000920E-02 0. -1.
       -2    1    3    3    0  502  0.12166784883E+04 -0.21172090892E+03 -0.24165942340E+04  0.27138643995E+04  0.25500000920E-02 0.  1.
</event>
<event>
 5   0  0.2073287E-06  0.3705762E+04  0.7818609E-02  0.8066686E-01
       -2   -1    0    0    0  501  0.00000000000E+00  0.00000000000E+00  0.21452055069E+04  0.21452055069E+04  0.25500000920E-02 0.  1.
        2   -1    0    0  501    0  0.00000000000E+00  0.00000000000E+00 -0.16003913036E+04  0.16003913036E+04  0.25500000920E-02 0. -1.
    10030    2    1    2    0    0  0.00000000000E+00  0.00000000000E+00  0.54481420329E+03  0.37455968104E+04  0.37057621281E+04 0.  0.
        1    1    3    3  502    0  0.54092426671E+03  0.47516147126E+03 -0.14532208996E+04  0.16217979126E+04  0.50400001928E-02 0. -1.
       -1    1    3    3    0  502 -0.54092426671E+03 -0.47516147126E+03  0.19980351029E+04  0.21237988979E+04  0.50400001928E-02 0.  1.
</event>
<event>
 5   0  0.6630125E-07  0.3108386E+04  0.7818609E-02  0.8213440E-01
        1   -1    0    0  501    0  0.00000000000E+00  0.00000000000E+00  0.15821633174E+04  0.15821633174E+04  0.50400001928E-02 0. -1.
       -1   -1    0    0    0  501  0.00000000000E+00  0.00000000000E+00 -0.15267170078E+04  0.15267170078E+04  0.50400001928E-02 0.  1.
    10030    2    1    2    0    0  0.00000000000E+00  0.00000000000E+00  0.55446309634E+02  0.31088803252E+04  0.31083858485E+04 0.  0.
        4    1    3    3  502    0  0.88503451843E+03 -0.55016903428E+03  0.11809642415E+04  0.15750080056E+04  0.12699999809E+01 0. -1.
       -4    1    3    3    0  502 -0.88503451843E+03  0.55016903428E+03 -0.11255179318E+04  0.15338723196E+04  0.12699999809E+01 0.  1.
</event>
<event>
 5   0  0.1999883E-06  0.3469730E+04  0.7818609E-02  0.8121001E-01
       -2   -1    0    0    0  501  0.00000000000E+00  0.00000000000E+00  0.12564340882E+04  0.12564340882E+04  0.25500000920E-02 0. -1.
        2   -1    0    0  501    0  0.00000000000E+00  0.00000000000E+00 -0.23954744267E+04  0.23954744267E+04  0.25500000920E-02 0.  1.
    10030    2    1    2    0    0  0.00000000000E+00  0.00000000000E+00 -0.11390403385E+04  0.36519085149E+04  0.34697295151E+04 0.  0.
        4    1    3    3  502    0 -0.62176980500E+03 -0.13641157961E+04  0.34944681746E+03  0.15393259196E+04  0.12699999809E+01 0. -1.
       -4    1    3    3    0  502  0.62176980500E+03  0.13641157961E+04 -0.14884871560E+04  0.21125825953E+04  0.12699999809E+01 0.  1.
</event>
<event>
 5   0  0.6630125E-07  0.2629383E+04  0.7818609E-02  0.8358288E-01
        3   -1    0    0  501    0  0.00000000000E+00  0.00000000000E+00  0.31906781205E+04  0.31906781221E+04  0.10100000352E+00 0.  1.
       -3   -1    0    0    0  501  0.00000000000E+00  0.00000000000E+00 -0.54170748426E+03  0.54170749367E+03  0.10100000352E+00 0. -1.
    10030    2    1    2    0    0  0.00000000000E+00  0.00000000000E+00  0.26489706362E+04  0.37323856157E+04  0.26293833789E+04 0.  0.
        3    1    3    3  502    0  0.95909524290E+03  0.49413456356E+03  0.25808808940E+03  0.11093431047E+04  0.10100000352E+00 0. -1.
       -3    1    3    3    0  502 -0.95909524290E+03 -0.49413456356E+03  0.23908825468E+04  0.26230425110E+04  0.10100000352E+00 0.  1.
</event>
<event>
 5   0  0.2001768E-06  0.3531322E+04  0.7818609E-02  0.8106407E-01
       -2   -1    0    0    0  501  0.00000000000E+00  0.00000000000E+00  0.14377306074E+04  0.14377306074E+04  0.25500000920E-02 0.  1.
        2   -1    0    0  501    0  0.00000000000E+00  0.00000000000E+00 -0.21683885004E+04  0.21683885004E+04  0.25500000920E-02 0. -1.
    10030    2    1    2    0    0  0.00000000000E+00  0.00000000000E+00 -0.73065789294E+03  0.36061191078E+04  0.35313218578E+04 0.  0.
        2    1    3    3  502    0  0.85288701743E+03  0.74941947534E+03  0.10155377491E+04  0.15232736899E+04  0.25500000920E-02 0.  1.
       -2    1    3    3    0  502 -0.85288701743E+03 -0.74941947534E+03 -0.17461956420E+04  0.20828454179E+04  0.25500000920E-02 0. -1.
</event>
<event>
 5   0  0.6630125E-07  0.3482070E+04  0.7818609E-02  0.8118052E-01
        1   -1    0    0  501    0  0.00000000000E+00  0.00000000000E+00  0.17204301515E+04  0.17204301515E+04  0.50400001928E-02 0.  1.
       -1   -1    0    0    0  501  0.00000000000E+00  0.00000000000E+00 -0.17618863186E+04  0.17618863186E+04  0.50400001928E-02 0. -1.
    10030    2    1    2    0    0  0.00000000000E+00  0.00000000000E+00 -0.41456167101E+02  0.34823164701E+04  0.34820696984E+04 0.  0.
        4    1    3    3  502    0 -0.47780107365E+03 -0.47754503423E+03 -0.16254780881E+04  0.17602624104E+04  0.12699999809E+01 0. -1.
       -4    1    3    3    0  502  0.47780107365E+03  0.47754503423E+03  0.15840219210E+04  0.17220540597E+04  0.12699999809E+01 0.  1.
</event>
<event>
 5   0  0.1999883E-06  0.2243726E+04  0.7818609E-02  0.8500446E-01
        2   -1    0    0  501    0  0.00000000000E+00  0.00000000000E+00  0.14483939635E+04  0.14483939635E+04  0.25500000920E-02 0. -1.
       -2   -1    0    0    0  501  0.00000000000E+00  0.00000000000E+00 -0.86894637439E+03  0.86894637439E+03  0.25500000920E-02 0.  1.
    10030    2    1    2    0    0  0.00000000000E+00  0.00000000000E+00  0.57944758912E+03  0.23173403379E+04  0.22437260825E+04 0.  0.
        4    1    3    3  502    0 -0.80248438381E+03 -0.41950854199E+03 -0.39427840854E+03  0.98763641052E+03  0.12699999809E+01 0.  1.
       -4    1    3    3    0  502  0.80248438381E+03  0.41950854199E+03  0.97372599766E+03  0.13297039274E+04  0.12699999809E+01 0. -1.
</event>
<event>
 5   0  0.6890600E-07  0.3458021E+04  0.7818609E-02  0.8123811E-01
        1   -1    0    0  501    0  0.00000000000E+00  0.00000000000E+00  0.22485891404E+04  0.22485891405E+04  0.50400001928E-02 0.  1.
       -1   -1    0    0    0  501  0.00000000000E+00  0.00000000000E+00 -0.13294905018E+04  0.13294905018E+04  0.50400001928E-02 0. -1.
    10030    2    1    2    0    0  0.00000000000E+00  0.00000000000E+00  0.91909863862E+03  0.35780796423E+04  0.34580213445E+04 0.  0.
        3    1    3    3  502    0  0.24246832278E+03  0.17050513654E+04  0.61812431389E+03  0.18297728613E+04  0.10100000352E+00 0.  1.
       -3    1    3    3    0  502 -0.24246832278E+03 -0.17050513654E+04  0.30097432473E+03  0.17483067810E+04  0.10100000352E+00 0. -1.
</event>
<event>
 5   0  0.2023479E-06  0.3510145E+04  0.7818609E-02  0.8111390E-01
       -2   -1    0    0    0  501  0.00000000000E+00  0.00000000000E+00  0.12889490220E+04  0.12889490220E+04  0.25500000920E-02 0. -1.
        2   -1    0    0  501    0  0.00000000000E+00  0.00000000000E+00 -0.23897600357E+04  0.23897600357E+04  0.25500000920E-02 0.  1.
    10030    2    1    2    0    0  0.00000000000E+00  0.00000000000E+00 -0.11008110137E+04  0.36787090577E+04  0.35101446471E+04 0.  0.
        5    1    3    3  502    0 -0.10537229956E+04  0.13678180691E+04 -0.22065581018E+03  0.17406807571E+04  0.46999998093E+01 0.  1.
       -5    1    3    3    0  502  0.10537229956E+04 -0.13678180691E+04 -0.88015520354E+03  0.19380283006E+04  0.46999998093E+01 0. -1.
</event>
<event>
 5   0  0.2023479E-06  0.2836645E+04  0.7818609E-02  0.8291981E-01
       -2   -1    0    0    0  501  0.00000000000E+00  0.00000000000E+00  0.12875899273E+04  0.12875899273E+04  0.25500000920E-02 0. -1.
        2   -1    0    0  501    0  0.00000000000E+00  0.00000000000E+00 -0.15623282347E+04  0.15623282347E+04  0.25500000920E-02 0.  1.
    10030    2    1    2    0    0  0.00000000000E+00  0.00000000000E+00 -0.27473830739E+03  0.28499181620E+04  0.28366445658E+04 0.  0.
        5    1    3    3  502    0 -0.98843407160E+03 -0.68564390828E+03  0.61748309046E+03  0.13521896834E+04  0.46999998093E+01 0.  1.
       -5    1    3    3    0  502  0.98843407160E+03  0.68564390828E+03 -0.89222139785E+03  0.14977284786E+04  0.46999998093E+01 0. -1.
</event>
<event>
 5   0  0.2073287E-06  0.3531573E+04  0.7818609E-02  0.8106348E-01
       -2   -1    0    0    0  501  0.00000000000E+00  0.00000000000E+00  0.20900220302E+04  0.20900220302E+04  0.25500000920E-02 0.  1.
        2   -1    0    0  501    0  0.00000000000E+00  0.00000000000E+00 -0.14918511057E+04  0.14918511057E+04  0.25500000920E-02 0. -1.
    10030    2    1    2    0    0  0.00000000000E+00  0.00000000000E+00  0.59817092450E+03  0.35818731360E+04  0.35315728376E+04 0.  0.
        1    1    3    3  502    0  0.11109601699E+04 -0.12677508320E+04 -0.23431092166E+03  0.17018596532E+04  0.50400001928E-02 0. -1.
       -1    1    3    3    0  502 -0.11109601699E+04  0.12677508320E+04  0.83248184616E+03  0.18800134828E+04  0.50400001928E-02 0.  1.
</event>
<event>
 5   0  0.6630125E-07  0.3641190E+04  0.7818609E-02  0.8081121E-01
       -1   -1    0    0    0  501  0.00000000000E+00  0.00000000000E+00  0.19179700326E+04  0.19179700327E+04  0.50400001928E-02 0. -1.
        1   -1    0    0  501    0  0.00000000000E+00  0.00000000000E+00 -0.17281640289E+04  0.17281640289E+04  0.50400001928E-02 0.  1.
    10030    2    1    2    0    0  0.00000000000E+00  0.00000000000E+00  0.18980600376E+03  0.36461340615E+04  0.36411903652E+04 0.  0.
        4    1    3    3  502    0 -0.14608341398E+04  0.37707600495E+03 -0.92547142326E+03  0.17699496224E+04  0.12699999809E+01 0.  1.
       -4    1    3    3    0  502  0.14608341398E+04 -0.37707600495E+03  0.11152774270E+04  0.18761844392E+04  0.12699999809E+01 0. -1.
</event>
<event>
 5   0  0.6890600E-07  0.3519061E+04  0.7818609E-02  0.8109288E-01
       -1   -1    0    0    0  501  0.00000000000E+00  0.00000000000E+00  0.29189425943E+04  0.29189425943E+04  0.50400001928E-02 0.  1.
        1   -1    0    0  501    0  0.00000000000E+00  0.00000000000E+00 -0.10606400485E+04  0.10606400485E+04  0.50400001928E-02 0. -1.
    10030    2    1    2    0    0  0.00000000000E+00  0.00000000000E+00  0.18583025459E+04  0.39795826428E+04  0.35190609058E+04 0.  0.
        3    1    3    3  502    0 -0.18126181400E+03  0.11294132436E+04  0.24410958427E+04  0.26958076792E+04  0.10100000352E+00 0.  1.
       -3    1    3    3    0  502  0.18126181400E+03 -0.11294132436E+04 -0.58279329680E+03  0.12837749636E+04  0.10100000352E+00 0. -1.
</event>
<event>
 5   0  0.6890600E-07  0.3553625E+04  0.7818609E-02  0.8101198E-01
        1   -1    0    0  501    0  0.00000000000E+00  0.00000000000E+00  0.18727988023E+04  0.18727988023E+04  0.50400001928E-02 0.  1.
       -1   -1    0    0    0  501  0.00000000000E+00  0.00000000000E+00 -0.16857456927E+04  0.16857456927E+04  0.50400001928E-02 0. -1.
    10030    2    1    2    0    0  0.00000000000E+00  0.00000000000E+00  0.18705310955E+03  0.35585444950E+04  0.35536249179E+04 0.  0.
        3    1    3    3  502    0 -0.12398872567E+02 -0.84682341685E+03  0.16576744952E+04  0.18614909008E+04  0.10100000352E+00 0.  1.
       -3    1    3    3    0  502  0.12398872567E+02  0.84682341685E+03 -0.14706213857E+04  0.16970535942E+04  0.10100000352E+00 0. -1.
</event>
<event>
 5   0  0.1999883E-06  0.3612815E+04  0.7818609E-02  0.8087563E-01
       -2   -1    0    0    0  501  0.00000000000E+00  0.00000000000E+00  0.19310172675E+04  0.19310172675E+04  0.25500000920E-02 0.  1.
        2   -1    0    0  501    0  0.00000000000E+00  0.00000000000E+00 -0.16898388879E+04  0.16898388879E+04  0.25500000920E-02 0. -1.
    10030    2    1    2    0    0  0.00000000000E+00  0.00000000000E+00  0.24117837962E+03  0.36208561554E+04  0.36128150087E+04 0.  0.
        4    1    3    3  502    0 -0.64661462249E+03 -0.16659440435E+04 -0.14386632054E+03  0.17928131964E+04  0.12699999809E+01 0. -1.
       -4    1    3    3    0  502  0.64661462249E+03  0.16659440435E+04  0.38504470016E+03  0.18280429590E+04  0.12699999809E+01 0.  1.
</event>
<event>
 5   0  0.6630125E-07  0.3461279E+04  0.7818609E-02  0.8123028E-01
       -1   -1    0    0    0  501  0.00000000000E+00  0.00000000000E+00  0.15071739663E+04  0.15071739663E+04  0.50400001928E-02 0.  1.
        1   -1    0    0  501    0  0.00000000000E+00  0.00000000000E+00 -0.19872377090E+04  0.19872377090E+04  0.50400001928E-02 0. -1.
    10030    2    1    2    0    0  0.00000000000E+00  0.00000000000E+00 -0.48006374269E+03  0.34944116753E+04  0.34612789196E+04 0.  0.
        5    1    3    3  502    0 -0.15356827319E+04  0.79707891108E+03 -0.27827063420E+03  0.17524590949E+04  0.46999998093E+01 0.  1.
       -5    1    3    3    0  502  0.15356827319E+04 -0.79707891108E+03 -0.20179310849E+03  0.17419525803E+04  0.46999998093E+01 0. -1.
</event>
<event>
 5   0  0.6630125E-07  0.3626944E+04  0.7818609E-02  0.8084348E-01
        1   -1    0    0  501    0  0.00000000000E+00  0.00000000000E+00  0.29416693288E+04  0.29416693288E+04  0.50400001928E-02 0.  1.
       -1   -1    0    0    0  501  0.00000000000E+00  0.00000000000E+00 -0.11179642642E+04  0.11179642642E+04  0.50400001928E-02 0. -1.
    10030    2    1    2    0    0  0.00000000000E+00  0.00000000000E+00  0.18237050646E+04  0.40596335930E+04  0.36269442712E+04 0.  0.
        4    1    3    3  502    0  0.17521521838E+04  0.46738287034E+03  0.92750475276E+03  0.20368482275E+04  0.12699999809E+01 0. -1.
       -4    1    3    3    0  502 -0.17521521838E+04 -0.46738287034E+03  0.89620031187E+03  0.20227853654E+04  0.12699999809E+01 0.  1.
</event>
<event>
 5   0  0.7378896E-07  0.3418349E+04  0.7818609E-02  0.8133417E-01
       -1   -1    0    0    0  501  0.00000000000E+00  0.00000000000E+00  0.17259092098E+04  0.17259092098E+04  0.50400001928E-02 0. -1.
        1   -1    0    0  501    0  0.00000000000E+00  0.00000000000E+00 -0.16926023129E+04  0.16926023130E+04  0.50400001928E-02 0.  1.
    10030    2    1    2    0    0  0.00000000000E+00  0.00000000000E+00  0.33306896858E+02  0.34185115228E+04  0.34183492627E+04 0.  0.
        2    1    3    3  502    0  0.64138075241E+02 -0.13514341054E+04  0.10611119890E+04  0.17194320245E+04  0.25500000920E-02 0. -1.
       -2    1    3    3    0  502 -0.64138075241E+02  0.13514341054E+04 -0.10278050921E+04  0.16990794982E+04  0.25500000920E-02 0.  1.
</event>
<event>
 5   0  0.2020725E-06  0.3498952E+04  0.7818609E-02  0.8114038E-01
       -2   -1    0    0    0  501  0.00000000000E+00  0.00000000000E+00  0.11807463898E+04  0.11807463898E+04  0.25500000920E-02 0. -1.
        2   -1    0    0  501    0  0.00000000000E+00  0.00000000000E+00 -0.25921448786E+04  0.25921448786E+04  0.25500000920E-02 0.  1.
    10030    2    1    2    0    0  0.00000000000E+00  0.00000000000E+00 -0.14113984888E+04  0.37728912684E+04  0.34989516757E+04 0.  0.
        3    1    3    3  502    0 -0.75205689960E+03 -0.13942264942E+04  0.94861585899E+02  0.15869643437E+04  0.10100000352E+00 0. -1.
       -3    1    3    3    0  502  0.75205689960E+03  0.13942264942E+04 -0.15062600747E+04  0.21859269247E+04  0.10100000352E+00 0.  1.
</event>
<event>
 5   0  0.1999883E-06  0.3560968E+04  0.7818609E-02  0.8099491E-01
        2   -1    0    0  501    0  0.00000000000E+00  0.00000000000E+00  0.22472220929E+04  0.22472220929E+04  0.25500000920E-02 0. -1.
       -2   -1    0    0    0  501  0.00000000000E+00  0.00000000000E+00 -0.14106852439E+04  0.14106852439E+04  0.25500000920E-02 0.  1.
    10030    2    1    2    0    0  0.00000000000E+00  0.00000000000E+00  0.83653684895E+03  0.36579073368E+04  0.35609678719E+04 0.  0.
        4    1    3    3  502    0  0.17231131504E+04 -0.35886915944E+03  0.69431327320E+03  0.18920831210E+04  0.12699999809E+01 0. -1.
       -4    1    3    3    0  502 -0.17231131504E+04  0.35886915944E+03  0.14222357575E+03  0.17658242158E+04  0.12699999809E+01 0.  1.
</event>
<event>
 5   0  0.2073287E-06  0.2657477E+04  0.7818609E-02  0.8348936E-01
       -2   -1    0    0    0  501  0.00000000000E+00  0.00000000000E+00  0.99763295958E+03  0.99763295959E+03  0.25500000920E-02 0.  1.
        2   -1    0    0  501    0  0.00000000000E+00  0.00000000000E+00 -0.17697351384E+04  0.17697351384E+04  0.25500000920E-02 0. -1.
    10030    2    1    2    0    0  0.00000000000E+00  0.00000000000E+00 -0.77210217885E+03  0.27673680980E+04  0.26574770771E+04 0.  0.
        1    1    3    3  502    0 -0.32850169048E+03  0.10760796211E+03 -0.17220907361E+04  0.17564422386E+04  0.50400001928E-02 0. -1.
       -1    1    3    3    0  502  0.32850169048E+03 -0.10760796211E+03  0.94998855729E+03  0.10109258594E+04  0.50400001928E-02 0.  1.
</event>
<event>
 5   0  0.2020725E-06  0.3330419E+04  0.7818609E-02  0.8155198E-01
        2   -1    0    0  501    0  0.00000000000E+00  0.00000000000E+00  0.27789449963E+04  0.27789449963E+04  0.25500000920E-02 0. -1.
       -2   -1    0    0    0  501  0.00000000000E+00  0.00000000000E+00 -0.99783278515E+03  0.99783278515E+03  0.25500000920E-02 0.  1.
    10030    2    1    2    0    0  0.00000000000E+00  0.00000000000E+00  0.17811122112E+04  0.37767777815E+04  0.33304188478E+04 0.  0.
        3    1    3    3  502    0 -0.84785664062E+03  0.33829726029E+03  0.24699138391E+04  0.26332072274E+04  0.10100000352E+00 0. -1.
       -3    1    3    3    0  502  0.84785664062E+03 -0.33829726029E+03 -0.68880162795E+03  0.11435705541E+04  0.10100000352E+00 0.  1.
</event>
<event>
 5   0  0.6630125E-07  0.3183038E+04  0.7818609E-02  0.8193311E-01
        1   -1    0    0  501    0  0.00000000000E+00  0.00000000000E+00  0.23344692496E+04  0.23344692496E+04  0.50400001928E-02 0.  1.
       -1   -1    0    0    0  501  0.00000000000E+00  0.00000000000E+00 -0.10850141239E+04  0.10850141239E+04  0.50400001928E-02 0. -1.
    10030    2    1    2    0    0  0.00000000000E+00  0.00000000000E+00  0.12494551257E+04  0.34194833735E+04  0.31830376106E+04 0.  0.
        5    1    3    3  502    0 -0.10759253745E+04  0.10495695421E+04  0.11867515368E+04  0.19151012859E+04  0.46999998093E+01 0.  1.
       -5    1    3    3    0  502  0.10759253745E+04 -0.10495695421E+04  0.62703588891E+02  0.15043820876E+04  0.46999998093E+01 0. -1.
</event>
<event>
 5   0  0.6630125E-07  0.2324038E+04  0.7818609E-02  0.8468503E-01
        1   -1    0    0  501    0  0.00000000000E+00  0.00000000000E+00  0.13131162747E+04  0.13131162747E+04  0.50400001928E-02 0.  1.
       -1   -1    0    0    0  501  0.00000000000E+00  0.00000000000E+00 -0.10283077072E+04  0.10283077072E+04  0.50400001928E-02 0. -1.
    10030    2    1    2    0    0  0.00000000000E+00  0.00000000000E+00  0.28480856747E+03  0.23414239819E+04  0.23240375089E+04 0.  0.
        4    1    3    3  502    0  0.10901240070E+04  0.93179833830E+02  0.53678282902E+03  0.12186838189E+04  0.12699999809E+01 0.  1.
       -4    1    3    3    0  502 -0.10901240070E+04 -0.93179833830E+02 -0.25197426155E+03  0.11227401630E+04  0.12699999809E+01 0. -1.
</event>
<event>
 5   0  0.6630125E-07  0.2148911E+04  0.7818609E-02  0.8539999E-01
       -1   -1    0    0    0  501  0.00000000000E+00  0.00000000000E+00  0.39800451175E+03  0.39800451179E+03  0.50400001928E-02 0.  1.
        1   -1    0    0  501    0  0.00000000000E+00  0.00000000000E+00 -0.29006057078E+04  0.29006057078E+04  0.50400001928E-02 0. -1.
    10030    2    1    2    0    0  0.00000000000E+00  0.00000000000E+00 -0.25026011961E+04  0.32986102196E+04  0.21489105692E+04 0.  0.
        5    1    3    3  502    0  0.83009643821E+03 -0.36611308671E+03 -0.36772213338E+03  0.97894869445E+03  0.46999998093E+01 0.  1.
       -5    1    3    3    0  502 -0.83009643821E+03  0.36611308671E+03 -0.21348790627E+04  0.23196615252E+04  0.46999998093E+01 0. -1.
</event>
<event>
 5   0  0.6630125E-07  0.3447284E+04  0.7818609E-02  0.8126398E-01
        1   -1    0    0  501    0  0.00000000000E+00  0.00000000000E+00  0.20995986493E+04  0.20995986493E+04  0.50400001928E-02 0.  1.
       -1   -1    0    0    0  501  0.00000000000E+00  0.00000000000E+00 -0.14150049020E+04  0.14150049020E+04  0.50400001928E-02 0. -1.
    10030    2    1    2    0    0  0.00000000000E+00  0.00000000000E+00  0.68459374728E+03  0.35146035513E+04  0.34472843695E+04 0.  0.
        1    1    3    3  502    0  0.10746596874E+04  0.28899037053E+03  0.16842583666E+04  0.20186963921E+04  0.50400001928E-02 0.  1.
       -1    1    3    3    0  502 -0.10746596874E+04 -0.28899037053E+03 -0.99966461928E+03  0.14959071593E+04  0.50400001928E-02 0. -1.
</event>
<event>
 5   0  0.1999883E-06  0.3572503E+04  0.7818609E-02  0.8096819E-01
        2   -1    0    0  501    0  0.00000000000E+00  0.00000000000E+00  0.15470171669E+04  0.15470171669E+04  0.25500000920E-02 0. -1.
       -2   -1    0    0    0  501  0.00000000000E+00  0.00000000000E+00 -0.20624813302E+04  0.20624813302E+04  0.25500000920E-02 0.  1.
    10030    2    1    2    0    0  0.00000000000E+00  0.00000000000E+00 -0.51546416328E+03  0.36094984971E+04  0.35725027778E+04 0.  0.
        4    1    3    3  502    0  0.71153891027E+03 -0.20545318953E+02 -0.19129841708E+04  0.20411319853E+04  0.12699999809E+01 0.  1.
       -4    1    3    3    0  502 -0.71153891027E+03  0.20545318953E+02  0.13975200075E+04  0.15683665118E+04  0.12699999809E+01 0. -1.
</event>
<event>
 5   0  0.2073287E-06  0.3439157E+04  0.7818609E-02  0.8128362E-01
       -2   -1    0    0    0  501  0.00000000000E+00  0.00000000000E+00  0.17226747932E+04  0.17226747932E+04  0.25500000920E-02 0. -1.
        2   -1    0    0  501    0  0.00000000000E+00  0.00000000000E+00 -0.17164878317E+04  0.17164878317E+04  0.25500000920E-02 0.  1.
    10030    2    1    2    0    0  0.00000000000E+00  0.00000000000E+00  0.61869614636E+01  0.34391626249E+04  0.34391570598E+04 0.  0.
        1    1    3    3  502    0  0.86310143904E+03  0.28154477457E+03  0.14634857803E+04  0.17222085191E+04  0.50400001928E-02 0. -1.
       -1    1    3    3    0  502 -0.86310143904E+03 -0.28154477457E+03 -0.14572988188E+04  0.17169541058E+04  0.50400001928E-02 0.  1.
</event>
<event>
 5   0  0.2001768E-06  0.3520356E+04  0.7818609E-02  0.8108983E-01
       -2   -1    0    0    0  501  0.00000000000E+00  0.00000000000E+00  0.11866580575E+04  0.11866580575E+04  0.25500000920E-02 0. -1.
        2   -1    0    0  501    0  0.00000000000E+00  0.00000000000E+00 -0.26108839647E+04  0.26108839647E+04  0.25500000920E-02 0.  1.
    10030    2    1    2    0    0  0.00000000000E+00  0.00000000000E+00 -0.14242259072E+04  0.37975420222E+04  0.35203559444E+04 0.  0.
        2    1    3    3  502    0  0.12184284339E+04  0.12410340247E+04 -0.41967106832E+03  0.17890939339E+04  0.25500000920E-02 0. -1.
       -2    1    3    3    0  502 -0.12184284339E+04 -0.12410340247E+04 -0.10045548389E+04  0.20084480882E+04  0.25500000920E-02 0.  1.
</event>
<event>
 5   0  0.6890600E-07  0.3491110E+04  0.7818609E-02  0.8115900E-01
       -1   -1    0    0    0  501  0.00000000000E+00  0.00000000000E+00  0.22837402348E+04  0.22837402348E+04  0.50400001928E-02 0.  1.
        1   -1    0    0  501    0  0.00000000000E+00  0.00000000000E+00 -0.13341982884E+04  0.13341982885E+04  0.50400001928E-02 0. -1.
    10030    2    1    2    0    0  0.00000000000E+00  0.00000000000E+00  0.94954194634E+03  0.36179385233E+04  0.34911100312E+04 0.  0.
        3    1    3    3  502    0  0.58981345462E+03  0.15364576168E+04 -0.12806649168E+03  0.16507522394E+04  0.10100000352E+00 0. -1.
       -3    1    3    3    0  502 -0.58981345462E+03 -0.15364576168E+04  0.10776084380E+04  0.19671862838E+04  0.10100000352E+00 0.  1.
</event>
<event>
 5   0  0.2020725E-06  0.3415122E+04  0.7818609E-02  0.8134205E-01
        2   -1    0    0  501    0  0.00000000000E+00  0.00000000000E+00  0.15111114342E+04  0.15111114342E+04  0.25500000920E-02 0.  1.
       -2   -1    0    0    0  501  0.00000000000E+00  0.00000000000E+00 -0.19295500932E+04  0.19295500932E+04  0.25500000920E-02 0. -1.
    10030    2    1    2    0    0  0.00000000000E+00  0.00000000000E+00 -0.41843865897E+03  0.34406615274E+04  0.34151223748E+04 0.  0.
        3    1    3    3  502    0 -0.12710353659E+04 -0.44358338138E+03 -0.12675358326E+04  0.18490387272E+04  0.10100000352E+00 0. -1.
       -3    1    3    3    0  502  0.12710353659E+04  0.44358338138E+03  0.84909717365E+03  0.15916228002E+04  0.10100000352E+00 0.  1.
</event>
<event>
 5   0  0.2023479E-06  0.3431797E+04  0.7818609E-02  0.8130146E-01
       -2   -1    0    0    0  501  0.00000000000E+00  0.00000000000E+00  0.10631721534E+04  0.10631721534E+04  0.25500000920E-02 0.  1.
        2   -1    0    0  501    0  0.00000000000E+00  0.00000000000E+00 -0.27693604833E+04  0.27693604833E+04  0.25500000920E-02 0. -1.
    10030    2    1    2    0    0  0.00000000000E+00  0.00000000000E+00 -0.17061883299E+04  0.38325326367E+04  0.34317965841E+04 0.  0.
        5    1    3    3  502    0  0.12617496054E+03 -0.16730645011E+04 -0.45164639790E+03  0.17375475545E+04  0.46999998093E+01 0.  1.
       -5    1    3    3    0  502 -0.12617496054E+03  0.16730645011E+04 -0.12545419320E+04  0.20949850822E+04  0.46999998093E+01 0. -1.
</event>
<event>
 5   0  0.2073287E-06  0.3538744E+04  0.7818609E-02  0.8104669E-01
       -2   -1    0    0    0  501  0.00000000000E+00  0.00000000000E+00  0.15359733959E+04  0.15359733959E+04  0.25500000920E-02 0.  1.
        2   -1    0    0  501    0  0.00000000000E+00  0.00000000000E+00 -0.20382370572E+04  0.20382370572E+04  0.25500000920E-02 0. -1.
    10030    2    1    2    0    0  0.00000000000E+00  0.00000000000E+00 -0.50226366124E+03  0.35742104531E+04  0.35387443504E+04 0.  0.
        1    1    3    3  502    0 -0.14377898402E+04 -0.88446585997E+03 -0.78668978341E+03  0.18623641688E+04  0.50400001928E-02 0. -1.
       -1    1    3    3    0  502  0.14377898402E+04  0.88446585997E+03  0.28442612217E+03  0.17118462843E+04  0.50400001928E-02 0.  1.
</event>
<event>
 5   0  0.6890600E-07  0.3540822E+04  0.7818609E-02  0.8104183E-01
       -1   -1    0    0    0  501  0.00000000000E+00  0.00000000000E+00  0.16270916829E+04  0.16270916829E+04  0.50400001928E-02 0.  1.
        1   -1    0    0  501    0  0.00000000000E+00  0.00000000000E+00 -0.19263541630E+04  0.19263541631E+04  0.50400001928E-02 0. -1.
    10030    2    1    2    0    0  0.00000000000E+00  0.00000000000E+00 -0.29926248018E+03  0.35534458459E+04  0.35408218464E+04 0.  0.
        3    1    3    3  502    0 -0.15750543694E+04  0.80242996515E+03 -0.24829100314E+03  0.17850318059E+04  0.10100000352E+00 0.  1.
       -3    1    3    3    0  502  0.15750543694E+04 -0.80242996515E+03 -0.50971477043E+02  0.17684140401E+04  0.10100000352E+00 0. -1.
</event>
<event>
 5   0  0.6630125E-07  0.3534306E+04  0.7818609E-02  0.8105708E-01
        1   -1    0    0  501    0  0.00000000000E+00  0.00000000000E+00  0.18070522320E+04  0.18070522320E+04  0.50400001928E-02 0.  1.
       -1   -1    0    0    0  501  0.00000000000E+00  0.00000000000E+00 -0.17281344404E+04  0.17281344404E+04  0.50400001928E-02 0. -1.
    10030    2    1    2    0    0  0.00000000000E+00  0.00000000000E+00  0.78917791609E+02  0.35351866725E+04  0.35343057015E+04 0.  0.
        4    1    3    3  502    0  0.14995528560E+04  0.88356059564E+03 -0.26637783129E+03  0.17607659856E+04  0.12699999809E+01 0.  1.
       -4    1    3    3    0  502 -0.14995528560E+04 -0.88356059564E+03  0.34529562290E+03  0.17744206869E+04  0.12699999809E+01 0. -1.
</event>
<event>
 5   0  0.6890600E-07  0.3182225E+04  0.7818609E-02  0.8193527E-01
       -1   -1    0    0    0  501  0.00000000000E+00  0.00000000000E+00  0.21383099023E+04  0.21383099023E+04  0.50400001928E-02 0. -1.
        1   -1    0    0  501    0  0.00000000000E+00  0.00000000000E+00 -0.11839441483E+04  0.11839441483E+04  0.50400001928E-02 0.  1.
    10030    2    1    2    0    0  0.00000000000E+00  0.00000000000E+00  0.95436575406E+03  0.33222540506E+04  0.31822253195E+04 0.  0.
        3    1    3    3  502    0 -0.41691726646E+03 -0.78966602690E+03 -0.89767369580E+03  0.12661794957E+04  0.10100000352E+00 0.  1.
       -3    1    3    3    0  502  0.41691726646E+03  0.78966602690E+03  0.18520394499E+04  0.20560745549E+04  0.10100000352E+00 0. -1.
</event>
<event>
 5   0  0.1999883E-06  0.3496482E+04  0.7818609E-02  0.8114624E-01
        2   -1    0    0  501    0  0.00000000000E+00  0.00000000000E+00  0.20153428732E+04  0.20153428732E+04  0.25500000920E-02 0.  1.
       -2   -1    0    0    0  501  0.00000000000E+00  0.00000000000E+00 -0.15165392395E+04  0.15165392395E+04  0.25500000920E-02 0. -1.
    10030    2    1    2    0    0  0.00000000000E+00  0.00000000000E+00  0.49880363370E+03  0.35318821127E+04  0.34964819738E+04 0.  0.
        4    1    3    3  502    0  0.82740578707E+03  0.15009680489E+04  0.59762312357E+03  0.18151199495E+04  0.12699999809E+01 0. -1.
       -4    1    3    3    0  502 -0.82740578707E+03 -0.15009680489E+04 -0.98819489866E+02  0.17167621632E+04  0.12699999809E+01 0.  1.
</event>
<event>
 5   0  0.2023479E-06  0.3463660E+04  0.7818609E-02  0.8122456E-01
       -2   -1    0    0    0  501  0.00000000000E+00  0.00000000000E+00  0.18546244898E+04  0.18546244898E+04  0.25500000920E-02 0.  1.
        2   -1    0    0  501    0  0.00000000000E+00  0.00000000000E+00 -0.16171657002E+04  0.16171657002E+04  0.25500000920E-02 0. -1.
    10030    2    1    2    0    0  0.00000000000E+00  0.00000000000E+00  0.23745878960E+03  0.34717901900E+04  0.34636599785E+04 0.  0.
        5    1    3    3  502    0  0.16660660364E+04 -0.41529067173E+03 -0.10756733210E+03  0.17204171589E+04  0.46999998093E+01 0. -1.
       -5    1    3    3    0  502 -0.16660660364E+04  0.41529067173E+03  0.34502612170E+03  0.17513730311E+04  0.46999998093E+01 0.  1.
</event>
<event>
 5   0  0.2001768E-06  0.2908273E+04  0.7818609E-02  0.8270420E-01
       -2   -1    0    0    0  501  0.00000000000E+00  0.00000000000E+00  0.15741799907E+04  0.15741799907E+04  0.25500000920E-02 0.  1.
        2   -1    0    0  501    0  0.00000000000E+00  0.00000000000E+00 -0.13432468851E+04  0.13432468851E+04  0.25500000920E-02 0. -1.
    10030    2    1    2    0    0  0.00000000000E+00  0.00000000000E+00  0.23093310563E+03  0.29174268757E+04  0.29082725931E+04 0.  0.
        2    1    3    3  502    0  0.14427057735E+04 -0.70211662563E+02  0.28387213950E+03  0.14720438234E+04  0.25500000920E-02 0.  1.
       -2    1    3    3    0  502 -0.14427057735E+04  0.70211662563E+02 -0.52939033871E+02  0.14453830523E+04  0.25500000920E-02 0. -1.
</event>
<event>
 5   0  0.2020725E-06  0.3549289E+04  0.7818609E-02  0.8102207E-01
        2   -1    0    0  501    0  0.00000000000E+00  0.00000000000E+00  0.10878938152E+04  0.10878938152E+04  0.25500000920E-02 0. -1.
       -2   -1    0    0    0  501  0.00000000000E+00  0.00000000000E+00 -0.28949179557E+04  0.28949179557E+04  0.25500000920E-02 0.  1.
    10030    2    1    2    0    0  0.00000000000E+00  0.00000000000E+00 -0.18070241405E+04  0.39828117709E+04  0.35492891342E+04 0.  0.
        3    1    3    3  502    0  0.14603703838E+04  0.40135419726E+03 -0.19414775184E+04  0.24623366574E+04  0.10100000352E+00 0.  1.
       -3    1    3    3    0  502 -0.14603703838E+04 -0.40135419726E+03  0.13445337795E+03  0.15204751135E+04  0.10100000352E+00 0. -1.
</event>
<event>
 5   0  0.2001768E-06  0.3462983E+04  0.7818609E-02  0.8122619E-01
        2   -1    0    0  501    0  0.00000000000E+00  0.00000000000E+00  0.18453877790E+04  0.18453877790E+04  0.25500000920E-02 0.  1.
       -2   -1    0    0    0  501  0.00000000000E+00  0.00000000000E+00 -0.16246249478E+04  0.16246249478E+04  0.25500000920E-02 0. -1.
    10030    2    1    2    0    0  0.00000000000E+00  0.00000000000E+00  0.22076283113E+03  0.34700127268E+04  0.34629831211E+04 0.  0.
        2    1    3    3  502    0  0.40915382499E+03  0.63850809016E+03  0.16701283364E+04  0.18342377419E+04  0.25500000920E-02 0.  1.
       -2    1    3    3    0  502 -0.40915382499E+03 -0.63850809016E+03 -0.14493655052E+04  0.16357749850E+04  0.25500000920E-02 0. -1.
</event>
<event>
 5   0  0.2020725E-06  0.3450149E+04  0.7818609E-02  0.8125707E-01
       -2   -1    0    0    0  501  0.00000000000E+00  0.00000000000E+00  0.97418891369E+03  0.97418891369E+03  0.25500000920E-02 0.  1.
        2   -1    0    0  501    0  0.00000000000E+00  0.00000000000E+00 -0.30547270414E+04  0.30547270414E+04  0.25500000920E-02 0. -1.
    10030    2    1    2    0    0  0.00000000000E+00  0.00000000000E+00 -0.20805381277E+04  0.40289159551E+04  0.34501485290E+04 0.  0.
        3    1    3    3  502    0 -0.14145886756E+04  0.63776763872E+03 -0.19204101783E+04  0.24689641442E+04  0.10100000352E+00 0.  1.
       -3    1    3    3    0  502  0.14145886756E+04 -0.63776763872E+03 -0.16012794940E+03  0.15599518109E+04  0.10100000352E+00 0. -1.
</event>
<event>
 5   0  0.2020725E-06  0.3464215E+04  0.7818609E-02  0.8122323E-01
       -2   -1    0    0    0  501  0.00000000000E+00  0.00000000000E+00  0.23863892776E+04  0.23863892776E+04  0.25500000920E-02 0.  1.
        2   -1    0    0  501    0  0.00000000000E+00  0.00000000000E+00 -0.12572113397E+04  0.12572113397E+04  0.25500000920E-02 0. -1.
    10030    2    1    2    0    0  0.00000000000E+00  0.00000000000E+00  0.11291779379E+04  0.36436006174E+04  0.34642145781E+04 0.  0.
        3    1    3    3  502    0  0.16154443852E+03 -0.32849517390E+03  0.23452385737E+04  0.23736363797E+04  0.10100000352E+00 0.  1.
       -3    1    3    3    0  502 -0.16154443852E+03  0.32849517390E+03 -0.12160606358E+04  0.12699642377E+04  0.10100000352E+00 0. -1.
</event>
<event>
 5   0  0.1999883E-06  0.3556041E+04  0.7818609E-02  0.8100636E-01
       -2   -1    0    0    0  501  0.00000000000E+00  0.00000000000E+00  0.11031543262E+04  0.11031543262E+04  0.25500000920E-02 0. -1.
        2   -1    0    0  501    0  0.00000000000E+00  0.00000000000E+00 -0.28657436619E+04  0.28657436619E+04  0.25500000920E-02 0.  1.
    10030    2    1    2    0    0  0.00000000000E+00  0.00000000000E+00 -0.17625893357E+04  0.39688979881E+04  0.35560413487E+04 0.  0.
        4    1    3    3  502    0 -0.11460009823E+04 -0.44034136093E+03  0.55415804604E+03  0.13469638148E+04  0.12699999809E+01 0. -1.
       -4    1    3    3    0  502  0.11460009823E+04  0.44034136093E+03 -0.23167473817E+04  0.26219341733E+04  0.12699999809E+01 0.  1.
</event>
<event>
 5   0  0.6890600E-07  0.3501003E+04  0.7818609E-02  0.8113552E-01
       -1   -1    0    0    0  501  0.00000000000E+00  0.00000000000E+00  0.12815352174E+04  0.12815352174E+04  0.50400001928E-02 0. -1.
        1   -1    0    0  501    0  0.00000000000E+00  0.00000000000E+00 -0.23910823981E+04  0.23910823981E+04  0.50400001928E-02 0.  1.
    10030    2    1    2    0    0  0.00000000000E+00  0.00000000000E+00 -0.11095471807E+04  0.36726176155E+04  0.35010034566E+04 0.  0.
        3    1    3    3  502    0 -0.58625480690E+02  0.16053153058E+04  0.17486547238E+03  0.16158750328E+04  0.10100000352E+00 0. -1.
       -3    1    3    3    0  502  0.58625480690E+02 -0.16053153058E+04 -0.12844126531E+04  0.20567425827E+04  0.10100000352E+00 0.  1.
</event>
<event>
 5   0  0.7378896E-07  0.2571563E+04  0.7818609E-02  0.8377925E-01
       -1   -1    0    0    0  501  0.00000000000E+00  0.00000000000E+00  0.12320553081E+04  0.12320553082E+04  0.50400001928E-02 0.  1.
        1   -1    0    0  501    0  0.00000000000E+00  0.00000000000E+00 -0.13418505055E+04  0.13418505055E+04  0.50400001928E-02 0. -1.
    10030    2    1    2    0    0  0.00000000000E+00  0.00000000000E+00 -0.10979519733E+03  0.25739058136E+04  0.25715629784E+04 0.  0.
        2    1    3    3  502    0 -0.63752312322E+03 -0.77165065683E+03  0.75290246794E+03  0.12524945489E+04  0.25500000920E-02 0.  1.
       -2    1    3    3    0  502  0.63752312322E+03  0.77165065683E+03 -0.86269766527E+03  0.13214112647E+04  0.25500000920E-02 0. -1.
</event>
<event>
 5   0  0.7378896E-07  0.3570962E+04  0.7818609E-02  0.8097176E-01
        1   -1    0    0  501    0  0.00000000000E+00  0.00000000000E+00  0.19253187907E+04  0.19253187907E+04  0.50400001928E-02 0.  1.
       -1   -1    0    0    0  501  0.00000000000E+00  0.00000000000E+00 -0.16558000941E+04  0.16558000941E+04  0.50400001928E-02 0. -1.
    10030    2    1    2    0    0  0.00000000000E+00  0.00000000000E+00  0.26951869663E+03  0.35811188848E+04  0.35709623548E+04 0.  0.
        2    1    3    3  502    0 -0.81565346531E+03  0.14497459430E+04  0.78536425953E+03  0.18395246383E+04  0.25500000920E-02 0.  1.
       -2    1    3    3    0  502  0.81565346531E+03 -0.14497459430E+04 -0.51584556290E+03  0.17415942465E+04  0.25500000920E-02 0. -1.
</event>
<event>
 5   0  0.6890600E-07  0.2544231E+04  0.7818609E-02  0.8387395E-01
       -1   -1    0    0    0  501  0.00000000000E+00  0.00000000000E+00  0.87268095253E+03  0.87268095254E+03  0.50400001928E-02 0. -1.
        1   -1    0    0  501    0  0.00000000000E+00  0.00000000000E+00 -0.18543757964E+04  0.18543757964E+04  0.50400001928E-02 0.  1.
    10030    2    1    2    0    0  0.00000000000E+00  0.00000000000E+00 -0.98169484383E+03  0.27270567489E+04  0.25442314646E+04 0.  0.
        3    1    3    3  502    0 -0.97178673677E+03 -0.65642996500E+03 -0.10192299354E+04  0.15537372468E+04  0.10100000352E+00 0. -1.
       -3    1    3    3    0  502  0.97178673677E+03  0.65642996500E+03  0.37535091555E+02  0.11733195021E+04  0.10100000352E+00 0.  1.
</event>
<event>
 5   0  0.2073287E-06  0.3646207E+04  0.7818609E-02  0.8079989E-01
        2   -1    0    0  501    0  0.00000000000E+00  0.00000000000E+00  0.16228867887E+04  0.16228867887E+04  0.25500000920E-02 0. -1.
       -2   -1    0    0    0  501  0.00000000000E+00  0.00000000000E+00 -0.20480216280E+04  0.20480216280E+04  0.25500000920E-02 0.  1.
    10030    2    1    2    0    0  0.00000000000E+00  0.00000000000E+00 -0.42513483928E+03  0.36709084167E+04  0.36462074780E+04 0.  0.
        1    1    3    3  502    0  0.15449377144E+04  0.92025058251E+03 -0.51462250956E+03  0.18704357790E+04  0.50400001928E-02 0.  1.
       -1    1    3    3    0  502 -0.15449377144E+04 -0.92025058251E+03  0.89487670280E+02  0.18004726377E+04  0.50400001928E-02 0. -1.
</event>
<event>
 5   0  0.6890600E-07  0.3355451E+04  0.7818609E-02  0.8148927E-01
        1   -1    0    0  501    0  0.00000000000E+00  0.00000000000E+00  0.22070703932E+04  0.22070703932E+04  0.50400001928E-02 0.  1.
       -1   -1    0    0    0  501  0.00000000000E+00  0.00000000000E+00 -0.12753390223E+04  0.12753390223E+04  0.50400001928E-02 0. -1.
    10030    2    1    2    0    0  0.00000000000E+00  0.00000000000E+00  0.93173137085E+03  0.34824094155E+04  0.33554510859E+04 0.  0.
        3    1    3    3  502    0  0.13961388207E+04 -0.13812495677E+03  0.14207208286E+04  0.19966796923E+04  0.10100000352E+00 0.  1.
       -3    1    3    3    0  502 -0.13961388207E+04  0.13812495677E+03 -0.48898945780E+03  0.14857297232E+04  0.10100000352E+00 0. -1.
</event>
<event>
 5   0  0.2020725E-06  0.3328829E+04  0.7818609E-02  0.8155598E-01
       -2   -1    0    0    0  501  0.00000000000E+00  0.00000000000E+00  0.20429402414E+04  0.20429402414E+04  0.25500000920E-02 0.  1.
        2   -1    0    0  501    0  0.00000000000E+00  0.00000000000E+00 -0.13560239926E+04  0.13560239926E+04  0.25500000920E-02 0. -1.
    10030    2    1    2    0    0  0.00000000000E+00  0.00000000000E+00  0.68691624884E+03  0.33989642340E+04  0.33288292133E+04 0.  0.
        3    1    3    3  502    0 -0.11280017941E+04 -0.24823200396E+03  0.15671524421E+04  0.19467855461E+04  0.10100000352E+00 0.  1.
       -3    1    3    3    0  502  0.11280017941E+04  0.24823200396E+03 -0.88023619331E+03  0.14521786879E+04  0.10100000352E+00 0. -1.
</event>
<event>
 5   0  0.6630125E-07  0.3123405E+04  0.7818609E-02  0.8209344E-01
       -1   -1    0    0    0  501  0.00000000000E+00  0.00000000000E+00  0.11388892699E+04  0.11388892699E+04  0.50400001928E-02 0.  1.
        1   -1    0    0  501    0  0.00000000000E+00  0.00000000000E+00 -0.21414848484E+04  0.21414848484E+04  0.50400001928E-02 0. -1.
    10030    2    1    2    0    0  0.00000000000E+00  0.00000000000E+00 -0.10025955785E+04  0.32803741183E+04  0.31234046267E+04 0.  0.
        1    1    3    3  502    0 -0.14051335479E+04  0.31807997318E+03 -0.11343668819E+04  0.18336748292E+04  0.50400001928E-02 0. -1.
       -1    1    3    3    0  502  0.14051335479E+04 -0.31807997318E+03  0.13177130340E+03  0.14466992891E+04  0.50400001928E-02 0.  1.
</event>
<event>
 5   0  0.1999883E-06  0.2433191E+04  0.7818609E-02  0.8427181E-01
       -2   -1    0    0    0  501  0.00000000000E+00  0.00000000000E+00  0.16173239706E+04  0.16173239706E+04  0.25500000920E-02 0.  1.
        2   -1    0    0  501    0  0.00000000000E+00  0.00000000000E+00 -0.91515662064E+03  0.91515662065E+03  0.25500000920E-02 0. -1.
    10030    2    1    2    0    0  0.00000000000E+00  0.00000000000E+00  0.70216734994E+03  0.25324805912E+04  0.24331911059E+04 0.  0.
        4    1    3    3  502    0 -0.62504785058E+01  0.96356368529E+03  0.11240945602E+04  0.14805688897E+04  0.12699999809E+01 0.  1.
       -4    1    3    3    0  502  0.62504785058E+01 -0.96356368529E+03 -0.42192721025E+03  0.10519117015E+04  0.12699999809E+01 0. -1.
</event>
<event>
 5   0  0.1999883E-06  0.3475542E+04  0.7818609E-02  0.8119611E-01
       -2   -1    0    0    0  501  0.00000000000E+00  0.00000000000E+00  0.15164784422E+04  0.15164784422E+04  0.25500000920E-02 0. -1.
        2   -1    0    0  501    0  0.00000000000E+00  0.00000000000E+00 -0.19913557539E+04  0.19913557539E+04  0.25500000920E-02 0.  1.
    10030    2    1    2    0    0  0.00000000000E+00  0.00000000000E+00 -0.47487731172E+03  0.35078341962E+04  0.34755420134E+04 0.  0.
        4    1    3    3  502    0 -0.16025346728E+04 -0.64818056233E+03 -0.58048554790E+02  0.17296319454E+04  0.12699999809E+01 0. -1.
       -4    1    3    3    0  502  0.16025346728E+04  0.64818056233E+03 -0.41682875693E+03  0.17782022507E+04  0.12699999809E+01 0.  1.
</event>
<event>
 5   0  0.6630125E-07  0.3590128E+04  0.7818609E-02  0.8092757E-01
       -1   -1    0    0    0  501  0.00000000000E+00  0.00000000000E+00  0.13643086347E+04  0.13643086347E+04  0.50400001928E-02 0. -1.
        1   -1    0    0  501    0  0.00000000000E+00  0.00000000000E+00 -0.23618221826E+04  0.23618221826E+04  0.50400001928E-02 0.  1.
    10030    2    1    2    0    0  0.00000000000E+00  0.00000000000E+00 -0.99751354787E+03  0.37261308173E+04  0.35901277957E+04 0.  0.
        5    1    3    3  502    0 -0.54607076325E+03 -0.11963922354E+04 -0.17667946411E+04  0.22025287860E+04  0.46999998093E+01 0.  1.
       -5    1    3    3    0  502  0.54607076325E+03  0.11963922354E+04  0.76928109321E+03  0.15236020313E+04  0.46999998093E+01 0. -1.
</event>
<event>
 5   0  0.6890600E-07  0.3460778E+04  0.7818609E-02  0.8123148E-01
       -1   -1    0    0    0  501  0.00000000000E+00  0.00000000000E+00  0.11064261298E+04  0.11064261298E+04  0.50400001928E-02 0. -1.
        1   -1    0    0  501    0  0.00000000000E+00  0.00000000000E+00 -0.27062326075E+04  0.27062326075E+04  0.50400001928E-02 0.  1.
    10030    2    1    2    0    0  0.00000000000E+00  0.00000000000E+00 -0.15998064777E+04  0.38126587373E+04  0.34607782190E+04 0.  0.
        3    1    3    3  502    0  0.73745852211E+03  0.14157863349E+04 -0.15355976636E+04  0.22150296189E+04  0.10100000352E+00 0.  1.
       -3    1    3    3    0  502 -0.73745852211E+03 -0.14157863349E+04 -0.64208814103E+02  0.15976291184E+04  0.10100000352E+00 0. -1.
</event>
<event>
 5   0  0.7378896E-07  0.3066601E+04  0.7818609E-02  0.8224964E-01
        1   -1    0    0  501    0  0.00000000000E+00  0.00000000000E+00  0.14105359608E+04  0.14105359608E+04  0.50400001928E-02 0. -1.
       -1   -1    0    0    0  501  0.00000000000E+00  0.00000000000E+00 -0.16667497510E+04  0.16667497510E+04  0.50400001928E-02 0.  1.
    10030    2    1    2    0    0  0.00000000000E+00  0.00000000000E+00 -0.25621379019E+03  0.30772857118E+04  0.30666010249E+04 0.  0.
        2    1    3    3  502    0  0.11224373916E+04 -0.36553808140E+03 -0.11100492303E+04  0.16203990498E+04  0.25500000920E-02 0.  1.
       -2    1    3    3    0  502 -0.11224373916E+04  0.36553808140E+03  0.85383544010E+03  0.14568866620E+04  0.25500000920E-02 0. -1.
</event>
<event>
 5   0  0.1999883E-06  0.3547000E+04  0.7818609E-02  0.8102741E-01
       -2   -1    0    0    0  501  0.00000000000E+00  0.00000000000E+00  0.23857167457E+04  0.23857167457E+04  0.25500000920E-02 0. -1.
        2   -1    0    0  501    0  0.00000000000E+00  0.00000000000E+00 -0.13183884863E+04  0.13183884863E+04  0.25500000920E-02 0.  1.
    10030    2    1    2    0    0  0.00000000000E+00  0.00000000000E+00  0.10673282593E+04  0.37041052320E+04  0.35469995710E+04 0.  0.
        4    1    3    3  502    0 -0.15189417448E+04 -0.65168526700E+03 -0.13779418927E+03  0.16585736531E+04  0.12699999809E+01 0.  1.
       -4    1    3    3    0  502  0.15189417448E+04  0.65168526700E+03  0.12051224486E+04  0.20455315789E+04  0.12699999809E+01 0. -1.
</event>
<event>
 5   0  0.6890600E-07  0.2363701E+04  0.7818609E-02  0.8453220E-01
       -1   -1    0    0    0  501  0.00000000000E+00  0.00000000000E+00  0.58875438692E+03  0.58875438694E+03  0.50400001928E-02 0. -1.
        1   -1    0    0  501    0  0.00000000000E+00  0.00000000000E+00 -0.23724171601E+04  0.23724171601E+04  0.50400001928E-02 0.  1.
    10030    2    1    2    0    0  0.00000000000E+00  0.00000000000E+00 -0.17836627732E+04  0.29611715470E+04  0.23637013438E+04 0.  0.
        3    1    3    3  502    0 -0.93766354744E+03 -0.71849052255E+03 -0.84615354865E+03  0.14530717110E+04  0.10100000352E+00 0. -1.
       -3    1    3    3    0  502  0.93766354744E+03  0.71849052255E+03 -0.93750922452E+03  0.15080998360E+04  0.10100000352E+00 0.  1.
</event>
<event>
 5   0  0.2001768E-06  0.3471640E+04  0.7818609E-02  0.8120544E-01
        2   -1    0    0  501    0  0.00000000000E+00  0.00000000000E+00  0.27990659081E+04  0.27990659081E+04  0.25500000920E-02 0. -1.
       -2   -1    0    0    0  501  0.00000000000E+00  0.00000000000E+00 -0.10764557926E+04  0.10764557926E+04  0.25500000920E-02 0.  1.
    10030    2    1    2    0    0  0.00000000000E+00  0.00000000000E+00  0.17226101155E+04  0.38755217006E+04  0.34716397915E+04 0.  0.
        2    1    3    3  502    0  0.13469853644E+04  0.31588107567E+03  0.20315549517E+04  0.24579190279E+04  0.25500000920E-02 0. -1.
       -2    1    3    3    0  502 -0.13469853644E+04 -0.31588107567E+03 -0.30894483627E+03  0.14176026727E+04  0.25500000920E-02 0.  1.
</event>
<event>
 5   0  0.1999883E-06  0.3491093E+04  0.7818609E-02  0.8115904E-01
       -2   -1    0    0    0  501  0.00000000000E+00  0.00000000000E+00  0.11643085077E+04  0.11643085077E+04  0.25500000920E-02 0.  1.
        2   -1    0    0  501    0  0.00000000000E+00  0.00000000000E+00 -0.26169461780E+04  0.26169461780E+04  0.25500000920E-02 0. -1.
    10030    2    1    2    0    0  0.00000000000E+00  0.00000000000E+00 -0.14526376702E+04  0.37812546857E+04  0.34910930662E+04 0.  0.
        4    1    3    3  502    0  0.37170644054E+03 -0.12005405324E+04 -0.20383942551E+04  0.23946849480E+04  0.12699999809E+01 0. -1.
       -4    1    3    3    0  502 -0.37170644054E+03  0.12005405324E+04  0.58575658491E+03  0.13865697377E+04  0.12699999809E+01 0.  1.
</event>
<event>
 5   0  0.6630125E-07  0.3397553E+04  0.7818609E-02  0.8138507E-01
        1   -1    0    0  501    0  0.00000000000E+00  0.00000000000E+00  0.22750331549E+04  0.22750331549E+04  0.50400001928E-02 0. -1.
       -1   -1    0    0    0  501  0.00000000000E+00  0.00000000000E+00 -0.12684834023E+04  0.12684834023E+04  0.50400001928E-02 0.  1.
    10030    2    1    2    0    0  0.00000000000E+00  0.00000000000E+00  0.10065497526E+04  0.35435165572E+04  0.33975531175E+04 0.  0.
        5    1    3    3  502    0  0.13792254228E+04  0.88716128835E+03  0.96560422637E+03  0.19030847407E+04  0.46999998093E+01 0. -1.
       -5    1    3    3    0  502 -0.13792254228E+04 -0.88716128835E+03  0.40945526258E+02  0.16404318165E+04  0.46999998093E+01 0.  1.
</event>
<event>
 5   0  0.6630125E-07  0.3097514E+04  0.7818609E-02  0.8216421E-01
       -4   -1    0    0    0  501  0.00000000000E+00  0.00000000000E+00  0.15099906181E+04  0.15099911522E+04  0.12699999809E+01 0. -1.
        4   -1    0    0  501    0  0.00000000000E+00  0.00000000000E+00 -0.15885172917E+04  0.15885177994E+04  0.12699999809E+01 0.  1.
    10030    2    1    2    0    0  0.00000000000E+00  0.00000000000E+00 -0.78526673611E+02  0.30985089516E+04  0.30975137263E+04 0.  0.
        5    1    3    3  502    0 -0.37147508960E+03 -0.99500697781E+03  0.10883047155E+04  0.15206780961E+04  0.46999998093E+01 0. -1.
       -5    1    3    3    0  502  0.37147508960E+03  0.99500697781E+03 -0.11668313891E+04  0.15778308556E+04  0.46999998093E+01 0.  1.
</event>
<event>
 5   0  0.2001768E-06  0.3156531E+04  0.7818609E-02  0.8200392E-01
        2   -1    0    0  501    0  0.00000000000E+00  0.00000000000E+00  0.28151511191E+04  0.28151511191E+04  0.25500000920E-02 0.  1.
       -2   -1    0    0    0  501  0.00000000000E+00  0.00000000000E+00 -0.88482705039E+03  0.88482705040E+03  0.25500000920E-02 0. -1.
    10030    2    1    2    0    0  0.00000000000E+00  0.00000000000E+00  0.19303240687E+04  0.36999781695E+04  0.31565309193E+04 0.  0.
        2    1    3    3  502    0  0.21394051766E+03  0.78523387577E+03 -0.61989032115E+03  0.10230477970E+04  0.25500000920E-02 0. -1.
       -2    1    3    3    0  502 -0.21394051766E+03 -0.78523387577E+03  0.25502143899E+04  0.26769303725E+04  0.25500000920E-02 0.  1.
</event>
<event>
 5   0  0.2020725E-06  0.3477881E+04  0.7818609E-02  0.8119052E-01
       -2   -1    0    0    0  501  0.00000000000E+00  0.00000000000E+00  0.25577287546E+04  0.25577287546E+04  0.25500000920E-02 0. -1.
        2   -1    0    0  501    0  0.00000000000E+00  0.00000000000E+00 -0.11822653996E+04  0.11822653996E+04  0.25500000920E-02 0.  1.
    10030    2    1    2    0    0  0.00000000000E+00  0.00000000000E+00  0.13754633551E+04  0.37399941542E+04  0.34778810837E+04 0.  0.
        3    1    3    3  502    0  0.27726109452E+03 -0.14941353589E+04 -0.22131818328E+03  0.15356744231E+04  0.10100000352E+00 0.  1.
       -3    1    3    3    0  502 -0.27726109452E+03  0.14941353589E+04  0.15967815383E+04  0.22043197311E+04  0.10100000352E+00 0. -1.
</event>
<event>
 5   0  0.2023479E-06  0.3518981E+04  0.7818609E-02  0.8109306E-01
       -2   -1    0    0    0  501  0.00000000000E+00  0.00000000000E+00  0.14109605455E+04  0.14109605455E+04  0.25500000920E-02 0. -1.
        2   -1    0    0  501    0  0.00000000000E+00  0.00000000000E+00 -0.21941134134E+04  0.21941134134E+04  0.25500000920E-02 0.  1.
    10030    2    1    2    0    0  0.00000000000E+00  0.00000000000E+00 -0.78315286792E+03  0.36050739588E+04  0.35189813631E+04 0.  0.
        5    1    3    3  502    0 -0.12233220825E+04  0.58079975495E+03  0.75926789431E+03  0.15525318349E+04  0.46999998093E+01 0. -1.
       -5    1    3    3    0  502  0.12233220825E+04 -0.58079975495E+03 -0.15424207622E+04  0.20525421240E+04  0.46999998093E+01 0.  1.
</event>
<event>
 5   0  0.7378896E-07  0.3632691E+04  0.7818609E-02  0.8083044E-01
       -1   -1    0    0    0  501  0.00000000000E+00  0.00000000000E+00  0.11654903585E+04  0.11654903585E+04  0.50400001928E-02 0.  1.
        1   -1    0    0  501    0  0.00000000000E+00  0.00000000000E+00 -0.28306642325E+04  0.28306642325E+04  0.50400001928E-02 0. -1.
    10030    2    1    2    0    0  0.00000000000E+00  0.00000000000E+00 -0.16651738740E+04  0.39961545911E+04  0.36326914932E+04 0.  0.
        2    1    3    3  502    0  0.16319603785E+04  0.73855295703E+03 -0.11632563327E+04  0.21358652680E+04  0.25500000920E-02 0. -1.
       -2    1    3    3    0  502 -0.16319603785E+04 -0.73855295703E+03 -0.50191754126E+03  0.18602893231E+04  0.25500000920E-02 0.  1.
</event>
<event>
 5   0  0.2001768E-06  0.3378597E+04  0.7818609E-02  0.8143179E-01
       -2   -1    0    0    0  501  0.00000000000E+00  0.00000000000E+00  0.16554740950E+04  0.16554740950E+04  0.25500000920E-02 0. -1.
        2   -1    0    0  501    0  0.00000000000E+00  0.00000000000E+00 -0.17238143382E+04  0.17238143382E+04  0.25500000920E-02 0.  1.
    10030    2    1    2    0    0  0.00000000000E+00  0.00000000000E+00 -0.68340243223E+02  0.33792884332E+04  0.33785973311E+04 0.  0.
        2    1    3    3  502    0 -0.66873158542E+03  0.94216945148E+03 -0.12668364206E+04  0.17145727530E+04  0.25500000920E-02 0.  1.
       -2    1    3    3    0  502  0.66873158542E+03 -0.94216945148E+03  0.11984961774E+04  0.16647156802E+04  0.25500000920E-02 0. -1.
</event>
<event>
 5   0  0.7378896E-07  0.3825504E+04  0.7818609E-02  0.8040704E-01
       -1   -1    0    0    0  501  0.00000000000E+00  0.00000000000E+00  0.19251133376E+04  0.19251133376E+04  0.50400001928E-02 0. -1.
        1   -1    0    0  501    0  0.00000000000E+00  0.00000000000E+00 -0.19004704359E+04  0.19004704359E+04  0.50400001928E-02 0.  1.
    10030    2    1    2    0    0  0.00000000000E+00  0.00000000000E+00  0.24642901750E+02  0.38255837735E+04  0.38255044028E+04 0.  0.
        2    1    3    3  502    0 -0.15739166962E+04 -0.36427878131E+03  0.10364072403E+04  0.19193886435E+04  0.25500000920E-02 0. -1.
       -2    1    3    3    0  502  0.15739166962E+04  0.36427878131E+03 -0.10117643386E+04  0.19061951300E+04  0.25500000920E-02 0.  1.
</event>
<event>
 5   0  0.2023479E-06  0.3541919E+04  0.7818609E-02  0.8103927E-01
        2   -1    0    0  501    0  0.00000000000E+00  0.00000000000E+00  0.20080189220E+04  0.20080189220E+04  0.25500000920E-02 0.  1.
       -2   -1    0    0    0  501  0.00000000000E+00  0.00000000000E+00 -0.15618868767E+04  0.15618868767E+04  0.25500000920E-02 0. -1.
    10030    2    1    2    0    0  0.00000000000E+00  0.00000000000E+00  0.44613204526E+03  0.35699057987E+04  0.35419194810E+04 0.  0.
        5    1    3    3  502    0 -0.32780221899E+03 -0.84995239980E+03 -0.13076184027E+04  0.15936628733E+04  0.46999998093E+01 0. -1.
       -5    1    3    3    0  502  0.32780221899E+03  0.84995239980E+03  0.17537504479E+04  0.19762429254E+04  0.46999998093E+01 0.  1.
</event>
<event>
 5   0  0.6630125E-07  0.3525289E+04  0.7818609E-02  0.8107823E-01
       -1   -1    0    0    0  501  0.00000000000E+00  0.00000000000E+00  0.20145344380E+04  0.20145344380E+04  0.50400001928E-02 0. -1.
        1   -1    0    0  501    0  0.00000000000E+00  0.00000000000E+00 -0.15422497584E+04  0.15422497584E+04  0.50400001928E-02 0.  1.
    10030    2    1    2    0    0  0.00000000000E+00  0.00000000000E+00  0.47228467963E+03  0.35567841964E+04  0.35252887827E+04 0.  0.
        1    1    3    3  502    0 -0.11815561845E+04 -0.98459960365E+02 -0.10797901030E+04  0.16036570854E+04  0.50400001928E-02 0.  1.
       -1    1    3    3    0  502  0.11815561845E+04  0.98459960365E+02  0.15520747826E+04  0.19531271110E+04  0.50400001928E-02 0. -1.
</event>
<event>
 5   0  0.7378896E-07  0.3295872E+04  0.7818609E-02  0.8163946E-01
       -1   -1    0    0    0  501  0.00000000000E+00  0.00000000000E+00  0.16118290795E+04  0.16118290795E+04  0.50400001928E-02 0. -1.
        1   -1    0    0  501    0  0.00000000000E+00  0.00000000000E+00 -0.16848521590E+04  0.16848521590E+04  0.50400001928E-02 0.  1.
    10030    2    1    2    0    0  0.00000000000E+00  0.00000000000E+00 -0.73023079546E+02  0.32966812385E+04  0.32958723911E+04 0.  0.
        2    1    3    3  502    0 -0.11367994012E+04  0.11747963973E+04  0.17146796408E+03  0.16437337729E+04  0.25500000920E-02 0.  1.
       -2    1    3    3    0  502  0.11367994012E+04 -0.11747963973E+04 -0.24449104363E+03  0.16529474656E+04  0.25500000920E-02 0. -1.
</event>
<event>
 5   0  0.6630125E-07  0.3508114E+04  0.7818609E-02  0.8111870E-01
        1   -1    0    0  501    0  0.00000000000E+00  0.00000000000E+00  0.22282498467E+04  0.22282498467E+04  0.50400001928E-02 0. -1.
       -1   -1    0    0    0  501  0.00000000000E+00  0.00000000000E+00 -0.13807771827E+04  0.13807771827E+04  0.50400001928E-02 0.  1.
    10030    2    1    2    0    0  0.00000000000E+00  0.00000000000E+00  0.84747266399E+03  0.36090270295E+04  0.35081143344E+04 0.  0.
        1    1    3    3  502    0 -0.96989869568E+03  0.47353051637E+03  0.18461816171E+04  0.21385324858E+04  0.50400001928E-02 0. -1.
       -1    1    3    3    0  502  0.96989869568E+03 -0.47353051637E+03 -0.99870895307E+03  0.14704945436E+04  0.50400001928E-02 0.  1.
</event>
<event>
 5   0  0.2023479E-06  0.3033825E+04  0.7818609E-02  0.8234137E-01
       -2   -1    0    0    0  501  0.00000000000E+00  0.00000000000E+00  0.15116443215E+04  0.15116443215E+04  0.25500000920E-02 0. -1.
        2   -1    0    0  501    0  0.00000000000E+00  0.00000000000E+00 -0.15221989536E+04  0.15221989536E+04  0.25500000920E-02 0.  1.
    10030    2    1    2    0    0  0.00000000000E+00  0.00000000000E+00 -0.10554632085E+02  0.30338432751E+04  0.30338249154E+04 0.  0.
        5    1    3    3  502    0 -0.11812541124E+04 -0.71282902165E+03  0.62521426468E+03  0.15147281799E+04  0.46999998093E+01 0. -1.
       -5    1    3    3    0  502  0.11812541124E+04  0.71282902165E+03 -0.63576889676E+03  0.15191150952E+04  0.46999998093E+01 0.  1.
</event>
<event>
 5   0  0.6630125E-07  0.2686526E+04  0.7818609E-02  0.8339390E-01
        1   -1    0    0  501    0  0.00000000000E+00  0.00000000000E+00  0.12813164826E+04  0.12813164826E+04  0.50400001928E-02 0.  1.
       -1   -1    0    0    0  501  0.00000000000E+00  0.00000000000E+00 -0.14082041859E+04  0.14082041860E+04  0.50400001928E-02 0. -1.
    10030    2    1    2    0    0  0.00000000000E+00  0.00000000000E+00 -0.12688770339E+03  0.26895206685E+04  0.26865258117E+04 0.  0.
        5    1    3    3  502    0  0.83347375280E+03 -0.15317487825E+03 -0.11068110745E+04  0.13939848940E+04  0.46999998093E+01 0. -1.
       -5    1    3    3    0  502 -0.83347375280E+03  0.15317487825E+03  0.97992337111E+03  0.12955357746E+04  0.46999998093E+01 0.  1.
</event>
<event>
 5   0  0.6890600E-07  0.3549403E+04  0.7818609E-02  0.8102181E-01
       -1   -1    0    0    0  501  0.00000000000E+00  0.00000000000E+00  0.17973121109E+04  0.17973121109E+04  0.50400001928E-02 0. -1.
        1   -1    0    0  501    0  0.00000000000E+00  0.00000000000E+00 -0.17523756214E+04  0.17523756214E+04  0.50400001928E-02 0.  1.
    10030    2    1    2    0    0  0.00000000000E+00  0.00000000000E+00  0.44936489435E+02  0.35496877323E+04  0.35494032891E+04 0.  0.
        3    1    3    3  502    0 -0.14736946156E+04 -0.85781730008E+03 -0.46944471041E+03  0.17686166025E+04  0.10100000352E+00 0.  1.
       -3    1    3    3    0  502  0.14736946156E+04  0.85781730008E+03  0.51438119985E+03  0.17810711298E+04  0.10100000352E+00 0. -1.
</event>
<event>
 5   0  0.2073287E-06  0.3519113E+04  0.7818609E-02  0.8109275E-01
        2   -1    0    0  501    0  0.00000000000E+00  0.00000000000E+00  0.23947050669E+04  0.23947050669E+04  0.25500000920E-02 0.  1.
       -2   -1    0    0    0  501  0.00000000000E+00  0.00000000000E+00 -0.12928683471E+04  0.12928683471E+04  0.25500000920E-02 0. -1.
    10030    2    1    2    0    0  0.00000000000E+00  0.00000000000E+00  0.11018367198E+04  0.36875734140E+04  0.35191126050E+04 0.  0.
        1    1    3    3  502    0 -0.66588971357E+02  0.15198368148E+04  0.14773804729E+04  0.21206110196E+04  0.50400001928E-02 0.  1.
       -1    1    3    3    0  502  0.66588971357E+02 -0.15198368148E+04 -0.37554375316E+03  0.15669623944E+04  0.50400001928E-02 0. -1.
</event>
<event>
 5   0  0.6630125E-07  0.3435878E+04  0.7818609E-02  0.8129156E-01
        1   -1    0    0  501    0  0.00000000000E+00  0.00000000000E+00  0.20901485795E+04  0.20901485795E+04  0.50400001928E-02 0.  1.
       -1   -1    0    0    0  501  0.00000000000E+00  0.00000000000E+00 -0.14120115836E+04  0.14120115836E+04  0.50400001928E-02 0. -1.
    10030    2    1    2    0    0  0.00000000000E+00  0.00000000000E+00  0.67813699593E+03  0.35021601631E+04  0.34358777660E+04 0.  0.
        1    1    3    3  502    0 -0.51983606114E+03  0.20897832553E+03 -0.13162719669E+04  0.14305500207E+04  0.50400001928E-02 0. -1.
       -1    1    3    3    0  502  0.51983606114E+03 -0.20897832553E+03  0.19944089628E+04  0.20716101424E+04  0.50400001928E-02 0.  1.
</event>
<event>
 5   0  0.2020725E-06  0.3820487E+04  0.7818609E-02  0.8041773E-01
       -2   -1    0    0    0  501  0.00000000000E+00  0.00000000000E+00  0.14036426130E+04  0.14036426130E+04  0.25500000920E-02 0. -1.
        2   -1    0    0  501    0  0.00000000000E+00  0.00000000000E+00 -0.25996863155E+04  0.25996863155E+04  0.25500000920E-02 0.  1.
    10030    2    1    2    0    0  0.00000000000E+00  0.00000000000E+00 -0.11960437024E+04  0.40033289285E+04  0.38204871380E+04 0.  0.
        3    1    3    3  502    0 -0.24193168658E+03 -0.45815384307E+03 -0.25246552270E+04  0.25772698560E+04  0.10100000352E+00 0.  1.
       -3    1    3    3    0  502  0.24193168658E+03  0.45815384307E+03  0.13286115246E+04  0.14260590725E+04  0.10100000352E+00 0. -1.
</event>
<event>
 5   0  0.6630125E-07  0.3377155E+04  0.7818609E-02  0.8143536E-01
        1   -1    0    0  501    0  0.00000000000E+00  0.00000000000E+00  0.13241877800E+04  0.13241877800E+04  0.50400001928E-02 0. -1.
       -1   -1    0    0    0  501  0.00000000000E+00  0.00000000000E+00 -0.21532399278E+04  0.21532399278E+04  0.50400001928E-02 0.  1.
    10030    2    1    2    0    0  0.00000000000E+00  0.00000000000E+00 -0.82905214783E+03  0.34774277079E+04  0.33771550156E+04 0.  0.
        1    1    3    3  502    0 -0.13467902500E+04 -0.24241845365E+03 -0.14331836202E+04  0.19815715918E+04  0.50400001928E-02 0.  1.
       -1    1    3    3    0  502  0.13467902500E+04  0.24241845365E+03  0.60413147234E+03  0.14958561161E+04  0.50400001928E-02 0. -1.
</event>
<event>
 5   0  0.6630125E-07  0.3631087E+04  0.7818609E-02  0.8083408E-01
        1   -1    0    0  501    0  0.00000000000E+00  0.00000000000E+00  0.27671628014E+04  0.27671628014E+04  0.50400001928E-02 0. -1.
       -1   -1    0    0    0  501  0.00000000000E+00  0.00000000000E+00 -0.11911835635E+04  0.11911835635E+04  0.50400001928E-02 0.  1.
    10030    2    1    2    0    0  0.00000000000E+00  0.00000000000E+00  0.15759792379E+04  0.39583463649E+04  0.36310873559E+04 0.  0.
        1    1    3    3  502    0  0.69261212102E+03 -0.11644493794E+04  0.21054408823E+04  0.25037042989E+04  0.50400001928E-02 0. -1.
       -1    1    3    3    0  502 -0.69261212102E+03  0.11644493794E+04 -0.52946164445E+03  0.14546420660E+04  0.50400001928E-02 0.  1.
</event>
<event>
 5   0  0.2073287E-06  0.3309523E+04  0.7818609E-02  0.8160476E-01
        2   -1    0    0  501    0  0.00000000000E+00  0.00000000000E+00  0.21051636759E+04  0.21051636759E+04  0.25500000920E-02 0.  1.
       -2   -1    0    0    0  501  0.00000000000E+00  0.00000000000E+00 -0.13007233923E+04  0.13007233923E+04  0.25500000920E-02 0. -1.
    10030    2    1    2    0    0  0.00000000000E+00  0.00000000000E+00  0.80444028366E+03  0.34058870682E+04  0.33095230096E+04 0.  0.
        1    1    3    3  502    0 -0.71434328220E+03  0.81583591849E+03  0.16885594550E+04  0.20067654581E+04  0.50400001928E-02 0.  1.
       -1    1    3    3    0  502  0.71434328220E+03 -0.81583591849E+03 -0.88411917133E+03  0.13991216101E+04  0.50400001928E-02 0. -1.
</event>
<event>
 5   0  0.6630125E-07  0.3539850E+04  0.7818609E-02  0.8104410E-01
        1   -1    0    0  501    0  0.00000000000E+00  0.00000000000E+00  0.20588430702E+04  0.20588430703E+04  0.50400001928E-02 0.  1.
       -1   -1    0    0    0  501  0.00000000000E+00  0.00000000000E+00 -0.15215510298E+04  0.15215510298E+04  0.50400001928E-02 0. -1.
    10030    2    1    2    0    0  0.00000000000E+00  0.00000000000E+00  0.53729204045E+03  0.35803941001E+04  0.35398501628E+04 0.  0.
        1    1    3    3  502    0 -0.13021377631E+04  0.28186078000E+03  0.14471637303E+04  0.19670513760E+04  0.50400001928E-02 0.  1.
       -1    1    3    3    0  502  0.13021377631E+04 -0.28186078000E+03 -0.90987168982E+03  0.16133427241E+04  0.50400001928E-02 0. -1.
</event>
<event>
 5   0  0.6630125E-07  0.2544005E+04  0.7818609E-02  0.8387474E-01
       -1   -1    0    0    0  501  0.00000000000E+00  0.00000000000E+00  0.12613035475E+04  0.12613035476E+04  0.50400001928E-02 0. -1.
        1   -1    0    0  501    0  0.00000000000E+00  0.00000000000E+00 -0.12827925031E+04  0.12827925031E+04  0.50400001928E-02 0.  1.
    10030    2    1    2    0    0  0.00000000000E+00  0.00000000000E+00 -0.21488955510E+02  0.25440960506E+04  0.25440052947E+04 0.  0.
        1    1    3    3  502    0  0.19780746127E+03  0.10713533471E+04 -0.66732326618E+03  0.12775938821E+04  0.50400001928E-02 0.  1.
       -1    1    3    3    0  502 -0.19780746127E+03 -0.10713533471E+04  0.64583431067E+03  0.12665021685E+04  0.50400001928E-02 0. -1.
</event>
<event>
 5   0  0.2020725E-06  0.3502278E+04  0.7818609E-02  0.8113250E-01
       -2   -1    0    0    0  501  0.00000000000E+00  0.00000000000E+00  0.19780180628E+04  0.19780180628E+04  0.25500000920E-02 0. -1.
        2   -1    0    0  501    0  0.00000000000E+00  0.00000000000E+00 -0.15502826387E+04  0.15502826387E+04  0.25500000920E-02 0.  1.
    10030    2    1    2    0    0  0.00000000000E+00  0.00000000000E+00  0.42773542416E+03  0.35283007015E+04  0.35022775800E+04 0.  0.
        3    1    3    3  502    0 -0.53003142444E+03 -0.16327072468E+04 -0.13485570439E+03  0.17218746574E+04  0.10100000352E+00 0. -1.
       -3    1    3    3    0  502  0.53003142444E+03  0.16327072468E+04  0.56259112855E+03  0.18064260441E+04  0.10100000352E+00 0.  1.
</event>
<event>
 5   0  0.2023479E-06  0.2936793E+04  0.7818609E-02  0.8262014E-01
        2   -1    0    0  501    0  0.00000000000E+00  0.00000000000E+00  0.18502505260E+04  0.18502505260E+04  0.25500000920E-02 0. -1.
       -2   -1    0    0    0  501  0.00000000000E+00  0.00000000000E+00 -0.11653494882E+04  0.11653494882E+04  0.25500000920E-02 0.  1.
    10030    2    1    2    0    0  0.00000000000E+00  0.00000000000E+00  0.68490103775E+03  0.30156000142E+04  0.29367931514E+04 0.  0.
        5    1    3    3  502    0  0.79602693469E+03  0.59504877948E+03  0.14523935843E+04  0.17598895262E+04  0.46999998093E+01 0. -1.
       -5    1    3    3    0  502 -0.79602693469E+03 -0.59504877948E+03 -0.76749254654E+03  0.12557104880E+04  0.46999998093E+01 0.  1.
</event>
<event>
 5   0  0.2001768E-06  0.3523131E+04  0.7818609E-02  0.8108330E-01
       -2   -1    0    0    0  501  0.00000000000E+00  0.00000000000E+00  0.11971934289E+04  0.11971934289E+04  0.25500000920E-02 0.  1.
        2   -1    0    0  501    0  0.00000000000E+00  0.00000000000E+00 -0.25919901681E+04  0.25919901681E+04  0.25500000920E-02 0. -1.
    10030    2    1    2    0    0  0.00000000000E+00  0.00000000000E+00 -0.13947967392E+04  0.37891835970E+04  0.35231313328E+04 0.  0.
        2    1    3    3  502    0 -0.85894528581E+03 -0.82834636138E+03 -0.20910813827E+04  0.24076058746E+04  0.25500000920E-02 0. -1.
       -2    1    3    3    0  502  0.85894528581E+03  0.82834636138E+03  0.69628464349E+03  0.13815777225E+04  0.25500000920E-02 0.  1.
</event>
<event>
 5   0  0.2001768E-06  0.3312856E+04  0.7818609E-02  0.8159632E-01
       -2   -1    0    0    0  501  0.00000000000E+00  0.00000000000E+00  0.21197824382E+04  0.21197824382E+04  0.25500000920E-02 0. -1.
        2   -1    0    0  501    0  0.00000000000E+00  0.00000000000E+00 -0.12943559453E+04  0.12943559453E+04  0.25500000920E-02 0.  1.
    10030    2    1    2    0    0  0.00000000000E+00  0.00000000000E+00  0.82542649292E+03  0.34141383835E+04  0.33128555668E+04 0.  0.
        2    1    3    3  502    0  0.13488293772E+04  0.87859399916E+03  0.10281684463E+02  0.16097744616E+04  0.25500000920E-02 0.  1.
       -2    1    3    3    0  502 -0.13488293772E+04 -0.87859399916E+03  0.81514480845E+03  0.18043639219E+04  0.25500000920E-02 0. -1.
</event>
<event>
 5   0  0.2020725E-06  0.3507076E+04  0.7818609E-02  0.8112115E-01
       -2   -1    0    0    0  501  0.00000000000E+00  0.00000000000E+00  0.19133383745E+04  0.19133383745E+04  0.25500000920E-02 0. -1.
        2   -1    0    0  501    0  0.00000000000E+00  0.00000000000E+00 -0.16070839440E+04  0.16070839440E+04  0.25500000920E-02 0.  1.
    10030    2    1    2    0    0  0.00000000000E+00  0.00000000000E+00  0.30625443050E+03  0.35204223185E+04  0.35070759223E+04 0.  0.
        3    1    3    3  502    0  0.16413473980E+04  0.20662878793E+03 -0.43061712212E+03  0.17094291015E+04  0.10100000352E+00 0.  1.
       -3    1    3    3    0  502 -0.16413473980E+04 -0.20662878793E+03  0.73687155263E+03  0.18109932171E+04  0.10100000352E+00 0. -1.
</event>
<event>
 5   0  0.7378896E-07  0.3476833E+04  0.7818609E-02  0.8119302E-01
        1   -1    0    0  501    0  0.00000000000E+00  0.00000000000E+00  0.15282753474E+04  0.15282753475E+04  0.50400001928E-02 0.  1.
       -1   -1    0    0    0  501  0.00000000000E+00  0.00000000000E+00 -0.19774523048E+04  0.19774523048E+04  0.50400001928E-02 0. -1.
    10030    2    1    2    0    0  0.00000000000E+00  0.00000000000E+00 -0.44917695732E+03  0.35057276522E+04  0.34768328163E+04 0.  0.
        2    1    3    3  502    0  0.79506803567E+03 -0.13367748478E+04  0.55839020224E+03  0.16525434315E+04  0.25500000920E-02 0.  1.
       -2    1    3    3    0  502 -0.79506803567E+03  0.13367748478E+04 -0.10075671596E+04  0.18531842207E+04  0.25500000920E-02 0. -1.
</event>
<event>
 5   0  0.2073287E-06  0.3520815E+04  0.7818609E-02  0.8108875E-01
       -2   -1    0    0    0  501  0.00000000000E+00  0.00000000000E+00  0.17717956532E+04  0.17717956533E+04  0.25500000920E-02 0. -1.
        2   -1    0    0  501    0  0.00000000000E+00  0.00000000000E+00 -0.17490927111E+04  0.17490927111E+04  0.25500000920E-02 0.  1.
    10030    2    1    2    0    0  0.00000000000E+00  0.00000000000E+00  0.22702942103E+02  0.35208883644E+04  0.35208151685E+04 0.  0.
        1    1    3    3  502    0  0.65301414054E+03  0.10343410148E+04  0.12773738647E+04  0.17686075859E+04  0.50400001928E-02 0. -1.
       -1    1    3    3    0  502 -0.65301414054E+03 -0.10343410148E+04 -0.12546709226E+04  0.17522807785E+04  0.50400001928E-02 0.  1.
</event>
<event>
 5   0  0.6890600E-07  0.2313993E+04  0.7818609E-02  0.8472424E-01
        1   -1    0    0  501    0  0.00000000000E+00  0.00000000000E+00  0.11297131590E+04  0.11297131590E+04  0.50400001928E-02 0. -1.
       -1   -1    0    0    0  501  0.00000000000E+00  0.00000000000E+00 -0.11849387477E+04  0.11849387478E+04  0.50400001928E-02 0.  1.
    10030    2    1    2    0    0  0.00000000000E+00  0.00000000000E+00 -0.55225588733E+02  0.23146519068E+04  0.23139929957E+04 0.  0.
        3    1    3    3  502    0  0.69808657859E+03  0.56524968620E+03 -0.75707267388E+03  0.11747302340E+04  0.10100000352E+00 0.  1.
       -3    1    3    3    0  502 -0.69808657859E+03 -0.56524968620E+03  0.70184708514E+03  0.11399216728E+04  0.10100000352E+00 0. -1.
</event>
<event>
 5   0  0.6890600E-07  0.3501502E+04  0.7818609E-02  0.8113434E-01
       -1   -1    0    0    0  501  0.00000000000E+00  0.00000000000E+00  0.14983993892E+04  0.14983993892E+04  0.50400001928E-02 0. -1.
        1   -1    0    0  501    0  0.00000000000E+00  0.00000000000E+00 -0.20456018282E+04  0.20456018282E+04  0.50400001928E-02 0.  1.
    10030    2    1    2    0    0  0.00000000000E+00  0.00000000000E+00 -0.54720243899E+03  0.35440012175E+04  0.35015016950E+04 0.  0.
        3    1    3    3  502    0  0.12533265720E+04  0.59423937851E+03  0.80762534841E+03  0.16050565874E+04  0.10100000352E+00 0. -1.
       -3    1    3    3    0  502 -0.12533265720E+04 -0.59423937851E+03 -0.13548277874E+04  0.19389446301E+04  0.10100000352E+00 0.  1.
</event>
<event>
 5   0  0.6630125E-07  0.3463121E+04  0.7818609E-02  0.8122586E-01
        1   -1    0    0  501    0  0.00000000000E+00  0.00000000000E+00  0.10571792252E+04  0.10571792252E+04  0.50400001928E-02 0. -1.
       -1   -1    0    0    0  501  0.00000000000E+00  0.00000000000E+00 -0.28361331849E+04  0.28361331849E+04  0.50400001928E-02 0.  1.
    10030    2    1    2    0    0  0.00000000000E+00  0.00000000000E+00 -0.17789539596E+04  0.38933124101E+04  0.34631206061E+04 0.  0.
        4    1    3    3  502    0  0.17145637445E+04 -0.11227966500E+03 -0.64845306602E+03  0.18365262179E+04  0.12699999809E+01 0.  1.
       -4    1    3    3    0  502 -0.17145637445E+04  0.11227966500E+03 -0.11305008936E+04  0.20567861922E+04  0.12699999809E+01 0. -1.
</event>
<event>
 5   0  0.1999883E-06  0.3374977E+04  0.7818609E-02  0.8144075E-01
        2   -1    0    0  501    0  0.00000000000E+00  0.00000000000E+00  0.10908558133E+04  0.10908558133E+04  0.25500000920E-02 0.  1.
       -2   -1    0    0    0  501  0.00000000000E+00  0.00000000000E+00 -0.26104430468E+04  0.26104430468E+04  0.25500000920E-02 0. -1.
    10030    2    1    2    0    0  0.00000000000E+00  0.00000000000E+00 -0.15195872335E+04  0.37012988601E+04  0.33749767245E+04 0.  0.
        4    1    3    3  502    0 -0.71669740986E+03 -0.83465003263E+03 -0.21630922080E+04  0.24267808652E+04  0.12699999809E+01 0. -1.
       -4    1    3    3    0  502  0.71669740986E+03  0.83465003263E+03  0.64350497446E+03  0.12745179949E+04  0.12699999809E+01 0.  1.
</event>
<event>
 5   0  0.6890600E-07  0.3524904E+04  0.7818609E-02  0.8107913E-01
       -1   -1    0    0    0  501  0.00000000000E+00  0.00000000000E+00  0.19467263212E+04  0.19467263212E+04  0.50400001928E-02 0.  1.
        1   -1    0    0  501    0  0.00000000000E+00  0.00000000000E+00 -0.15956207321E+04  0.15956207321E+04  0.50400001928E-02 0. -1.
    10030    2    1    2    0    0  0.00000000000E+00  0.00000000000E+00  0.35110558913E+03  0.35423470533E+04  0.35249039010E+04 0.  0.
        3    1    3    3  502    0  0.19351229917E+02  0.14810895890E+04 -0.78428409330E+03  0.16760377054E+04  0.10100000352E+00 0. -1.
       -3    1    3    3    0  502 -0.19351229917E+02 -0.14810895890E+04  0.11353896824E+04  0.18663093479E+04  0.10100000352E+00 0.  1.
</event>
<event>
 5   0  0.2023479E-06  0.3410858E+04  0.7818609E-02  0.8135247E-01
       -2   -1    0    0    0  501  0.00000000000E+00  0.00000000000E+00  0.12883955286E+04  0.12883955286E+04  0.25500000920E-02 0.  1.
        2   -1    0    0  501    0  0.00000000000E+00  0.00000000000E+00 -0.22574493452E+04  0.22574493452E+04  0.25500000920E-02 0. -1.
    10030    2    1    2    0    0  0.00000000000E+00  0.00000000000E+00 -0.96905381660E+03  0.35458448738E+04  0.34108577469E+04 0.  0.
        5    1    3    3  502    0  0.14513883846E+04 -0.72766258839E+03 -0.10271460634E+04  0.19212163363E+04  0.46999998093E+01 0. -1.
       -5    1    3    3    0  502 -0.14513883846E+04  0.72766258839E+03  0.58092246800E+02  0.16246285374E+04  0.46999998093E+01 0.  1.
</event>
<event>
 5   0  0.6890600E-07  0.3489341E+04  0.7818609E-02  0.8116321E-01
       -1   -1    0    0    0  501  0.00000000000E+00  0.00000000000E+00  0.13734337485E+04  0.13734337485E+04  0.50400001928E-02 0.  1.
        1   -1    0    0  501    0  0.00000000000E+00  0.00000000000E+00 -0.22162523629E+04  0.22162523629E+04  0.50400001928E-02 0. -1.
    10030    2    1    2    0    0  0.00000000000E+00  0.00000000000E+00 -0.84281861442E+03  0.35896861114E+04  0.34893413650E+04 0.  0.
        3    1    3    3  502    0 -0.16534635287E+04 -0.43558896340E+03 -0.77807286370E+03  0.18785837158E+04  0.10100000352E+00 0. -1.
       -3    1    3    3    0  502  0.16534635287E+04  0.43558896340E+03 -0.64745750717E+02  0.17111023956E+04  0.10100000352E+00 0.  1.
</event>
<event>
 5   0  0.2073287E-06  0.3382933E+04  0.7818609E-02  0.8142108E-01
        2   -1    0    0  501    0  0.00000000000E+00  0.00000000000E+00  0.13565072617E+04  0.13565072617E+04  0.25500000920E-02 0.  1.
       -2   -1    0    0    0  501  0.00000000000E+00  0.00000000000E+00 -0.21091366786E+04  0.21091366786E+04  0.25500000920E-02 0. -1.
    10030    2    1    2    0    0  0.00000000000E+00  0.00000000000E+00 -0.75262941685E+03  0.34656439403E+04  0.33829331773E+04 0.  0.
        1    1    3    3  502    0  0.15168514853E+04 -0.68656961808E+03 -0.68166758210E+03  0.17991350592E+04  0.50400001928E-02 0. -1.
       -1    1    3    3    0  502 -0.15168514853E+04  0.68656961808E+03 -0.70961834754E+02  0.16665088811E+04  0.50400001928E-02 0.  1.
</event>
<event>
 5   0  0.6890600E-07  0.3606151E+04  0.7818609E-02  0.8089084E-01
       -1   -1    0    0    0  501  0.00000000000E+00  0.00000000000E+00  0.13427494282E+04  0.13427494282E+04  0.50400001928E-02 0. -1.
        1   -1    0    0  501    0  0.00000000000E+00  0.00000000000E+00 -0.24212128018E+04  0.24212128018E+04  0.50400001928E-02 0.  1.
    10030    2    1    2    0    0  0.00000000000E+00  0.00000000000E+00 -0.10784633736E+04  0.37639622299E+04  0.36061514694E+04 0.  0.
        3    1    3    3  502    0  0.35873054952E+03 -0.16036929303E+04 -0.13137023826E+04  0.21038851162E+04  0.10100000352E+00 0.  1.
       -3    1    3    3    0  502 -0.35873054952E+03  0.16036929303E+04  0.23523900901E+03  0.16600771137E+04  0.10100000352E+00 0. -1.
</event>
<event>
 5   0  0.2023479E-06  0.3389977E+04  0.7818609E-02  0.8140371E-01
        2   -1    0    0  501    0  0.00000000000E+00  0.00000000000E+00  0.20552658390E+04  0.20552658390E+04  0.25500000920E-02 0. -1.
       -2   -1    0    0    0  501  0.00000000000E+00  0.00000000000E+00 -0.13978656588E+04  0.13978656588E+04  0.25500000920E-02 0.  1.
    10030    2    1    2    0    0  0.00000000000E+00  0.00000000000E+00  0.65740018021E+03  0.34531314977E+04  0.33899767173E+04 0.  0.
        5    1    3    3  502    0  0.19693068064E+03  0.15022030697E+04  0.11028371285E+04  0.18739443902E+04  0.46999998093E+01 0. -1.
       -5    1    3    3    0  502 -0.19693068064E+03 -0.15022030697E+04 -0.44543694832E+03  0.15791871075E+04  0.46999998093E+01 0.  1.
</event>
<event>
 5   0  0.2020725E-06  0.3461312E+04  0.7818609E-02  0.8123020E-01
       -2   -1    0    0    0  501  0.00000000000E+00  0.00000000000E+00  0.14445074659E+04  0.14445074659E+04  0.25500000920E-02 0. -1.
        2   -1    0    0  501    0  0.00000000000E+00  0.00000000000E+00 -0.20734893902E+04  0.20734893902E+04  0.25500000920E-02 0.  1.
    10030    2    1    2    0    0  0.00000000000E+00  0.00000000000E+00 -0.62898192427E+03  0.35179968561E+04  0.34613124128E+04 0.  0.
        3    1    3    3  502    0 -0.12508298162E+04 -0.22330765149E+02 -0.15299417945E+04  0.19763086289E+04  0.10100000352E+00 0.  1.
       -3    1    3    3    0  502  0.12508298162E+04  0.22330765149E+02  0.90095987019E+03  0.15416882272E+04  0.10100000352E+00 0. -1.
</event>
<event>
 5   0  0.2020725E-06  0.3279767E+04  0.7818609E-02  0.8168063E-01
        2   -1    0    0  501    0  0.00000000000E+00  0.00000000000E+00  0.11612026230E+04  0.11612026230E+04  0.25500000920E-02 0.  1.
       -2   -1    0    0    0  501  0.00000000000E+00  0.00000000000E+00 -0.23158901561E+04  0.23158901561E+04  0.25500000920E-02 0. -1.
    10030    2    1    2    0    0  0.00000000000E+00  0.00000000000E+00 -0.11546875330E+04  0.34770927791E+04  0.32797668965E+04 0.  0.
        3    1    3    3  502    0  0.10386069927E+04 -0.12035669670E+04 -0.15071505495E+03  0.15968697402E+04  0.10100000352E+00 0.  1.
       -3    1    3    3    0  502 -0.10386069927E+04  0.12035669670E+04 -0.10039724781E+04  0.18802230389E+04  0.10100000352E+00 0. -1.
</event>
<event>
 5   0  0.6630125E-07  0.3124531E+04  0.7818609E-02  0.8209038E-01
        1   -1    0    0  501    0  0.00000000000E+00  0.00000000000E+00  0.23348269895E+04  0.23348269895E+04  0.50400001928E-02 0. -1.
       -1   -1    0    0    0  501  0.00000000000E+00  0.00000000000E+00 -0.10453339317E+04  0.10453339318E+04  0.50400001928E-02 0.  1.
    10030    2    1    2    0    0  0.00000000000E+00  0.00000000000E+00  0.12894930577E+04  0.33801609212E+04  0.31245312460E+04 0.  0.
        1    1    3    3  502    0  0.91377653787E+03  0.11631120730E+04  0.10075809032E+03  0.14825550406E+04  0.50400001928E-02 0.  1.
       -1    1    3    3    0  502 -0.91377653787E+03 -0.11631120730E+04  0.11887349674E+04  0.18976058807E+04  0.50400001928E-02 0. -1.
</event>
<event>
 5   0  0.6630125E-07  0.3437562E+04  0.7818609E-02  0.8128748E-01
        1   -1    0    0  501    0  0.00000000000E+00  0.00000000000E+00  0.11505331419E+04  0.11505331419E+04  0.50400001928E-02 0. -1.
       -1   -1    0    0    0  501  0.00000000000E+00  0.00000000000E+00 -0.25676866412E+04  0.25676866412E+04  0.50400001928E-02 0.  1.
    10030    2    1    2    0    0  0.00000000000E+00  0.00000000000E+00 -0.14171534994E+04  0.37182197831E+04  0.34375622634E+04 0.  0.
        4    1    3    3  502    0  0.47266353610E+03 -0.32614086399E+03  0.10436965318E+04  0.11912525949E+04  0.12699999809E+01 0. -1.
       -4    1    3    3    0  502 -0.47266353610E+03  0.32614086399E+03 -0.24608500312E+04  0.25269671882E+04  0.12699999809E+01 0.  1.
</event>
<event>
 5   0  0.6630125E-07  0.3442376E+04  0.7818609E-02  0.8127584E-01
       -1   -1    0    0    0  501  0.00000000000E+00  0.00000000000E+00  0.16680934026E+04  0.16680934026E+04  0.50400001928E-02 0.  1.
        1   -1    0    0  501    0  0.00000000000E+00  0.00000000000E+00 -0.17759724206E+04  0.17759724206E+04  0.50400001928E-02 0. -1.
    10030    2    1    2    0    0  0.00000000000E+00  0.00000000000E+00 -0.10787901799E+03  0.34440658232E+04  0.34423758528E+04 0.  0.
        1    1    3    3  502    0  0.11525139240E+04  0.43070081588E+03 -0.12581484237E+04  0.17597525377E+04  0.50400001928E-02 0. -1.
       -1    1    3    3    0  502 -0.11525139240E+04 -0.43070081588E+03  0.11502694058E+04  0.16843132855E+04  0.50400001928E-02 0.  1.
</event>
<event>
 5   0  0.6630125E-07  0.3470728E+04  0.7818609E-02  0.8120762E-01
        1   -1    0    0  501    0  0.00000000000E+00  0.00000000000E+00  0.11357802412E+04  0.11357802412E+04  0.50400001928E-02 0. -1.
       -1   -1    0    0    0  501  0.00000000000E+00  0.00000000000E+00 -0.26514708338E+04  0.26514708339E+04  0.50400001928E-02 0.  1.
    10030    2    1    2    0    0  0.00000000000E+00  0.00000000000E+00 -0.15156905926E+04  0.37872510751E+04  0.34707279832E+04 0.  0.
        5    1    3    3  502    0  0.51395033987E+03  0.15826276060E+04 -0.22036968017E+03  0.16785231535E+04  0.46999998093E+01 0. -1.
       -5    1    3    3    0  502 -0.51395033987E+03 -0.15826276060E+04 -0.12953209124E+04  0.21087279216E+04  0.46999998093E+01 0.  1.
</event>
<event>
 5   0  0.6890600E-07  0.2999066E+04  0.7818609E-02  0.8243998E-01
       -1   -1    0    0    0  501  0.00000000000E+00  0.00000000000E+00  0.95752970957E+03  0.95752970958E+03  0.50400001928E-02 0. -1.
        1   -1    0    0  501    0  0.00000000000E+00  0.00000000000E+00 -0.23483341779E+04  0.23483341779E+04  0.50400001928E-02 0.  1.
    10030    2    1    2    0    0  0.00000000000E+00  0.00000000000E+00 -0.13908044683E+04  0.33058638875E+04  0.29990663503E+04 0.  0.
        3    1    3    3  502    0 -0.11962530459E+04 -0.56991644203E+03  0.78386896653E+02  0.13273924124E+04  0.10100000352E+00 0. -1.
       -3    1    3    3    0  502  0.11962530459E+04  0.56991644203E+03 -0.14691913650E+04  0.19784714751E+04  0.10100000352E+00 0.  1.
</event>
<event>
 5   0  0.6630125E-07  0.2741734E+04  0.7818609E-02  0.8321589E-01
       -1   -1    0    0    0  501  0.00000000000E+00  0.00000000000E+00  0.12859508142E+04  0.12859508142E+04  0.50400001928E-02 0.  1.
        1   -1    0    0  501    0  0.00000000000E+00  0.00000000000E+00 -0.14613909374E+04  0.14613909375E+04  0.50400001928E-02 0. -1.
    10030    2    1    2    0    0  0.00000000000E+00  0.00000000000E+00 -0.17544012324E+03  0.27473417517E+04  0.27417343897E+04 0.  0.
        4    1    3    3  502    0  0.12416754644E+04 -0.16997381016E+03  0.46895748053E+03  0.13381224856E+04  0.12699999809E+01 0.  1.
       -4    1    3    3    0  502 -0.12416754644E+04  0.16997381016E+03 -0.64439760378E+03  0.14092192660E+04  0.12699999809E+01 0. -1.
</event>
<event>
 5   0  0.7378896E-07  0.3489923E+04  0.7818609E-02  0.8116182E-01
       -1   -1    0    0    0  501  0.00000000000E+00  0.00000000000E+00  0.25567092017E+04  0.25567092017E+04  0.50400001928E-02 0.  1.
        1   -1    0    0  501    0  0.00000000000E+00  0.00000000000E+00 -0.11909414100E+04  0.11909414100E+04  0.50400001928E-02 0. -1.
    10030    2    1    2    0    0  0.00000000000E+00  0.00000000000E+00  0.13657677917E+04  0.37476506117E+04  0.34899231290E+04 0.  0.
        2    1    3    3  502    0  0.75144891697E+02 -0.10382949783E+04 -0.82096017777E+03  0.13257748037E+04  0.25500000920E-02 0.  1.
       -2    1    3    3    0  502 -0.75144891697E+02  0.10382949783E+04  0.21867279695E+04  0.24218758080E+04  0.25500000920E-02 0. -1.
</event>
<event>
 5   0  0.2001768E-06  0.3526297E+04  0.7818609E-02  0.8107586E-01
        2   -1    0    0  501    0  0.00000000000E+00  0.00000000000E+00  0.19895588796E+04  0.19895588796E+04  0.25500000920E-02 0. -1.
       -2   -1    0    0    0  501  0.00000000000E+00  0.00000000000E+00 -0.15625038579E+04  0.15625038579E+04  0.25500000920E-02 0.  1.
    10030    2    1    2    0    0  0.00000000000E+00  0.00000000000E+00  0.42705502173E+03  0.35520627376E+04  0.35262974492E+04 0.  0.
        2    1    3    3  502    0  0.15072522900E+04  0.73384118987E+03 -0.33668791328E+03  0.17098804370E+04  0.25500000920E-02 0.  1.
       -2    1    3    3    0  502 -0.15072522900E+04 -0.73384118987E+03  0.76374293502E+03  0.18421823006E+04  0.25500000920E-02 0. -1.
</event>
<event>
 5   0  0.6630125E-07  0.3211623E+04  0.7818609E-02  0.8185754E-01
       -1   -1    0    0    0  501  0.00000000000E+00  0.00000000000E+00  0.16148472164E+04  0.16148472164E+04  0.50400001928E-02 0.  1.
        1   -1    0    0  501    0  0.00000000000E+00  0.00000000000E+00 -0.15968267800E+04  0.15968267800E+04  0.50400001928E-02 0. -1.
    10030    2    1    2    0    0  0.00000000000E+00  0.00000000000E+00  0.18020436411E+02  0.32116739964E+04  0.32116234404E+04 0.  0.
        5    1    3    3  502    0  0.33071663264E+03 -0.95430910222E+03  0.12574407949E+04  0.16128418386E+04  0.46999998093E+01 0.  1.
       -5    1    3    3    0  502 -0.33071663264E+03  0.95430910222E+03 -0.12394203585E+04  0.15988321578E+04  0.46999998093E+01 0. -1.
</event>
<event>
 5   0  0.6890600E-07  0.3068909E+04  0.7818609E-02  0.8224323E-01
       -1   -1    0    0    0  501  0.00000000000E+00  0.00000000000E+00  0.91731253949E+03  0.91731253951E+03  0.50400001928E-02 0. -1.
        1   -1    0    0  501    0  0.00000000000E+00  0.00000000000E+00 -0.25667926548E+04  0.25667926548E+04  0.50400001928E-02 0.  1.
    10030    2    1    2    0    0  0.00000000000E+00  0.00000000000E+00 -0.16494801153E+04  0.34841051943E+04  0.30689093102E+04 0.  0.
        3    1    3    3  502    0  0.78307252164E+03 -0.13181948407E+04 -0.75558167147E+03  0.17093109385E+04  0.10100000352E+00 0. -1.
       -3    1    3    3    0  502 -0.78307252164E+03  0.13181948407E+04 -0.89389844381E+03  0.17747942557E+04  0.10100000352E+00 0.  1.
</event>
<event>
 5   0  0.2001768E-06  0.2767869E+04  0.7818609E-02  0.8313314E-01
        2   -1    0    0  501    0  0.00000000000E+00  0.00000000000E+00  0.14761010375E+04  0.14761010375E+04  0.25500000920E-02 0.  1.
       -2   -1    0    0    0  501  0.00000000000E+00  0.00000000000E+00 -0.12975225697E+04  0.12975225697E+04  0.25500000920E-02 0. -1.
    10030    2    1    2    0    0  0.00000000000E+00  0.00000000000E+00  0.17857846780E+03  0.27736236072E+04  0.27678687912E+04 0.  0.
        2    1    3    3  502    0  0.82165983722E+00 -0.27805090144E+03  0.14478223306E+04  0.14742803261E+04  0.25500000920E-02 0.  1.
       -2    1    3    3    0  502 -0.82165983722E+00  0.27805090144E+03 -0.12692438628E+04  0.12993432811E+04  0.25500000920E-02 0. -1.
</event>
<event>
 5   0  0.7378896E-07  0.3509949E+04  0.7818609E-02  0.8111436E-01
        1   -1    0    0  501    0  0.00000000000E+00  0.00000000000E+00  0.25541011445E+04  0.25541011445E+04  0.50400001928E-02 0. -1.
       -1   -1    0    0    0  501  0.00000000000E+00  0.00000000000E+00 -0.12058784184E+04  0.12058784184E+04  0.50400001928E-02 0.  1.
    10030    2    1    2    0    0  0.00000000000E+00  0.00000000000E+00  0.13482227260E+04  0.37599795629E+04  0.35099489732E+04 0.  0.
        2    1    3    3  502    0 -0.88640829229E+03  0.56298706977E+03  0.21804295503E+04  0.24201130398E+04  0.25500000920E-02 0. -1.
       -2    1    3    3    0  502  0.88640829229E+03 -0.56298706977E+03 -0.83220682428E+03  0.13398665231E+04  0.25500000920E-02 0.  1.
</event>
<event>
 5   0  0.6630125E-07  0.3262223E+04  0.7818609E-02  0.8172575E-01
        1   -1    0    0  501    0  0.00000000000E+00  0.00000000000E+00  0.18135087776E+04  0.18135087776E+04  0.50400001928E-02 0.  1.
       -1   -1    0    0    0  501  0.00000000000E+00  0.00000000000E+00 -0.14670588556E+04  0.14670588556E+04  0.50400001928E-02 0. -1.
    10030    2    1    2    0    0  0.00000000000E+00  0.00000000000E+00  0.34644992206E+03  0.32805676332E+04  0.32622226239E+04 0.  0.
        5    1    3    3  502    0 -0.70573577087E+03 -0.76492083932E+03  0.14362076316E+04  0.17736632487E+04  0.46999998093E+01 0.  1.
       -5    1    3    3    0  502  0.70573577087E+03  0.76492083932E+03 -0.10897577095E+04  0.15069043845E+04  0.46999998093E+01 0. -1.
</event>
<event>
 5   0  0.2073287E-06  0.3388076E+04  0.7818609E-02  0.8140839E-01
       -2   -1    0    0    0  501  0.00000000000E+00  0.00000000000E+00  0.17592883086E+04  0.17592883086E+04  0.25500000920E-02 0. -1.
        2   -1    0    0  501    0  0.00000000000E+00  0.00000000000E+00 -0.16312078449E+04  0.16312078449E+04  0.25500000920E-02 0.  1.
    10030    2    1    2    0    0  0.00000000000E+00  0.00000000000E+00  0.12808046366E+03  0.33904961535E+04  0.33880760856E+04 0.  0.
        1    1    3    3  502    0 -0.12799639771E+04  0.68926455234E+03  0.93435764938E+03  0.17281254650E+04  0.50400001928E-02 0. -1.
       -1    1    3    3    0  502  0.12799639771E+04 -0.68926455234E+03 -0.80627718572E+03  0.16623706885E+04  0.50400001928E-02 0.  1.
</event>
<event>
 5   0  0.2001768E-06  0.3470644E+04  0.7818609E-02  0.8120782E-01
       -2   -1    0    0    0  501  0.00000000000E+00  0.00000000000E+00  0.21971246366E+04  0.21971246366E+04  0.25500000920E-02 0. -1.
        2   -1    0    0  501    0  0.00000000000E+00  0.00000000000E+00 -0.13705830708E+04  0.13705830708E+04  0.25500000920E-02 0.  1.
    10030    2    1    2    0    0  0.00000000000E+00  0.00000000000E+00  0.82654156587E+03  0.35677077074E+04  0.34706436471E+04 0.  0.
        2    1    3    3  502    0 -0.14429023854E+04  0.96389271383E+03  0.43063624004E+03  0.17878769613E+04  0.25500000920E-02 0.  1.
       -2    1    3    3    0  502  0.14429023854E+04 -0.96389271383E+03  0.39590532583E+03  0.17798307461E+04  0.25500000920E-02 0. -1.
</event>
<event>
 5   0  0.1999883E-06  0.3405838E+04  0.7818609E-02  0.8136475E-01
        2   -1    0    0  501    0  0.00000000000E+00  0.00000000000E+00  0.99662419480E+03  0.99662419481E+03  0.25500000920E-02 0.  1.
       -2   -1    0    0    0  501  0.00000000000E+00  0.00000000000E+00 -0.29097551027E+04  0.29097551027E+04  0.25500000920E-02 0. -1.
    10030    2    1    2    0    0  0.00000000000E+00  0.00000000000E+00 -0.19131309079E+04  0.39063792975E+04  0.34058375395E+04 0.  0.
        4    1    3    3  502    0 -0.11894721368E+01  0.14747252214E+03 -0.29024162885E+04  0.29061609530E+04  0.12699999809E+01 0. -1.
       -4    1    3    3    0  502  0.11894721368E+01 -0.14747252214E+03  0.98928538061E+03  0.10002183446E+04  0.12699999809E+01 0.  1.
</event>
<event>
 5   0  0.2023479E-06  0.3557964E+04  0.7818609E-02  0.8100189E-01
        2   -1    0    0  501    0  0.00000000000E+00  0.00000000000E+00  0.24039725457E+04  0.24039725457E+04  0.25500000920E-02 0.  1.
       -2   -1    0    0    0  501  0.00000000000E+00  0.00000000000E+00 -0.13164780263E+04  0.13164780263E+04  0.25500000920E-02 0. -1.
    10030    2    1    2    0    0  0.00000000000E+00  0.00000000000E+00  0.10874945195E+04  0.37204505720E+04  0.35579640427E+04 0.  0.
        5    1    3    3  502    0 -0.12355551543E+04 -0.70330670327E+03  0.16619369994E+04  0.21870741959E+04  0.46999998093E+01 0.  1.
       -5    1    3    3    0  502  0.12355551543E+04  0.70330670327E+03 -0.57444247991E+03  0.15333763762E+04  0.46999998093E+01 0. -1.
</event>
<event>
 5   0  0.1999883E-06  0.2708897E+04  0.7818609E-02  0.8332124E-01
       -2   -1    0    0    0  501  0.00000000000E+00  0.00000000000E+00  0.80526043272E+03  0.80526043272E+03  0.25500000920E-02 0. -1.
        2   -1    0    0  501    0  0.00000000000E+00  0.00000000000E+00 -0.22781839583E+04  0.22781839583E+04  0.25500000920E-02 0.  1.
    10030    2    1    2    0    0  0.00000000000E+00  0.00000000000E+00 -0.14729235256E+04  0.30834443910E+04  0.27088974880E+04 0.  0.
        4    1    3    3  502    0 -0.62223455491E+03 -0.85185318890E+03 -0.17034516447E+04  0.20036413889E+04  0.12699999809E+01 0.  1.
       -4    1    3    3    0  502  0.62223455491E+03  0.85185318890E+03  0.23052811908E+03  0.10798030021E+04  0.12699999809E+01 0. -1.
</event>
<event>
 5   0  0.2073287E-06  0.2193988E+04  0.7818609E-02  0.8520935E-01
        2   -1    0    0  501    0  0.00000000000E+00  0.00000000000E+00  0.23568920028E+04  0.23568920028E+04  0.25500000920E-02 0.  1.
       -2   -1    0    0    0  501  0.00000000000E+00  0.00000000000E+00 -0.51058570830E+03  0.51058570831E+03  0.25500000920E-02 0. -1.
    10030    2    1    2    0    0  0.00000000000E+00  0.00000000000E+00  0.18463062945E+04  0.28674777111E+04  0.21939875776E+04 0.  0.
        1    1    3    3  502    0  0.90420944254E+03  0.59256847629E+03  0.67982039201E+03  0.12770622070E+04  0.50400001928E-02 0. -1.
       -1    1    3    3    0  502 -0.90420944254E+03 -0.59256847629E+03  0.11664859025E+04  0.15904155042E+04  0.50400001928E-02 0.  1.
</event>
<event>
 5   0  0.7378896E-07  0.3454907E+04  0.7818609E-02  0.8124560E-01
       -1   -1    0    0    0  501  0.00000000000E+00  0.00000000000E+00  0.16657885648E+04  0.16657885648E+04  0.50400001928E-02 0. -1.
        1   -1    0    0  501    0  0.00000000000E+00  0.00000000000E+00 -0.17914016827E+04  0.17914016827E+04  0.50400001928E-02 0.  1.
    10030    2    1    2    0    0  0.00000000000E+00  0.00000000000E+00 -0.12561311788E+03  0.34571902475E+04  0.34549074882E+04 0.  0.
        2    1    3    3  502    0 -0.12795537600E+04 -0.22170409475E+03  0.10771062942E+04  0.16871776728E+04  0.25500000920E-02 0. -1.
       -2    1    3    3    0  502  0.12795537600E+04  0.22170409475E+03 -0.12027194121E+04  0.17700125747E+04  0.25500000920E-02 0.  1.
</event>
<event>
 5   0  0.2001768E-06  0.3533831E+04  0.7818609E-02  0.8105819E-01
       -2   -1    0    0    0  501  0.00000000000E+00  0.00000000000E+00  0.22742438017E+04  0.22742438017E+04  0.25500000920E-02 0.  1.
        2   -1    0    0  501    0  0.00000000000E+00  0.00000000000E+00 -0.13727595571E+04  0.13727595571E+04  0.25500000920E-02 0. -1.
    10030    2    1    2    0    0  0.00000000000E+00  0.00000000000E+00  0.90148424461E+03  0.36470033588E+04  0.35338307339E+04 0.  0.
        2    1    3    3  502    0  0.46877591469E+03  0.73234554093E+03  0.20381533359E+04  0.22158857981E+04  0.25500000920E-02 0.  1.
       -2    1    3    3    0  502 -0.46877591469E+03 -0.73234554093E+03 -0.11366690913E+04  0.14311175607E+04  0.25500000920E-02 0. -1.
</event>
<event>
 5   0  0.2020725E-06  0.3479296E+04  0.7818609E-02  0.8118714E-01
       -2   -1    0    0    0  501  0.00000000000E+00  0.00000000000E+00  0.10839407353E+04  0.10839407353E+04  0.25500000920E-02 0.  1.
        2   -1    0    0  501    0  0.00000000000E+00  0.00000000000E+00 -0.27920113417E+04  0.27920113417E+04  0.25500000920E-02 0. -1.
    10030    2    1    2    0    0  0.00000000000E+00  0.00000000000E+00 -0.17080706064E+04  0.38759520770E+04  0.34792958061E+04 0.  0.
        3    1    3    3  502    0  0.39551096544E+03 -0.11437447066E+04  0.53815598455E+03  0.13244594186E+04  0.10100000352E+00 0.  1.
       -3    1    3    3    0  502 -0.39551096544E+03  0.11437447066E+04 -0.22462265910E+04  0.25514926584E+04  0.10100000352E+00 0. -1.
</event>
<event>
 5   0  0.2023479E-06  0.2405976E+04  0.7818609E-02  0.8437270E-01
       -2   -1    0    0    0  501  0.00000000000E+00  0.00000000000E+00  0.11548851553E+04  0.11548851553E+04  0.25500000920E-02 0.  1.
        2   -1    0    0  501    0  0.00000000000E+00  0.00000000000E+00 -0.12530940500E+04  0.12530940501E+04  0.25500000920E-02 0. -1.
    10030    2    1    2    0    0  0.00000000000E+00  0.00000000000E+00 -0.98208894753E+02  0.24079792054E+04  0.24059756579E+04 0.  0.
        5    1    3    3  502    0  0.18860288312E+03  0.11871793030E+04 -0.95960968684E+02  0.12059006354E+04  0.46999998093E+01 0. -1.
       -5    1    3    3    0  502 -0.18860288312E+03 -0.11871793030E+04 -0.22479260688E+01  0.12020785699E+04  0.46999998093E+01 0.  1.
</event>
<event>
 5   0  0.2073287E-06  0.3484271E+04  0.7818609E-02  0.8117528E-01
        2   -1    0    0  501    0  0.00000000000E+00  0.00000000000E+00  0.25684130664E+04  0.25684130664E+04  0.25500000920E-02 0. -1.
       -2   -1    0    0    0  501  0.00000000000E+00  0.00000000000E+00 -0.11816772499E+04  0.11816772499E+04  0.25500000920E-02 0.  1.
    10030    2    1    2    0    0  0.00000000000E+00  0.00000000000E+00  0.13867358165E+04  0.37500903163E+04  0.34842705342E+04 0.  0.
        1    1    3    3  502    0  0.97897857489E+03  0.11876771238E+04  0.15717557253E+04  0.21998618276E+04  0.50400001928E-02 0. -1.
       -1    1    3    3    0  502 -0.97897857489E+03 -0.11876771238E+04 -0.18501990880E+03  0.15502284887E+04  0.50400001928E-02 0.  1.
</event>
<event>
 5   0  0.6630125E-07  0.2854369E+04  0.7818609E-02  0.8286585E-01
        1   -1    0    0  501    0  0.00000000000E+00  0.00000000000E+00  0.14061001905E+04  0.14061001906E+04  0.50400001928E-02 0. -1.
       -1   -1    0    0    0  501  0.00000000000E+00  0.00000000000E+00 -0.14485847465E+04  0.14485847465E+04  0.50400001928E-02 0.  1.
    10030    2    1    2    0    0  0.00000000000E+00  0.00000000000E+00 -0.42484555968E+02  0.28546849371E+04  0.28543687835E+04 0.  0.
        1    1    3    3  502    0 -0.20679328361E+03 -0.39062313623E+03  0.13359288052E+04  0.14071445090E+04  0.50400001928E-02 0. -1.
       -1    1    3    3    0  502  0.20679328361E+03  0.39062313623E+03 -0.13784133611E+04  0.14475404281E+04  0.50400001928E-02 0.  1.
</event>
<event>
 5   0  0.2001768E-06  0.3303852E+04  0.7818609E-02  0.8161916E-01
       -2   -1    0    0    0  501  0.00000000000E+00  0.00000000000E+00  0.13502168652E+04  0.13502168652E+04  0.25500000920E-02 0.  1.
        2   -1    0    0  501    0  0.00000000000E+00  0.00000000000E+00 -0.20210523279E+04  0.20210523279E+04  0.25500000920E-02 0. -1.
    10030    2    1    2    0    0  0.00000000000E+00  0.00000000000E+00 -0.67083546266E+03  0.33712691931E+04  0.33038516544E+04 0.  0.
        2    1    3    3  502    0 -0.11263032752E+04 -0.47552166284E+03  0.79818784250E+03  0.14600629272E+04  0.25500000920E-02 0.  1.
       -2    1    3    3    0  502  0.11263032752E+04  0.47552166284E+03 -0.14690233052E+04  0.19112062659E+04  0.25500000920E-02 0. -1.
</event>
<event>
 5   0  0.6890600E-07  0.2654011E+04  0.7818609E-02  0.8350083E-01
        1   -1    0    0  501    0  0.00000000000E+00  0.00000000000E+00  0.17482164385E+04  0.17482164385E+04  0.50400001928E-02 0. -1.
       -1   -1    0    0    0  501  0.00000000000E+00  0.00000000000E+00 -0.10072801881E+04  0.10072801882E+04  0.50400001928E-02 0.  1.
    10030    2    1    2    0    0  0.00000000000E+00  0.00000000000E+00  0.74093625032E+03  0.27554966266E+04  0.26540111402E+04 0.  0.
        3    1    3    3  502    0 -0.10202462711E+04 -0.83744462993E+03  0.51255064513E+03  0.14159534370E+04  0.10100000352E+00 0. -1.
       -3    1    3    3    0  502  0.10202462711E+04  0.83744462993E+03  0.22838560519E+03  0.13395431896E+04  0.10100000352E+00 0.  1.
</event>
<event>
 5   0  0.2023479E-06  0.3523909E+04  0.7818609E-02  0.8108147E-01
        2   -1    0    0  501    0  0.00000000000E+00  0.00000000000E+00  0.13325985143E+04  0.13325985143E+04  0.25500000920E-02 0.  1.
       -2   -1    0    0    0  501  0.00000000000E+00  0.00000000000E+00 -0.23296470587E+04  0.23296470587E+04  0.25500000920E-02 0. -1.
    10030    2    1    2    0    0  0.00000000000E+00  0.00000000000E+00 -0.99704854439E+03  0.36622455731E+04  0.35239093118E+04 0.  0.
        5    1    3    3  502    0  0.14438712817E+04 -0.10095368387E+04 -0.52252215803E+03  0.18376562253E+04  0.46999998093E+01 0. -1.
       -5    1    3    3    0  502 -0.14438712817E+04  0.10095368387E+04 -0.47452638636E+03  0.18245893478E+04  0.46999998093E+01 0.  1.
</event>
<event>
 5   0  0.6630125E-07  0.2677214E+04  0.7818609E-02  0.8342436E-01
        1   -1    0    0  501    0  0.00000000000E+00  0.00000000000E+00  0.17190076652E+04  0.17190076652E+04  0.50400001928E-02 0. -1.
       -1   -1    0    0    0  501  0.00000000000E+00  0.00000000000E+00 -0.10423857940E+04  0.10423857940E+04  0.50400001928E-02 0.  1.
    10030    2    1    2    0    0  0.00000000000E+00  0.00000000000E+00  0.67662187124E+03  0.27613934593E+04  0.26772143508E+04 0.  0.
        4    1    3    3  502    0 -0.64202798565E+02  0.83793673499E+03 -0.73637504184E+03  0.11173673462E+04  0.12699999809E+01 0.  1.
       -4    1    3    3    0  502  0.64202798565E+02 -0.83793673499E+03  0.14129969131E+04  0.16440261131E+04  0.12699999809E+01 0. -1.
</event>
<event>
 5   0  0.1999883E-06  0.3570621E+04  0.7818609E-02  0.8097255E-01
       -2   -1    0    0    0  501  0.00000000000E+00  0.00000000000E+00  0.15996567228E+04  0.15996567228E+04  0.25500000920E-02 0.  1.
        2   -1    0    0  501    0  0.00000000000E+00  0.00000000000E+00 -0.19925107037E+04  0.19925107037E+04  0.25500000920E-02 0. -1.
    10030    2    1    2    0    0  0.00000000000E+00  0.00000000000E+00 -0.39285398095E+03  0.35921674265E+04  0.35706207541E+04 0.  0.
        4    1    3    3  502    0  0.38933407428E+03  0.12833552805E+04 -0.13819905432E+04  0.19257417459E+04  0.12699999809E+01 0. -1.
       -4    1    3    3    0  502 -0.38933407428E+03 -0.12833552805E+04  0.98913656229E+03  0.16664256806E+04  0.12699999809E+01 0.  1.
</event>
<event>
 5   0  0.6630125E-07  0.3486478E+04  0.7818609E-02  0.8117002E-01
       -1   -1    0    0    0  501  0.00000000000E+00  0.00000000000E+00  0.18863627537E+04  0.18863627537E+04  0.50400001928E-02 0.  1.
        1   -1    0    0  501    0  0.00000000000E+00  0.00000000000E+00 -0.16109745320E+04  0.16109745320E+04  0.50400001928E-02 0. -1.
    10030    2    1    2    0    0  0.00000000000E+00  0.00000000000E+00  0.27538822171E+03  0.34973372858E+04  0.34864780822E+04 0.  0.
        1    1    3    3  502    0  0.78008833901E+03 -0.95512917507E+03 -0.10982444367E+04  0.16513480556E+04  0.50400001928E-02 0. -1.
       -1    1    3    3    0  502 -0.78008833901E+03  0.95512917507E+03  0.13736326584E+04  0.18459892302E+04  0.50400001928E-02 0.  1.
</event>
<event>
 5   0  0.2073287E-06  0.3513459E+04  0.7818609E-02  0.8110608E-01
        2   -1    0    0  501    0  0.00000000000E+00  0.00000000000E+00  0.18459204333E+04  0.18459204333E+04  0.25500000920E-02 0.  1.
       -2   -1    0    0    0  501  0.00000000000E+00  0.00000000000E+00 -0.16718479168E+04  0.16718479168E+04  0.25500000920E-02 0. -1.
    10030    2    1    2    0    0  0.00000000000E+00  0.00000000000E+00  0.17407251649E+03  0.35177683501E+04  0.35134588263E+04 0.  0.
        1    1    3    3  502    0 -0.38953873230E+03  0.18216332648E+03 -0.16183363448E+04  0.16744958723E+04  0.50400001928E-02 0. -1.
       -1    1    3    3    0  502  0.38953873230E+03 -0.18216332648E+03  0.17924088613E+04  0.18432724778E+04  0.50400001928E-02 0.  1.
</event>
<event>
 5   0  0.6630125E-07  0.3471518E+04  0.7818609E-02  0.8120573E-01
       -1   -1    0    0    0  501  0.00000000000E+00  0.00000000000E+00  0.18116633466E+04  0.18116633467E+04  0.50400001928E-02 0.  1.
        1   -1    0    0  501    0  0.00000000000E+00  0.00000000000E+00 -0.16630347560E+04  0.16630347560E+04  0.50400001928E-02 0. -1.
    10030    2    1    2    0    0  0.00000000000E+00  0.00000000000E+00  0.14862859065E+03  0.34746981027E+04  0.34715178880E+04 0.  0.
        4    1    3    3  502    0  0.38521846288E+03 -0.52571264585E+03  0.16845423711E+04  0.18062258062E+04  0.12699999809E+01 0.  1.
       -4    1    3    3    0  502 -0.38521846288E+03  0.52571264585E+03 -0.15359137804E+04  0.16684722964E+04  0.12699999809E+01 0. -1.
</event>
<event>
 5   0  0.2020725E-06  0.3470341E+04  0.7818609E-02  0.8120855E-01
        2   -1    0    0  501    0  0.00000000000E+00  0.00000000000E+00  0.22655497474E+04  0.22655497474E+04  0.25500000920E-02 0. -1.
       -2   -1    0    0    0  501  0.00000000000E+00  0.00000000000E+00 -0.13289564141E+04  0.13289564141E+04  0.25500000920E-02 0.  1.
    10030    2    1    2    0    0  0.00000000000E+00  0.00000000000E+00  0.93659333329E+03  0.35945061615E+04  0.34703411177E+04 0.  0.
        3    1    3    3  502    0 -0.12110179186E+04  0.66184424254E+03  0.15576951611E+04  0.20811094219E+04  0.10100000352E+00 0. -1.
       -3    1    3    3    0  502  0.12110179186E+04 -0.66184424254E+03 -0.62110182786E+03  0.15133967396E+04  0.10100000352E+00 0.  1.
</event>
<event>
 5   0  0.6890600E-07  0.3506248E+04  0.7818609E-02  0.8112311E-01
        1   -1    0    0  501    0  0.00000000000E+00  0.00000000000E+00  0.21085251658E+04  0.21085251658E+04  0.50400001928E-02 0. -1.
       -1   -1    0    0    0  501  0.00000000000E+00  0.00000000000E+00 -0.14576272410E+04  0.14576272410E+04  0.50400001928E-02 0.  1.
    10030    2    1    2    0    0  0.00000000000E+00  0.00000000000E+00  0.65089792481E+03  0.35661524069E+04  0.35062479776E+04 0.  0.
        3    1    3    3  502    0  0.26588047500E+03 -0.31608026966E+03 -0.14074337180E+04  0.14667886162E+04  0.10100000352E+00 0.  1.
       -3    1    3    3    0  502 -0.26588047500E+03  0.31608026966E+03  0.20583316428E+04  0.20993637907E+04  0.10100000352E+00 0. -1.
</event>
<event>
 5   0  0.2073287E-06  0.3499756E+04  0.7818609E-02  0.8113848E-01
        2   -1    0    0  501    0  0.00000000000E+00  0.00000000000E+00  0.17318376300E+04  0.17318376300E+04  0.25500000920E-02 0.  1.
       -2   -1    0    0    0  501  0.00000000000E+00  0.00000000000E+00 -0.17681064935E+04  0.17681064935E+04  0.25500000920E-02 0. -1.
    10030    2    1    2    0    0  0.00000000000E+00  0.00000000000E+00 -0.36268863477E+02  0.34999441235E+04  0.34997561968E+04 0.  0.
        1    1    3    3  502    0 -0.10480822249E+03  0.16529538985E+04 -0.58281686166E+03  0.17558236951E+04  0.50400001928E-02 0. -1.
       -1    1    3    3    0  502  0.10480822249E+03 -0.16529538985E+04  0.54654799818E+03  0.17441204283E+04  0.50400001928E-02 0.  1.
</event>
<event>
 5   0  0.6630125E-07  0.3524407E+04  0.7818609E-02  0.8108030E-01
       -1   -1    0    0    0  501  0.00000000000E+00  0.00000000000E+00  0.11358506310E+04  0.11358506310E+04  0.50400001928E-02 0. -1.
        1   -1    0    0  501    0  0.00000000000E+00  0.00000000000E+00 -0.27339519154E+04  0.27339519154E+04  0.50400001928E-02 0.  1.
    10030    2    1    2    0    0  0.00000000000E+00  0.00000000000E+00 -0.15981012844E+04  0.38698025464E+04  0.35244069051E+04 0.  0.
        4    1    3    3  502    0  0.12594723948E+04 -0.10734241453E+04 -0.14640888571E+04  0.22095402018E+04  0.12699999809E+01 0.  1.
       -4    1    3    3    0  502 -0.12594723948E+04  0.10734241453E+04 -0.13401242731E+03  0.16602623445E+04  0.12699999809E+01 0. -1.
</event>
<event>
 5   0  0.2020725E-06  0.2842799E+04  0.7818609E-02  0.8290103E-01
       -2   -1    0    0    0  501  0.00000000000E+00  0.00000000000E+00  0.13073565546E+04  0.13073565546E+04  0.25500000920E-02 0.  1.
        2   -1    0    0  501    0  0.00000000000E+00  0.00000000000E+00 -0.15453911445E+04  0.15453911445E+04  0.25500000920E-02 0. -1.
    10030    2    1    2    0    0  0.00000000000E+00  0.00000000000E+00 -0.23803458991E+03  0.28527476991E+04  0.28427994949E+04 0.  0.
        3    1    3    3  502    0 -0.10299102508E+03 -0.12268273358E+04 -0.83190090144E+03  0.14858571880E+04  0.10100000352E+00 0. -1.
       -3    1    3    3    0  502  0.10299102508E+03  0.12268273358E+04  0.59386631153E+03  0.13668905111E+04  0.10100000352E+00 0.  1.
</event>
<event>
 5   0  0.6630125E-07  0.3310664E+04  0.7818609E-02  0.8160187E-01
        1   -1    0    0  501    0  0.00000000000E+00  0.00000000000E+00  0.16714173289E+04  0.16714173289E+04  0.50400001928E-02 0. -1.
       -1   -1    0    0    0  501  0.00000000000E+00  0.00000000000E+00 -0.16394011778E+04  0.16394011778E+04  0.50400001928E-02 0.  1.
    10030    2    1    2    0    0  0.00000000000E+00  0.00000000000E+00  0.32016151105E+02  0.33108185067E+04  0.33106637024E+04 0.  0.
        4    1    3    3  502    0 -0.15082481619E+04  0.20597055660E+03  0.66633498191E+03  0.16616980199E+04  0.12699999809E+01 0.  1.
       -4    1    3    3    0  502  0.15082481619E+04 -0.20597055660E+03 -0.63431883081E+03  0.16491204869E+04  0.12699999809E+01 0. -1.
</event>
<event>
 5   0  0.6630125E-07  0.3488505E+04  0.7818609E-02  0.8116519E-01
       -1   -1    0    0    0  501  0.00000000000E+00  0.00000000000E+00  0.21535972034E+04  0.21535972034E+04  0.50400001928E-02 0.  1.
        1   -1    0    0  501    0  0.00000000000E+00  0.00000000000E+00 -0.14127141046E+04  0.14127141046E+04  0.50400001928E-02 0. -1.
    10030    2    1    2    0    0  0.00000000000E+00  0.00000000000E+00  0.74088309885E+03  0.35663113080E+04  0.34885052070E+04 0.  0.
        5    1    3    3  502    0 -0.96056416432E+03  0.73169481434E+02  0.18569559230E+04  0.20919714809E+04  0.46999998093E+01 0.  1.
       -5    1    3    3    0  502  0.96056416432E+03 -0.73169481434E+02 -0.11160728242E+04  0.14743398271E+04  0.46999998093E+01 0. -1.
</event>
<event>
 5   0  0.6630125E-07  0.3524487E+04  0.7818609E-02  0.8108011E-01
       -1   -1    0    0    0  501  0.00000000000E+00  0.00000000000E+00  0.15865327258E+04  0.15865327258E+04  0.50400001928E-02 0. -1.
        1   -1    0    0  501    0  0.00000000000E+00  0.00000000000E+00 -0.19574139997E+04  0.19574139997E+04  0.50400001928E-02 0.  1.
    10030    2    1    2    0    0  0.00000000000E+00  0.00000000000E+00 -0.37088127393E+03  0.35439467255E+04  0.35244865546E+04 0.  0.
        4    1    3    3  502    0  0.84336415786E+03 -0.14274520422E+04 -0.78591233475E+03  0.18348139542E+04  0.12699999809E+01 0.  1.
       -4    1    3    3    0  502 -0.84336415786E+03  0.14274520422E+04  0.41503106082E+03  0.17091327713E+04  0.12699999809E+01 0. -1.
</event>
<event>
 5   0  0.6630125E-07  0.3344645E+04  0.7818609E-02  0.8151628E-01
       -1   -1    0    0    0  501  0.00000000000E+00  0.00000000000E+00  0.19885714480E+04  0.19885714480E+04  0.50400001928E-02 0. -1.
        1   -1    0    0  501    0  0.00000000000E+00  0.00000000000E+00 -0.14063673121E+04  0.14063673121E+04  0.50400001928E-02 0.  1.
    10030    2    1    2    0    0  0.00000000000E+00  0.00000000000E+00  0.58220413591E+03  0.33949387601E+04  0.33446446043E+04 0.  0.
        5    1    3    3  502    0  0.15603890107E+04  0.29284216620E+03 -0.24222189530E+03  0.16060086972E+04  0.46999998093E+01 0. -1.
       -5    1    3    3    0  502 -0.15603890107E+04 -0.29284216620E+03  0.82442603121E+03  0.17889300629E+04  0.46999998093E+01 0.  1.
</event>
<event>
 5   0  0.2001768E-06  0.3572348E+04  0.7818609E-02  0.8096855E-01
        2   -1    0    0  501    0  0.00000000000E+00  0.00000000000E+00  0.20749712897E+04  0.20749712897E+04  0.25500000920E-02 0.  1.
       -2   -1    0    0    0  501  0.00000000000E+00  0.00000000000E+00 -0.15375717598E+04  0.15375717598E+04  0.25500000920E-02 0. -1.
    10030    2    1    2    0    0  0.00000000000E+00  0.00000000000E+00  0.53739952991E+03  0.36125430494E+04  0.35723478315E+04 0.  0.
        2    1    3    3  502    0 -0.17620138245E+04 -0.20549987830E+03  0.47959931973E+03  0.18376448039E+04  0.25500000920E-02 0. -1.
       -2    1    3    3    0  502  0.17620138245E+04  0.20549987830E+03  0.57800210171E+02  0.17748982455E+04  0.25500000920E-02 0.  1.
</event>
<event>
 5   0  0.1999883E-06  0.3510467E+04  0.7818609E-02  0.8111314E-01
        2   -1    0    0  501    0  0.00000000000E+00  0.00000000000E+00  0.16885364938E+04  0.16885364938E+04  0.25500000920E-02 0.  1.
       -2   -1    0    0    0  501  0.00000000000E+00  0.00000000000E+00 -0.18245648977E+04  0.18245648977E+04  0.25500000920E-02 0. -1.
    10030    2    1    2    0    0  0.00000000000E+00  0.00000000000E+00 -0.13602840391E+03  0.35131013915E+04  0.35104668721E+04 0.  0.
        4    1    3    3  502    0 -0.99810764365E+03 -0.12780301515E+04 -0.74027936039E+03  0.17825810166E+04  0.12699999809E+01 0. -1.
       -4    1    3    3    0  502  0.99810764365E+03  0.12780301515E+04  0.60425095648E+03  0.17305203749E+04  0.12699999809E+01 0.  1.
</event>
<event>
 5   0  0.2020725E-06  0.3532649E+04  0.7818609E-02  0.8106096E-01
        2   -1    0    0  501    0  0.00000000000E+00  0.00000000000E+00  0.18791914556E+04  0.18791914556E+04  0.25500000920E-02 0. -1.
       -2   -1    0    0    0  501  0.00000000000E+00  0.00000000000E+00 -0.16602366224E+04  0.16602366224E+04  0.25500000920E-02 0.  1.
    10030    2    1    2    0    0  0.00000000000E+00  0.00000000000E+00  0.21895483326E+03  0.35394280780E+04  0.35326491335E+04 0.  0.
        3    1    3    3  502    0  0.75398890877E+01  0.16853948005E+04  0.63897046844E+03  0.18024693487E+04  0.10100000352E+00 0. -1.
       -3    1    3    3    0  502 -0.75398890877E+01 -0.16853948005E+04 -0.42001563518E+03  0.17369587293E+04  0.10100000352E+00 0.  1.
</event>
<event>
 5   0  0.2023479E-06  0.3443391E+04  0.7818609E-02  0.8127338E-01
        2   -1    0    0  501    0  0.00000000000E+00  0.00000000000E+00  0.27658740770E+04  0.27658740770E+04  0.25500000920E-02 0. -1.
       -2   -1    0    0    0  501  0.00000000000E+00  0.00000000000E+00 -0.10717175242E+04  0.10717175242E+04  0.25500000920E-02 0.  1.
    10030    2    1    2    0    0  0.00000000000E+00  0.00000000000E+00  0.16941565528E+04  0.38375916013E+04  0.34433911879E+04 0.  0.
        5    1    3    3  502    0  0.14158496711E+04  0.78087951671E+03  0.18792134583E+03  0.16278020865E+04  0.46999998093E+01 0. -1.
       -5    1    3    3    0  502 -0.14158496711E+04 -0.78087951671E+03  0.15062352070E+04  0.22097895147E+04  0.46999998093E+01 0.  1.
</event>
<event>
 5   0  0.6630125E-07  0.3486765E+04  0.7818609E-02  0.8116934E-01
        1   -1    0    0  501    0  0.00000000000E+00  0.00000000000E+00  0.11194789056E+04  0.11194789056E+04  0.50400001928E-02 0. -1.
       -1   -1    0    0    0  501  0.00000000000E+00  0.00000000000E+00 -0.27149968597E+04  0.27149968597E+04  0.50400001928E-02 0.  1.
    10030    2    1    2    0    0  0.00000000000E+00  0.00000000000E+00 -0.15955179541E+04  0.38344757653E+04  0.34867645249E+04 0.  0.
        4    1    3    3  502    0 -0.13791553112E+04  0.10381897869E+04 -0.52956922127E+03  0.18056446436E+04  0.12699999809E+01 0. -1.
       -4    1    3    3    0  502  0.13791553112E+04 -0.10381897869E+04 -0.10659487329E+04  0.20288311216E+04  0.12699999809E+01 0.  1.
</event>
<event>
 5   0  0.6630125E-07  0.2438907E+04  0.7818609E-02  0.8425079E-01
        1   -1    0    0  501    0  0.00000000000E+00  0.00000000000E+00  0.20416082009E+04  0.20416082009E+04  0.50400001928E-02 0. -1.
       -1   -1    0    0    0  501  0.00000000000E+00  0.00000000000E+00 -0.72838027104E+03  0.72838027106E+03  0.50400001928E-02 0.  1.
    10030    2    1    2    0    0  0.00000000000E+00  0.00000000000E+00  0.13132279298E+04  0.27699884719E+04  0.24389072428E+04 0.  0.
        1    1    3    3  502    0 -0.43937064156E+03 -0.86509821310E+03 -0.18232442789E+03  0.98726069303E+03  0.50400001928E-02 0.  1.
       -1    1    3    3    0  502  0.43937064156E+03  0.86509821310E+03  0.14955523577E+04  0.17827277789E+04  0.50400001928E-02 0. -1.
</event>
<event>
 5   0  0.2020725E-06  0.3456420E+04  0.7818609E-02  0.8124196E-01
        2   -1    0    0  501    0  0.00000000000E+00  0.00000000000E+00  0.24084009434E+04  0.24084009434E+04  0.25500000920E-02 0.  1.
       -2   -1    0    0    0  501  0.00000000000E+00  0.00000000000E+00 -0.12401218250E+04  0.12401218250E+04  0.25500000920E-02 0. -1.
    10030    2    1    2    0    0  0.00000000000E+00  0.00000000000E+00  0.11682791184E+04  0.36485227684E+04  0.34564204450E+04 0.  0.
        3    1    3    3  502    0 -0.11370476567E+04 -0.11784838943E+04  0.11671102912E+04  0.20109321482E+04  0.10100000352E+00 0.  1.
       -3    1    3    3    0  502  0.11370476567E+04  0.11784838943E+04  0.11688271993E+01  0.16375906201E+04  0.10100000352E+00 0. -1.
</event>
<event>
 5   0  0.2073287E-06  0.3446230E+04  0.7818609E-02  0.8126652E-01
        2   -1    0    0  501    0  0.00000000000E+00  0.00000000000E+00  0.26949456030E+04  0.26949456030E+04  0.25500000920E-02 0. -1.
       -2   -1    0    0    0  501  0.00000000000E+00  0.00000000000E+00 -0.11017385573E+04  0.11017385573E+04  0.25500000920E-02 0.  1.
    10030    2    1    2    0    0  0.00000000000E+00  0.00000000000E+00  0.15932070457E+04  0.37966841604E+04  0.34462301030E+04 0.  0.
        1    1    3    3  502    0  0.16569713199E+04 -0.40808201679E+03  0.53348451913E+03  0.17879291428E+04  0.50400001928E-02 0. -1.
       -1    1    3    3    0  502 -0.16569713199E+04  0.40808201679E+03  0.10597225265E+04  0.20087550176E+04  0.50400001928E-02 0.  1.
</event>
<event>
 5   0  0.6630125E-07  0.3479865E+04  0.7818609E-02  0.8118578E-01
        3   -1    0    0  501    0  0.00000000000E+00  0.00000000000E+00  0.12515631609E+04  0.12515631650E+04  0.10100000352E+00 0. -1.
       -3   -1    0    0    0  501  0.00000000000E+00  0.00000000000E+00 -0.24188676935E+04  0.24188676956E+04  0.10100000352E+00 0.  1.
    10030    2    1    2    0    0  0.00000000000E+00  0.00000000000E+00 -0.11673045326E+04  0.36704308605E+04  0.34798653465E+04 0.  0.
        5    1    3    3  502    0  0.90773020093E+03  0.13036890985E+04 -0.13322840714E+04  0.20733022742E+04  0.46999998093E+01 0.  1.
       -5    1    3    3    0  502 -0.90773020093E+03 -0.13036890985E+04  0.16497953884E+03  0.15971285864E+04  0.46999998093E+01 0. -1.
</event>
<event>
 5   0  0.2020725E-06  0.3489612E+04  0.7818609E-02  0.8116256E-01
       -2   -1    0    0    0  501  0.00000000000E+00  0.00000000000E+00  0.16542636763E+04  0.16542636763E+04  0.25500000920E-02 0. -1.
        2   -1    0    0  501    0  0.00000000000E+00  0.00000000000E+00 -0.18403036544E+04  0.18403036544E+04  0.25500000920E-02 0.  1.
    10030    2    1    2    0    0  0.00000000000E+00  0.00000000000E+00 -0.18603997805E+03  0.34945673307E+04  0.34896117198E+04 0.  0.
        3    1    3    3  502    0 -0.87100262996E+02  0.68460332370E+03 -0.16978185338E+04  0.18327181864E+04  0.10100000352E+00 0.  1.
       -3    1    3    3    0  502  0.87100262996E+02 -0.68460332370E+03  0.15117785558E+04  0.16618491443E+04  0.10100000352E+00 0. -1.
</event>
<event>
 5   0  0.6890600E-07  0.3483916E+04  0.7818609E-02  0.8117612E-01
       -1   -1    0    0    0  501  0.00000000000E+00  0.00000000000E+00  0.17706480132E+04  0.17706480132E+04  0.50400001928E-02 0.  1.
        1   -1    0    0  501    0  0.00000000000E+00  0.00000000000E+00 -0.17137323751E+04  0.17137323752E+04  0.50400001928E-02 0. -1.
    10030    2    1    2    0    0  0.00000000000E+00  0.00000000000E+00  0.56915638060E+02  0.34843803884E+04  0.34839155129E+04 0.  0.
        3    1    3    3  502    0 -0.45139186097E+03 -0.13539885542E+04 -0.97036317861E+03  0.17258749450E+04  0.10100000352E+00 0. -1.
       -3    1    3    3    0  502  0.45139186097E+03  0.13539885542E+04  0.10272788167E+04  0.17585054434E+04  0.10100000352E+00 0.  1.
</event>
<event>
 5   0  0.2001768E-06  0.3519952E+04  0.7818609E-02  0.8109078E-01
       -2   -1    0    0    0  501  0.00000000000E+00  0.00000000000E+00  0.14111876855E+04  0.14111876855E+04  0.25500000920E-02 0.  1.
        2   -1    0    0  501    0  0.00000000000E+00  0.00000000000E+00 -0.21949701589E+04  0.21949701589E+04  0.25500000920E-02 0. -1.
    10030    2    1    2    0    0  0.00000000000E+00  0.00000000000E+00 -0.78378247338E+03  0.36061578444E+04  0.35199516237E+04 0.  0.
        2    1    3    3  502    0  0.83844791764E+03  0.54610220519E+03  0.10914257150E+04  0.14806865369E+04  0.25500000920E-02 0.  1.
       -2    1    3    3    0  502 -0.83844791764E+03 -0.54610220519E+03 -0.18752081884E+04  0.21254713075E+04  0.25500000920E-02 0. -1.
</event>
<event>
 5   0  0.6630125E-07  0.3431582E+04  0.7818609E-02  0.8130198E-01
        1   -1    0    0  501    0  0.00000000000E+00  0.00000000000E+00  0.15336103046E+04  0.15336103046E+04  0.50400001928E-02 0. -1.
       -1   -1    0    0    0  501  0.00000000000E+00  0.00000000000E+00 -0.19196132530E+04  0.19196132531E+04  0.50400001928E-02 0.  1.
    10030    2    1    2    0    0  0.00000000000E+00  0.00000000000E+00 -0.38600294846E+03  0.34532235576E+04  0.34315819476E+04 0.  0.
        1    1    3    3  502    0 -0.70308018085E+03  0.15651239729E+04 -0.19102066327E+03  0.17263903628E+04  0.50400001928E-02 0. -1.
       -1    1    3    3    0  502  0.70308018085E+03 -0.15651239729E+04 -0.19498228520E+03  0.17268331948E+04  0.50400001928E-02 0.  1.
</event>
<event>
 5   0  0.2020725E-06  0.3382330E+04  0.7818609E-02  0.8142257E-01
        2   -1    0    0  501    0  0.00000000000E+00  0.00000000000E+00  0.17323256907E+04  0.17323256907E+04  0.25500000920E-02 0.  1.
       -2   -1    0    0    0  501  0.00000000000E+00  0.00000000000E+00 -0.16509822765E+04  0.16509822765E+04  0.25500000920E-02 0. -1.
    10030    2    1    2    0    0  0.00000000000E+00  0.00000000000E+00  0.81343414218E+02  0.33833079672E+04  0.33823299736E+04 0.  0.
        3    1    3    3  502    0 -0.18784069758E+03 -0.67760595088E+03  0.15791687878E+04  0.17286434054E+04  0.10100000352E+00 0.  1.
       -3    1    3    3    0  502  0.18784069758E+03  0.67760595088E+03 -0.14978253736E+04  0.16546645619E+04  0.10100000352E+00 0. -1.
</event>
<event>
 5   0  0.2001768E-06  0.3512304E+04  0.7818609E-02  0.8110880E-01
        2   -1    0    0  501    0  0.00000000000E+00  0.00000000000E+00  0.21938078360E+04  0.21938078360E+04  0.25500000920E-02 0.  1.
       -2   -1    0    0    0  501  0.00000000000E+00  0.00000000000E+00 -0.14058070300E+04  0.14058070300E+04  0.25500000920E-02 0. -1.
    10030    2    1    2    0    0  0.00000000000E+00  0.00000000000E+00  0.78800080593E+03  0.35996148660E+04  0.35123043595E+04 0.  0.
        2    1    3    3  502    0  0.16879461234E+04  0.20997802944E+03  0.84168597396E+03  0.18978114151E+04  0.25500000920E-02 0.  1.
       -2    1    3    3    0  502 -0.16879461234E+04 -0.20997802944E+03 -0.53685168030E+02  0.17018034509E+04  0.25500000920E-02 0. -1.
</event>
<event>
 5   0  0.6630125E-07  0.3523280E+04  0.7818609E-02  0.8108295E-01
       -1   -1    0    0    0  501  0.00000000000E+00  0.00000000000E+00  0.15071562249E+04  0.15071562249E+04  0.50400001928E-02 0. -1.
        1   -1    0    0  501    0  0.00000000000E+00  0.00000000000E+00 -0.20590939019E+04  0.20590939019E+04  0.50400001928E-02 0.  1.
    10030    2    1    2    0    0  0.00000000000E+00  0.00000000000E+00 -0.55193767702E+03  0.35662501268E+04  0.35232803986E+04 0.  0.
        1    1    3    3  502    0 -0.73852036940E+03  0.47784506579E+03 -0.18208955297E+04  0.20222286649E+04  0.50400001928E-02 0.  1.
       -1    1    3    3    0  502  0.73852036940E+03 -0.47784506579E+03  0.12689578527E+04  0.15440214619E+04  0.50400001928E-02 0. -1.
</event>
<event>
 5   0  0.2023479E-06  0.3469352E+04  0.7818609E-02  0.8121092E-01
       -2   -1    0    0    0  501  0.00000000000E+00  0.00000000000E+00  0.10703001322E+04  0.10703001322E+04  0.25500000920E-02 0.  1.
        2   -1    0    0  501    0  0.00000000000E+00  0.00000000000E+00 -0.28114544613E+04  0.28114544613E+04  0.25500000920E-02 0. -1.
    10030    2    1    2    0    0  0.00000000000E+00  0.00000000000E+00 -0.17411543291E+04  0.38817545935E+04  0.34693515714E+04 0.  0.
        5    1    3    3  502    0 -0.10316035614E+04  0.13940849424E+04 -0.91243034762E+03  0.19596504698E+04  0.46999998093E+01 0.  1.
       -5    1    3    3    0  502  0.10316035614E+04 -0.13940849424E+04 -0.82872398151E+03  0.19221041237E+04  0.46999998093E+01 0. -1.
</event>
<event>
 5   0  0.2001768E-06  0.2676510E+04  0.7818609E-02  0.8342667E-01
       -2   -1    0    0    0  501  0.00000000000E+00  0.00000000000E+00  0.89914306321E+03  0.89914306321E+03  0.25500000920E-02 0.  1.
        2   -1    0    0  501    0  0.00000000000E+00  0.00000000000E+00 -0.19918150861E+04  0.19918150861E+04  0.25500000920E-02 0. -1.
    10030    2    1    2    0    0  0.00000000000E+00  0.00000000000E+00 -0.10926720229E+04  0.28909581493E+04  0.26765102039E+04 0.  0.
        2    1    3    3  502    0 -0.82279590140E+02 -0.10731496395E+04  0.31268828040E+03  0.11208006247E+04  0.25500000920E-02 0.  1.
       -2    1    3    3    0  502  0.82279590140E+02  0.10731496395E+04 -0.14053603033E+04  0.17701575246E+04  0.25500000920E-02 0. -1.
</event>
<event>
 5   0  0.2023479E-06  0.3083594E+04  0.7818609E-02  0.8220255E-01
        2   -1    0    0  501    0  0.00000000000E+00  0.00000000000E+00  0.22491430982E+04  0.22491430982E+04  0.25500000920E-02 0.  1.
       -2   -1    0    0    0  501  0.00000000000E+00  0.00000000000E+00 -0.10569080614E+04  0.10569080614E+04  0.25500000920E-02 0. -1.
    10030    2    1    2    0    0  0.00000000000E+00  0.00000000000E+00  0.11922350368E+04  0.33060511596E+04  0.30835936644E+04 0.  0.
        5    1    3    3  502    0 -0.13014121862E+04  0.82463006084E+03  0.65888104394E+03  0.16756594928E+04  0.46999998093E+01 0.  1.
       -5    1    3    3    0  502  0.13014121862E+04 -0.82463006084E+03  0.53335399290E+03  0.16303916669E+04  0.46999998093E+01 0. -1.
</event>
<event>
 5   0  0.7128597E-07  0.2187152E+04  0.7818609E-02  0.8523795E-01
        1   -1    0    0  501    0  0.00000000000E+00  0.00000000000E+00  0.11869638229E+04  0.11869638229E+04  0.50400001928E-02 0. -1.
       -1   -1    0    0    0  501  0.00000000000E+00  0.00000000000E+00 -0.10075356491E+04  0.10075356492E+04  0.50400001928E-02 0.  1.
    10030    2    1    2    0    0  0.00000000000E+00  0.00000000000E+00  0.17942817370E+03  0.21944994720E+04  0.21871519067E+04 0.  0.
        1    1    3    3  502    0  0.87710288699E+03 -0.22908734922E+03  0.70342064486E+03  0.11474280333E+04  0.50400001928E-02 0. -1.
       -1    1    3    3    0  502 -0.87710288699E+03  0.22908734922E+03 -0.52399247116E+03  0.10470714387E+04  0.50400001928E-02 0.  1.
</event>
<event>
 5   0  0.1999883E-06  0.3464306E+04  0.7818609E-02  0.8122301E-01
       -2   -1    0    0    0  501  0.00000000000E+00  0.00000000000E+00  0.18621480633E+04  0.18621480633E+04  0.25500000920E-02 0. -1.
        2   -1    0    0  501    0  0.00000000000E+00  0.00000000000E+00 -0.16112327688E+04  0.16112327688E+04  0.25500000920E-02 0.  1.
    10030    2    1    2    0    0  0.00000000000E+00  0.00000000000E+00  0.25091529451E+03  0.34733808321E+04  0.34643059795E+04 0.  0.
        4    1    3    3  502    0  0.70590456655E+03 -0.13514322912E+03 -0.14546743634E+04  0.16225424697E+04  0.12699999809E+01 0.  1.
       -4    1    3    3    0  502 -0.70590456655E+03  0.13514322912E+03  0.17055896580E+04  0.18508383624E+04  0.12699999809E+01 0. -1.
</event>
<event>
 5   0  0.2020725E-06  0.2341945E+04  0.7818609E-02  0.8461564E-01
        2   -1    0    0  501    0  0.00000000000E+00  0.00000000000E+00  0.15581314171E+04  0.15581314171E+04  0.25500000920E-02 0.  1.
       -2   -1    0    0    0  501  0.00000000000E+00  0.00000000000E+00 -0.88001365945E+03  0.88001365945E+03  0.25500000920E-02 0. -1.
    10030    2    1    2    0    0  0.00000000000E+00  0.00000000000E+00  0.67811775769E+03  0.24381450766E+04  0.23419452857E+04 0.  0.
        3    1    3    3  502    0 -0.12715150729E+02 -0.51616648520E+03 -0.75510618196E+03  0.91475399520E+03  0.10100000352E+00 0. -1.
       -3    1    3    3    0  502  0.12715150729E+02  0.51616648520E+03  0.14332239396E+04  0.15233910814E+04  0.10100000352E+00 0.  1.
</event>
<event>
 5   0  0.2023479E-06  0.3464457E+04  0.7818609E-02  0.8122265E-01
       -2   -1    0    0    0  501  0.00000000000E+00  0.00000000000E+00  0.14855229748E+04  0.14855229748E+04  0.25500000920E-02 0.  1.
        2   -1    0    0  501    0  0.00000000000E+00  0.00000000000E+00 -0.20199048567E+04  0.20199048567E+04  0.25500000920E-02 0. -1.
    10030    2    1    2    0    0  0.00000000000E+00  0.00000000000E+00 -0.53438188189E+03  0.35054278316E+04  0.34644567087E+04 0.  0.
        5    1    3    3  502    0  0.15790908381E+04  0.67302933891E+03 -0.50252833493E+03  0.17885897191E+04  0.46999998093E+01 0.  1.
       -5    1    3    3    0  502 -0.15790908381E+04 -0.67302933891E+03 -0.31853546958E+02  0.17168381125E+04  0.46999998093E+01 0. -1.
</event>
<event>
 5   0  0.2020725E-06  0.3352956E+04  0.7818609E-02  0.8149550E-01
       -2   -1    0    0    0  501  0.00000000000E+00  0.00000000000E+00  0.17819509961E+04  0.17819509961E+04  0.25500000920E-02 0. -1.
        2   -1    0    0  501    0  0.00000000000E+00  0.00000000000E+00 -0.15772481663E+04  0.15772481663E+04  0.25500000920E-02 0.  1.
    10030    2    1    2    0    0  0.00000000000E+00  0.00000000000E+00  0.20470282981E+03  0.33591991625E+04  0.33529562724E+04 0.  0.
        3    1    3    3  502    0 -0.36104577970E+03 -0.64211127022E+03 -0.14064133633E+04  0.15876584951E+04  0.10100000352E+00 0.  1.
       -3    1    3    3    0  502  0.36104577970E+03  0.64211127022E+03  0.16111161931E+04  0.17715406674E+04  0.10100000352E+00 0. -1.
</event>
<event>
 5   0  0.6890600E-07  0.3485557E+04  0.7818609E-02  0.8117221E-01
       -1   -1    0    0    0  501  0.00000000000E+00  0.00000000000E+00  0.15617323214E+04  0.15617323214E+04  0.50400001928E-02 0. -1.
        1   -1    0    0  501    0  0.00000000000E+00  0.00000000000E+00 -0.19448130774E+04  0.19448130774E+04  0.50400001928E-02 0.  1.
    10030    2    1    2    0    0  0.00000000000E+00  0.00000000000E+00 -0.38308075594E+03  0.35065453988E+04  0.34855573110E+04 0.  0.
        3    1    3    3  502    0  0.75215411297E+03 -0.12445486095E+04  0.77478518228E+03  0.16477042028E+04  0.10100000352E+00 0. -1.
       -3    1    3    3    0  502 -0.75215411297E+03  0.12445486095E+04 -0.11578659382E+04  0.18588411960E+04  0.10100000352E+00 0.  1.
</event>
<event>
 5   0  0.6890600E-07  0.3607943E+04  0.7818609E-02  0.8088675E-01
       -1   -1    0    0    0  501  0.00000000000E+00  0.00000000000E+00  0.13406585658E+04  0.13406585659E+04  0.50400001928E-02 0. -1.
        1   -1    0    0  501    0  0.00000000000E+00  0.00000000000E+00 -0.24273991171E+04  0.24273991171E+04  0.50400001928E-02 0.  1.
    10030    2    1    2    0    0  0.00000000000E+00  0.00000000000E+00 -0.10867405513E+04  0.37680576830E+04  0.36079431365E+04 0.  0.
        3    1    3    3  502    0  0.24440378164E+03  0.13909624742E+04  0.62885013811E+03  0.15459502966E+04  0.10100000352E+00 0.  1.
       -3    1    3    3    0  502 -0.24440378164E+03 -0.13909624742E+04 -0.17155906894E+04  0.22221073864E+04  0.10100000352E+00 0. -1.
</event>
<event>
 5   0  0.1999883E-06  0.2863881E+04  0.7818609E-02  0.8283706E-01
       -2   -1    0    0    0  501  0.00000000000E+00  0.00000000000E+00  0.96537900890E+03  0.96537900890E+03  0.25500000920E-02 0.  1.
        2   -1    0    0  501    0  0.00000000000E+00  0.00000000000E+00 -0.21239880660E+04  0.21239880660E+04  0.25500000920E-02 0. -1.
    10030    2    1    2    0    0  0.00000000000E+00  0.00000000000E+00 -0.11586090571E+04  0.30893670749E+04  0.28638809291E+04 0.  0.
        4    1    3    3  502    0  0.27244663243E+03 -0.14007036460E+04 -0.45051424970E+03  0.14963831640E+04  0.12699999809E+01 0. -1.
       -4    1    3    3    0  502 -0.27244663243E+03  0.14007036460E+04 -0.70809480738E+03  0.15929839109E+04  0.12699999809E+01 0.  1.
</event>
<event>
 5   0  0.6630125E-07  0.2350209E+04  0.7818609E-02  0.8458383E-01
       -1   -1    0    0    0  501  0.00000000000E+00  0.00000000000E+00  0.10425852934E+04  0.10425852934E+04  0.50400001928E-02 0. -1.
        1   -1    0    0  501    0  0.00000000000E+00  0.00000000000E+00 -0.13244680030E+04  0.13244680030E+04  0.50400001928E-02 0.  1.
    10030    2    1    2    0    0  0.00000000000E+00  0.00000000000E+00 -0.28188270965E+03  0.23670532964E+04  0.23502092346E+04 0.  0.
        5    1    3    3  502    0  0.74234646986E+03  0.91075829475E+03 -0.12379527746E+03  0.11814847919E+04  0.46999998093E+01 0. -1.
       -5    1    3    3    0  502 -0.74234646986E+03 -0.91075829475E+03 -0.15808743219E+03  0.11855685046E+04  0.46999998093E+01 0.  1.
</event>
<event>
 5   0  0.6630125E-07  0.3443973E+04  0.7818609E-02  0.8127197E-01
        3   -1    0    0  501    0  0.00000000000E+00  0.00000000000E+00  0.24056922339E+04  0.24056922360E+04  0.10100000352E+00 0.  1.
       -3   -1    0    0    0  501  0.00000000000E+00  0.00000000000E+00 -0.12325924125E+04  0.12325924167E+04  0.10100000352E+00 0. -1.
    10030    2    1    2    0    0  0.00000000000E+00  0.00000000000E+00  0.11730998213E+04  0.36382846526E+04  0.34439732901E+04 0.  0.
        3    1    3    3  502    0 -0.79341946699E+03 -0.15283013765E+04  0.59108727966E+03  0.18206053198E+04  0.10100000352E+00 0. -1.
       -3    1    3    3    0  502  0.79341946699E+03  0.15283013765E+04  0.58201254168E+03  0.18176793328E+04  0.10100000352E+00 0.  1.
</event>
<event>
 5   0  0.6890600E-07  0.3549083E+04  0.7818609E-02  0.8102255E-01
        1   -1    0    0  501    0  0.00000000000E+00  0.00000000000E+00  0.19307575364E+04  0.19307575364E+04  0.50400001928E-02 0.  1.
       -1   -1    0    0    0  501  0.00000000000E+00  0.00000000000E+00 -0.16309648971E+04  0.16309648971E+04  0.50400001928E-02 0. -1.
    10030    2    1    2    0    0  0.00000000000E+00  0.00000000000E+00  0.29979263930E+03  0.35617224335E+04  0.35490831305E+04 0.  0.
        3    1    3    3  502    0 -0.87217051863E+03 -0.13276003959E+04 -0.64399204099E+03  0.17140390847E+04  0.10100000352E+00 0. -1.
       -3    1    3    3    0  502  0.87217051863E+03  0.13276003959E+04  0.94378468029E+03  0.18476833489E+04  0.10100000352E+00 0.  1.
</event>
<event>
 5   0  0.6630125E-07  0.3475072E+04  0.7818609E-02  0.8119723E-01
        3   -1    0    0  501    0  0.00000000000E+00  0.00000000000E+00  0.27551984056E+04  0.27551984074E+04  0.10100000352E+00 0. -1.
       -3   -1    0    0    0  501  0.00000000000E+00  0.00000000000E+00 -0.10957580937E+04  0.10957580983E+04  0.10100000352E+00 0.  1.
    10030    2    1    2    0    0  0.00000000000E+00  0.00000000000E+00  0.16594403119E+04  0.38509565058E+04  0.34750717778E+04 0.  0.
        2    1    3    3  502    0  0.53618339141E+03  0.13522974689E+04  0.18826702772E+04  0.23792117280E+04  0.25500000920E-02 0. -1.
       -2    1    3    3    0  502 -0.53618339141E+03 -0.13522974689E+04 -0.22322996531E+03  0.14717447778E+04  0.25500000920E-02 0.  1.
</event>
<event>
 5   0  0.6890600E-07  0.2303241E+04  0.7818609E-02  0.8476644E-01
        1   -1    0    0  501    0  0.00000000000E+00  0.00000000000E+00  0.67527442654E+03  0.67527442656E+03  0.50400001928E-02 0.  1.
       -1   -1    0    0    0  501  0.00000000000E+00  0.00000000000E+00 -0.19639870885E+04  0.19639870885E+04  0.50400001928E-02 0. -1.
    10030    2    1    2    0    0  0.00000000000E+00  0.00000000000E+00 -0.12887126620E+04  0.26392615151E+04  0.23032414159E+04 0.  0.
        3    1    3    3  502    0 -0.54617588798E+03  0.48575621261E+03 -0.16641103427E+04  0.18175616748E+04  0.10100000352E+00 0. -1.
       -3    1    3    3    0  502  0.54617588798E+03 -0.48575621261E+03  0.37539768071E+03  0.82169984032E+03  0.10100000352E+00 0.  1.
</event>
<event>
 5   0  0.2073287E-06  0.3503000E+04  0.7818609E-02  0.8113079E-01
        2   -1    0    0  501    0  0.00000000000E+00  0.00000000000E+00  0.10542535687E+04  0.10542535687E+04  0.25500000920E-02 0.  1.
       -2   -1    0    0    0  501  0.00000000000E+00  0.00000000000E+00 -0.29098812163E+04  0.29098812163E+04  0.25500000920E-02 0. -1.
    10030    2    1    2    0    0  0.00000000000E+00  0.00000000000E+00 -0.18556276476E+04  0.39641347851E+04  0.35030002323E+04 0.  0.
        1    1    3    3  502    0 -0.17505735476E+03  0.16931455026E+04 -0.46072490428E+03  0.17634211658E+04  0.50400001928E-02 0.  1.
       -1    1    3    3    0  502  0.17505735476E+03 -0.16931455026E+04 -0.13949027434E+04  0.22007136193E+04  0.50400001928E-02 0. -1.
</event>
<event>
 5   0  0.7378896E-07  0.3261503E+04  0.7818609E-02  0.8172761E-01
        1   -1    0    0  501    0  0.00000000000E+00  0.00000000000E+00  0.19940811931E+04  0.19940811932E+04  0.50400001928E-02 0. -1.
       -1   -1    0    0    0  501  0.00000000000E+00  0.00000000000E+00 -0.13336221891E+04  0.13336221892E+04  0.50400001928E-02 0.  1.
    10030    2    1    2    0    0  0.00000000000E+00  0.00000000000E+00  0.66045900401E+03  0.33277033823E+04  0.32615032891E+04 0.  0.
        2    1    3    3  502    0 -0.91276545332E+03  0.92386210533E+03 -0.67603877469E+03  0.14641346889E+04  0.25500000920E-02 0.  1.
       -2    1    3    3    0  502  0.91276545332E+03 -0.92386210533E+03  0.13364977787E+04  0.18635686934E+04  0.25500000920E-02 0. -1.
</event>
<event>
 5   0  0.6890600E-07  0.3429416E+04  0.7818609E-02  0.8130724E-01
        1   -1    0    0  501    0  0.00000000000E+00  0.00000000000E+00  0.15975451054E+04  0.15975451054E+04  0.50400001928E-02 0. -1.
       -1   -1    0    0    0  501  0.00000000000E+00  0.00000000000E+00 -0.18404634217E+04  0.18404634217E+04  0.50400001928E-02 0.  1.
    10030    2    1    2    0    0  0.00000000000E+00  0.00000000000E+00 -0.24291831631E+03  0.34380085272E+04  0.34294158868E+04 0.  0.
        3    1    3    3  502    0 -0.73673934045E+03 -0.14880005212E+04 -0.55065907787E+03  0.17493301110E+04  0.10100000352E+00 0.  1.
       -3    1    3    3    0  502  0.73673934045E+03  0.14880005212E+04  0.30774076156E+03  0.16886784162E+04  0.10100000352E+00 0. -1.
</event>
<event>
 5   0  0.7378896E-07  0.3619530E+04  0.7818609E-02  0.8086033E-01
       -1   -1    0    0    0  501  0.00000000000E+00  0.00000000000E+00  0.92965341618E+03  0.92965341620E+03  0.50400001928E-02 0.  1.
        1   -1    0    0  501    0  0.00000000000E+00  0.00000000000E+00 -0.35230861719E+04  0.35230861719E+04  0.50400001928E-02 0. -1.
    10030    2    1    2    0    0  0.00000000000E+00  0.00000000000E+00 -0.25934327557E+04  0.44527395881E+04  0.36195298564E+04 0.  0.
        2    1    3    3  502    0  0.50085270589E+03  0.12734392194E+04  0.16030188722E+03  0.13777509113E+04  0.25500000920E-02 0.  1.
       -2    1    3    3    0  502 -0.50085270589E+03 -0.12734392194E+04 -0.27537346430E+04  0.30749886768E+04  0.25500000920E-02 0. -1.
</event>
<event>
 5   0  0.6890600E-07  0.3421975E+04  0.7818609E-02  0.8132534E-01
       -1   -1    0    0    0  501  0.00000000000E+00  0.00000000000E+00  0.20202627092E+04  0.20202627092E+04  0.50400001928E-02 0. -1.
        1   -1    0    0  501    0  0.00000000000E+00  0.00000000000E+00 -0.14490586100E+04  0.14490586100E+04  0.50400001928E-02 0.  1.
    10030    2    1    2    0    0  0.00000000000E+00  0.00000000000E+00  0.57120409923E+03  0.34693213192E+04  0.34219754957E+04 0.  0.
        3    1    3    3  502    0 -0.92111180773E+03 -0.70631890435E+03  0.15600326691E+04  0.19444884406E+04  0.10100000352E+00 0. -1.
       -3    1    3    3    0  502  0.92111180773E+03  0.70631890435E+03 -0.98882856984E+03  0.15248328786E+04  0.10100000352E+00 0.  1.
</event>
<event>
 5   0  0.2023479E-06  0.2829174E+04  0.7818609E-02  0.8294268E-01
        2   -1    0    0  501    0  0.00000000000E+00  0.00000000000E+00  0.21399553852E+04  0.21399553852E+04  0.25500000920E-02 0.  1.
       -2   -1    0    0    0  501  0.00000000000E+00  0.00000000000E+00 -0.93509286031E+03  0.93509286031E+03  0.25500000920E-02 0. -1.
    10030    2    1    2    0    0  0.00000000000E+00  0.00000000000E+00  0.12048625249E+04  0.30750482455E+04  0.28291744394E+04 0.  0.
        5    1    3    3  502    0 -0.13416103101E+04  0.41841952185E+03  0.42703205046E+03  0.14687993677E+04  0.46999998093E+01 0. -1.
       -5    1    3    3    0  502  0.13416103101E+04 -0.41841952185E+03  0.77783047444E+03  0.16062488778E+04  0.46999998093E+01 0.  1.
</event>
<event>
 5   0  0.2073287E-06  0.3493800E+04  0.7818609E-02  0.8115261E-01
        2   -1    0    0  501    0  0.00000000000E+00  0.00000000000E+00  0.25161762749E+04  0.25161762749E+04  0.25500000920E-02 0.  1.
       -2   -1    0    0    0  501  0.00000000000E+00  0.00000000000E+00 -0.12128160751E+04  0.12128160751E+04  0.25500000920E-02 0. -1.
    10030    2    1    2    0    0  0.00000000000E+00  0.00000000000E+00  0.13033601997E+04  0.37289923500E+04  0.34937996703E+04 0.  0.
        1    1    3    3  502    0  0.15016357584E+04  0.71621148695E+03  0.83099311294E+02  0.16657653918E+04  0.50400001928E-02 0. -1.
       -1    1    3    3    0  502 -0.15016357584E+04 -0.71621148695E+03  0.12202608884E+04  0.20632269582E+04  0.50400001928E-02 0.  1.
</event>
<event>
 5   0  0.6630125E-07  0.3476057E+04  0.7818609E-02  0.8119488E-01
        1   -1    0    0  501    0  0.00000000000E+00  0.00000000000E+00  0.17112267739E+04  0.17112267739E+04  0.50400001928E-02 0.  1.
       -1   -1    0    0    0  501  0.00000000000E+00  0.00000000000E+00 -0.17652498031E+04  0.17652498031E+04  0.50400001928E-02 0. -1.
    10030    2    1    2    0    0  0.00000000000E+00  0.00000000000E+00 -0.54023029247E+02  0.34764765770E+04  0.34760568037E+04 0.  0.
        1    1    3    3  502    0  0.11335645887E+04  0.53526438893E+03 -0.12310115705E+04  0.17569479587E+04  0.50400001928E-02 0. -1.
       -1    1    3    3    0  502 -0.11335645887E+04 -0.53526438893E+03  0.11769885413E+04  0.17195286183E+04  0.50400001928E-02 0.  1.
</event>
<event>
 5   0  0.2001768E-06  0.3506988E+04  0.7818609E-02  0.8112136E-01
        2   -1    0    0  501    0  0.00000000000E+00  0.00000000000E+00  0.11613217566E+04  0.11613217566E+04  0.25500000920E-02 0.  1.
       -2   -1    0    0    0  501  0.00000000000E+00  0.00000000000E+00 -0.26476225214E+04  0.26476225214E+04  0.25500000920E-02 0. -1.
    10030    2    1    2    0    0  0.00000000000E+00  0.00000000000E+00 -0.14863007648E+04  0.38089442780E+04  0.35069882449E+04 0.  0.
        2    1    3    3  502    0 -0.13657682642E+04  0.13325633302E+03  0.44247298890E+03  0.14418261156E+04  0.25500000920E-02 0.  1.
       -2    1    3    3    0  502  0.13657682642E+04 -0.13325633302E+03 -0.19287737537E+04  0.23671181624E+04  0.25500000920E-02 0. -1.
</event>
<event>
 5   0  0.2023479E-06  0.3497023E+04  0.7818609E-02  0.8114496E-01
        2   -1    0    0  501    0  0.00000000000E+00  0.00000000000E+00  0.17615159572E+04  0.17615159572E+04  0.25500000920E-02 0.  1.
       -2   -1    0    0    0  501  0.00000000000E+00  0.00000000000E+00 -0.17356027827E+04  0.17356027827E+04  0.25500000920E-02 0. -1.
    10030    2    1    2    0    0  0.00000000000E+00  0.00000000000E+00  0.25913174463E+02  0.34971187399E+04  0.34970227320E+04 0.  0.
        5    1    3    3  502    0 -0.10065114181E+03  0.20191928528E+03  0.17468922648E+04  0.17614075976E+04  0.46999998093E+01 0.  1.
       -5    1    3    3    0  502  0.10065114181E+03 -0.20191928528E+03 -0.17209790903E+04  0.17357111423E+04  0.46999998093E+01 0. -1.
</event>
<event>
 5   0  0.7378896E-07  0.3514879E+04  0.7818609E-02  0.8110273E-01
        1   -1    0    0  501    0  0.00000000000E+00  0.00000000000E+00  0.15350045347E+04  0.15350045347E+04  0.50400001928E-02 0. -1.
       -1   -1    0    0    0  501  0.00000000000E+00  0.00000000000E+00 -0.20121073628E+04  0.20121073628E+04  0.50400001928E-02 0.  1.
    10030    2    1    2    0    0  0.00000000000E+00  0.00000000000E+00 -0.47710282810E+03  0.35471118975E+04  0.35148791878E+04 0.  0.
        2    1    3    3  502    0 -0.16467541397E+04  0.34261655992E+03 -0.75254380579E+03  0.18426902842E+04  0.25500000920E-02 0.  1.
       -2    1    3    3    0  502  0.16467541397E+04 -0.34261655992E+03  0.27544097769E+03  0.17044216133E+04  0.25500000920E-02 0. -1.
</event>
<event>
 5   0  0.2001768E-06  0.2234234E+04  0.7818609E-02  0.8504313E-01
       -2   -1    0    0    0  501  0.00000000000E+00  0.00000000000E+00  0.16206582459E+04  0.16206582459E+04  0.25500000920E-02 0. -1.
        2   -1    0    0  501    0  0.00000000000E+00  0.00000000000E+00 -0.77002698180E+03  0.77002698180E+03  0.25500000920E-02 0.  1.
    10030    2    1    2    0    0  0.00000000000E+00  0.00000000000E+00  0.85063126415E+03  0.23906852278E+04  0.22342341665E+04 0.  0.
        2    1    3    3  502    0 -0.90921690086E+03 -0.18438918681E+03  0.10912078007E+04  0.14322741390E+04  0.25500000920E-02 0. -1.
       -2    1    3    3    0  502  0.90921690086E+03  0.18438918681E+03 -0.24057653655E+03  0.95841108872E+03  0.25500000920E-02 0.  1.
</event>
<event>
 5   0  0.2020725E-06  0.2972365E+04  0.7818609E-02  0.8251667E-01
       -2   -1    0    0    0  501  0.00000000000E+00  0.00000000000E+00  0.78150047230E+03  0.78150047230E+03  0.25500000920E-02 0. -1.
        2   -1    0    0  501    0  0.00000000000E+00  0.00000000000E+00 -0.28262783565E+04  0.28262783565E+04  0.25500000920E-02 0.  1.
    10030    2    1    2    0    0  0.00000000000E+00  0.00000000000E+00 -0.20447778842E+04  0.36077788288E+04  0.29723646280E+04 0.  0.
        3    1    3    3  502    0  0.11605957209E+04  0.91418911463E+03 -0.12181556549E+04  0.19148439556E+04  0.10100000352E+00 0.  1.
       -3    1    3    3    0  502 -0.11605957209E+04 -0.91418911463E+03 -0.82662222931E+03  0.16929348732E+04  0.10100000352E+00 0. -1.
</event>
<event>
 5   0  0.6630125E-07  0.2390114E+04  0.7818609E-02  0.8443214E-01
       -1   -1    0    0    0  501  0.00000000000E+00  0.00000000000E+00  0.10834165583E+04  0.10834165583E+04  0.50400001928E-02 0. -1.
        1   -1    0    0  501    0  0.00000000000E+00  0.00000000000E+00 -0.13182011171E+04  0.13182011171E+04  0.50400001928E-02 0.  1.
    10030    2    1    2    0    0  0.00000000000E+00  0.00000000000E+00 -0.23478455878E+03  0.24016176755E+04  0.23901137358E+04 0.  0.
        5    1    3    3  502    0  0.95900379689E+02  0.10568011645E+04  0.43490154263E+03  0.11468160384E+04  0.46999998093E+01 0. -1.
       -5    1    3    3    0  502 -0.95900379689E+02 -0.10568011645E+04 -0.66968610142E+03  0.12548016371E+04  0.46999998093E+01 0.  1.
</event>
<event>
 5   0  0.6630125E-07  0.3459967E+04  0.7818609E-02  0.8123343E-01
        1   -1    0    0  501    0  0.00000000000E+00  0.00000000000E+00  0.22602554247E+04  0.22602554247E+04  0.50400001928E-02 0.  1.
       -1   -1    0    0    0  501  0.00000000000E+00  0.00000000000E+00 -0.13241170440E+04  0.13241170440E+04  0.50400001928E-02 0. -1.
    10030    2    1    2    0    0  0.00000000000E+00  0.00000000000E+00  0.93613838071E+03  0.35843724686E+04  0.34599668967E+04 0.  0.
        5    1    3    3  502    0 -0.16041599022E+04 -0.39744436203E+03 -0.61718225091E+02  0.16538204987E+04  0.46999998093E+01 0. -1.
       -5    1    3    3    0  502  0.16041599022E+04  0.39744436203E+03  0.99785660580E+03  0.19305519699E+04  0.46999998093E+01 0.  1.
</event>
<event>
 5   0  0.2073287E-06  0.3518561E+04  0.7818609E-02  0.8109405E-01
       -2   -1    0    0    0  501  0.00000000000E+00  0.00000000000E+00  0.20066299617E+04  0.20066299617E+04  0.25500000920E-02 0.  1.
        2   -1    0    0  501    0  0.00000000000E+00  0.00000000000E+00 -0.15424205784E+04  0.15424205784E+04  0.25500000920E-02 0. -1.
    10030    2    1    2    0    0  0.00000000000E+00  0.00000000000E+00  0.46420938335E+03  0.35490505401E+04  0.35185606979E+04 0.  0.
        1    1    3    3  502    0  0.47977409386E+03  0.13228586895E+03 -0.14699370377E+04  0.15519012942E+04  0.50400001928E-02 0. -1.
       -1    1    3    3    0  502 -0.47977409386E+03 -0.13228586895E+03  0.19341464210E+04  0.19971492459E+04  0.50400001928E-02 0.  1.
</event>
<event>
 5   0  0.6630125E-07  0.3208379E+04  0.7818609E-02  0.8186608E-01
        1   -1    0    0  501    0  0.00000000000E+00  0.00000000000E+00  0.19523542073E+04  0.19523542073E+04  0.50400001928E-02 0.  1.
       -1   -1    0    0    0  501  0.00000000000E+00  0.00000000000E+00 -0.13181132385E+04  0.13181132385E+04  0.50400001928E-02 0. -1.
    10030    2    1    2    0    0  0.00000000000E+00  0.00000000000E+00  0.63424096876E+03  0.32704674458E+04  0.32083789844E+04 0.  0.
        4    1    3    3  502    0  0.19939948951E+03  0.50681550704E+03  0.18552277652E+04  0.19335184996E+04  0.12699999809E+01 0.  1.
       -4    1    3    3    0  502 -0.19939948951E+03 -0.50681550704E+03 -0.12209867965E+04  0.13369489462E+04  0.12699999809E+01 0. -1.
</event>
<event>
 5   0  0.7378896E-07  0.3361797E+04  0.7818609E-02  0.8147347E-01
        1   -1    0    0  501    0  0.00000000000E+00  0.00000000000E+00  0.21023809775E+04  0.21023809775E+04  0.50400001928E-02 0. -1.
       -1   -1    0    0    0  501  0.00000000000E+00  0.00000000000E+00 -0.13439146079E+04  0.13439146079E+04  0.50400001928E-02 0.  1.
    10030    2    1    2    0    0  0.00000000000E+00  0.00000000000E+00  0.75846636962E+03  0.34462955854E+04  0.33617974401E+04 0.  0.
        2    1    3    3  502    0  0.14853264939E+04 -0.78430186154E+03  0.31362212578E+03  0.17087080035E+04  0.25500000920E-02 0.  1.
       -2    1    3    3    0  502 -0.14853264939E+04  0.78430186154E+03  0.44484424384E+03  0.17375875819E+04  0.25500000920E-02 0. -1.
</event>
<event>
 5   0  0.1999883E-06  0.3483262E+04  0.7818609E-02  0.8117768E-01
        2   -1    0    0  501    0  0.00000000000E+00  0.00000000000E+00  0.18524498734E+04  0.18524498734E+04  0.25500000920E-02 0.  1.
       -2   -1    0    0    0  501  0.00000000000E+00  0.00000000000E+00 -0.16374419983E+04  0.16374419983E+04  0.25500000920E-02 0. -1.
    10030    2    1    2    0    0  0.00000000000E+00  0.00000000000E+00  0.21500787509E+03  0.34898918717E+04  0.34832623917E+04 0.  0.
        4    1    3    3  502    0 -0.44536032153E+02 -0.12758811401E+04  0.12944195384E+04  0.18180703221E+04  0.12699999809E+01 0.  1.
       -4    1    3    3    0  502  0.44536032153E+02  0.12758811401E+04 -0.10794116633E+04  0.16718215496E+04  0.12699999809E+01 0. -1.
</event>
<event>
 5   0  0.2001768E-06  0.3303812E+04  0.7818609E-02  0.8161926E-01
        2   -1    0    0  501    0  0.00000000000E+00  0.00000000000E+00  0.22713611174E+04  0.22713611174E+04  0.25500000920E-02 0. -1.
       -2   -1    0    0    0  501  0.00000000000E+00  0.00000000000E+00 -0.12013915849E+04  0.12013915849E+04  0.25500000920E-02 0.  1.
    10030    2    1    2    0    0  0.00000000000E+00  0.00000000000E+00  0.10699695325E+04  0.34727527024E+04  0.33038124238E+04 0.  0.
        2    1    3    3  502    0 -0.37138198238E+03 -0.22585897817E+03 -0.11402016104E+04  0.12202444703E+04  0.25500000920E-02 0.  1.
       -2    1    3    3    0  502  0.37138198238E+03  0.22585897817E+03  0.22101711429E+04  0.22525082321E+04  0.25500000920E-02 0. -1.
</event>
<event>
 5   0  0.2020725E-06  0.3334941E+04  0.7818609E-02  0.8154061E-01
       -2   -1    0    0    0  501  0.00000000000E+00  0.00000000000E+00  0.21812420668E+04  0.21812420668E+04  0.25500000920E-02 0.  1.
        2   -1    0    0  501    0  0.00000000000E+00  0.00000000000E+00 -0.12747133209E+04  0.12747133209E+04  0.25500000920E-02 0. -1.
    10030    2    1    2    0    0  0.00000000000E+00  0.00000000000E+00  0.90652874591E+03  0.34559553877E+04  0.33349412700E+04 0.  0.
        3    1    3    3  502    0  0.10609691437E+04  0.23752601091E+03 -0.85688412565E+03  0.13843137451E+04  0.10100000352E+00 0. -1.
       -3    1    3    3    0  502 -0.10609691437E+04 -0.23752601091E+03  0.17634128716E+04  0.20716416426E+04  0.10100000352E+00 0.  1.
</event>
<event>
 5   0  0.2023479E-06  0.3602818E+04  0.7818609E-02  0.8089847E-01
        2   -1    0    0  501    0  0.00000000000E+00  0.00000000000E+00  0.17690075185E+04  0.17690075185E+04  0.25500000920E-02 0.  1.
       -2   -1    0    0    0  501  0.00000000000E+00  0.00000000000E+00 -0.18344037110E+04  0.18344037110E+04  0.25500000920E-02 0. -1.
    10030    2    1    2    0    0  0.00000000000E+00  0.00000000000E+00 -0.65396192504E+02  0.36034112295E+04  0.36028177621E+04 0.  0.
        5    1    3    3  502    0 -0.31420542254E+03 -0.14565435189E+04 -0.10451927598E+04  0.18200807853E+04  0.46999998093E+01 0. -1.
       -5    1    3    3    0  502  0.31420542254E+03  0.14565435189E+04  0.97979656729E+03  0.17833304442E+04  0.46999998093E+01 0.  1.
</event>
<event>
 5   0  0.1999883E-06  0.2457207E+04  0.7818609E-02  0.8418391E-01
       -2   -1    0    0    0  501  0.00000000000E+00  0.00000000000E+00  0.10140876188E+04  0.10140876188E+04  0.25500000920E-02 0.  1.
        2   -1    0    0  501    0  0.00000000000E+00  0.00000000000E+00 -0.14884965992E+04  0.14884965992E+04  0.25500000920E-02 0. -1.
    10030    2    1    2    0    0  0.00000000000E+00  0.00000000000E+00 -0.47440898037E+03  0.25025842181E+04  0.24572065212E+04 0.  0.
        4    1    3    3  502    0  0.92349710197E+03  0.29485474626E+03  0.53150425133E+03  0.11055698082E+04  0.12699999809E+01 0.  1.
       -4    1    3    3    0  502 -0.92349710197E+03 -0.29485474626E+03 -0.10059132317E+04  0.13970144099E+04  0.12699999809E+01 0. -1.
</event>
<event>
 5   0  0.2020725E-06  0.3561587E+04  0.7818609E-02  0.8099348E-01
        2   -1    0    0  501    0  0.00000000000E+00  0.00000000000E+00  0.14447151729E+04  0.14447151729E+04  0.25500000920E-02 0. -1.
       -2   -1    0    0    0  501  0.00000000000E+00  0.00000000000E+00 -0.21950517907E+04  0.21950517907E+04  0.25500000920E-02 0.  1.
    10030    2    1    2    0    0  0.00000000000E+00  0.00000000000E+00 -0.75033661783E+03  0.36397669636E+04  0.35615865157E+04 0.  0.
        3    1    3    3  502    0  0.11322547115E+04  0.75506373564E+02 -0.17777091180E+04  0.21090167526E+04  0.10100000352E+00 0.  1.
       -3    1    3    3    0  502 -0.11322547115E+04 -0.75506373564E+02  0.10273725002E+04  0.15307502110E+04  0.10100000352E+00 0. -1.
</event>
<event>
 5   0  0.6890600E-07  0.3444514E+04  0.7818609E-02  0.8127067E-01
       -1   -1    0    0    0  501  0.00000000000E+00  0.00000000000E+00  0.28890985101E+04  0.28890985101E+04  0.50400001928E-02 0. -1.
        1   -1    0    0  501    0  0.00000000000E+00  0.00000000000E+00 -0.10266762023E+04  0.10266762023E+04  0.50400001928E-02 0.  1.
    10030    2    1    2    0    0  0.00000000000E+00  0.00000000000E+00  0.18624223078E+04  0.39157747125E+04  0.34445137169E+04 0.  0.
        3    1    3    3  502    0  0.24512551654E+03 -0.57232641060E+03  0.27566841864E+04  0.28261195575E+04  0.10100000352E+00 0. -1.
       -3    1    3    3    0  502 -0.24512551654E+03  0.57232641060E+03 -0.89426187861E+03  0.10896551550E+04  0.10100000352E+00 0.  1.
</event>
<event>
 5   0  0.2073287E-06  0.3369649E+04  0.7818609E-02  0.8145396E-01
        2   -1    0    0  501    0  0.00000000000E+00  0.00000000000E+00  0.18804422499E+04  0.18804422499E+04  0.25500000920E-02 0. -1.
       -2   -1    0    0    0  501  0.00000000000E+00  0.00000000000E+00 -0.15095559410E+04  0.15095559410E+04  0.25500000920E-02 0.  1.
    10030    2    1    2    0    0  0.00000000000E+00  0.00000000000E+00  0.37088630891E+03  0.33899981909E+04  0.33696485099E+04 0.  0.
        1    1    3    3  502    0 -0.10928995381E+04  0.42129702616E+02 -0.11038690551E+04  0.15539405404E+04  0.50400001928E-02 0.  1.
       -1    1    3    3    0  502  0.10928995381E+04 -0.42129702616E+02  0.14747553640E+04  0.18360576505E+04  0.50400001928E-02 0. -1.
</event>
<event>
 5   0  0.7378896E-07  0.3533299E+04  0.7818609E-02  0.8105944E-01
        1   -1    0    0  501    0  0.00000000000E+00  0.00000000000E+00  0.19241742801E+04  0.19241742801E+04  0.50400001928E-02 0.  1.
       -1   -1    0    0    0  501  0.00000000000E+00  0.00000000000E+00 -0.16220205220E+04  0.16220205220E+04  0.50400001928E-02 0. -1.
    10030    2    1    2    0    0  0.00000000000E+00  0.00000000000E+00  0.30215375810E+03  0.35461948021E+04  0.35332988384E+04 0.  0.
        2    1    3    3  502    0 -0.15643677562E+04  0.76126205024E+03  0.45925423283E+03  0.17993556725E+04  0.25500000920E-02 0.  1.
       -2    1    3    3    0  502  0.15643677562E+04 -0.76126205024E+03 -0.15710047472E+03  0.17468391297E+04  0.25500000920E-02 0. -1.
</event>
<event>
 5   0  0.6630125E-07  0.3485017E+04  0.7818609E-02  0.8117350E-01
       -1   -1    0    0    0  501  0.00000000000E+00  0.00000000000E+00  0.14078724828E+04  0.14078724829E+04  0.50400001928E-02 0.  1.
        1   -1    0    0  501    0  0.00000000000E+00  0.00000000000E+00 -0.21566838828E+04  0.21566838828E+04  0.50400001928E-02 0. -1.
    10030    2    1    2    0    0  0.00000000000E+00  0.00000000000E+00 -0.74881139994E+03  0.35645563656E+04  0.34850170116E+04 0.  0.
        1    1    3    3  502    0  0.62638373846E+03  0.15546357847E+04  0.11300673820E+03  0.16798867622E+04  0.50400001928E-02 0.  1.
       -1    1    3    3    0  502 -0.62638373846E+03 -0.15546357847E+04 -0.86181813814E+03  0.18846696034E+04  0.50400001928E-02 0. -1.
</event>
<event>
 5   0  0.1999883E-06  0.3434963E+04  0.7818609E-02  0.8129378E-01
        2   -1    0    0  501    0  0.00000000000E+00  0.00000000000E+00  0.19529096946E+04  0.19529096946E+04  0.25500000920E-02 0. -1.
       -2   -1    0    0    0  501  0.00000000000E+00  0.00000000000E+00 -0.15104352072E+04  0.15104352072E+04  0.25500000920E-02 0.  1.
    10030    2    1    2    0    0  0.00000000000E+00  0.00000000000E+00  0.44247448740E+03  0.34633449019E+04  0.34349634987E+04 0.  0.
        4    1    3    3  502    0 -0.75443283190E+03  0.10940335921E+04 -0.87571508316E+03  0.15915266000E+04  0.12699999809E+01 0.  1.
       -4    1    3    3    0  502  0.75443283190E+03 -0.10940335921E+04  0.13181895706E+04  0.18718183019E+04  0.12699999809E+01 0. -1.
</event>
<event>
 5   0  0.1999883E-06  0.2624911E+04  0.7818609E-02  0.8359788E-01
        2   -1    0    0  501    0  0.00000000000E+00  0.00000000000E+00  0.25223646152E+04  0.25223646152E+04  0.25500000920E-02 0. -1.
       -2   -1    0    0    0  501  0.00000000000E+00  0.00000000000E+00 -0.68290669412E+03  0.68290669412E+03  0.25500000920E-02 0.  1.
    10030    2    1    2    0    0  0.00000000000E+00  0.00000000000E+00  0.18394579211E+04  0.32052713094E+04  0.26249111838E+04 0.  0.
        4    1    3    3  502    0 -0.35530922453E+03 -0.11369191043E+03 -0.61680108177E+03  0.72084372988E+03  0.12699999809E+01 0.  1.
       -4    1    3    3    0  502  0.35530922453E+03  0.11369191043E+03  0.24562590029E+04  0.24844275795E+04  0.12699999809E+01 0. -1.
</event>
<event>
 5   0  0.1999883E-06  0.3454161E+04  0.7818609E-02  0.8124740E-01
        2   -1    0    0  501    0  0.00000000000E+00  0.00000000000E+00  0.96347699533E+03  0.96347699533E+03  0.25500000920E-02 0.  1.
       -2   -1    0    0    0  501  0.00000000000E+00  0.00000000000E+00 -0.30958780019E+04  0.30958780019E+04  0.25500000920E-02 0. -1.
    10030    2    1    2    0    0  0.00000000000E+00  0.00000000000E+00 -0.21324010066E+04  0.40593549973E+04  0.34541611052E+04 0.  0.
        4    1    3    3  502    0 -0.28693861506E+02  0.43490758781E+03 -0.30301815410E+04  0.30613672978E+04  0.12699999809E+01 0. -1.
       -4    1    3    3    0  502  0.28693861506E+02 -0.43490758781E+03  0.89778053436E+03  0.99798769952E+03  0.12699999809E+01 0.  1.
</event>
<event>
 5   0  0.6630125E-07  0.3555057E+04  0.7818609E-02  0.8100865E-01
        3   -1    0    0  501    0  0.00000000000E+00  0.00000000000E+00  0.23208669573E+04  0.23208669595E+04  0.10100000352E+00 0. -1.
       -3   -1    0    0    0  501  0.00000000000E+00  0.00000000000E+00 -0.13613913741E+04  0.13613913778E+04  0.10100000352E+00 0.  1.
    10030    2    1    2    0    0  0.00000000000E+00  0.00000000000E+00  0.95947558328E+03  0.36822583374E+04  0.35550573931E+04 0.  0.
        5    1    3    3  502    0  0.84005529137E+03 -0.10363879938E+04 -0.73693736324E+03  0.15241035836E+04  0.46999998093E+01 0.  1.
       -5    1    3    3    0  502 -0.84005529137E+03  0.10363879938E+04  0.16964129465E+04  0.21581547538E+04  0.46999998093E+01 0. -1.
</event>
<event>
 5   0  0.6630125E-07  0.2904641E+04  0.7818609E-02  0.8271498E-01
       -1   -1    0    0    0  501  0.00000000000E+00  0.00000000000E+00  0.17724494822E+04  0.17724494822E+04  0.50400001928E-02 0. -1.
        1   -1    0    0  501    0  0.00000000000E+00  0.00000000000E+00 -0.11900115227E+04  0.11900115227E+04  0.50400001928E-02 0.  1.
    10030    2    1    2    0    0  0.00000000000E+00  0.00000000000E+00  0.58243795949E+03  0.29624610048E+04  0.29046413253E+04 0.  0.
        1    1    3    3  502    0  0.77893214037E+03  0.32669299521E+03 -0.91372630642E+03  0.12443308867E+04  0.50400001928E-02 0.  1.
       -1    1    3    3    0  502 -0.77893214037E+03 -0.32669299521E+03  0.14961642659E+04  0.17181301182E+04  0.50400001928E-02 0. -1.
</event>
<event>
 5   0  0.2020725E-06  0.3428000E+04  0.7818609E-02  0.8131068E-01
       -2   -1    0    0    0  501  0.00000000000E+00  0.00000000000E+00  0.16910765922E+04  0.16910765922E+04  0.25500000920E-02 0. -1.
        2   -1    0    0  501    0  0.00000000000E+00  0.00000000000E+00 -0.17372346219E+04  0.17372346219E+04  0.25500000920E-02 0.  1.
    10030    2    1    2    0    0  0.00000000000E+00  0.00000000000E+00 -0.46158029696E+02  0.34283112142E+04  0.34280004693E+04 0.  0.
        3    1    3    3  502    0 -0.77866970524E+03  0.14203339458E+04 -0.58359549003E+03  0.17217022779E+04  0.10100000352E+00 0.  1.
       -3    1    3    3    0  502  0.77866970524E+03 -0.14203339458E+04  0.53743746033E+03  0.17066089363E+04  0.10100000352E+00 0. -1.
</event>
<event>
 5   0  0.2073287E-06  0.3438523E+04  0.7818609E-02  0.8128516E-01
        2   -1    0    0  501    0  0.00000000000E+00  0.00000000000E+00  0.18828228342E+04  0.18828228342E+04  0.25500000920E-02 0.  1.
       -2   -1    0    0    0  501  0.00000000000E+00  0.00000000000E+00 -0.15699088917E+04  0.15699088917E+04  0.25500000920E-02 0. -1.
    10030    2    1    2    0    0  0.00000000000E+00  0.00000000000E+00  0.31291394247E+03  0.34527317259E+04  0.34385231184E+04 0.  0.
        1    1    3    3  502    0  0.61933820134E+03 -0.13345451580E+04 -0.73675217357E+03  0.16454161637E+04  0.50400001928E-02 0. -1.
       -1    1    3    3    0  502 -0.61933820134E+03  0.13345451580E+04  0.10496661160E+04  0.18073155623E+04  0.50400001928E-02 0.  1.
</event>
<event>
 5   0  0.6630125E-07  0.2161568E+04  0.7818609E-02  0.8534597E-01
       -4   -1    0    0    0  501  0.00000000000E+00  0.00000000000E+00  0.87756657135E+03  0.87756749031E+03  0.12699999809E+01 0.  1.
        4   -1    0    0  501    0  0.00000000000E+00  0.00000000000E+00 -0.13310590137E+04  0.13310596195E+04  0.12699999809E+01 0. -1.
    10030    2    1    2    0    0  0.00000000000E+00  0.00000000000E+00 -0.45349244232E+03  0.22086271099E+04  0.21615684850E+04 0.  0.
        3    1    3    3  502    0  0.46361724759E+02 -0.86519148881E+03 -0.88686763130E+03  0.12398548010E+04  0.10100000352E+00 0. -1.
       -3    1    3    3    0  502 -0.46361724759E+02  0.86519148881E+03  0.43337518898E+03  0.96877230888E+03  0.10100000352E+00 0.  1.
</event>
<event>
 5   0  0.6630125E-07  0.3586483E+04  0.7818609E-02  0.8093595E-01
        1   -1    0    0  501    0  0.00000000000E+00  0.00000000000E+00  0.13671620023E+04  0.13671620023E+04  0.50400001928E-02 0.  1.
       -1   -1    0    0    0  501  0.00000000000E+00  0.00000000000E+00 -0.23521101336E+04  0.23521101336E+04  0.50400001928E-02 0. -1.
    10030    2    1    2    0    0  0.00000000000E+00  0.00000000000E+00 -0.98494813129E+03  0.37192721358E+04  0.35864832913E+04 0.  0.
        1    1    3    3  502    0 -0.54760365082E+02  0.12549439119E+04 -0.18196359818E+04  0.22110988277E+04  0.50400001928E-02 0. -1.
       -1    1    3    3    0  502  0.54760365082E+02 -0.12549439119E+04  0.83468785052E+03  0.15081733081E+04  0.50400001928E-02 0.  1.
</event>
<event>
 5   0  0.7378896E-07  0.2217757E+04  0.7818609E-02  0.8511074E-01
       -1   -1    0    0    0  501  0.00000000000E+00  0.00000000000E+00  0.11001952855E+04  0.11001952856E+04  0.50400001928E-02 0. -1.
        1   -1    0    0  501    0  0.00000000000E+00  0.00000000000E+00 -0.11176298713E+04  0.11176298713E+04  0.50400001928E-02 0.  1.
    10030    2    1    2    0    0  0.00000000000E+00  0.00000000000E+00 -0.17434585764E+02  0.22178251569E+04  0.22177566281E+04 0.  0.
        2    1    3    3  502    0 -0.31407928036E+03  0.43343292720E+03 -0.97988128690E+03  0.11165470134E+04  0.25500000920E-02 0.  1.
       -2    1    3    3    0  502  0.31407928036E+03 -0.43343292720E+03  0.96244670114E+03  0.11012781435E+04  0.25500000920E-02 0. -1.
</event>
<event>
 5   0  0.2020725E-06  0.3496397E+04  0.7818609E-02  0.8114644E-01
       -2   -1    0    0    0  501  0.00000000000E+00  0.00000000000E+00  0.13417929757E+04  0.13417929757E+04  0.25500000920E-02 0. -1.
        2   -1    0    0  501    0  0.00000000000E+00  0.00000000000E+00 -0.22776969082E+04  0.22776969082E+04  0.25500000920E-02 0.  1.
    10030    2    1    2    0    0  0.00000000000E+00  0.00000000000E+00 -0.93590393251E+03  0.36194898839E+04  0.34963968381E+04 0.  0.
        3    1    3    3  502    0 -0.33158537393E+03  0.16470109959E+04 -0.96829335959E+03  0.19391199348E+04  0.10100000352E+00 0. -1.
       -3    1    3    3    0  502  0.33158537393E+03 -0.16470109959E+04  0.32389427085E+02  0.16803699492E+04  0.10100000352E+00 0.  1.
</event>
<event>
 5   0  0.7378896E-07  0.3546259E+04  0.7818609E-02  0.8102914E-01
        1   -1    0    0  501    0  0.00000000000E+00  0.00000000000E+00  0.13344957071E+04  0.13344957071E+04  0.50400001928E-02 0. -1.
       -1   -1    0    0    0  501  0.00000000000E+00  0.00000000000E+00 -0.23559371574E+04  0.23559371574E+04  0.50400001928E-02 0.  1.
    10030    2    1    2    0    0  0.00000000000E+00  0.00000000000E+00 -0.10214414503E+04  0.36904328645E+04  0.35462588867E+04 0.  0.
        2    1    3    3  502    0  0.13395331608E+04 -0.10206424792E+04  0.66751853408E+02  0.16853830334E+04  0.25500000920E-02 0. -1.
       -2    1    3    3    0  502 -0.13395331608E+04  0.10206424792E+04 -0.10881933037E+04  0.20050498312E+04  0.25500000920E-02 0.  1.
</event>
<event>
 5   0  0.2001768E-06  0.3474431E+04  0.7818609E-02  0.8119876E-01
       -2   -1    0    0    0  501  0.00000000000E+00  0.00000000000E+00  0.17633678800E+04  0.17633678800E+04  0.25500000920E-02 0.  1.
        2   -1    0    0  501    0  0.00000000000E+00  0.00000000000E+00 -0.17114511376E+04  0.17114511376E+04  0.25500000920E-02 0. -1.
    10030    2    1    2    0    0  0.00000000000E+00  0.00000000000E+00  0.51916742413E+02  0.34748190177E+04  0.34744311559E+04 0.  0.
        2    1    3    3  502    0  0.17108789428E+04  0.28963118041E+03 -0.57267423578E+02  0.17361660449E+04  0.25500000920E-02 0.  1.
       -2    1    3    3    0  502 -0.17108789428E+04 -0.28963118041E+03  0.10918416599E+03  0.17386529728E+04  0.25500000920E-02 0. -1.
</event>
<event>
 5   0  0.6890600E-07  0.2766550E+04  0.7818609E-02  0.8313729E-01
       -1   -1    0    0    0  501  0.00000000000E+00  0.00000000000E+00  0.79984444842E+03  0.79984444844E+03  0.50400001928E-02 0.  1.
        1   -1    0    0  501    0  0.00000000000E+00  0.00000000000E+00 -0.23922780924E+04  0.23922780924E+04  0.50400001928E-02 0. -1.
    10030    2    1    2    0    0  0.00000000000E+00  0.00000000000E+00 -0.15924336440E+04  0.31921225408E+04  0.27665504523E+04 0.  0.
        3    1    3    3  502    0 -0.51355051312E+03  0.28587398723E+03 -0.22410340769E+04  0.23168279630E+04  0.10100000352E+00 0. -1.
       -3    1    3    3    0  502  0.51355051312E+03 -0.28587398723E+03  0.64860043296E+03  0.87529457781E+03  0.10100000352E+00 0.  1.
</event>
<event>
 5   0  0.6630125E-07  0.3482950E+04  0.7818609E-02  0.8117843E-01
       -1   -1    0    0    0  501  0.00000000000E+00  0.00000000000E+00  0.10637682375E+04  0.10637682375E+04  0.50400001928E-02 0. -1.
        1   -1    0    0  501    0  0.00000000000E+00  0.00000000000E+00 -0.28509354971E+04  0.28509354971E+04  0.50400001928E-02 0.  1.
    10030    2    1    2    0    0  0.00000000000E+00  0.00000000000E+00 -0.17871672596E+04  0.39147037347E+04  0.34829496862E+04 0.  0.
        1    1    3    3  502    0  0.71108687746E+03  0.15074498198E+04 -0.32636108032E+03  0.16983995588E+04  0.50400001928E-02 0.  1.
       -1    1    3    3    0  502 -0.71108687746E+03 -0.15074498198E+04 -0.14608061793E+04  0.22163041759E+04  0.50400001928E-02 0. -1.
</event>
<event>
 5   0  0.1999883E-06  0.3460505E+04  0.7818609E-02  0.8123214E-01
       -2   -1    0    0    0  501  0.00000000000E+00  0.00000000000E+00  0.15460945666E+04  0.15460945666E+04  0.25500000920E-02 0. -1.
        2   -1    0    0  501    0  0.00000000000E+00  0.00000000000E+00 -0.19363463388E+04  0.19363463388E+04  0.25500000920E-02 0.  1.
    10030    2    1    2    0    0  0.00000000000E+00  0.00000000000E+00 -0.39025177220E+03  0.34824409053E+04  0.34605054853E+04 0.  0.
        4    1    3    3  502    0 -0.12190723128E+04 -0.30310601267E+03 -0.13925262829E+04  0.18754043885E+04  0.12699999809E+01 0.  1.
       -4    1    3    3    0  502  0.12190723128E+04  0.30310601267E+03  0.10022745107E+04  0.16070365169E+04  0.12699999809E+01 0. -1.
</event>
<event>
 5   0  0.2023479E-06  0.3480932E+04  0.7818609E-02  0.8118324E-01
       -2   -1    0    0    0  501  0.00000000000E+00  0.00000000000E+00  0.19966476519E+04  0.19966476519E+04  0.25500000920E-02 0. -1.
        2   -1    0    0  501    0  0.00000000000E+00  0.00000000000E+00 -0.15171536560E+04  0.15171536560E+04  0.25500000920E-02 0.  1.
    10030    2    1    2    0    0  0.00000000000E+00  0.00000000000E+00  0.47949399589E+03  0.35138013079E+04  0.34809316482E+04 0.  0.
        5    1    3    3  502    0 -0.95425789813E+03  0.14537969374E+04  0.16790244104E+03  0.17470967320E+04  0.46999998093E+01 0.  1.
       -5    1    3    3    0  502  0.95425789813E+03 -0.14537969374E+04  0.31159155485E+03  0.17667045759E+04  0.46999998093E+01 0. -1.
</event>
<event>
 5   0  0.7378896E-07  0.3478728E+04  0.7818609E-02  0.8118850E-01
        1   -1    0    0  501    0  0.00000000000E+00  0.00000000000E+00  0.23426355534E+04  0.23426355534E+04  0.50400001928E-02 0.  1.
       -1   -1    0    0    0  501  0.00000000000E+00  0.00000000000E+00 -0.12914458473E+04  0.12914458473E+04  0.50400001928E-02 0. -1.
    10030    2    1    2    0    0  0.00000000000E+00  0.00000000000E+00  0.10511897061E+04  0.36340814007E+04  0.34787279038E+04 0.  0.
        2    1    3    3  502    0  0.11411988594E+04  0.55914463500E+03 -0.71504802462E+03  0.14581739392E+04  0.25500000920E-02 0. -1.
       -2    1    3    3    0  502 -0.11411988594E+04 -0.55914463500E+03  0.17662377307E+04  0.21759074615E+04  0.25500000920E-02 0.  1.
</event>
<event>
 5   0  0.7378896E-07  0.3416989E+04  0.7818609E-02  0.8133749E-01
        1   -1    0    0  501    0  0.00000000000E+00  0.00000000000E+00  0.20466866136E+04  0.20466866136E+04  0.50400001928E-02 0.  1.
       -1   -1    0    0    0  501  0.00000000000E+00  0.00000000000E+00 -0.14261847384E+04  0.14261847384E+04  0.50400001928E-02 0. -1.
    10030    2    1    2    0    0  0.00000000000E+00  0.00000000000E+00  0.62050187521E+03  0.34728713519E+04  0.34169888572E+04 0.  0.
        2    1    3    3  502    0 -0.96862829736E+03 -0.12066981262E+04 -0.42588156267E+03  0.16049100447E+04  0.25500000920E-02 0.  1.
       -2    1    3    3    0  502  0.96862829736E+03  0.12066981262E+04  0.10463834379E+04  0.18679613072E+04  0.25500000920E-02 0. -1.
</event>
<event>
 5   0  0.6630125E-07  0.3374138E+04  0.7818609E-02  0.8144283E-01
       -1   -1    0    0    0  501  0.00000000000E+00  0.00000000000E+00  0.15375267968E+04  0.15375267968E+04  0.50400001928E-02 0. -1.
        1   -1    0    0  501    0  0.00000000000E+00  0.00000000000E+00 -0.18511561694E+04  0.18511561694E+04  0.50400001928E-02 0.  1.
    10030    2    1    2    0    0  0.00000000000E+00  0.00000000000E+00 -0.31362937260E+03  0.33886829662E+04  0.33741382399E+04 0.  0.
        1    1    3    3  502    0 -0.10317992765E+04  0.12751067476E+04 -0.55309796751E+03  0.17310182918E+04  0.50400001928E-02 0.  1.
       -1    1    3    3    0  502  0.10317992765E+04 -0.12751067476E+04  0.23946859491E+03  0.16576646744E+04  0.50400001928E-02 0. -1.
</event>
<event>
 5   0  0.6630125E-07  0.3494917E+04  0.7818609E-02  0.8114996E-01
       -1   -1    0    0    0  501  0.00000000000E+00  0.00000000000E+00  0.14554516099E+04  0.14554516099E+04  0.50400001928E-02 0. -1.
        1   -1    0    0  501    0  0.00000000000E+00  0.00000000000E+00 -0.20980504371E+04  0.20980504371E+04  0.50400001928E-02 0.  1.
    10030    2    1    2    0    0  0.00000000000E+00  0.00000000000E+00 -0.64259882716E+03  0.35535020470E+04  0.34949168152E+04 0.  0.
        5    1    3    3  502    0  0.33734560738E+03 -0.16271712864E+04 -0.87082226823E+03  0.18761241875E+04  0.46999998093E+01 0.  1.
       -5    1    3    3    0  502 -0.33734560738E+03  0.16271712864E+04  0.22822344107E+03  0.16773778594E+04  0.46999998093E+01 0. -1.
</event>
<event>
 5   0  0.6890600E-07  0.3547475E+04  0.7818609E-02  0.8102630E-01
       -1   -1    0    0    0  501  0.00000000000E+00  0.00000000000E+00  0.12666366582E+04  0.12666366582E+04  0.50400001928E-02 0.  1.
        1   -1    0    0  501    0  0.00000000000E+00  0.00000000000E+00 -0.24838573969E+04  0.24838573969E+04  0.50400001928E-02 0. -1.
    10030    2    1    2    0    0  0.00000000000E+00  0.00000000000E+00 -0.12172207387E+04  0.37504940551E+04  0.35474750641E+04 0.  0.
        3    1    3    3  502    0 -0.38975009920E+03  0.32403195163E+03 -0.24056645168E+04  0.24584799416E+04  0.10100000352E+00 0. -1.
       -3    1    3    3    0  502  0.38975009920E+03 -0.32403195163E+03  0.11884437781E+04  0.12920141135E+04  0.10100000352E+00 0.  1.
</event>
<event>
 5   0  0.2073287E-06  0.2455220E+04  0.7818609E-02  0.8419114E-01
        2   -1    0    0  501    0  0.00000000000E+00  0.00000000000E+00  0.10959958588E+04  0.10959958588E+04  0.25500000920E-02 0.  1.
       -2   -1    0    0    0  501  0.00000000000E+00  0.00000000000E+00 -0.13750296914E+04  0.13750296914E+04  0.25500000920E-02 0. -1.
    10030    2    1    2    0    0  0.00000000000E+00  0.00000000000E+00 -0.27903383263E+03  0.24710255502E+04  0.24552204361E+04 0.  0.
        1    1    3    3  502    0  0.86594908995E+03  0.60619979935E+03 -0.76777959743E+03  0.13064576279E+04  0.50400001928E-02 0. -1.
       -1    1    3    3    0  502 -0.86594908995E+03 -0.60619979935E+03  0.48874576479E+03  0.11645679223E+04  0.50400001928E-02 0.  1.
</event>
<event>
 5   0  0.6630125E-07  0.2330629E+04  0.7818609E-02  0.8465942E-01
       -1   -1    0    0    0  501  0.00000000000E+00  0.00000000000E+00  0.91193392037E+03  0.91193392039E+03  0.50400001928E-02 0. -1.
        1   -1    0    0  501    0  0.00000000000E+00  0.00000000000E+00 -0.14890962734E+04  0.14890962734E+04  0.50400001928E-02 0.  1.
    10030    2    1    2    0    0  0.00000000000E+00  0.00000000000E+00 -0.57716235303E+03  0.24010301938E+04  0.23306285868E+04 0.  0.
        5    1    3    3  502    0 -0.97078423558E+03 -0.26354690302E+03 -0.89461650087E+03  0.13461945535E+04  0.46999998093E+01 0.  1.
       -5    1    3    3    0  502  0.97078423558E+03  0.26354690302E+03  0.31745414784E+03  0.10548356403E+04  0.46999998093E+01 0. -1.
</event>
<event>
 5   0  0.6630125E-07  0.3474873E+04  0.7818609E-02  0.8119771E-01
        1   -1    0    0  501    0  0.00000000000E+00  0.00000000000E+00  0.11643916969E+04  0.11643916969E+04  0.50400001928E-02 0. -1.
       -1   -1    0    0    0  501  0.00000000000E+00  0.00000000000E+00 -0.25925002193E+04  0.25925002193E+04  0.50400001928E-02 0.  1.
    10030    2    1    2    0    0  0.00000000000E+00  0.00000000000E+00 -0.14281085224E+04  0.37568919162E+04  0.34748730795E+04 0.  0.
        1    1    3    3  502    0  0.43436322516E+03 -0.15720726291E+04 -0.66619388457E+02  0.16323363335E+04  0.50400001928E-02 0. -1.
       -1    1    3    3    0  502 -0.43436322516E+03  0.15720726291E+04 -0.13614891339E+04  0.21245555828E+04  0.50400001928E-02 0.  1.
</event>
<event>
 5   0  0.6630125E-07  0.3449873E+04  0.7818609E-02  0.8125773E-01
       -1   -1    0    0    0  501  0.00000000000E+00  0.00000000000E+00  0.11140902625E+04  0.11140902625E+04  0.50400001928E-02 0. -1.
        1   -1    0    0  501    0  0.00000000000E+00  0.00000000000E+00 -0.26707042610E+04  0.26707042610E+04  0.50400001928E-02 0.  1.
    10030    2    1    2    0    0  0.00000000000E+00  0.00000000000E+00 -0.15566139985E+04  0.37847945235E+04  0.34498728158E+04 0.  0.
        1    1    3    3  502    0  0.11269882565E+04  0.11613607356E+04 -0.14333894797E+04  0.21618202259E+04  0.50400001928E-02 0.  1.
       -1    1    3    3    0  502 -0.11269882565E+04 -0.11613607356E+04 -0.12322451873E+03  0.16229742976E+04  0.50400001928E-02 0. -1.
</event>
<event>
 5   0  0.6630125E-07  0.3058594E+04  0.7818609E-02  0.8227194E-01
        1   -1    0    0  501    0  0.00000000000E+00  0.00000000000E+00  0.13332312179E+04  0.13332312179E+04  0.50400001928E-02 0. -1.
       -1   -1    0    0    0  501  0.00000000000E+00  0.00000000000E+00 -0.17541968127E+04  0.17541968127E+04  0.50400001928E-02 0.  1.
    10030    2    1    2    0    0  0.00000000000E+00  0.00000000000E+00 -0.42096559488E+03  0.30874280306E+04  0.30585944177E+04 0.  0.
        4    1    3    3  502    0 -0.13815670554E+04  0.50192069561E+03 -0.63647588732E+03  0.16017974533E+04  0.12699999809E+01 0.  1.
       -4    1    3    3    0  502  0.13815670554E+04 -0.50192069561E+03  0.21551029244E+03  0.14856305773E+04  0.12699999809E+01 0. -1.
</event>
<event>
 5   0  0.6890600E-07  0.2397130E+04  0.7818609E-02  0.8440579E-01
       -1   -1    0    0    0  501  0.00000000000E+00  0.00000000000E+00  0.12001593593E+04  0.12001593594E+04  0.50400001928E-02 0.  1.
        1   -1    0    0  501    0  0.00000000000E+00  0.00000000000E+00 -0.11969727847E+04  0.11969727847E+04  0.50400001928E-02 0. -1.
    10030    2    1    2    0    0  0.00000000000E+00  0.00000000000E+00  0.31865746532E+01  0.23971321441E+04  0.23971300261E+04 0.  0.
        3    1    3    3  502    0  0.65997885191E+03 -0.56741811761E+03  0.82562233718E+03  0.11996614768E+04  0.10100000352E+00 0.  1.
       -3    1    3    3    0  502 -0.65997885191E+03  0.56741811761E+03 -0.82243576253E+03  0.11974706672E+04  0.10100000352E+00 0. -1.
</event>
<event>
 5   0  0.2073287E-06  0.3102369E+04  0.7818609E-02  0.8215088E-01
        2   -1    0    0  501    0  0.00000000000E+00  0.00000000000E+00  0.17413083930E+04  0.17413083930E+04  0.25500000920E-02 0. -1.
       -2   -1    0    0    0  501  0.00000000000E+00  0.00000000000E+00 -0.13818188777E+04  0.13818188777E+04  0.25500000920E-02 0.  1.
    10030    2    1    2    0    0  0.00000000000E+00  0.00000000000E+00  0.35948951532E+03  0.31231272707E+04  0.31023686495E+04 0.  0.
        1    1    3    3  502    0  0.31093030371E+03  0.53713556023E+03  0.16108690247E+04  0.17262940881E+04  0.50400001928E-02 0. -1.
       -1    1    3    3    0  502 -0.31093030371E+03 -0.53713556023E+03 -0.12513795093E+04  0.13968331827E+04  0.50400001928E-02 0.  1.
</event>
<event>
 5   0  0.2020725E-06  0.3506255E+04  0.7818609E-02  0.8112309E-01
       -2   -1    0    0    0  501  0.00000000000E+00  0.00000000000E+00  0.17858684987E+04  0.17858684987E+04  0.25500000920E-02 0.  1.
        2   -1    0    0  501    0  0.00000000000E+00  0.00000000000E+00 -0.17209863748E+04  0.17209863748E+04  0.25500000920E-02 0. -1.
    10030    2    1    2    0    0  0.00000000000E+00  0.00000000000E+00  0.64882123983E+02  0.35068548735E+04  0.35062546134E+04 0.  0.
        3    1    3    3  502    0 -0.92585420219E+03  0.96091032336E+03  0.11696936325E+04  0.17744683309E+04  0.10100000352E+00 0.  1.
       -3    1    3    3    0  502  0.92585420219E+03 -0.96091032336E+03 -0.11048115086E+04  0.17323865426E+04  0.10100000352E+00 0. -1.
</event>
<event>
 5   0  0.6890600E-07  0.3487307E+04  0.7818609E-02  0.8116805E-01
        1   -1    0    0  501    0  0.00000000000E+00  0.00000000000E+00  0.19639872588E+04  0.19639872588E+04  0.50400001928E-02 0.  1.
       -1   -1    0    0    0  501  0.00000000000E+00  0.00000000000E+00 -0.15480384811E+04  0.15480384811E+04  0.50400001928E-02 0. -1.
    10030    2    1    2    0    0  0.00000000000E+00  0.00000000000E+00  0.41594877774E+03  0.35120257399E+04  0.34873071864E+04 0.  0.
        3    1    3    3  502    0 -0.14370780124E+04  0.71118626202E+03  0.89792071887E+03  0.18377270583E+04  0.10100000352E+00 0.  1.
       -3    1    3    3    0  502  0.14370780124E+04 -0.71118626202E+03 -0.48197194113E+03  0.16742986817E+04  0.10100000352E+00 0. -1.
</event>
<event>
 5   0  0.2023479E-06  0.3185182E+04  0.7818609E-02  0.8192742E-01
       -2   -1    0    0    0  501  0.00000000000E+00  0.00000000000E+00  0.12763146824E+04  0.12763146824E+04  0.25500000920E-02 0. -1.
        2   -1    0    0  501    0  0.00000000000E+00  0.00000000000E+00 -0.19872415807E+04  0.19872415807E+04  0.25500000920E-02 0.  1.
    10030    2    1    2    0    0  0.00000000000E+00  0.00000000000E+00 -0.71092689835E+03  0.32635562631E+04  0.31851816946E+04 0.  0.
        5    1    3    3  502    0  0.36711089348E+03 -0.41961799218E+03  0.11730460456E+04  0.12988105261E+04  0.46999998093E+01 0. -1.
       -5    1    3    3    0  502 -0.36711089348E+03  0.41961799218E+03 -0.18839729440E+04  0.19647457370E+04  0.46999998093E+01 0.  1.
</event>
<event>
 5   0  0.6630125E-07  0.3401449E+04  0.7818609E-02  0.8137551E-01
        1   -1    0    0  501    0  0.00000000000E+00  0.00000000000E+00  0.29773764279E+04  0.29773764279E+04  0.50400001928E-02 0. -1.
       -1   -1    0    0    0  501  0.00000000000E+00  0.00000000000E+00 -0.97148046643E+03  0.97148046644E+03  0.50400001928E-02 0.  1.
    10030    2    1    2    0    0  0.00000000000E+00  0.00000000000E+00  0.20058959614E+04  0.39488568943E+04  0.34014485390E+04 0.  0.
        4    1    3    3  502    0 -0.86958241838E+03 -0.72605738142E+03 -0.46971326175E+03  0.12263625339E+04  0.12699999809E+01 0.  1.
       -4    1    3    3    0  502  0.86958241838E+03  0.72605738142E+03  0.24756092232E+04  0.27224943604E+04  0.12699999809E+01 0. -1.
</event>
<event>
 5   0  0.7378896E-07  0.3478442E+04  0.7818609E-02  0.8118918E-01
        1   -1    0    0  501    0  0.00000000000E+00  0.00000000000E+00  0.18122491896E+04  0.18122491896E+04  0.50400001928E-02 0. -1.
       -1   -1    0    0    0  501  0.00000000000E+00  0.00000000000E+00 -0.16691353385E+04  0.16691353385E+04  0.50400001928E-02 0.  1.
    10030    2    1    2    0    0  0.00000000000E+00  0.00000000000E+00  0.14311385107E+03  0.34813845281E+04  0.34784416997E+04 0.  0.
        2    1    3    3  502    0  0.15539652774E+04  0.35851632389E+03 -0.62296612498E+03  0.17121415919E+04  0.25500000920E-02 0.  1.
       -2    1    3    3    0  502 -0.15539652774E+04 -0.35851632389E+03  0.76607997604E+03  0.17692429363E+04  0.25500000920E-02 0. -1.
</event>
<event>
 5   0  0.6630125E-07  0.3499826E+04  0.7818609E-02  0.8113831E-01
        1   -1    0    0  501    0  0.00000000000E+00  0.00000000000E+00  0.11500838377E+04  0.11500838377E+04  0.50400001928E-02 0.  1.
       -1   -1    0    0    0  501  0.00000000000E+00  0.00000000000E+00 -0.26625838904E+04  0.26625838904E+04  0.50400001928E-02 0. -1.
    10030    2    1    2    0    0  0.00000000000E+00  0.00000000000E+00 -0.15125000528E+04  0.38126677281E+04  0.34998255379E+04 0.  0.
        1    1    3    3  502    0  0.12698242447E+04 -0.43660516397E+03 -0.19786564104E+04  0.23912672105E+04  0.50400001928E-02 0. -1.
       -1    1    3    3    0  502 -0.12698242447E+04  0.43660516397E+03  0.46615635768E+03  0.14214005176E+04  0.50400001928E-02 0.  1.
</event>
<event>
 5   0  0.6630125E-07  0.3584796E+04  0.7818609E-02  0.8093983E-01
       -1   -1    0    0    0  501  0.00000000000E+00  0.00000000000E+00  0.11992465856E+04  0.11992465857E+04  0.50400001928E-02 0. -1.
        1   -1    0    0  501    0  0.00000000000E+00  0.00000000000E+00 -0.26789241749E+04  0.26789241749E+04  0.50400001928E-02 0.  1.
    10030    2    1    2    0    0  0.00000000000E+00  0.00000000000E+00 -0.14796775892E+04  0.38781707605E+04  0.35847960444E+04 0.  0.
        5    1    3    3  502    0  0.13708392891E+04  0.86942558100E+02 -0.19855557351E+04  0.24143763237E+04  0.46999998093E+01 0.  1.
       -5    1    3    3    0  502 -0.13708392891E+04 -0.86942558100E+02  0.50587814593E+03  0.14637944369E+04  0.46999998093E+01 0. -1.
</event>
<event>
 5   0  0.2023479E-06  0.3469335E+04  0.7818609E-02  0.8121096E-01
       -2   -1    0    0    0  501  0.00000000000E+00  0.00000000000E+00  0.14359953807E+04  0.14359953807E+04  0.25500000920E-02 0. -1.
        2   -1    0    0  501    0  0.00000000000E+00  0.00000000000E+00 -0.20954601765E+04  0.20954601765E+04  0.25500000920E-02 0.  1.
    10030    2    1    2    0    0  0.00000000000E+00  0.00000000000E+00 -0.65946479576E+03  0.35314555572E+04  0.34693348837E+04 0.  0.
        5    1    3    3  502    0  0.60650317967E+03  0.15966253180E+04 -0.63846257703E+03  0.18233801209E+04  0.46999998093E+01 0. -1.
       -5    1    3    3    0  502 -0.60650317967E+03 -0.15966253180E+04 -0.21002218735E+02  0.17080754363E+04  0.46999998093E+01 0.  1.
</event>
<event>
 5   0  0.1999883E-06  0.3588618E+04  0.7818609E-02  0.8093104E-01
       -2   -1    0    0    0  501  0.00000000000E+00  0.00000000000E+00  0.18069962645E+04  0.18069962645E+04  0.25500000920E-02 0. -1.
        2   -1    0    0  501    0  0.00000000000E+00  0.00000000000E+00 -0.17817112081E+04  0.17817112081E+04  0.25500000920E-02 0.  1.
    10030    2    1    2    0    0  0.00000000000E+00  0.00000000000E+00  0.25285056312E+02  0.35887074726E+04  0.35886183957E+04 0.  0.
        4    1    3    3  502    0 -0.31044373504E+03 -0.83349293698E+02 -0.17526835525E+04  0.17819157291E+04  0.12699999809E+01 0.  1.
       -4    1    3    3    0  502  0.31044373504E+03  0.83349293698E+02  0.17779686089E+04  0.18067917435E+04  0.12699999809E+01 0. -1.
</event>
<event>
 5   0  0.6630125E-07  0.3570083E+04  0.7818609E-02  0.8097379E-01
       -1   -1    0    0    0  501  0.00000000000E+00  0.00000000000E+00  0.17128219488E+04  0.17128219488E+04  0.50400001928E-02 0. -1.
        1   -1    0    0  501    0  0.00000000000E+00  0.00000000000E+00 -0.18603063683E+04  0.18603063683E+04  0.50400001928E-02 0.  1.
    10030    2    1    2    0    0  0.00000000000E+00  0.00000000000E+00 -0.14748441950E+03  0.35731283170E+04  0.35700832366E+04 0.  0.
        5    1    3    3  502    0 -0.12262526502E+04  0.12900326044E+04  0.62284738139E+02  0.17809495112E+04  0.46999998093E+01 0.  1.
       -5    1    3    3    0  502  0.12262526502E+04 -0.12900326044E+04 -0.20976915764E+03  0.17921788059E+04  0.46999998093E+01 0. -1.
</event>
<event>
 5   0  0.6630125E-07  0.3479421E+04  0.7818609E-02  0.8118684E-01
       -3   -1    0    0    0  501  0.00000000000E+00  0.00000000000E+00  0.19137187152E+04  0.19137187179E+04  0.10100000352E+00 0. -1.
        3   -1    0    0  501    0  0.00000000000E+00  0.00000000000E+00 -0.15815243703E+04  0.15815243735E+04  0.10100000352E+00 0.  1.
    10030    2    1    2    0    0  0.00000000000E+00  0.00000000000E+00  0.33219434498E+03  0.34952430914E+04  0.34794210991E+04 0.  0.
        2    1    3    3  502    0 -0.80289276590E+03 -0.90466142903E+03 -0.10900062690E+04  0.16282391597E+04  0.25500000920E-02 0.  1.
       -2    1    3    3    0  502  0.80289276590E+03  0.90466142903E+03  0.14222006140E+04  0.18670039317E+04  0.25500000920E-02 0. -1.
</event>
<event>
 5   0  0.2073287E-06  0.3467013E+04  0.7818609E-02  0.8121652E-01
       -2   -1    0    0    0  501  0.00000000000E+00  0.00000000000E+00  0.15261154867E+04  0.15261154867E+04  0.25500000920E-02 0. -1.
        2   -1    0    0  501    0  0.00000000000E+00  0.00000000000E+00 -0.19690804019E+04  0.19690804019E+04  0.25500000920E-02 0.  1.
    10030    2    1    2    0    0  0.00000000000E+00  0.00000000000E+00 -0.44296491516E+03  0.34951958886E+04  0.34670126021E+04 0.  0.
        1    1    3    3  502    0  0.16729610974E+03 -0.12242304888E+04 -0.14472262781E+04  0.19029430307E+04  0.50400001928E-02 0. -1.
       -1    1    3    3    0  502 -0.16729610974E+03  0.12242304888E+04  0.10042613630E+04  0.15922528578E+04  0.50400001928E-02 0.  1.
</event>
<event>
 5   0  0.1999883E-06  0.3476286E+04  0.7818609E-02  0.8119433E-01
        2   -1    0    0  501    0  0.00000000000E+00  0.00000000000E+00  0.17303466542E+04  0.17303466542E+04  0.25500000920E-02 0.  1.
       -2   -1    0    0    0  501  0.00000000000E+00  0.00000000000E+00 -0.17459747052E+04  0.17459747052E+04  0.25500000920E-02 0. -1.
    10030    2    1    2    0    0  0.00000000000E+00  0.00000000000E+00 -0.15628050991E+02  0.34763213594E+04  0.34762862307E+04 0.  0.
        4    1    3    3  502    0  0.37197894249E+03  0.12683315165E+04 -0.11365887850E+04  0.17432351672E+04  0.12699999809E+01 0. -1.
       -4    1    3    3    0  502 -0.37197894249E+03 -0.12683315165E+04  0.11209607340E+04  0.17330861921E+04  0.12699999809E+01 0.  1.
</event>
<event>
 5   0  0.1999883E-06  0.3546820E+04  0.7818609E-02  0.8102783E-01
        2   -1    0    0  501    0  0.00000000000E+00  0.00000000000E+00  0.24303325460E+04  0.24303325460E+04  0.25500000920E-02 0. -1.
       -2   -1    0    0    0  501  0.00000000000E+00  0.00000000000E+00 -0.12940543245E+04  0.12940543245E+04  0.25500000920E-02 0.  1.
    10030    2    1    2    0    0  0.00000000000E+00  0.00000000000E+00  0.11362782215E+04  0.37243868706E+04  0.35468196127E+04 0.  0.
        4    1    3    3  502    0  0.12117300785E+04  0.27224451952E+03 -0.76116612066E+03  0.14566339065E+04  0.12699999809E+01 0.  1.
       -4    1    3    3    0  502 -0.12117300785E+04 -0.27224451952E+03  0.18974443421E+04  0.22677529640E+04  0.12699999809E+01 0. -1.
</event>
<event>
 5   0  0.6630125E-07  0.3240075E+04  0.7818609E-02  0.8178313E-01
        1   -1    0    0  501    0  0.00000000000E+00  0.00000000000E+00  0.18034217508E+04  0.18034217508E+04  0.50400001928E-02 0.  1.
       -1   -1    0    0    0  501  0.00000000000E+00  0.00000000000E+00 -0.14553005721E+04  0.14553005721E+04  0.50400001928E-02 0. -1.
    10030    2    1    2    0    0  0.00000000000E+00  0.00000000000E+00  0.34812117878E+03  0.32587223229E+04  0.32400745088E+04 0.  0.
        4    1    3    3  502    0  0.51611067205E+03  0.14015233477E+04  0.80527218647E+03  0.16967919222E+04  0.12699999809E+01 0.  1.
       -4    1    3    3    0  502 -0.51611067205E+03 -0.14015233477E+04 -0.45715100769E+03  0.15619304007E+04  0.12699999809E+01 0. -1.
</event>
<event>
 5   0  0.6890600E-07  0.3484432E+04  0.7818609E-02  0.8117489E-01
       -1   -1    0    0    0  501  0.00000000000E+00  0.00000000000E+00  0.14168503827E+04  0.14168503827E+04  0.50400001928E-02 0. -1.
        1   -1    0    0  501    0  0.00000000000E+00  0.00000000000E+00 -0.21422983143E+04  0.21422983143E+04  0.50400001928E-02 0.  1.
    10030    2    1    2    0    0  0.00000000000E+00  0.00000000000E+00 -0.72544793156E+03  0.35591486970E+04  0.34844317680E+04 0.  0.
        3    1    3    3  502    0 -0.12575037998E+04  0.31281019111E+03  0.82678592322E+03  0.15371210087E+04  0.10100000352E+00 0. -1.
       -3    1    3    3    0  502  0.12575037998E+04 -0.31281019111E+03 -0.15522338548E+04  0.20220276883E+04  0.10100000352E+00 0.  1.
</event>
<event>
 5   0  0.6890600E-07  0.4021492E+04  0.7818609E-02  0.8000225E-01
        1   -1    0    0  501    0  0.00000000000E+00  0.00000000000E+00  0.27142494225E+04  0.27142494225E+04  0.50400001928E-02 0. -1.
       -1   -1    0    0    0  501  0.00000000000E+00  0.00000000000E+00 -0.14895832035E+04  0.14895832035E+04  0.50400001928E-02 0.  1.
    10030    2    1    2    0    0  0.00000000000E+00  0.00000000000E+00  0.12246662189E+04  0.42038326260E+04  0.40214924343E+04 0.  0.
        3    1    3    3  502    0  0.10582628515E+04 -0.12665983853E+04  0.18128423621E+04  0.24516502958E+04  0.10100000352E+00 0. -1.
       -3    1    3    3    0  502 -0.10582628515E+04  0.12665983853E+04 -0.58817614319E+03  0.17521823302E+04  0.10100000352E+00 0.  1.
</event>
<event>
 5   0  0.1999883E-06  0.3505032E+04  0.7818609E-02  0.8112598E-01
       -2   -1    0    0    0  501  0.00000000000E+00  0.00000000000E+00  0.16252728036E+04  0.16252728037E+04  0.25500000920E-02 0.  1.
        2   -1    0    0  501    0  0.00000000000E+00  0.00000000000E+00 -0.18897211431E+04  0.18897211431E+04  0.25500000920E-02 0. -1.
    10030    2    1    2    0    0  0.00000000000E+00  0.00000000000E+00 -0.26444833950E+03  0.35149939468E+04  0.35050320286E+04 0.  0.
        4    1    3    3  502    0  0.16402684602E+03  0.14529483648E+03  0.16114802976E+04  0.16263104741E+04  0.12699999809E+01 0.  1.
       -4    1    3    3    0  502 -0.16402684602E+03 -0.14529483648E+03 -0.18759286371E+04  0.18886834727E+04  0.12699999809E+01 0. -1.
</event>
<event>
 5   0  0.6630125E-07  0.3452324E+04  0.7818609E-02  0.8125182E-01
       -1   -1    0    0    0  501  0.00000000000E+00  0.00000000000E+00  0.11743616634E+04  0.11743616635E+04  0.50400001928E-02 0. -1.
        1   -1    0    0  501    0  0.00000000000E+00  0.00000000000E+00 -0.25372382169E+04  0.25372382169E+04  0.50400001928E-02 0.  1.
    10030    2    1    2    0    0  0.00000000000E+00  0.00000000000E+00 -0.13628765535E+04  0.37115998804E+04  0.34523240248E+04 0.  0.
        4    1    3    3  502    0 -0.13619953596E+04 -0.86407935398E+03 -0.20474283007E+02  0.16130980438E+04  0.12699999809E+01 0. -1.
       -4    1    3    3    0  502  0.13619953596E+04  0.86407935398E+03 -0.13424022704E+04  0.20985018366E+04  0.12699999809E+01 0.  1.
</event>
<event>
 5   0  0.2073287E-06  0.3467996E+04  0.7818609E-02  0.8121417E-01
        2   -1    0    0  501    0  0.00000000000E+00  0.00000000000E+00  0.22518001683E+04  0.22518001683E+04  0.25500000920E-02 0. -1.
       -2   -1    0    0    0  501  0.00000000000E+00  0.00000000000E+00 -0.13352644273E+04  0.13352644273E+04  0.25500000920E-02 0.  1.
    10030    2    1    2    0    0  0.00000000000E+00  0.00000000000E+00  0.91653574103E+03  0.35870645956E+04  0.34679957682E+04 0.  0.
        1    1    3    3  502    0  0.44196172510E+03 -0.14865582109E+04  0.12605022366E+04  0.19985122890E+04  0.50400001928E-02 0. -1.
       -1    1    3    3    0  502 -0.44196172510E+03  0.14865582109E+04 -0.34396649554E+03  0.15885523066E+04  0.50400001928E-02 0.  1.
</event>
<event>
 5   0  0.6630125E-07  0.3514874E+04  0.7818609E-02  0.8110274E-01
        1   -1    0    0  501    0  0.00000000000E+00  0.00000000000E+00  0.21919480804E+04  0.21919480804E+04  0.50400001928E-02 0.  1.
       -1   -1    0    0    0  501  0.00000000000E+00  0.00000000000E+00 -0.14090596537E+04  0.14090596537E+04  0.50400001928E-02 0. -1.
    10030    2    1    2    0    0  0.00000000000E+00  0.00000000000E+00  0.78288842664E+03  0.36010077341E+04  0.35148744519E+04 0.  0.
        5    1    3    3  502    0  0.11727009879E+04 -0.13081169274E+04  0.34376330591E+03  0.17901376492E+04  0.46999998093E+01 0. -1.
       -5    1    3    3    0  502 -0.11727009879E+04  0.13081169274E+04  0.43912512073E+03  0.18108700849E+04  0.46999998093E+01 0.  1.
</event>
<event>
 5   0  0.2020725E-06  0.3481377E+04  0.7818609E-02  0.8118218E-01
        2   -1    0    0  501    0  0.00000000000E+00  0.00000000000E+00  0.18917197660E+04  0.18917197660E+04  0.25500000920E-02 0.  1.
       -2   -1    0    0    0  501  0.00000000000E+00  0.00000000000E+00 -0.16017151793E+04  0.16017151793E+04  0.25500000920E-02 0. -1.
    10030    2    1    2    0    0  0.00000000000E+00  0.00000000000E+00  0.29000458670E+03  0.34934349454E+04  0.34813768910E+04 0.  0.
        3    1    3    3  502    0  0.59810105816E+03  0.79292345728E+03 -0.12894747092E+04  0.16276355614E+04  0.10100000352E+00 0. -1.
       -3    1    3    3    0  502 -0.59810105816E+03 -0.79292345728E+03  0.15794792959E+04  0.18657993840E+04  0.10100000352E+00 0.  1.
</event>
<event>
 5   0  0.2073287E-06  0.3451026E+04  0.7818609E-02  0.8125495E-01
       -2   -1    0    0    0  501  0.00000000000E+00  0.00000000000E+00  0.12848435881E+04  0.12848435881E+04  0.25500000920E-02 0. -1.
        2   -1    0    0  501    0  0.00000000000E+00  0.00000000000E+00 -0.23173210495E+04  0.23173210495E+04  0.25500000920E-02 0.  1.
    10030    2    1    2    0    0  0.00000000000E+00  0.00000000000E+00 -0.10324774614E+04  0.36021646375E+04  0.34510259877E+04 0.  0.
        1    1    3    3  502    0  0.10966621367E+04  0.77042647227E+03  0.61817529646E+03  0.14759286868E+04  0.50400001928E-02 0. -1.
       -1    1    3    3    0  502 -0.10966621367E+04 -0.77042647227E+03 -0.16506527578E+04  0.21262359508E+04  0.50400001928E-02 0.  1.
</event>
<event>
 5   0  0.6630125E-07  0.2931066E+04  0.7818609E-02  0.8263694E-01
        1   -1    0    0  501    0  0.00000000000E+00  0.00000000000E+00  0.23347657392E+04  0.23347657392E+04  0.50400001928E-02 0. -1.
       -1   -1    0    0    0  501  0.00000000000E+00  0.00000000000E+00 -0.91991568706E+03  0.91991568708E+03  0.50400001928E-02 0.  1.
    10030    2    1    2    0    0  0.00000000000E+00  0.00000000000E+00  0.14148500522E+04  0.32546814263E+04  0.29310664470E+04 0.  0.
        5    1    3    3  502    0 -0.11132568623E+04  0.91695819451E+01 -0.35087105661E+03  0.11672863878E+04  0.46999998093E+01 0. -1.
       -5    1    3    3    0  502  0.11132568623E+04 -0.91695819451E+01  0.17657211088E+04  0.20873950385E+04  0.46999998093E+01 0.  1.
</event>
<event>
 5   0  0.7378896E-07  0.3479818E+04  0.7818609E-02  0.8118589E-01
       -1   -1    0    0    0  501  0.00000000000E+00  0.00000000000E+00  0.17389226197E+04  0.17389226197E+04  0.50400001928E-02 0. -1.
        1   -1    0    0  501    0  0.00000000000E+00  0.00000000000E+00 -0.17408961012E+04  0.17408961012E+04  0.50400001928E-02 0.  1.
    10030    2    1    2    0    0  0.00000000000E+00  0.00000000000E+00 -0.19734815027E+01  0.34798187209E+04  0.34798181613E+04 0.  0.
        2    1    3    3  502    0 -0.59815122067E+03 -0.17406731275E+03  0.16235747834E+04  0.17389880360E+04  0.25500000920E-02 0. -1.
       -2    1    3    3    0  502  0.59815122067E+03  0.17406731275E+03 -0.16255482649E+04  0.17408306849E+04  0.25500000920E-02 0.  1.
</event>
<event>
 5   0  0.2001768E-06  0.3484297E+04  0.7818609E-02  0.8117522E-01
       -2   -1    0    0    0  501  0.00000000000E+00  0.00000000000E+00  0.95530305961E+03  0.95530305961E+03  0.25500000920E-02 0. -1.
        2   -1    0    0  501    0  0.00000000000E+00  0.00000000000E+00 -0.31770867731E+04  0.31770867731E+04  0.25500000920E-02 0.  1.
    10030    2    1    2    0    0  0.00000000000E+00  0.00000000000E+00 -0.22217837134E+04  0.41323898327E+04  0.34842966090E+04 0.  0.
        2    1    3    3  502    0  0.13732143842E+04 -0.54026633929E+03 -0.22091311133E+04  0.26566644007E+04  0.25500000920E-02 0.  1.
       -2    1    3    3    0  502 -0.13732143842E+04  0.54026633929E+03 -0.12652600190E+02  0.14757254320E+04  0.25500000920E-02 0. -1.
</event>
<event>
 5   0  0.2001768E-06  0.3274389E+04  0.7818609E-02  0.8169443E-01
        2   -1    0    0  501    0  0.00000000000E+00  0.00000000000E+00  0.16301069537E+04  0.16301069537E+04  0.25500000920E-02 0. -1.
       -2   -1    0    0    0  501  0.00000000000E+00  0.00000000000E+00 -0.16443131443E+04  0.16443131443E+04  0.25500000920E-02 0.  1.
    10030    2    1    2    0    0  0.00000000000E+00  0.00000000000E+00 -0.14206190658E+02  0.32744200980E+04  0.32743892808E+04 0.  0.
        2    1    3    3  502    0  0.24284137823E+03 -0.10175496377E+04 -0.12664906229E+04  0.16426739476E+04  0.25500000920E-02 0.  1.
       -2    1    3    3    0  502 -0.24284137823E+03  0.10175496377E+04  0.12522844322E+04  0.16317461504E+04  0.25500000920E-02 0. -1.
</event>
<event>
 5   0  0.6890600E-07  0.2980198E+04  0.7818609E-02  0.8249408E-01
       -1   -1    0    0    0  501  0.00000000000E+00  0.00000000000E+00  0.81937179969E+03  0.81937179970E+03  0.50400001928E-02 0. -1.
        1   -1    0    0  501    0  0.00000000000E+00  0.00000000000E+00 -0.27098753644E+04  0.27098753644E+04  0.50400001928E-02 0.  1.
    10030    2    1    2    0    0  0.00000000000E+00  0.00000000000E+00 -0.18905035647E+04  0.35292471641E+04  0.29801982849E+04 0.  0.
        3    1    3    3  502    0  0.91870951840E+03  0.73385701290E+03  0.13870716063E+03  0.11839818331E+04  0.10100000352E+00 0. -1.
       -3    1    3    3    0  502 -0.91870951840E+03 -0.73385701290E+03 -0.20292107253E+04  0.23452653309E+04  0.10100000352E+00 0.  1.
</event>
<event>
 5   0  0.7378896E-07  0.2270691E+04  0.7818609E-02  0.8489568E-01
       -1   -1    0    0    0  501  0.00000000000E+00  0.00000000000E+00  0.10454257416E+04  0.10454257417E+04  0.50400001928E-02 0.  1.
        1   -1    0    0  501    0  0.00000000000E+00  0.00000000000E+00 -0.12329999327E+04  0.12329999327E+04  0.50400001928E-02 0. -1.
    10030    2    1    2    0    0  0.00000000000E+00  0.00000000000E+00 -0.18757419106E+03  0.22784256744E+04  0.22706914093E+04 0.  0.
        2    1    3    3  502    0 -0.33700842768E+03 -0.22110779730E+03  0.97121709386E+03  0.10515350597E+04  0.25500000920E-02 0.  1.
       -2    1    3    3    0  502  0.33700842768E+03  0.22110779730E+03 -0.11587912849E+04  0.12268906147E+04  0.25500000920E-02 0. -1.
</event>
<event>
 5   0  0.2073287E-06  0.3520679E+04  0.7818609E-02  0.8108907E-01
       -2   -1    0    0    0  501  0.00000000000E+00  0.00000000000E+00  0.15321599630E+04  0.15321599630E+04  0.25500000920E-02 0. -1.
        2   -1    0    0  501    0  0.00000000000E+00  0.00000000000E+00 -0.20225016301E+04  0.20225016301E+04  0.25500000920E-02 0.  1.
    10030    2    1    2    0    0  0.00000000000E+00  0.00000000000E+00 -0.49034166704E+03  0.35546615931E+04  0.35206794928E+04 0.  0.
        1    1    3    3  502    0 -0.10629827420E+04 -0.23292583873E+03 -0.16422205113E+04  0.19700444065E+04  0.50400001928E-02 0.  1.
       -1    1    3    3    0  502  0.10629827420E+04  0.23292583873E+03  0.11518788442E+04  0.15846171865E+04  0.50400001928E-02 0. -1.
</event>
<event>
 5   0  0.6630125E-07  0.3483035E+04  0.7818609E-02  0.8117822E-01
       -1   -1    0    0    0  501  0.00000000000E+00  0.00000000000E+00  0.18538249177E+04  0.18538249177E+04  0.50400001928E-02 0. -1.
        1   -1    0    0  501    0  0.00000000000E+00  0.00000000000E+00 -0.16360134796E+04  0.16360134796E+04  0.50400001928E-02 0.  1.
    10030    2    1    2    0    0  0.00000000000E+00  0.00000000000E+00  0.21781143810E+03  0.34898383973E+04  0.34830346276E+04 0.  0.
        4    1    3    3  502    0  0.14368158327E+03  0.16576507926E+04  0.62413817219E+03  0.17770764245E+04  0.12699999809E+01 0. -1.
       -4    1    3    3    0  502 -0.14368158327E+03 -0.16576507926E+04 -0.40632673409E+03  0.17127619728E+04  0.12699999809E+01 0.  1.
</event>
<event>
 5   0  0.2073287E-06  0.3070573E+04  0.7818609E-02  0.8223861E-01
       -2   -1    0    0    0  501  0.00000000000E+00  0.00000000000E+00  0.14405741814E+04  0.14405741814E+04  0.25500000920E-02 0.  1.
        2   -1    0    0  501    0  0.00000000000E+00  0.00000000000E+00 -0.16362257069E+04  0.16362257069E+04  0.25500000920E-02 0. -1.
    10030    2    1    2    0    0  0.00000000000E+00  0.00000000000E+00 -0.19565152549E+03  0.30767998883E+04  0.30705729161E+04 0.  0.
        1    1    3    3  502    0 -0.81101671540E+03 -0.11561194402E+04 -0.70132968367E+03  0.15767763310E+04  0.50400001928E-02 0. -1.
       -1    1    3    3    0  502  0.81101671540E+03  0.11561194402E+04  0.50567815818E+03  0.15000235573E+04  0.50400001928E-02 0.  1.
</event>
<event>
 5   0  0.6630125E-07  0.3459211E+04  0.7818609E-02  0.8123525E-01
        1   -1    0    0  501    0  0.00000000000E+00  0.00000000000E+00  0.19378496830E+04  0.19378496830E+04  0.50400001928E-02 0.  1.
       -1   -1    0    0    0  501  0.00000000000E+00  0.00000000000E+00 -0.15437394219E+04  0.15437394219E+04  0.50400001928E-02 0. -1.
    10030    2    1    2    0    0  0.00000000000E+00  0.00000000000E+00  0.39411026111E+03  0.34815891048E+04  0.34592108633E+04 0.  0.
        1    1    3    3  502    0 -0.56279679206E+03 -0.54934693280E+03 -0.13533689561E+04  0.15652890510E+04  0.50400001928E-02 0. -1.
       -1    1    3    3    0  502  0.56279679206E+03  0.54934693280E+03  0.17474792172E+04  0.19163000538E+04  0.50400001928E-02 0.  1.
</event>
<event>
 5   0  0.1999883E-06  0.3582844E+04  0.7818609E-02  0.8094433E-01
       -2   -1    0    0    0  501  0.00000000000E+00  0.00000000000E+00  0.11931134200E+04  0.11931134200E+04  0.25500000920E-02 0. -1.
        2   -1    0    0  501    0  0.00000000000E+00  0.00000000000E+00 -0.26897633967E+04  0.26897633967E+04  0.25500000920E-02 0.  1.
    10030    2    1    2    0    0  0.00000000000E+00  0.00000000000E+00 -0.14966499767E+04  0.38828768166E+04  0.35828440128E+04 0.  0.
        4    1    3    3  502    0  0.12268648620E+04  0.23292128425E+03 -0.21403071157E+04  0.24779761655E+04  0.12699999809E+01 0.  1.
       -4    1    3    3    0  502 -0.12268648620E+04 -0.23292128425E+03  0.64365713895E+03  0.14049006512E+04  0.12699999809E+01 0. -1.
</event>
<event>
 5   0  0.6630125E-07  0.3106370E+04  0.7818609E-02  0.8213992E-01
        1   -1    0    0  501    0  0.00000000000E+00  0.00000000000E+00  0.24451580556E+04  0.24451580556E+04  0.50400001928E-02 0. -1.
       -1   -1    0    0    0  501  0.00000000000E+00  0.00000000000E+00 -0.98659597286E+03  0.98659597287E+03  0.50400001928E-02 0.  1.
    10030    2    1    2    0    0  0.00000000000E+00  0.00000000000E+00  0.14585620827E+04  0.34317540285E+04  0.31063696436E+04 0.  0.
        5    1    3    3  502    0  0.13207770566E+04  0.13240542805E+03  0.16202157186E+04  0.20945415478E+04  0.46999998093E+01 0. -1.
       -5    1    3    3    0  502 -0.13207770566E+04 -0.13240542805E+03 -0.16165363586E+03  0.13372124807E+04  0.46999998093E+01 0.  1.
</event>
<event>
 5   0  0.2020725E-06  0.2911028E+04  0.7818609E-02  0.8269604E-01
       -2   -1    0    0    0  501  0.00000000000E+00  0.00000000000E+00  0.15887867446E+04  0.15887867446E+04  0.25500000920E-02 0. -1.
        2   -1    0    0  501    0  0.00000000000E+00  0.00000000000E+00 -0.13334201925E+04  0.13334201925E+04  0.25500000920E-02 0.  1.
    10030    2    1    2    0    0  0.00000000000E+00  0.00000000000E+00  0.25536655214E+03  0.29222069371E+04  0.29110275346E+04 0.  0.
        3    1    3    3  502    0 -0.79771428407E+03  0.70460817551E+03 -0.86895355966E+03  0.13740091190E+04  0.10100000352E+00 0.  1.
       -3    1    3    3    0  502  0.79771428407E+03 -0.70460817551E+03  0.11243201118E+04  0.15481978181E+04  0.10100000352E+00 0. -1.
</event>
<event>
 5   0  0.2001768E-06  0.3548015E+04  0.7818609E-02  0.8102504E-01
        2   -1    0    0  501    0  0.00000000000E+00  0.00000000000E+00  0.26588398557E+04  0.26588398557E+04  0.25500000920E-02 0.  1.
       -2   -1    0    0    0  501  0.00000000000E+00  0.00000000000E+00 -0.11836372049E+04  0.11836372049E+04  0.25500000920E-02 0. -1.
    10030    2    1    2    0    0  0.00000000000E+00  0.00000000000E+00  0.14752026509E+04  0.38424770606E+04  0.35480145293E+04 0.  0.
        2    1    3    3  502    0 -0.16914137752E+04  0.37943125469E+03  0.32913446890E+03  0.17644200562E+04  0.25500000920E-02 0. -1.
       -2    1    3    3    0  502  0.16914137752E+04 -0.37943125469E+03  0.11460681820E+04  0.20780570044E+04  0.25500000920E-02 0.  1.
</event>
<event>
 5   0  0.2073287E-06  0.3433847E+04  0.7818609E-02  0.8129649E-01
       -2   -1    0    0    0  501  0.00000000000E+00  0.00000000000E+00  0.14974793329E+04  0.14974793329E+04  0.25500000920E-02 0.  1.
        2   -1    0    0  501    0  0.00000000000E+00  0.00000000000E+00 -0.19685256656E+04  0.19685256656E+04  0.25500000920E-02 0. -1.
    10030    2    1    2    0    0  0.00000000000E+00  0.00000000000E+00 -0.47104633273E+03  0.34660049985E+04  0.34338471140E+04 0.  0.
        1    1    3    3  502    0  0.14211692158E+03 -0.14400760918E+04  0.69714871039E+03  0.16062480176E+04  0.50400001928E-02 0.  1.
       -1    1    3    3    0  502 -0.14211692158E+03  0.14400760918E+04 -0.11681950431E+04  0.18597569810E+04  0.50400001928E-02 0. -1.
</event>
<event>
 5   0  0.6630125E-07  0.3554082E+04  0.7818609E-02  0.8101091E-01
       -1   -1    0    0    0  501  0.00000000000E+00  0.00000000000E+00  0.17656344490E+04  0.17656344490E+04  0.50400001928E-02 0.  1.
        1   -1    0    0  501    0  0.00000000000E+00  0.00000000000E+00 -0.17885213647E+04  0.17885213647E+04  0.50400001928E-02 0. -1.
    10030    2    1    2    0    0  0.00000000000E+00  0.00000000000E+00 -0.22886915729E+02  0.35541558137E+04  0.35540821231E+04 0.  0.
        4    1    3    3  502    0  0.31744589261E+03  0.67341194147E+03  0.16021629849E+04  0.17666871203E+04  0.12699999809E+01 0.  1.
       -4    1    3    3    0  502 -0.31744589261E+03 -0.67341194147E+03 -0.16250499007E+04  0.17874686935E+04  0.12699999809E+01 0. -1.
</event>
<event>
 5   0  0.2001768E-06  0.3440393E+04  0.7818609E-02  0.8128063E-01
       -2   -1    0    0    0  501  0.00000000000E+00  0.00000000000E+00  0.13398430411E+04  0.13398430411E+04  0.25500000920E-02 0.  1.
        2   -1    0    0  501    0  0.00000000000E+00  0.00000000000E+00 -0.22085246092E+04  0.22085246092E+04  0.25500000920E-02 0. -1.
    10030    2    1    2    0    0  0.00000000000E+00  0.00000000000E+00 -0.86868156805E+03  0.35483676503E+04  0.34403931920E+04 0.  0.
        2    1    3    3  502    0 -0.40591263806E+03  0.13688445879E+04 -0.14239193902E+04  0.20164441488E+04  0.25500000920E-02 0. -1.
       -2    1    3    3    0  502  0.40591263806E+03 -0.13688445879E+04  0.55523782212E+03  0.15319235015E+04  0.25500000920E-02 0.  1.
</event>
<event>
 5   0  0.6890600E-07  0.3455788E+04  0.7818609E-02  0.8124348E-01
       -1   -1    0    0    0  501  0.00000000000E+00  0.00000000000E+00  0.14714465322E+04  0.14714465322E+04  0.50400001928E-02 0.  1.
        1   -1    0    0  501    0  0.00000000000E+00  0.00000000000E+00 -0.20290355721E+04  0.20290355721E+04  0.50400001928E-02 0. -1.
    10030    2    1    2    0    0  0.00000000000E+00  0.00000000000E+00 -0.55758903994E+03  0.35004821043E+04  0.34557878154E+04 0.  0.
        3    1    3    3  502    0 -0.12599068970E+04 -0.86111127247E+03 -0.10996700440E+04  0.18809976685E+04  0.10100000352E+00 0. -1.
       -3    1    3    3    0  502  0.12599068970E+04  0.86111127247E+03  0.54208100411E+03  0.16194844359E+04  0.10100000352E+00 0.  1.
</event>
<event>
 5   0  0.6630125E-07  0.3506424E+04  0.7818609E-02  0.8112269E-01
       -1   -1    0    0    0  501  0.00000000000E+00  0.00000000000E+00  0.27742363237E+04  0.27742363237E+04  0.50400001928E-02 0.  1.
        1   -1    0    0  501    0  0.00000000000E+00  0.00000000000E+00 -0.11079635339E+04  0.11079635339E+04  0.50400001928E-02 0. -1.
    10030    2    1    2    0    0  0.00000000000E+00  0.00000000000E+00  0.16662727899E+04  0.38821998576E+04  0.35064242077E+04 0.  0.
        4    1    3    3  502    0 -0.15796282671E+04 -0.70192888905E+03  0.50878831303E+03  0.18018870075E+04  0.12699999809E+01 0. -1.
       -4    1    3    3    0  502  0.15796282671E+04  0.70192888905E+03  0.11574844768E+04  0.20803128501E+04  0.12699999809E+01 0.  1.
</event>
<event>
 5   0  0.7378896E-07  0.3351849E+04  0.7818609E-02  0.8149826E-01
       -1   -1    0    0    0  501  0.00000000000E+00  0.00000000000E+00  0.21290136775E+04  0.21290136775E+04  0.50400001928E-02 0. -1.
        1   -1    0    0  501    0  0.00000000000E+00  0.00000000000E+00 -0.13192603559E+04  0.13192603559E+04  0.50400001928E-02 0.  1.
    10030    2    1    2    0    0  0.00000000000E+00  0.00000000000E+00  0.80975332158E+03  0.34482740334E+04  0.33518492460E+04 0.  0.
        2    1    3    3  502    0  0.65556410550E+03  0.99098477944E+03  0.16207860992E+04  0.20096673130E+04  0.25500000920E-02 0. -1.
       -2    1    3    3    0  502 -0.65556410550E+03 -0.99098477944E+03 -0.81103277767E+03  0.14386067204E+04  0.25500000920E-02 0.  1.
</event>
<event>
 5   0  0.6630125E-07  0.3503046E+04  0.7818609E-02  0.8113068E-01
        1   -1    0    0  501    0  0.00000000000E+00  0.00000000000E+00  0.19451457418E+04  0.19451457418E+04  0.50400001928E-02 0. -1.
       -1   -1    0    0    0  501  0.00000000000E+00  0.00000000000E+00 -0.15771741117E+04  0.15771741117E+04  0.50400001928E-02 0.  1.
    10030    2    1    2    0    0  0.00000000000E+00  0.00000000000E+00  0.36797163002E+03  0.35223198535E+04  0.35030463928E+04 0.  0.
        5    1    3    3  502    0  0.14350209525E+04  0.51940331857E+03  0.10482183521E+04  0.18514450424E+04  0.46999998093E+01 0. -1.
       -5    1    3    3    0  502 -0.14350209525E+04 -0.51940331857E+03 -0.68024672209E+03  0.16708748111E+04  0.46999998093E+01 0.  1.
</event>
<event>
 5   0  0.2073287E-06  0.3308366E+04  0.7818609E-02  0.8160770E-01
       -2   -1    0    0    0  501  0.00000000000E+00  0.00000000000E+00  0.22543309476E+04  0.22543309476E+04  0.25500000920E-02 0. -1.
        2   -1    0    0  501    0  0.00000000000E+00  0.00000000000E+00 -0.12138065859E+04  0.12138065859E+04  0.25500000920E-02 0.  1.
    10030    2    1    2    0    0  0.00000000000E+00  0.00000000000E+00  0.10405243616E+04  0.34681375335E+04  0.33083662137E+04 0.  0.
        1    1    3    3  502    0  0.15148219032E+02 -0.78263761970E+02 -0.12117918620E+04  0.12144110514E+04  0.50400001928E-02 0.  1.
       -1    1    3    3    0  502 -0.15148219032E+02  0.78263761970E+02  0.22523162236E+04  0.22537264821E+04  0.50400001928E-02 0. -1.
</event>
<event>
 5   0  0.1999883E-06  0.3540727E+04  0.7818609E-02  0.8104206E-01
       -2   -1    0    0    0  501  0.00000000000E+00  0.00000000000E+00  0.18779808803E+04  0.18779808803E+04  0.25500000920E-02 0. -1.
        2   -1    0    0  501    0  0.00000000000E+00  0.00000000000E+00 -0.16689126808E+04  0.16689126808E+04  0.25500000920E-02 0.  1.
    10030    2    1    2    0    0  0.00000000000E+00  0.00000000000E+00  0.20906819950E+03  0.35468935612E+04  0.35407265387E+04 0.  0.
        4    1    3    3  502    0  0.15437673676E+02  0.27860423488E+03 -0.16467459374E+04  0.16702192780E+04  0.12699999809E+01 0.  1.
       -4    1    3    3    0  502 -0.15437673676E+02 -0.27860423488E+03  0.18558141369E+04  0.18766742831E+04  0.12699999809E+01 0. -1.
</event>
<event>
 5   0  0.2020725E-06  0.2489174E+04  0.7818609E-02  0.8406853E-01
       -2   -1    0    0    0  501  0.00000000000E+00  0.00000000000E+00  0.96777446515E+03  0.96777446516E+03  0.25500000920E-02 0.  1.
        2   -1    0    0  501    0  0.00000000000E+00  0.00000000000E+00 -0.16005758800E+04  0.16005758800E+04  0.25500000920E-02 0. -1.
    10030    2    1    2    0    0  0.00000000000E+00  0.00000000000E+00 -0.63280141482E+03  0.25683503451E+04  0.24891737313E+04 0.  0.
        3    1    3    3  502    0 -0.20086783069E+03  0.90751687381E+03 -0.11704125596E+04  0.14945903557E+04  0.10100000352E+00 0. -1.
       -3    1    3    3    0  502  0.20086783069E+03 -0.90751687381E+03  0.53761114475E+03  0.10737599894E+04  0.10100000352E+00 0.  1.
</event>
<event>
 5   0  0.7378896E-07  0.3486141E+04  0.7818609E-02  0.8117082E-01
       -1   -1    0    0    0  501  0.00000000000E+00  0.00000000000E+00  0.10282578507E+04  0.10282578507E+04  0.50400001928E-02 0. -1.
        1   -1    0    0  501    0  0.00000000000E+00  0.00000000000E+00 -0.29547978914E+04  0.29547978914E+04  0.50400001928E-02 0.  1.
    10030    2    1    2    0    0  0.00000000000E+00  0.00000000000E+00 -0.19265400407E+04  0.39830557421E+04  0.34861406334E+04 0.  0.
        2    1    3    3  502    0  0.97954635996E+02  0.11455290373E+04  0.53361557369E+03  0.12675083694E+04  0.25500000920E-02 0. -1.
       -2    1    3    3    0  502 -0.97954635996E+02 -0.11455290373E+04 -0.24601556144E+04  0.27155473726E+04  0.25500000920E-02 0.  1.
</event>
<event>
 5   0  0.6630125E-07  0.2440637E+04  0.7818609E-02  0.8424445E-01
       -4   -1    0    0    0  501  0.00000000000E+00  0.00000000000E+00  0.14028778835E+04  0.14028784583E+04  0.12699999809E+01 0. -1.
        4   -1    0    0  501    0  0.00000000000E+00  0.00000000000E+00 -0.10615145454E+04  0.10615153051E+04  0.12699999809E+01 0.  1.
    10030    2    1    2    0    0  0.00000000000E+00  0.00000000000E+00  0.34136333806E+03  0.24643937634E+04  0.24406367392E+04 0.  0.
        4    1    3    3  502    0 -0.66468808994E+03  0.10074220623E+04 -0.11255021527E+02  0.12069953425E+04  0.12699999809E+01 0. -1.
       -4    1    3    3    0  502  0.66468808994E+03 -0.10074220623E+04  0.35261835958E+03  0.12573984209E+04  0.12699999809E+01 0.  1.
</event>
<event>
 5   0  0.6630125E-07  0.2891903E+04  0.7818609E-02  0.8275291E-01
        3   -1    0    0  501    0  0.00000000000E+00  0.00000000000E+00  0.12286268481E+04  0.12286268522E+04  0.10100000352E+00 0.  1.
       -3   -1    0    0    0  501  0.00000000000E+00  0.00000000000E+00 -0.17017179420E+04  0.17017179450E+04  0.10100000352E+00 0. -1.
    10030    2    1    2    0    0  0.00000000000E+00  0.00000000000E+00 -0.47309109394E+03  0.29303447972E+04  0.28919034298E+04 0.  0.
        4    1    3    3  502    0  0.28659043236E+03 -0.16383197846E+03  0.11899316161E+04  0.12348740248E+04  0.12699999809E+01 0.  1.
       -4    1    3    3    0  502 -0.28659043236E+03  0.16383197846E+03 -0.16630227101E+04  0.16954707725E+04  0.12699999809E+01 0. -1.
</event>
<event>
 5   0  0.6630125E-07  0.3608349E+04  0.7818609E-02  0.8088582E-01
       -3   -1    0    0    0  501  0.00000000000E+00  0.00000000000E+00  0.23202219348E+04  0.23202219370E+04  0.10100000352E+00 0. -1.
        3   -1    0    0  501    0  0.00000000000E+00  0.00000000000E+00 -0.14029024786E+04  0.14029024822E+04  0.10100000352E+00 0.  1.
    10030    2    1    2    0    0  0.00000000000E+00  0.00000000000E+00  0.91731945620E+03  0.37231244192E+04  0.36083487159E+04 0.  0.
        2    1    3    3  502    0  0.15137458026E+04 -0.89057176027E+03  0.88471125859E+03  0.19665346237E+04  0.25500000920E-02 0. -1.
       -2    1    3    3    0  502 -0.15137458026E+04  0.89057176027E+03  0.32608197610E+02  0.17565897955E+04  0.25500000920E-02 0.  1.
</event>
<event>
 5   0  0.6630125E-07  0.3476807E+04  0.7818609E-02  0.8119309E-01
        1   -1    0    0  501    0  0.00000000000E+00  0.00000000000E+00  0.16872519900E+04  0.16872519900E+04  0.50400001928E-02 0.  1.
       -1   -1    0    0    0  501  0.00000000000E+00  0.00000000000E+00 -0.17911054991E+04  0.17911054991E+04  0.50400001928E-02 0. -1.
    10030    2    1    2    0    0  0.00000000000E+00  0.00000000000E+00 -0.10385350913E+03  0.34783574891E+04  0.34768067634E+04 0.  0.
        4    1    3    3  502    0 -0.32273273009E+03  0.15995478625E+04 -0.65163963416E+03  0.17570844047E+04  0.12699999809E+01 0. -1.
       -4    1    3    3    0  502  0.32273273009E+03 -0.15995478625E+04  0.54778612503E+03  0.17212730844E+04  0.12699999809E+01 0.  1.
</event>
<event>
 5   0  0.6630125E-07  0.2689531E+04  0.7818609E-02  0.8338410E-01
        1   -1    0    0  501    0  0.00000000000E+00  0.00000000000E+00  0.16593025151E+04  0.16593025151E+04  0.50400001928E-02 0.  1.
       -1   -1    0    0    0  501  0.00000000000E+00  0.00000000000E+00 -0.10898521394E+04  0.10898521394E+04  0.50400001928E-02 0. -1.
    10030    2    1    2    0    0  0.00000000000E+00  0.00000000000E+00  0.56945037566E+03  0.27491546545E+04  0.26895311086E+04 0.  0.
        1    1    3    3  502    0 -0.42703963036E+03  0.11223820583E+04  0.90336116034E+03  0.15027194405E+04  0.50400001928E-02 0. -1.
       -1    1    3    3    0  502  0.42703963036E+03 -0.11223820583E+04 -0.33391078468E+03  0.12464352141E+04  0.50400001928E-02 0.  1.
</event>
<event>
 5   0  0.1999883E-06  0.3462099E+04  0.7818609E-02  0.8122831E-01
       -2   -1    0    0    0  501  0.00000000000E+00  0.00000000000E+00  0.13915352235E+04  0.13915352235E+04  0.25500000920E-02 0. -1.
        2   -1    0    0  501    0  0.00000000000E+00  0.00000000000E+00 -0.21533998706E+04  0.21533998706E+04  0.25500000920E-02 0.  1.
    10030    2    1    2    0    0  0.00000000000E+00  0.00000000000E+00 -0.76186464705E+03  0.35449350941E+04  0.34620986527E+04 0.  0.
        4    1    3    3  502    0  0.81492566409E+03  0.24009150316E+03  0.11633929455E+04  0.14405667379E+04  0.12699999809E+01 0. -1.
       -4    1    3    3    0  502 -0.81492566409E+03 -0.24009150316E+03 -0.19252575926E+04  0.21043683562E+04  0.12699999809E+01 0.  1.
</event>
<event>
 5   0  0.2023479E-06  0.2197034E+04  0.7818609E-02  0.8519663E-01
        2   -1    0    0  501    0  0.00000000000E+00  0.00000000000E+00  0.14109497347E+04  0.14109497347E+04  0.25500000920E-02 0. -1.
       -2   -1    0    0    0  501  0.00000000000E+00  0.00000000000E+00 -0.85526797484E+03  0.85526797485E+03  0.25500000920E-02 0.  1.
    10030    2    1    2    0    0  0.00000000000E+00  0.00000000000E+00  0.55568175984E+03  0.22662177095E+04  0.21970344760E+04 0.  0.
        5    1    3    3  502    0 -0.41609302356E+03 -0.43360079179E+03  0.12263484895E+04  0.13656850876E+04  0.46999998093E+01 0. -1.
       -5    1    3    3    0  502  0.41609302356E+03  0.43360079179E+03 -0.67066672964E+03  0.90053262192E+03  0.46999998093E+01 0.  1.
</event>
<event>
 5   0  0.6630125E-07  0.3316966E+04  0.7818609E-02  0.8158592E-01
       -1   -1    0    0    0  501  0.00000000000E+00  0.00000000000E+00  0.14355424912E+04  0.14355424912E+04  0.50400001928E-02 0.  1.
        1   -1    0    0  501    0  0.00000000000E+00  0.00000000000E+00 -0.19160467194E+04  0.19160467195E+04  0.50400001928E-02 0. -1.
    10030    2    1    2    0    0  0.00000000000E+00  0.00000000000E+00 -0.48050422821E+03  0.33515892107E+04  0.33169663736E+04 0.  0.
        5    1    3    3  502    0 -0.85132720229E+03  0.15354808464E+03  0.11895122217E+04  0.14708148881E+04  0.46999998093E+01 0.  1.
       -5    1    3    3    0  502  0.85132720229E+03 -0.15354808464E+03 -0.16700164499E+04  0.18807743226E+04  0.46999998093E+01 0. -1.
</event>
<event>
 5   0  0.2073287E-06  0.3450913E+04  0.7818609E-02  0.8125522E-01
       -2   -1    0    0    0  501  0.00000000000E+00  0.00000000000E+00  0.13431997399E+04  0.13431997399E+04  0.25500000920E-02 0. -1.
        2   -1    0    0  501    0  0.00000000000E+00  0.00000000000E+00 -0.22164988854E+04  0.22164988854E+04  0.25500000920E-02 0.  1.
    10030    2    1    2    0    0  0.00000000000E+00  0.00000000000E+00 -0.87329914554E+03  0.35596986253E+04  0.34509133436E+04 0.  0.
        1    1    3    3  502    0 -0.50453201001E+02 -0.13857389802E+04 -0.14958503935E+04  0.20397025387E+04  0.50400001928E-02 0.  1.
       -1    1    3    3    0  502  0.50453201001E+02  0.13857389802E+04  0.62255124795E+03  0.15199960865E+04  0.50400001928E-02 0. -1.
</event>
<event>
 5   0  0.2001768E-06  0.3543193E+04  0.7818609E-02  0.8103629E-01
        2   -1    0    0  501    0  0.00000000000E+00  0.00000000000E+00  0.21136194160E+04  0.21136194160E+04  0.25500000920E-02 0. -1.
       -2   -1    0    0    0  501  0.00000000000E+00  0.00000000000E+00 -0.14849196188E+04  0.14849196188E+04  0.25500000920E-02 0.  1.
    10030    2    1    2    0    0  0.00000000000E+00  0.00000000000E+00  0.62869979717E+03  0.35985390348E+04  0.35431934396E+04 0.  0.
        2    1    3    3  502    0 -0.12367003406E+04 -0.94205477745E+03  0.11771251367E+04  0.19500047497E+04  0.25500000920E-02 0. -1.
       -2    1    3    3    0  502  0.12367003406E+04  0.94205477745E+03 -0.54842533958E+03  0.16485342851E+04  0.25500000920E-02 0.  1.
</event>
<event>
 5   0  0.2001768E-06  0.3667042E+04  0.7818609E-02  0.8075305E-01
       -2   -1    0    0    0  501  0.00000000000E+00  0.00000000000E+00  0.17808677724E+04  0.17808677724E+04  0.25500000920E-02 0. -1.
        2   -1    0    0  501    0  0.00000000000E+00  0.00000000000E+00 -0.18877314321E+04  0.18877314321E+04  0.25500000920E-02 0.  1.
    10030    2    1    2    0    0  0.00000000000E+00  0.00000000000E+00 -0.10686365963E+03  0.36685992045E+04  0.36670424434E+04 0.  0.
        2    1    3    3  502    0  0.10623448185E+04  0.14831362354E+04  0.12975916222E+03  0.18289633803E+04  0.25500000920E-02 0. -1.
       -2    1    3    3    0  502 -0.10623448185E+04 -0.14831362354E+04 -0.23662282185E+03  0.18396358243E+04  0.25500000920E-02 0.  1.
</event>
<event>
 5   0  0.6630125E-07  0.3525539E+04  0.7818609E-02  0.8107764E-01
        1   -1    0    0  501    0  0.00000000000E+00  0.00000000000E+00  0.21943922767E+04  0.21943922767E+04  0.50400001928E-02 0. -1.
       -1   -1    0    0    0  501  0.00000000000E+00  0.00000000000E+00 -0.14160440287E+04  0.14160440287E+04  0.50400001928E-02 0.  1.
    10030    2    1    2    0    0  0.00000000000E+00  0.00000000000E+00  0.77834824800E+03  0.36104363054E+04  0.35255388694E+04 0.  0.
        4    1    3    3  502    0 -0.62693695639E+03  0.14822452628E+04 -0.34734817450E+03  0.16464365562E+04  0.12699999809E+01 0. -1.
       -4    1    3    3    0  502  0.62693695639E+03 -0.14822452628E+04  0.11256964225E+04  0.19639997492E+04  0.12699999809E+01 0.  1.
</event>
<event>
 5   0  0.6630125E-07  0.2215154E+04  0.7818609E-02  0.8512147E-01
        1   -1    0    0  501    0  0.00000000000E+00  0.00000000000E+00  0.21701723272E+04  0.21701723272E+04  0.50400001928E-02 0.  1.
       -1   -1    0    0    0  501  0.00000000000E+00  0.00000000000E+00 -0.56526700835E+03  0.56526700837E+03  0.50400001928E-02 0. -1.
    10030    2    1    2    0    0  0.00000000000E+00  0.00000000000E+00  0.16049053189E+04  0.27354393356E+04  0.22151540073E+04 0.  0.
        1    1    3    3  502    0 -0.94561858344E+02  0.90130683609E+03  0.16164810900E+02  0.90639795839E+03  0.50400001928E-02 0. -1.
       -1    1    3    3    0  502  0.94561858344E+02 -0.90130683609E+03  0.15887405080E+04  0.18290413772E+04  0.50400001928E-02 0.  1.
</event>
<event>
 5   0  0.2023479E-06  0.3487768E+04  0.7818609E-02  0.8116695E-01
        2   -1    0    0  501    0  0.00000000000E+00  0.00000000000E+00  0.25229216788E+04  0.25229216788E+04  0.25500000920E-02 0. -1.
       -2   -1    0    0    0  501  0.00000000000E+00  0.00000000000E+00 -0.12054004965E+04  0.12054004965E+04  0.25500000920E-02 0.  1.
    10030    2    1    2    0    0  0.00000000000E+00  0.00000000000E+00  0.13175211823E+04  0.37283221754E+04  0.34877677930E+04 0.  0.
        5    1    3    3  502    0 -0.45723388379E+03  0.24801738326E+03  0.24380540186E+04  0.24929309927E+04  0.46999998093E+01 0. -1.
       -5    1    3    3    0  502  0.45723388379E+03 -0.24801738326E+03 -0.11205328363E+04  0.12353911826E+04  0.46999998093E+01 0.  1.
</event>
<event>
 5   0  0.6630125E-07  0.3531576E+04  0.7818609E-02  0.8106347E-01
        1   -1    0    0  501    0  0.00000000000E+00  0.00000000000E+00  0.18676274546E+04  0.18676274546E+04  0.50400001928E-02 0.  1.
       -1   -1    0    0    0  501  0.00000000000E+00  0.00000000000E+00 -0.16695015539E+04  0.16695015540E+04  0.50400001928E-02 0. -1.
    10030    2    1    2    0    0  0.00000000000E+00  0.00000000000E+00  0.19812590068E+03  0.35371290086E+04  0.35315758169E+04 0.  0.
        5    1    3    3  502    0  0.10863188918E+04 -0.12579663497E+04 -0.49804290144E+03  0.17351186971E+04  0.46999998093E+01 0. -1.
       -5    1    3    3    0  502 -0.10863188918E+04  0.12579663497E+04  0.69616880211E+03  0.18020103114E+04  0.46999998093E+01 0.  1.
</event>
<event>
 5   0  0.2001768E-06  0.3521540E+04  0.7818609E-02  0.8108704E-01
        2   -1    0    0  501    0  0.00000000000E+00  0.00000000000E+00  0.18019406223E+04  0.18019406223E+04  0.25500000920E-02 0. -1.
       -2   -1    0    0    0  501  0.00000000000E+00  0.00000000000E+00 -0.17205401269E+04  0.17205401269E+04  0.25500000920E-02 0.  1.
    10030    2    1    2    0    0  0.00000000000E+00  0.00000000000E+00  0.81400495404E+02  0.35224807493E+04  0.35215400875E+04 0.  0.
        2    1    3    3  502    0 -0.56033094184E+03  0.15725625659E+04 -0.51925939661E+03  0.17483003486E+04  0.25500000920E-02 0.  1.
       -2    1    3    3    0  502  0.56033094184E+03 -0.15725625659E+04  0.60065989202E+03  0.17741804006E+04  0.25500000920E-02 0. -1.
</event>
<event>
 5   0  0.1999883E-06  0.2185221E+04  0.7818609E-02  0.8524605E-01
       -2   -1    0    0    0  501  0.00000000000E+00  0.00000000000E+00  0.14349596667E+04  0.14349596667E+04  0.25500000920E-02 0.  1.
        2   -1    0    0  501    0  0.00000000000E+00  0.00000000000E+00 -0.83193836265E+03  0.83193836266E+03  0.25500000920E-02 0. -1.
    10030    2    1    2    0    0  0.00000000000E+00  0.00000000000E+00  0.60302130402E+03  0.22668980293E+04  0.21852212662E+04 0.  0.
        4    1    3    3  502    0  0.79247794930E+03 -0.39134552728E+03 -0.36485665707E+03  0.95618754173E+03  0.12699999809E+01 0. -1.
       -4    1    3    3    0  502 -0.79247794930E+03  0.39134552728E+03  0.96787796110E+03  0.13107104876E+04  0.12699999809E+01 0.  1.
</event>
<event>
 5   0  0.6630125E-07  0.2924150E+04  0.7818609E-02  0.8265728E-01
        1   -1    0    0  501    0  0.00000000000E+00  0.00000000000E+00  0.14334943606E+04  0.14334943606E+04  0.50400001928E-02 0. -1.
       -1   -1    0    0    0  501  0.00000000000E+00  0.00000000000E+00 -0.14912255333E+04  0.14912255334E+04  0.50400001928E-02 0.  1.
    10030    2    1    2    0    0  0.00000000000E+00  0.00000000000E+00 -0.57731172702E+02  0.29247198940E+04  0.29241500594E+04 0.  0.
        4    1    3    3  502    0  0.13660921109E+04 -0.36527692823E+03 -0.40045768814E+03  0.14696948196E+04  0.12699999809E+01 0. -1.
       -4    1    3    3    0  502 -0.13660921109E+04  0.36527692823E+03  0.34272651544E+03  0.14550250744E+04  0.12699999809E+01 0.  1.
</event>
<event>
 5   0  0.2023479E-06  0.3531499E+04  0.7818609E-02  0.8106365E-01
       -2   -1    0    0    0  501  0.00000000000E+00  0.00000000000E+00  0.14727883689E+04  0.14727883689E+04  0.25500000920E-02 0.  1.
        2   -1    0    0  501    0  0.00000000000E+00  0.00000000000E+00 -0.21169848439E+04  0.21169848439E+04  0.25500000920E-02 0. -1.
    10030    2    1    2    0    0  0.00000000000E+00  0.00000000000E+00 -0.64419647491E+03  0.35897732128E+04  0.35314986367E+04 0.  0.
        5    1    3    3  502    0  0.48079698158E+03  0.79040343702E+03 -0.18508923882E+04  0.20692336875E+04  0.46999998093E+01 0. -1.
       -5    1    3    3    0  502 -0.48079698158E+03 -0.79040343702E+03  0.12066959133E+04  0.15205395253E+04  0.46999998093E+01 0.  1.
</event>
<event>
 5   0  0.2020725E-06  0.3028325E+04  0.7818609E-02  0.8235688E-01
       -2   -1    0    0    0  501  0.00000000000E+00  0.00000000000E+00  0.18618190744E+04  0.18618190744E+04  0.25500000920E-02 0. -1.
        2   -1    0    0  501    0  0.00000000000E+00  0.00000000000E+00 -0.12314239523E+04  0.12314239523E+04  0.25500000920E-02 0.  1.
    10030    2    1    2    0    0  0.00000000000E+00  0.00000000000E+00  0.63039512203E+03  0.30932430267E+04  0.30283253478E+04 0.  0.
        3    1    3    3  502    0 -0.71104906208E+03  0.13208946440E+04  0.10503171879E+03  0.15037902451E+04  0.10100000352E+00 0. -1.
       -3    1    3    3    0  502  0.71104906208E+03 -0.13208946440E+04  0.52536340324E+03  0.15894527816E+04  0.10100000352E+00 0.  1.
</event>
<event>
 5   0  0.1999883E-06  0.3669108E+04  0.7818609E-02  0.8074843E-01
       -2   -1    0    0    0  501  0.00000000000E+00  0.00000000000E+00  0.12970293400E+04  0.12970293400E+04  0.25500000920E-02 0.  1.
        2   -1    0    0  501    0  0.00000000000E+00  0.00000000000E+00 -0.25948433438E+04  0.25948433438E+04  0.25500000920E-02 0. -1.
    10030    2    1    2    0    0  0.00000000000E+00  0.00000000000E+00 -0.12978140038E+04  0.38918726838E+04  0.36691077660E+04 0.  0.
        4    1    3    3  502    0  0.58577191220E+03 -0.92414713659E+03 -0.22108631070E+04  0.24667983205E+04  0.12699999809E+01 0. -1.
       -4    1    3    3    0  502 -0.58577191220E+03  0.92414713659E+03  0.91304910325E+03  0.14250743633E+04  0.12699999809E+01 0.  1.
</event>
<event>
 5   0  0.7378896E-07  0.3459218E+04  0.7818609E-02  0.8123523E-01
       -1   -1    0    0    0  501  0.00000000000E+00  0.00000000000E+00  0.13044814583E+04  0.13044814583E+04  0.50400001928E-02 0. -1.
        1   -1    0    0  501    0  0.00000000000E+00  0.00000000000E+00 -0.22932847100E+04  0.22932847100E+04  0.50400001928E-02 0.  1.
    10030    2    1    2    0    0  0.00000000000E+00  0.00000000000E+00 -0.98880325168E+03  0.35977661683E+04  0.34592180520E+04 0.  0.
        2    1    3    3  502    0  0.47781231650E+03  0.37965722437E+03  0.11887812247E+04  0.13362802917E+04  0.25500000920E-02 0. -1.
       -2    1    3    3    0  502 -0.47781231650E+03 -0.37965722437E+03 -0.21775844764E+04  0.22614858765E+04  0.25500000920E-02 0.  1.
</event>
<event>
 5   0  0.2020725E-06  0.3374205E+04  0.7818609E-02  0.8144266E-01
        2   -1    0    0  501    0  0.00000000000E+00  0.00000000000E+00  0.25593422051E+04  0.25593422051E+04  0.25500000920E-02 0. -1.
       -2   -1    0    0    0  501  0.00000000000E+00  0.00000000000E+00 -0.11121273192E+04  0.11121273192E+04  0.25500000920E-02 0.  1.
    10030    2    1    2    0    0  0.00000000000E+00  0.00000000000E+00  0.14472148859E+04  0.36714695244E+04  0.33742047274E+04 0.  0.
        3    1    3    3  502    0 -0.27667081739E+02 -0.63574564419E+03  0.24237520715E+04  0.25058954698E+04  0.10100000352E+00 0. -1.
       -3    1    3    3    0  502  0.27667081739E+02  0.63574564419E+03 -0.97653718560E+03  0.11655740545E+04  0.10100000352E+00 0.  1.
</event>
<event>
 5   0  0.6890600E-07  0.3556206E+04  0.7818609E-02  0.8100597E-01
       -1   -1    0    0    0  501  0.00000000000E+00  0.00000000000E+00  0.16588288021E+04  0.16588288021E+04  0.50400001928E-02 0. -1.
        1   -1    0    0  501    0  0.00000000000E+00  0.00000000000E+00 -0.19059536093E+04  0.19059536093E+04  0.50400001928E-02 0.  1.
    10030    2    1    2    0    0  0.00000000000E+00  0.00000000000E+00 -0.24712480720E+03  0.35647824115E+04  0.35562062610E+04 0.  0.
        3    1    3    3  502    0 -0.12509653244E+04 -0.29481590930E+03  0.11081482026E+04  0.16970041580E+04  0.10100000352E+00 0. -1.
       -3    1    3    3    0  502  0.12509653244E+04  0.29481590930E+03 -0.13552730097E+04  0.18677782535E+04  0.10100000352E+00 0.  1.
</event>
<event>
 5   0  0.1999883E-06  0.3546524E+04  0.7818609E-02  0.8102852E-01
        2   -1    0    0  501    0  0.00000000000E+00  0.00000000000E+00  0.22332114824E+04  0.22332114824E+04  0.25500000920E-02 0. -1.
       -2   -1    0    0    0  501  0.00000000000E+00  0.00000000000E+00 -0.14080434362E+04  0.14080434362E+04  0.25500000920E-02 0.  1.
    10030    2    1    2    0    0  0.00000000000E+00  0.00000000000E+00  0.82516804622E+03  0.36412549186E+04  0.35465243659E+04 0.  0.
        4    1    3    3  502    0 -0.57180486922E+03 -0.15578648697E+04 -0.22905141953E+03  0.16752223513E+04  0.12699999809E+01 0. -1.
       -4    1    3    3    0  502  0.57180486922E+03  0.15578648697E+04  0.10542194657E+04  0.19660325673E+04  0.12699999809E+01 0.  1.
</event>
<event>
 5   0  0.6630125E-07  0.3610137E+04  0.7818609E-02  0.8088174E-01
        1   -1    0    0  501    0  0.00000000000E+00  0.00000000000E+00  0.14479735470E+04  0.14479735470E+04  0.50400001928E-02 0. -1.
       -1   -1    0    0    0  501  0.00000000000E+00  0.00000000000E+00 -0.22502290916E+04  0.22502290916E+04  0.50400001928E-02 0.  1.
    10030    2    1    2    0    0  0.00000000000E+00  0.00000000000E+00 -0.80225554460E+03  0.36982026386E+04  0.36101369499E+04 0.  0.
        1    1    3    3  502    0  0.15920964802E+04 -0.45077861457E+03  0.33778604677E+03  0.16888078561E+04  0.50400001928E-02 0. -1.
       -1    1    3    3    0  502 -0.15920964802E+04  0.45077861457E+03 -0.11400415914E+04  0.20093947824E+04  0.50400001928E-02 0.  1.
</event>
<event>
 5   0  0.2023479E-06  0.2988867E+04  0.7818609E-02  0.8246917E-01
       -2   -1    0    0    0  501  0.00000000000E+00  0.00000000000E+00  0.10219040563E+04  0.10219040563E+04  0.25500000920E-02 0.  1.
        2   -1    0    0  501    0  0.00000000000E+00  0.00000000000E+00 -0.21854605349E+04  0.21854605349E+04  0.25500000920E-02 0. -1.
    10030    2    1    2    0    0  0.00000000000E+00  0.00000000000E+00 -0.11635564785E+04  0.32073645912E+04  0.29888666651E+04 0.  0.
        5    1    3    3  502    0 -0.91737674365E+03  0.25401909750E+03 -0.18180401343E+04  0.20521690504E+04  0.46999998093E+01 0. -1.
       -5    1    3    3    0  502  0.91737674365E+03 -0.25401909750E+03  0.65448365576E+03  0.11551955407E+04  0.46999998093E+01 0.  1.
</event>
<event>
 5   0  0.6630125E-07  0.3450256E+04  0.7818609E-02  0.8125681E-01
       -1   -1    0    0    0  501  0.00000000000E+00  0.00000000000E+00  0.19279225929E+04  0.19279225929E+04  0.50400001928E-02 0. -1.
        1   -1    0    0  501    0  0.00000000000E+00  0.00000000000E+00 -0.15436651646E+04  0.15436651647E+04  0.50400001928E-02 0.  1.
    10030    2    1    2    0    0  0.00000000000E+00  0.00000000000E+00  0.38425742822E+03  0.34715877575E+04  0.34502561915E+04 0.  0.
        5    1    3    3  502    0  0.78584857153E+03 -0.12358040947E+04  0.11095085608E+04  0.18373353189E+04  0.46999998093E+01 0. -1.
       -5    1    3    3    0  502 -0.78584857153E+03  0.12358040947E+04 -0.72525113253E+03  0.16342524386E+04  0.46999998093E+01 0.  1.
</event>
<event>
 5   0  0.6630125E-07  0.3523269E+04  0.7818609E-02  0.8108297E-01
       -1   -1    0    0    0  501  0.00000000000E+00  0.00000000000E+00  0.12846025460E+04  0.12846025460E+04  0.50400001928E-02 0.  1.
        1   -1    0    0  501    0  0.00000000000E+00  0.00000000000E+00 -0.24158105789E+04  0.24158105789E+04  0.50400001928E-02 0. -1.
    10030    2    1    2    0    0  0.00000000000E+00  0.00000000000E+00 -0.11312080330E+04  0.37004131249E+04  0.35232691752E+04 0.  0.
        5    1    3    3  502    0 -0.89408054123E+03  0.47305866131E+03 -0.20803987409E+04  0.23132759287E+04  0.46999998093E+01 0. -1.
       -5    1    3    3    0  502  0.89408054123E+03 -0.47305866131E+03  0.94919070789E+03  0.13871371962E+04  0.46999998093E+01 0.  1.
</event>
<event>
 5   0  0.2023479E-06  0.3549546E+04  0.7818609E-02  0.8102147E-01
        2   -1    0    0  501    0  0.00000000000E+00  0.00000000000E+00  0.18155548340E+04  0.18155548340E+04  0.25500000920E-02 0. -1.
       -2   -1    0    0    0  501  0.00000000000E+00  0.00000000000E+00 -0.17349074483E+04  0.17349074483E+04  0.25500000920E-02 0.  1.
    10030    2    1    2    0    0  0.00000000000E+00  0.00000000000E+00  0.80647385649E+02  0.35504622823E+04  0.35495462269E+04 0.  0.
        5    1    3    3  502    0 -0.53132524030E+03 -0.67091905884E+03 -0.15148632763E+04  0.17399056671E+04  0.46999998093E+01 0.  1.
       -5    1    3    3    0  502  0.53132524030E+03  0.67091905884E+03  0.15955106619E+04  0.18105566152E+04  0.46999998093E+01 0. -1.
</event>
<event>
 5   0  0.6630125E-07  0.3549086E+04  0.7818609E-02  0.8102255E-01
        1   -1    0    0  501    0  0.00000000000E+00  0.00000000000E+00  0.24097147084E+04  0.24097147084E+04  0.50400001928E-02 0. -1.
       -1   -1    0    0    0  501  0.00000000000E+00  0.00000000000E+00 -0.13067950845E+04  0.13067950845E+04  0.50400001928E-02 0.  1.
    10030    2    1    2    0    0  0.00000000000E+00  0.00000000000E+00  0.11029196239E+04  0.37165097929E+04  0.35490862689E+04 0.  0.
        4    1    3    3  502    0  0.12656166580E+04 -0.17326403589E+03 -0.73839116624E+03  0.14754758820E+04  0.12699999809E+01 0.  1.
       -4    1    3    3    0  502 -0.12656166580E+04  0.17326403589E+03  0.18413107902E+04  0.22410339109E+04  0.12699999809E+01 0. -1.
</event>
<event>
 5   0  0.6630125E-07  0.3487072E+04  0.7818609E-02  0.8116861E-01
       -1   -1    0    0    0  501  0.00000000000E+00  0.00000000000E+00  0.20712751219E+04  0.20712751219E+04  0.50400001928E-02 0.  1.
        1   -1    0    0  501    0  0.00000000000E+00  0.00000000000E+00 -0.14676551746E+04  0.14676551746E+04  0.50400001928E-02 0. -1.
    10030    2    1    2    0    0  0.00000000000E+00  0.00000000000E+00  0.60361994735E+03  0.35389302965E+04  0.34870719239E+04 0.  0.
        4    1    3    3  502    0  0.86381876671E+03 -0.21496992369E+03  0.18232785714E+04  0.20289754290E+04  0.12699999809E+01 0.  1.
       -4    1    3    3    0  502 -0.86381876671E+03  0.21496992369E+03 -0.12196586240E+04  0.15099548675E+04  0.12699999809E+01 0. -1.
</event>
<event>
 5   0  0.6630125E-07  0.3486751E+04  0.7818609E-02  0.8116937E-01
        1   -1    0    0  501    0  0.00000000000E+00  0.00000000000E+00  0.30824472442E+04  0.30824472442E+04  0.50400001928E-02 0.  1.
       -1   -1    0    0    0  501  0.00000000000E+00  0.00000000000E+00 -0.98602124197E+03  0.98602124198E+03  0.50400001928E-02 0. -1.
    10030    2    1    2    0    0  0.00000000000E+00  0.00000000000E+00  0.20964260022E+04  0.40684684862E+04  0.34867511870E+04 0.  0.
        5    1    3    3  502    0 -0.17015262608E+04 -0.12344356311E+03  0.14671486397E+04  0.22501060310E+04  0.46999998093E+01 0.  1.
       -5    1    3    3    0  502  0.17015262608E+04  0.12344356311E+03  0.62927736250E+03  0.18183624552E+04  0.46999998093E+01 0. -1.
</event>
<event>
 5   0  0.6630125E-07  0.3511285E+04  0.7818609E-02  0.8111121E-01
       -1   -1    0    0    0  501  0.00000000000E+00  0.00000000000E+00  0.10613696110E+04  0.10613696110E+04  0.50400001928E-02 0.  1.
        1   -1    0    0  501    0  0.00000000000E+00  0.00000000000E+00 -0.29040589743E+04  0.29040589743E+04  0.50400001928E-02 0. -1.
    10030    2    1    2    0    0  0.00000000000E+00  0.00000000000E+00 -0.18426893633E+04  0.39654285854E+04  0.35112846333E+04 0.  0.
        4    1    3    3  502    0 -0.12722561258E+04  0.50648012013E+03 -0.21621379318E+04  0.25592967415E+04  0.12699999809E+01 0. -1.
       -4    1    3    3    0  502  0.12722561258E+04 -0.50648012013E+03  0.31944856852E+03  0.14061318439E+04  0.12699999809E+01 0.  1.
</event>
<event>
 5   0  0.6630125E-07  0.3375491E+04  0.7818609E-02  0.8143948E-01
        1   -1    0    0  501    0  0.00000000000E+00  0.00000000000E+00  0.18840950815E+04  0.18840950815E+04  0.50400001928E-02 0.  1.
       -1   -1    0    0    0  501  0.00000000000E+00  0.00000000000E+00 -0.15118580572E+04  0.15118580572E+04  0.50400001928E-02 0. -1.
    10030    2    1    2    0    0  0.00000000000E+00  0.00000000000E+00  0.37223702431E+03  0.33959531388E+04  0.33754906782E+04 0.  0.
        4    1    3    3  502    0 -0.20865251737E+02 -0.12223243562E+04  0.13567747431E+04  0.18262944743E+04  0.12699999809E+01 0.  1.
       -4    1    3    3    0  502  0.20865251737E+02  0.12223243562E+04 -0.98453771878E+03  0.15696586645E+04  0.12699999809E+01 0. -1.
</event>
<event>
 5   0  0.6630125E-07  0.3514147E+04  0.7818609E-02  0.8110445E-01
       -1   -1    0    0    0  501  0.00000000000E+00  0.00000000000E+00  0.17846911502E+04  0.17846911502E+04  0.50400001928E-02 0. -1.
        1   -1    0    0  501    0  0.00000000000E+00  0.00000000000E+00 -0.17298831843E+04  0.17298831843E+04  0.50400001928E-02 0.  1.
    10030    2    1    2    0    0  0.00000000000E+00  0.00000000000E+00  0.54807965949E+02  0.35145743345E+04  0.35141469576E+04 0.  0.
        4    1    3    3  502    0  0.62653210025E+03 -0.31054926382E+03  0.16395312463E+04  0.17824274567E+04  0.12699999809E+01 0. -1.
       -4    1    3    3    0  502 -0.62653210025E+03  0.31054926382E+03 -0.15847232804E+04  0.17321468778E+04  0.12699999809E+01 0.  1.
</event>
<event>
 5   0  0.6630125E-07  0.3542358E+04  0.7818609E-02  0.8103824E-01
       -1   -1    0    0    0  501  0.00000000000E+00  0.00000000000E+00  0.14746961523E+04  0.14746961524E+04  0.50400001928E-02 0. -1.
        1   -1    0    0  501    0  0.00000000000E+00  0.00000000000E+00 -0.21272688002E+04  0.21272688002E+04  0.50400001928E-02 0.  1.
    10030    2    1    2    0    0  0.00000000000E+00  0.00000000000E+00 -0.65257264784E+03  0.36019649526E+04  0.35423580365E+04 0.  0.
        1    1    3    3  502    0  0.13572390628E+04  0.18723617167E+03 -0.14676353923E+04  0.20077621628E+04  0.50400001928E-02 0.  1.
       -1    1    3    3    0  502 -0.13572390628E+04 -0.18723617167E+03  0.81506274442E+03  0.15942027898E+04  0.50400001928E-02 0. -1.
</event>
<event>
 5   0  0.2001768E-06  0.3525382E+04  0.7818609E-02  0.8107801E-01
        2   -1    0    0  501    0  0.00000000000E+00  0.00000000000E+00  0.24567792034E+04  0.24567792034E+04  0.25500000920E-02 0. -1.
       -2   -1    0    0    0  501  0.00000000000E+00  0.00000000000E+00 -0.12646966101E+04  0.12646966101E+04  0.25500000920E-02 0.  1.
    10030    2    1    2    0    0  0.00000000000E+00  0.00000000000E+00  0.11920825933E+04  0.37214758134E+04  0.35253824361E+04 0.  0.
        2    1    3    3  502    0 -0.49923010716E+03  0.40171255814E+02  0.23800871037E+04  0.24322127889E+04  0.25500000920E-02 0. -1.
       -2    1    3    3    0  502  0.49923010716E+03 -0.40171255814E+02 -0.11880045104E+04  0.12892630245E+04  0.25500000920E-02 0.  1.
</event>
<event>
 5   0  0.6630125E-07  0.3370495E+04  0.7818609E-02  0.8145186E-01
        1   -1    0    0  501    0  0.00000000000E+00  0.00000000000E+00  0.14671045294E+04  0.14671045294E+04  0.50400001928E-02 0.  1.
       -1   -1    0    0    0  501  0.00000000000E+00  0.00000000000E+00 -0.19358263116E+04  0.19358263116E+04  0.50400001928E-02 0. -1.
    10030    2    1    2    0    0  0.00000000000E+00  0.00000000000E+00 -0.46872178226E+03  0.34029308410E+04  0.33704952454E+04 0.  0.
        1    1    3    3  502    0  0.44896385911E+03 -0.13213401540E+03  0.14001790334E+04  0.14763228883E+04  0.50400001928E-02 0.  1.
       -1    1    3    3    0  502 -0.44896385911E+03  0.13213401540E+03 -0.18689008157E+04  0.19266079527E+04  0.50400001928E-02 0. -1.
</event>
<event>
 5   0  0.6630125E-07  0.2393392E+04  0.7818609E-02  0.8441981E-01
        1   -1    0    0  501    0  0.00000000000E+00  0.00000000000E+00  0.16598708448E+04  0.16598708448E+04  0.50400001928E-02 0.  1.
       -1   -1    0    0    0  501  0.00000000000E+00  0.00000000000E+00 -0.86276707036E+03  0.86276707038E+03  0.50400001928E-02 0. -1.
    10030    2    1    2    0    0  0.00000000000E+00  0.00000000000E+00  0.79710377440E+03  0.25226379152E+04  0.23933924926E+04 0.  0.
        4    1    3    3  502    0 -0.52677672352E+03 -0.95778231171E+03  0.91192675530E+03  0.14235352799E+04  0.12699999809E+01 0.  1.
       -4    1    3    3    0  502  0.52677672352E+03  0.95778231171E+03 -0.11482298089E+03  0.10991026353E+04  0.12699999809E+01 0. -1.
</event>
<event>
 5   0  0.2023479E-06  0.3490630E+04  0.7818609E-02  0.8116014E-01
        2   -1    0    0  501    0  0.00000000000E+00  0.00000000000E+00  0.13240178120E+04  0.13240178120E+04  0.25500000920E-02 0.  1.
       -2   -1    0    0    0  501  0.00000000000E+00  0.00000000000E+00 -0.23006672048E+04  0.23006672048E+04  0.25500000920E-02 0. -1.
    10030    2    1    2    0    0  0.00000000000E+00  0.00000000000E+00 -0.97664939276E+03  0.36246850168E+04  0.34906299481E+04 0.  0.
        5    1    3    3  502    0 -0.28496727021E+03 -0.15950221013E+04 -0.11619285211E+04  0.19938409733E+04  0.46999998093E+01 0. -1.
       -5    1    3    3    0  502  0.28496727021E+03  0.15950221013E+04  0.18527912836E+03  0.16308440435E+04  0.46999998093E+01 0.  1.
</event>
<event>
 5   0  0.2023479E-06  0.3487119E+04  0.7818609E-02  0.8116849E-01
       -2   -1    0    0    0  501  0.00000000000E+00  0.00000000000E+00  0.11107748037E+04  0.11107748037E+04  0.25500000920E-02 0. -1.
        2   -1    0    0  501    0  0.00000000000E+00  0.00000000000E+00 -0.27368276336E+04  0.27368276336E+04  0.25500000920E-02 0.  1.
    10030    2    1    2    0    0  0.00000000000E+00  0.00000000000E+00 -0.16260528299E+04  0.38476024373E+04  0.34871186831E+04 0.  0.
        5    1    3    3  502    0  0.19796843100E+03  0.12696566303E+04 -0.21133058423E+04  0.24733182431E+04  0.46999998093E+01 0.  1.
       -5    1    3    3    0  502 -0.19796843100E+03 -0.12696566303E+04  0.48725301239E+03  0.13742841943E+04  0.46999998093E+01 0. -1.
</event>
<event>
 5   0  0.6890600E-07  0.2321665E+04  0.7818609E-02  0.8469428E-01
        1   -1    0    0  501    0  0.00000000000E+00  0.00000000000E+00  0.10266859497E+04  0.10266859497E+04  0.50400001928E-02 0. -1.
       -1   -1    0    0    0  501  0.00000000000E+00  0.00000000000E+00 -0.13125064067E+04  0.13125064067E+04  0.50400001928E-02 0.  1.
    10030    2    1    2    0    0  0.00000000000E+00  0.00000000000E+00 -0.28582045702E+03  0.23391923565E+04  0.23216648223E+04 0.  0.
        3    1    3    3  502    0 -0.36012341576E+03 -0.28834197976E+03  0.93035561216E+03  0.10384563290E+04  0.10100000352E+00 0. -1.
       -3    1    3    3    0  502  0.36012341576E+03  0.28834197976E+03 -0.12161760692E+04  0.13007360275E+04  0.10100000352E+00 0.  1.
</event>
<event>
 5   0  0.6630125E-07  0.3488232E+04  0.7818609E-02  0.8116584E-01
       -1   -1    0    0    0  501  0.00000000000E+00  0.00000000000E+00  0.16752222620E+04  0.16752222620E+04  0.50400001928E-02 0.  1.
        1   -1    0    0  501    0  0.00000000000E+00  0.00000000000E+00 -0.18158431762E+04  0.18158431762E+04  0.50400001928E-02 0. -1.
    10030    2    1    2    0    0  0.00000000000E+00  0.00000000000E+00 -0.14062091421E+03  0.34910654383E+04  0.34882321673E+04 0.  0.
        4    1    3    3  502    0  0.35968376001E+03  0.13342198818E+04  0.99470810650E+03  0.17026335278E+04  0.12699999809E+01 0.  1.
       -4    1    3    3    0  502 -0.35968376001E+03 -0.13342198818E+04 -0.11353290207E+04  0.17884319104E+04  0.12699999809E+01 0. -1.
</event>
<event>
 5   0  0.6630125E-07  0.3121086E+04  0.7818609E-02  0.8209975E-01
        1   -1    0    0  501    0  0.00000000000E+00  0.00000000000E+00  0.19748197376E+04  0.19748197376E+04  0.50400001928E-02 0.  1.
       -1   -1    0    0    0  501  0.00000000000E+00  0.00000000000E+00 -0.12331731584E+04  0.12331731584E+04  0.50400001928E-02 0. -1.
    10030    2    1    2    0    0  0.00000000000E+00  0.00000000000E+00  0.74164657920E+03  0.32079928959E+04  0.31210861526E+04 0.  0.
        4    1    3    3  502    0 -0.10515966386E+04  0.88899450652E+02  0.15524135159E+04  0.18771648675E+04  0.12699999809E+01 0.  1.
       -4    1    3    3    0  502  0.10515966386E+04 -0.88899450652E+02 -0.81076693668E+03  0.13308280284E+04  0.12699999809E+01 0. -1.
</event>
<event>
 5   0  0.1999883E-06  0.3339470E+04  0.7818609E-02  0.8152924E-01
       -2   -1    0    0    0  501  0.00000000000E+00  0.00000000000E+00  0.12766283078E+04  0.12766283078E+04  0.25500000920E-02 0.  1.
        2   -1    0    0  501    0  0.00000000000E+00  0.00000000000E+00 -0.21838897024E+04  0.21838897024E+04  0.25500000920E-02 0. -1.
    10030    2    1    2    0    0  0.00000000000E+00  0.00000000000E+00 -0.90726139465E+03  0.34605180102E+04  0.33394702665E+04 0.  0.
        4    1    3    3  502    0  0.10630562711E+04 -0.75823200149E+03 -0.15320301174E+04  0.20129883997E+04  0.12699999809E+01 0. -1.
       -4    1    3    3    0  502 -0.10630562711E+04  0.75823200149E+03  0.62476872279E+03  0.14475296106E+04  0.12699999809E+01 0.  1.
</event>
<event>
 5   0  0.6630125E-07  0.3400417E+04  0.7818609E-02  0.8137804E-01
       -3   -1    0    0    0  501  0.00000000000E+00  0.00000000000E+00  0.16739195682E+04  0.16739195712E+04  0.10100000352E+00 0. -1.
        3   -1    0    0  501    0  0.00000000000E+00  0.00000000000E+00 -0.17269105729E+04  0.17269105759E+04  0.10100000352E+00 0.  1.
    10030    2    1    2    0    0  0.00000000000E+00  0.00000000000E+00 -0.52991004749E+02  0.34008301471E+04  0.34004172748E+04 0.  0.
        4    1    3    3  502    0 -0.10174120536E+04  0.13620525813E+04 -0.46329117787E+02  0.17007241167E+04  0.12699999809E+01 0.  1.
       -4    1    3    3    0  502  0.10174120536E+04 -0.13620525813E+04 -0.66618869622E+01  0.17001060304E+04  0.12699999809E+01 0. -1.
</event>
<event>
 5   0  0.6890600E-07  0.3508872E+04  0.7818609E-02  0.8111691E-01
        1   -1    0    0  501    0  0.00000000000E+00  0.00000000000E+00  0.16320145010E+04  0.16320145010E+04  0.50400001928E-02 0.  1.
       -1   -1    0    0    0  501  0.00000000000E+00  0.00000000000E+00 -0.18860409299E+04  0.18860409299E+04  0.50400001928E-02 0. -1.
    10030    2    1    2    0    0  0.00000000000E+00  0.00000000000E+00 -0.25402642894E+03  0.35180554309E+04  0.35088722673E+04 0.  0.
        3    1    3    3  502    0  0.59316314482E+03 -0.14481333429E+04  0.66822932096E+03  0.17016060445E+04  0.10100000352E+00 0.  1.
       -3    1    3    3    0  502 -0.59316314482E+03  0.14481333429E+04 -0.92225574990E+03  0.18164493864E+04  0.10100000352E+00 0. -1.
</event>
<event>
 5   0  0.2001768E-06  0.3577713E+04  0.7818609E-02  0.8095616E-01
       -2   -1    0    0    0  501  0.00000000000E+00  0.00000000000E+00  0.90597264830E+03  0.90597264830E+03  0.25500000920E-02 0.  1.
        2   -1    0    0  501    0  0.00000000000E+00  0.00000000000E+00 -0.35321241100E+04  0.35321241100E+04  0.25500000920E-02 0. -1.
    10030    2    1    2    0    0  0.00000000000E+00  0.00000000000E+00 -0.26261514617E+04  0.44380967583E+04  0.35777131434E+04 0.  0.
        2    1    3    3  502    0  0.12677456898E+04 -0.17870466021E+03  0.23673214784E+03  0.13019817969E+04  0.25500000920E-02 0.  1.
       -2    1    3    3    0  502 -0.12677456898E+04  0.17870466021E+03 -0.28628836095E+04  0.31361149614E+04  0.25500000920E-02 0. -1.
</event>
<event>
 5   0  0.2023479E-06  0.2735713E+04  0.7818609E-02  0.8323510E-01
        2   -1    0    0  501    0  0.00000000000E+00  0.00000000000E+00  0.76021037578E+03  0.76021037578E+03  0.25500000920E-02 0. -1.
       -2   -1    0    0    0  501  0.00000000000E+00  0.00000000000E+00 -0.24612013680E+04  0.24612013680E+04  0.25500000920E-02 0.  1.
    10030    2    1    2    0    0  0.00000000000E+00  0.00000000000E+00 -0.17009909922E+04  0.32214117438E+04  0.27357125703E+04 0.  0.
        5    1    3    3  502    0  0.66205075271E+03  0.11849562551E+04 -0.65143823757E+03  0.15055983505E+04  0.46999998093E+01 0. -1.
       -5    1    3    3    0  502 -0.66205075271E+03 -0.11849562551E+04 -0.10495527547E+04  0.17158133933E+04  0.46999998093E+01 0.  1.
</event>
<event>
 5   0  0.2020725E-06  0.3449123E+04  0.7818609E-02  0.8125954E-01
        2   -1    0    0  501    0  0.00000000000E+00  0.00000000000E+00  0.22872832431E+04  0.22872832431E+04  0.25500000920E-02 0.  1.
       -2   -1    0    0    0  501  0.00000000000E+00  0.00000000000E+00 -0.13002816174E+04  0.13002816174E+04  0.25500000920E-02 0. -1.
    10030    2    1    2    0    0  0.00000000000E+00  0.00000000000E+00  0.98700162567E+03  0.35875648605E+04  0.34491229928E+04 0.  0.
        3    1    3    3  502    0  0.51771036863E+03  0.86383829502E+03 -0.96264512614E+03  0.13931713013E+04  0.10100000352E+00 0. -1.
       -3    1    3    3    0  502 -0.51771036863E+03 -0.86383829502E+03  0.19496467518E+04  0.21943935592E+04  0.10100000352E+00 0.  1.
</event>
<event>
 5   0  0.7378896E-07  0.2636398E+04  0.7818609E-02  0.8355942E-01
       -1   -1    0    0    0  501  0.00000000000E+00  0.00000000000E+00  0.15199689463E+04  0.15199689463E+04  0.50400001928E-02 0. -1.
        1   -1    0    0  501    0  0.00000000000E+00  0.00000000000E+00 -0.11432135318E+04  0.11432135318E+04  0.50400001928E-02 0.  1.
    10030    2    1    2    0    0  0.00000000000E+00  0.00000000000E+00  0.37675541453E+03  0.26631824781E+04  0.26363983518E+04 0.  0.
        2    1    3    3  502    0 -0.12125305818E+04  0.39755385503E+03  0.52244824878E+03  0.13788515700E+04  0.25500000920E-02 0.  1.
       -2    1    3    3    0  502  0.12125305818E+04 -0.39755385503E+03 -0.14569283425E+03  0.12843309081E+04  0.25500000920E-02 0. -1.
</event>
<event>
 5   0  0.2020725E-06  0.3281965E+04  0.7818609E-02  0.8167500E-01
        2   -1    0    0  501    0  0.00000000000E+00  0.00000000000E+00  0.16874476290E+04  0.16874476290E+04  0.25500000920E-02 0.  1.
       -2   -1    0    0    0  501  0.00000000000E+00  0.00000000000E+00 -0.15957967030E+04  0.15957967030E+04  0.25500000920E-02 0. -1.
    10030    2    1    2    0    0  0.00000000000E+00  0.00000000000E+00  0.91650925972E+02  0.32832443321E+04  0.32819648767E+04 0.  0.
        3    1    3    3  502    0 -0.33898789478E+03 -0.10169682610E+04  0.12887614811E+04  0.16763184071E+04  0.10100000352E+00 0.  1.
       -3    1    3    3    0  502  0.33898789478E+03  0.10169682610E+04 -0.11971105551E+04  0.16069259249E+04  0.10100000352E+00 0. -1.
</event>
<event>
 5   0  0.6630125E-07  0.3405833E+04  0.7818609E-02  0.8136476E-01
        1   -1    0    0  501    0  0.00000000000E+00  0.00000000000E+00  0.14910372736E+04  0.14910372736E+04  0.50400001928E-02 0. -1.
       -1   -1    0    0    0  501  0.00000000000E+00  0.00000000000E+00 -0.19449036363E+04  0.19449036363E+04  0.50400001928E-02 0.  1.
    10030    2    1    2    0    0  0.00000000000E+00  0.00000000000E+00 -0.45386636276E+03  0.34359409099E+04  0.34058325357E+04 0.  0.
        5    1    3    3  502    0 -0.45039916384E+03  0.16408050437E+04 -0.29683588884E+03  0.17272041666E+04  0.46999998093E+01 0.  1.
       -5    1    3    3    0  502  0.45039916384E+03 -0.16408050437E+04 -0.15703047391E+03  0.17087367433E+04  0.46999998093E+01 0. -1.
</event>
<event>
 5   0  0.6890600E-07  0.2625021E+04  0.7818609E-02  0.8359752E-01
       -1   -1    0    0    0  501  0.00000000000E+00  0.00000000000E+00  0.81733692562E+03  0.81733692563E+03  0.50400001928E-02 0.  1.
        1   -1    0    0  501    0  0.00000000000E+00  0.00000000000E+00 -0.21076782089E+04  0.21076782089E+04  0.50400001928E-02 0. -1.
    10030    2    1    2    0    0  0.00000000000E+00  0.00000000000E+00 -0.12903412833E+04  0.29250151346E+04  0.26250205542E+04 0.  0.
        3    1    3    3  502    0  0.53245715421E+03 -0.11433625021E+04 -0.24049298959E+03  0.12839880531E+04  0.10100000352E+00 0. -1.
       -3    1    3    3    0  502 -0.53245715421E+03  0.11433625021E+04 -0.10498482937E+04  0.16410270815E+04  0.10100000352E+00 0.  1.
</event>
<event>
 5   0  0.6630125E-07  0.2426839E+04  0.7818609E-02  0.8429523E-01
       -1   -1    0    0    0  501  0.00000000000E+00  0.00000000000E+00  0.29771428181E+04  0.29771428181E+04  0.50400001928E-02 0.  1.
        1   -1    0    0  501    0  0.00000000000E+00  0.00000000000E+00 -0.49456370812E+03  0.49456370814E+03  0.50400001928E-02 0. -1.
    10030    2    1    2    0    0  0.00000000000E+00  0.00000000000E+00  0.24825791100E+04  0.34717065262E+04  0.24268389248E+04 0.  0.
        4    1    3    3  502    0 -0.88141920890E+03  0.19375785273E+03  0.80920142760E+02  0.90608587326E+03  0.12699999809E+01 0. -1.
       -4    1    3    3    0  502  0.88141920890E+03 -0.19375785273E+03  0.24016589672E+04  0.25656206530E+04  0.12699999809E+01 0.  1.
</event>
<event>
 5   0  0.1999883E-06  0.3329987E+04  0.7818609E-02  0.8155307E-01
        2   -1    0    0  501    0  0.00000000000E+00  0.00000000000E+00  0.15621931243E+04  0.15621931243E+04  0.25500000920E-02 0.  1.
       -2   -1    0    0    0  501  0.00000000000E+00  0.00000000000E+00 -0.17745590493E+04  0.17745590493E+04  0.25500000920E-02 0. -1.
    10030    2    1    2    0    0  0.00000000000E+00  0.00000000000E+00 -0.21236592501E+03  0.33367521736E+04  0.33299873546E+04 0.  0.
        4    1    3    3  502    0  0.15167312957E+04  0.22682405817E+03  0.54342358975E+03  0.16270322023E+04  0.12699999809E+01 0.  1.
       -4    1    3    3    0  502 -0.15167312957E+04 -0.22682405817E+03 -0.75578951477E+03  0.17097199713E+04  0.12699999809E+01 0. -1.
</event>
<event>
 5   0  0.6630125E-07  0.3566119E+04  0.7818609E-02  0.8098297E-01
        1   -1    0    0  501    0  0.00000000000E+00  0.00000000000E+00  0.29937919262E+04  0.29937919262E+04  0.50400001928E-02 0.  1.
       -1   -1    0    0    0  501  0.00000000000E+00  0.00000000000E+00 -0.10619645945E+04  0.10619645945E+04  0.50400001928E-02 0. -1.
    10030    2    1    2    0    0  0.00000000000E+00  0.00000000000E+00  0.19318273317E+04  0.40557565207E+04  0.35661189150E+04 0.  0.
        4    1    3    3  502    0  0.10217198750E+04 -0.84645221709E+03  0.23206443016E+04  0.26731600113E+04  0.12699999809E+01 0.  1.
       -4    1    3    3    0  502 -0.10217198750E+04  0.84645221709E+03 -0.38881696990E+03  0.13825965094E+04  0.12699999809E+01 0. -1.
</event>
<event>
 5   0  0.2023479E-06  0.2218584E+04  0.7818609E-02  0.8510733E-01
       -2   -1    0    0    0  501  0.00000000000E+00  0.00000000000E+00  0.71812854266E+03  0.71812854267E+03  0.25500000920E-02 0.  1.
        2   -1    0    0  501    0  0.00000000000E+00  0.00000000000E+00 -0.17135214212E+04  0.17135214212E+04  0.25500000920E-02 0. -1.
    10030    2    1    2    0    0  0.00000000000E+00  0.00000000000E+00 -0.99539287851E+03  0.24316499638E+04  0.22185839096E+04 0.  0.
        5    1    3    3  502    0 -0.59901739257E+03 -0.27823161819E+03 -0.14745057564E+04  0.16156806570E+04  0.46999998093E+01 0. -1.
       -5    1    3    3    0  502  0.59901739257E+03  0.27823161819E+03  0.47911287784E+03  0.81596930682E+03  0.46999998093E+01 0.  1.
</event>
<event>
 5   0  0.6890600E-07  0.3888482E+04  0.7818609E-02  0.8027429E-01
       -1   -1    0    0    0  501  0.00000000000E+00  0.00000000000E+00  0.19357388927E+04  0.19357388927E+04  0.50400001928E-02 0. -1.
        1   -1    0    0  501    0  0.00000000000E+00  0.00000000000E+00 -0.19527802683E+04  0.19527802683E+04  0.50400001928E-02 0.  1.
    10030    2    1    2    0    0  0.00000000000E+00  0.00000000000E+00 -0.17041375626E+02  0.38885191610E+04  0.38884818190E+04 0.  0.
        3    1    3    3  502    0 -0.95047885851E+03 -0.16011523969E+04 -0.56796653555E+03  0.19467113434E+04  0.10100000352E+00 0. -1.
       -3    1    3    3    0  502  0.95047885851E+03  0.16011523969E+04  0.55092515993E+03  0.19418078177E+04  0.10100000352E+00 0.  1.
</event>
<event>
 5   0  0.2001768E-06  0.3504162E+04  0.7818609E-02  0.8112804E-01
        2   -1    0    0  501    0  0.00000000000E+00  0.00000000000E+00  0.18432502586E+04  0.18432502586E+04  0.25500000920E-02 0. -1.
       -2   -1    0    0    0  501  0.00000000000E+00  0.00000000000E+00 -0.16654212429E+04  0.16654212429E+04  0.25500000920E-02 0.  1.
    10030    2    1    2    0    0  0.00000000000E+00  0.00000000000E+00  0.17782901571E+03  0.35086715015E+04  0.35041621747E+04 0.  0.
        2    1    3    3  502    0  0.11391587803E+04  0.76257180377E+03 -0.10036310716E+04  0.16989625689E+04  0.25500000920E-02 0.  1.
       -2    1    3    3    0  502 -0.11391587803E+04 -0.76257180377E+03  0.11814600873E+04  0.18097089326E+04  0.25500000920E-02 0. -1.
</event>
<event>
 5   0  0.1999883E-06  0.3517413E+04  0.7818609E-02  0.8109676E-01
       -2   -1    0    0    0  501  0.00000000000E+00  0.00000000000E+00  0.14855587298E+04  0.14855587298E+04  0.25500000920E-02 0.  1.
        2   -1    0    0  501    0  0.00000000000E+00  0.00000000000E+00 -0.20820771478E+04  0.20820771478E+04  0.25500000920E-02 0. -1.
    10030    2    1    2    0    0  0.00000000000E+00  0.00000000000E+00 -0.59651841797E+03  0.35676358776E+04  0.35174126189E+04 0.  0.
        4    1    3    3  502    0 -0.64968020641E+02 -0.10837148613E+04 -0.17016290310E+04  0.20184651883E+04  0.12699999809E+01 0. -1.
       -4    1    3    3    0  502  0.64968020641E+02  0.10837148613E+04  0.11051106131E+04  0.15491706892E+04  0.12699999809E+01 0.  1.
</event>
<event>
 5   0  0.2001768E-06  0.3615123E+04  0.7818609E-02  0.8087036E-01
        2   -1    0    0  501    0  0.00000000000E+00  0.00000000000E+00  0.27741367894E+04  0.27741367894E+04  0.25500000920E-02 0. -1.
       -2   -1    0    0    0  501  0.00000000000E+00  0.00000000000E+00 -0.11777639824E+04  0.11777639824E+04  0.25500000920E-02 0.  1.
    10030    2    1    2    0    0  0.00000000000E+00  0.00000000000E+00  0.15963728070E+04  0.39519007718E+04  0.36151228985E+04 0.  0.
        2    1    3    3  502    0 -0.21441788395E+03 -0.76553607059E+03 -0.97638928067E+03  0.12591094201E+04  0.25500000920E-02 0.  1.
       -2    1    3    3    0  502  0.21441788395E+03  0.76553607059E+03  0.25727620876E+04  0.26927913517E+04  0.25500000920E-02 0. -1.
</event>
<event>
 5   0  0.6630125E-07  0.3455899E+04  0.7818609E-02  0.8124321E-01
        1   -1    0    0  501    0  0.00000000000E+00  0.00000000000E+00  0.16896790178E+04  0.16896790178E+04  0.50400001928E-02 0. -1.
       -1   -1    0    0    0  501  0.00000000000E+00  0.00000000000E+00 -0.17670870537E+04  0.17670870537E+04  0.50400001928E-02 0.  1.
    10030    2    1    2    0    0  0.00000000000E+00  0.00000000000E+00 -0.77408035873E+02  0.34567660716E+04  0.34558992563E+04 0.  0.
        4    1    3    3  502    0  0.82477902847E+03 -0.10491144384E+04  0.10592537516E+04  0.17037962536E+04  0.12699999809E+01 0. -1.
       -4    1    3    3    0  502 -0.82477902847E+03  0.10491144384E+04 -0.11366617875E+04  0.17529698180E+04  0.12699999809E+01 0.  1.
</event>
<event>
 5   0  0.2023479E-06  0.2725094E+04  0.7818609E-02  0.8326909E-01
       -2   -1    0    0    0  501  0.00000000000E+00  0.00000000000E+00  0.12774202348E+04  0.12774202348E+04  0.25500000920E-02 0.  1.
        2   -1    0    0  501    0  0.00000000000E+00  0.00000000000E+00 -0.14533460465E+04  0.14533460465E+04  0.25500000920E-02 0. -1.
    10030    2    1    2    0    0  0.00000000000E+00  0.00000000000E+00 -0.17592581163E+03  0.27307662813E+04  0.27250935015E+04 0.  0.
        5    1    3    3  502    0  0.97195265834E+03  0.72404716508E+02 -0.10420884139E+04  0.14268513467E+04  0.46999998093E+01 0. -1.
       -5    1    3    3    0  502 -0.97195265834E+03 -0.72404716508E+02  0.86616260232E+03  0.13039149346E+04  0.46999998093E+01 0.  1.
</event>
<event>
 5   0  0.7378896E-07  0.3441742E+04  0.7818609E-02  0.8127737E-01
       -1   -1    0    0    0  501  0.00000000000E+00  0.00000000000E+00  0.11649524559E+04  0.11649524559E+04  0.50400001928E-02 0.  1.
        1   -1    0    0  501    0  0.00000000000E+00  0.00000000000E+00 -0.25420749199E+04  0.25420749199E+04  0.50400001928E-02 0. -1.
    10030    2    1    2    0    0  0.00000000000E+00  0.00000000000E+00 -0.13771224640E+04  0.37070273757E+04  0.34417416643E+04 0.  0.
        2    1    3    3  502    0 -0.17102379784E+03 -0.15341770526E+04  0.13061945664E+03  0.15491965049E+04  0.25500000920E-02 0.  1.
       -2    1    3    3    0  502  0.17102379784E+03  0.15341770526E+04 -0.15077419206E+04  0.21578308709E+04  0.25500000920E-02 0. -1.
</event>
<event>
 5   0  0.6630125E-07  0.3492299E+04  0.7818609E-02  0.8115617E-01
        1   -1    0    0  501    0  0.00000000000E+00  0.00000000000E+00  0.12830763678E+04  0.12830763678E+04  0.50400001928E-02 0. -1.
       -1   -1    0    0    0  501  0.00000000000E+00  0.00000000000E+00 -0.23763497864E+04  0.23763497864E+04  0.50400001928E-02 0.  1.
    10030    2    1    2    0    0  0.00000000000E+00  0.00000000000E+00 -0.10932734187E+04  0.36594261542E+04  0.34922991009E+04 0.  0.
        1    1    3    3  502    0  0.11196676153E+04  0.58058099454E+02  0.85608657208E+03  0.14106418860E+04  0.50400001928E-02 0. -1.
       -1    1    3    3    0  502 -0.11196676153E+04 -0.58058099454E+02 -0.19493599907E+04  0.22487842682E+04  0.50400001928E-02 0.  1.
</event>
<event>
 5   0  0.6630125E-07  0.3495489E+04  0.7818609E-02  0.8114860E-01
        1   -1    0    0  501    0  0.00000000000E+00  0.00000000000E+00  0.26953044338E+04  0.26953044338E+04  0.50400001928E-02 0. -1.
       -1   -1    0    0    0  501  0.00000000000E+00  0.00000000000E+00 -0.11333080785E+04  0.11333080785E+04  0.50400001928E-02 0.  1.
    10030    2    1    2    0    0  0.00000000000E+00  0.00000000000E+00  0.15619963552E+04  0.38286125123E+04  0.34954886863E+04 0.  0.
        5    1    3    3  502    0 -0.19033529986E+03  0.51902439035E+03  0.25970107786E+04  0.26552026135E+04  0.46999998093E+01 0. -1.
       -5    1    3    3    0  502  0.19033529986E+03 -0.51902439035E+03 -0.10350144234E+04  0.11734098989E+04  0.46999998093E+01 0.  1.
</event>
<event>
 5   0  0.6630125E-07  0.3346618E+04  0.7818609E-02  0.8151134E-01
        1   -1    0    0  501    0  0.00000000000E+00  0.00000000000E+00  0.15736545632E+04  0.15736545632E+04  0.50400001928E-02 0.  1.
       -1   -1    0    0    0  501  0.00000000000E+00  0.00000000000E+00 -0.17792746634E+04  0.17792746634E+04  0.50400001928E-02 0. -1.
    10030    2    1    2    0    0  0.00000000000E+00  0.00000000000E+00 -0.20562010019E+03  0.33529292266E+04  0.33466184086E+04 0.  0.
        4    1    3    3  502    0  0.18306541646E+03 -0.12276071835E+04  0.10215493691E+04  0.16075126967E+04  0.12699999809E+01 0.  1.
       -4    1    3    3    0  502 -0.18306541646E+03  0.12276071835E+04 -0.12271694693E+04  0.17454165299E+04  0.12699999809E+01 0. -1.
</event>
<event>
 5   0  0.2073287E-06  0.3511751E+04  0.7818609E-02  0.8111011E-01
       -2   -1    0    0    0  501  0.00000000000E+00  0.00000000000E+00  0.13775316186E+04  0.13775316186E+04  0.25500000920E-02 0. -1.
        2   -1    0    0  501    0  0.00000000000E+00  0.00000000000E+00 -0.22381333018E+04  0.22381333018E+04  0.25500000920E-02 0.  1.
    10030    2    1    2    0    0  0.00000000000E+00  0.00000000000E+00 -0.86060168325E+03  0.36156649204E+04  0.35117513521E+04 0.  0.
        1    1    3    3  502    0 -0.12296696286E+04 -0.89108332175E+03  0.47724806571E+03  0.15918173884E+04  0.50400001928E-02 0. -1.
       -1    1    3    3    0  502  0.12296696286E+04  0.89108332175E+03 -0.13378497490E+04  0.20238475320E+04  0.50400001928E-02 0.  1.
</event>
<event>
 5   0  0.6630125E-07  0.2945326E+04  0.7818609E-02  0.8259518E-01
        1   -1    0    0  501    0  0.00000000000E+00  0.00000000000E+00  0.82109100210E+03  0.82109100212E+03  0.50400001928E-02 0. -1.
       -1   -1    0    0    0  501  0.00000000000E+00  0.00000000000E+00 -0.26412864965E+04  0.26412864965E+04  0.50400001928E-02 0.  1.
    10030    2    1    2    0    0  0.00000000000E+00  0.00000000000E+00 -0.18201954944E+04  0.34623774986E+04  0.29453261798E+04 0.  0.
        1    1    3    3  502    0  0.96539133481E+03  0.11093057070E+04 -0.10026381968E+04  0.17798378956E+04  0.50400001928E-02 0.  1.
       -1    1    3    3    0  502 -0.96539133481E+03 -0.11093057070E+04 -0.81755729761E+03  0.16825396030E+04  0.50400001928E-02 0. -1.
</event>
<event>
 5   0  0.2020725E-06  0.3514730E+04  0.7818609E-02  0.8110308E-01
        2   -1    0    0  501    0  0.00000000000E+00  0.00000000000E+00  0.22765650265E+04  0.22765650265E+04  0.25500000920E-02 0.  1.
       -2   -1    0    0    0  501  0.00000000000E+00  0.00000000000E+00 -0.13565750864E+04  0.13565750864E+04  0.25500000920E-02 0. -1.
    10030    2    1    2    0    0  0.00000000000E+00  0.00000000000E+00  0.91998994006E+03  0.36331401129E+04  0.35147298033E+04 0.  0.
        3    1    3    3  502    0  0.13977763488E+04 -0.85011359943E+03  0.11233786220E+04  0.19845531970E+04  0.10100000352E+00 0.  1.
       -3    1    3    3    0  502 -0.13977763488E+04  0.85011359943E+03 -0.20338868189E+03  0.16485869159E+04  0.10100000352E+00 0. -1.
</event>
<event>
 5   0  0.2073287E-06  0.2751475E+04  0.7818609E-02  0.8318494E-01
       -2   -1    0    0    0  501  0.00000000000E+00  0.00000000000E+00  0.63393478384E+03  0.63393478384E+03  0.25500000920E-02 0. -1.
        2   -1    0    0  501    0  0.00000000000E+00  0.00000000000E+00 -0.29855651298E+04  0.29855651298E+04  0.25500000920E-02 0.  1.
    10030    2    1    2    0    0  0.00000000000E+00  0.00000000000E+00 -0.23516303460E+04  0.36194999137E+04  0.27514749392E+04 0.  0.
        1    1    3    3  502    0  0.17859420022E+02  0.12746837515E+04 -0.49542527373E+03  0.13676928848E+04  0.50400001928E-02 0. -1.
       -1    1    3    3    0  502 -0.17859420022E+02 -0.12746837515E+04 -0.18562050723E+04  0.22518070289E+04  0.50400001928E-02 0.  1.
</event>
<event>
 5   0  0.2073287E-06  0.3491717E+04  0.7818609E-02  0.8115756E-01
        2   -1    0    0  501    0  0.00000000000E+00  0.00000000000E+00  0.21865748118E+04  0.21865748118E+04  0.25500000920E-02 0. -1.
       -2   -1    0    0    0  501  0.00000000000E+00  0.00000000000E+00 -0.13939711620E+04  0.13939711620E+04  0.25500000920E-02 0.  1.
    10030    2    1    2    0    0  0.00000000000E+00  0.00000000000E+00  0.79260364985E+03  0.35805459738E+04  0.34917171885E+04 0.  0.
        1    1    3    3  502    0 -0.16305398581E+04 -0.54029002191E+03  0.71641106191E+03  0.18611336186E+04  0.50400001928E-02 0. -1.
       -1    1    3    3    0  502  0.16305398581E+04  0.54029002191E+03  0.76192587943E+02  0.17194123552E+04  0.50400001928E-02 0.  1.
</event>
<event>
 5   0  0.2023479E-06  0.3559565E+04  0.7818609E-02  0.8099817E-01
       -2   -1    0    0    0  501  0.00000000000E+00  0.00000000000E+00  0.17452661235E+04  0.17452661235E+04  0.25500000920E-02 0. -1.
        2   -1    0    0  501    0  0.00000000000E+00  0.00000000000E+00 -0.18149812955E+04  0.18149812955E+04  0.25500000920E-02 0.  1.
    10030    2    1    2    0    0  0.00000000000E+00  0.00000000000E+00 -0.69715172010E+02  0.35602474189E+04  0.35595647878E+04 0.  0.
        5    1    3    3  502    0  0.11783273877E+04 -0.13131007152E+04 -0.26924065478E+03  0.17847132939E+04  0.46999998093E+01 0. -1.
       -5    1    3    3    0  502 -0.11783273877E+04  0.13131007152E+04  0.19952548277E+03  0.17755341251E+04  0.46999998093E+01 0.  1.
</event>
<event>
 5   0  0.6630125E-07  0.3490243E+04  0.7818609E-02  0.8116106E-01
        1   -1    0    0  501    0  0.00000000000E+00  0.00000000000E+00  0.18763629726E+04  0.18763629726E+04  0.50400001928E-02 0. -1.
       -1   -1    0    0    0  501  0.00000000000E+00  0.00000000000E+00 -0.16230593926E+04  0.16230593926E+04  0.50400001928E-02 0.  1.
    10030    2    1    2    0    0  0.00000000000E+00  0.00000000000E+00  0.25330358000E+03  0.34994223651E+04  0.34902427116E+04 0.  0.
        5    1    3    3  502    0  0.63881523789E+03  0.13617976968E+04  0.10137661690E+04  0.18139244225E+04  0.46999998093E+01 0. -1.
       -5    1    3    3    0  502 -0.63881523789E+03 -0.13617976968E+04 -0.76046258898E+03  0.16854979426E+04  0.46999998093E+01 0.  1.
</event>
<event>
 5   0  0.2020725E-06  0.3502559E+04  0.7818609E-02  0.8113184E-01
       -2   -1    0    0    0  501  0.00000000000E+00  0.00000000000E+00  0.18864340056E+04  0.18864340056E+04  0.25500000920E-02 0. -1.
        2   -1    0    0  501    0  0.00000000000E+00  0.00000000000E+00 -0.16258082452E+04  0.16258082452E+04  0.25500000920E-02 0.  1.
    10030    2    1    2    0    0  0.00000000000E+00  0.00000000000E+00  0.26062576040E+03  0.35122422507E+04  0.35025590417E+04 0.  0.
        3    1    3    3  502    0 -0.25174216449E+03  0.16089259468E+04  0.77627009576E+03  0.18040543482E+04  0.10100000352E+00 0. -1.
       -3    1    3    3    0  502  0.25174216449E+03 -0.16089259468E+04 -0.51564433536E+03  0.17081879025E+04  0.10100000352E+00 0.  1.
</event>
<event>
 5   0  0.7378896E-07  0.3497196E+04  0.7818609E-02  0.8114455E-01
        1   -1    0    0  501    0  0.00000000000E+00  0.00000000000E+00  0.11937856930E+04  0.11937856930E+04  0.50400001928E-02 0. -1.
       -1   -1    0    0    0  501  0.00000000000E+00  0.00000000000E+00 -0.25612595513E+04  0.25612595513E+04  0.50400001928E-02 0.  1.
    10030    2    1    2    0    0  0.00000000000E+00  0.00000000000E+00 -0.13674738583E+04  0.37550452442E+04  0.34971960244E+04 0.  0.
        2    1    3    3  502    0 -0.47115885042E+02  0.10525803428E+04  0.81466500653E+03  0.13318499756E+04  0.25500000920E-02 0. -1.
       -2    1    3    3    0  502  0.47115885042E+02 -0.10525803428E+04 -0.21821388648E+04  0.24231952686E+04  0.25500000920E-02 0.  1.
</event>
<event>
 5   0  0.6630125E-07  0.2825148E+04  0.7818609E-02  0.8295503E-01
        1   -1    0    0  501    0  0.00000000000E+00  0.00000000000E+00  0.17441785174E+04  0.17441785174E+04  0.50400001928E-02 0.  1.
       -1   -1    0    0    0  501  0.00000000000E+00  0.00000000000E+00 -0.11440144770E+04  0.11440144770E+04  0.50400001928E-02 0. -1.
    10030    2    1    2    0    0  0.00000000000E+00  0.00000000000E+00  0.60016404045E+03  0.28881929944E+04  0.28251481196E+04 0.  0.
        1    1    3    3  502    0  0.41423296362E+03 -0.11214993460E+04  0.10692111204E+04  0.16039208681E+04  0.50400001928E-02 0. -1.
       -1    1    3    3    0  502 -0.41423296362E+03  0.11214993460E+04 -0.46904707992E+03  0.12842721263E+04  0.50400001928E-02 0.  1.
</event>
<event>
 5   0  0.6890600E-07  0.3574972E+04  0.7818609E-02  0.8096249E-01
        1   -1    0    0  501    0  0.00000000000E+00  0.00000000000E+00  0.23591101817E+04  0.23591101817E+04  0.50400001928E-02 0. -1.
       -1   -1    0    0    0  501  0.00000000000E+00  0.00000000000E+00 -0.13543694766E+04  0.13543694766E+04  0.50400001928E-02 0.  1.
    10030    2    1    2    0    0  0.00000000000E+00  0.00000000000E+00  0.10047407051E+04  0.37134796584E+04  0.35749723480E+04 0.  0.
        3    1    3    3  502    0 -0.97029182216E+03 -0.85560054303E+03 -0.77894769360E+03  0.15100589488E+04  0.10100000352E+00 0.  1.
       -3    1    3    3    0  502  0.97029182216E+03  0.85560054303E+03  0.17836883987E+04  0.22034207095E+04  0.10100000352E+00 0. -1.
</event>
<event>
 5   0  0.6890600E-07  0.3408630E+04  0.7818609E-02  0.8135791E-01
        1   -1    0    0  501    0  0.00000000000E+00  0.00000000000E+00  0.31844950799E+04  0.31844950799E+04  0.50400001928E-02 0. -1.
       -1   -1    0    0    0  501  0.00000000000E+00  0.00000000000E+00 -0.91213513888E+03  0.91213513890E+03  0.50400001928E-02 0.  1.
    10030    2    1    2    0    0  0.00000000000E+00  0.00000000000E+00  0.22723599410E+04  0.40966302188E+04  0.34086301424E+04 0.  0.
        3    1    3    3  502    0 -0.98581213709E+03 -0.10709577619E+04  0.22016330496E+04  0.26393113103E+04  0.10100000352E+00 0. -1.
       -3    1    3    3    0  502  0.98581213709E+03  0.10709577619E+04  0.70726891349E+02  0.14573189084E+04  0.10100000352E+00 0.  1.
</event>
<event>
 5   0  0.2001768E-06  0.2734506E+04  0.7818609E-02  0.8323895E-01
       -2   -1    0    0    0  501  0.00000000000E+00  0.00000000000E+00  0.98577302826E+03  0.98577302826E+03  0.25500000920E-02 0.  1.
        2   -1    0    0  501    0  0.00000000000E+00  0.00000000000E+00 -0.18963599027E+04  0.18963599027E+04  0.25500000920E-02 0. -1.
    10030    2    1    2    0    0  0.00000000000E+00  0.00000000000E+00 -0.91058687448E+03  0.28821329310E+04  0.27345057645E+04 0.  0.
        2    1    3    3  502    0  0.13082410931E+04  0.23296094920E+02 -0.37213961652E+02  0.13089775952E+04  0.25500000920E-02 0.  1.
       -2    1    3    3    0  502 -0.13082410931E+04 -0.23296094920E+02 -0.87337291283E+03  0.15731553358E+04  0.25500000920E-02 0. -1.
</event>
<event>
 5   0  0.6630125E-07  0.3364772E+04  0.7818609E-02  0.8146607E-01
       -1   -1    0    0    0  501  0.00000000000E+00  0.00000000000E+00  0.18900667491E+04  0.18900667491E+04  0.50400001928E-02 0. -1.
        1   -1    0    0  501    0  0.00000000000E+00  0.00000000000E+00 -0.14975255187E+04  0.14975255187E+04  0.50400001928E-02 0.  1.
    10030    2    1    2    0    0  0.00000000000E+00  0.00000000000E+00  0.39254123043E+03  0.33875922678E+04  0.33647723185E+04 0.  0.
        5    1    3    3  502    0  0.30102369110E+02 -0.10032180778E+03  0.18867743935E+04  0.18896852435E+04  0.46999998093E+01 0. -1.
       -5    1    3    3    0  502 -0.30102369110E+02  0.10032180778E+03 -0.14942331630E+04  0.14979070242E+04  0.46999998093E+01 0.  1.
</event>
<event>
 5   0  0.2023479E-06  0.3502872E+04  0.7818609E-02  0.8113110E-01
       -2   -1    0    0    0  501  0.00000000000E+00  0.00000000000E+00  0.24002112078E+04  0.24002112078E+04  0.25500000920E-02 0.  1.
        2   -1    0    0  501    0  0.00000000000E+00  0.00000000000E+00 -0.12780241184E+04  0.12780241184E+04  0.25500000920E-02 0. -1.
    10030    2    1    2    0    0  0.00000000000E+00  0.00000000000E+00  0.11221870895E+04  0.36782353262E+04  0.35028718577E+04 0.  0.
        5    1    3    3  502    0 -0.74793464684E+03 -0.98993388136E+03  0.18591556400E+04  0.22351414069E+04  0.46999998093E+01 0.  1.
       -5    1    3    3    0  502  0.74793464684E+03  0.98993388136E+03 -0.73696855052E+03  0.14430939193E+04  0.46999998093E+01 0. -1.
</event>
<event>
 5   0  0.7378896E-07  0.3569205E+04  0.7818609E-02  0.8097582E-01
       -1   -1    0    0    0  501  0.00000000000E+00  0.00000000000E+00  0.13433387042E+04  0.13433387042E+04  0.50400001928E-02 0. -1.
        1   -1    0    0  501    0  0.00000000000E+00  0.00000000000E+00 -0.23708138839E+04  0.23708138839E+04  0.50400001928E-02 0.  1.
    10030    2    1    2    0    0  0.00000000000E+00  0.00000000000E+00 -0.10274751798E+04  0.37141525881E+04  0.35692049819E+04 0.  0.
        2    1    3    3  502    0 -0.11009877176E+04  0.12049429049E+04 -0.12646697036E+04  0.20648125381E+04  0.25500000920E-02 0.  1.
       -2    1    3    3    0  502  0.11009877176E+04 -0.12049429049E+04  0.23719452382E+03  0.16493400500E+04  0.25500000920E-02 0. -1.
</event>
<event>
 5   0  0.2023479E-06  0.3545944E+04  0.7818609E-02  0.8102987E-01
        2   -1    0    0  501    0  0.00000000000E+00  0.00000000000E+00  0.24280636931E+04  0.24280636931E+04  0.25500000920E-02 0.  1.
       -2   -1    0    0    0  501  0.00000000000E+00  0.00000000000E+00 -0.12946239832E+04  0.12946239832E+04  0.25500000920E-02 0. -1.
    10030    2    1    2    0    0  0.00000000000E+00  0.00000000000E+00  0.11334397099E+04  0.37226876763E+04  0.35459438743E+04 0.  0.
        5    1    3    3  502    0 -0.36685738565E+03 -0.18146806601E+02 -0.12542355131E+04  0.13069209847E+04  0.46999998093E+01 0. -1.
       -5    1    3    3    0  502  0.36685738565E+03  0.18146806601E+02  0.23876752230E+04  0.24157666916E+04  0.46999998093E+01 0.  1.
</event>
<event>
 5   0  0.6630125E-07  0.3423499E+04  0.7818609E-02  0.8132163E-01
        1   -1    0    0  501    0  0.00000000000E+00  0.00000000000E+00  0.16404503492E+04  0.16404503492E+04  0.50400001928E-02 0. -1.
       -1   -1    0    0    0  501  0.00000000000E+00  0.00000000000E+00 -0.17861475827E+04  0.17861475827E+04  0.50400001928E-02 0.  1.
    10030    2    1    2    0    0  0.00000000000E+00  0.00000000000E+00 -0.14569723349E+03  0.34265979319E+04  0.34234990439E+04 0.  0.
        1    1    3    3  502    0  0.64434733954E+03  0.15839650074E+04 -0.15010518795E+03  0.17165838768E+04  0.50400001928E-02 0. -1.
       -1    1    3    3    0  502 -0.64434733954E+03 -0.15839650074E+04  0.44079544616E+01  0.17100140551E+04  0.50400001928E-02 0.  1.
</event>
<event>
 5   0  0.7378896E-07  0.3268766E+04  0.7818609E-02  0.8170889E-01
        1   -1    0    0  501    0  0.00000000000E+00  0.00000000000E+00  0.14970752292E+04  0.14970752292E+04  0.50400001928E-02 0. -1.
       -1   -1    0    0    0  501  0.00000000000E+00  0.00000000000E+00 -0.17842839589E+04  0.17842839589E+04  0.50400001928E-02 0.  1.
    10030    2    1    2    0    0  0.00000000000E+00  0.00000000000E+00 -0.28720872968E+03  0.32813591881E+04  0.32687657100E+04 0.  0.
        2    1    3    3  502    0 -0.12852183343E+04 -0.99681926167E+03 -0.30476105287E+03  0.16547852146E+04  0.25500000920E-02 0.  1.
       -2    1    3    3    0  502  0.12852183343E+04  0.99681926167E+03  0.17552323193E+02  0.16265739735E+04  0.25500000920E-02 0. -1.
</event>
<event>
 5   0  0.2073287E-06  0.3508131E+04  0.7818609E-02  0.8111866E-01
        2   -1    0    0  501    0  0.00000000000E+00  0.00000000000E+00  0.17279717487E+04  0.17279717487E+04  0.25500000920E-02 0. -1.
       -2   -1    0    0    0  501  0.00000000000E+00  0.00000000000E+00 -0.17805537830E+04  0.17805537830E+04  0.25500000920E-02 0.  1.
    10030    2    1    2    0    0  0.00000000000E+00  0.00000000000E+00 -0.52582034248E+02  0.35085255317E+04  0.35081314879E+04 0.  0.
        1    1    3    3  502    0  0.95694445219E+03  0.81619354107E+03 -0.12490615925E+04  0.17725883456E+04  0.50400001928E-02 0.  1.
       -1    1    3    3    0  502 -0.95694445219E+03 -0.81619354107E+03  0.11964795582E+04  0.17359371862E+04  0.50400001928E-02 0. -1.
</event>
<event>
 5   0  0.2073287E-06  0.3145454E+04  0.7818609E-02  0.8203373E-01
       -2   -1    0    0    0  501  0.00000000000E+00  0.00000000000E+00  0.11007288909E+04  0.11007288909E+04  0.25500000920E-02 0. -1.
        2   -1    0    0  501    0  0.00000000000E+00  0.00000000000E+00 -0.22471205414E+04  0.22471205414E+04  0.25500000920E-02 0.  1.
    10030    2    1    2    0    0  0.00000000000E+00  0.00000000000E+00 -0.11463916505E+04  0.33478494322E+04  0.31454541810E+04 0.  0.
        1    1    3    3  502    0 -0.98247888791E+03 -0.35058032053E+03 -0.18259167798E+04  0.21028893012E+04  0.50400001928E-02 0.  1.
       -1    1    3    3    0  502  0.98247888791E+03  0.35058032053E+03  0.67952512935E+03  0.12449601310E+04  0.50400001928E-02 0. -1.
</event>
<event>
 5   0  0.6630125E-07  0.3360865E+04  0.7818609E-02  0.8147579E-01
        3   -1    0    0  501    0  0.00000000000E+00  0.00000000000E+00  0.97275922080E+03  0.97275922604E+03  0.10100000352E+00 0. -1.
       -3   -1    0    0    0  501  0.00000000000E+00  0.00000000000E+00 -0.29029313004E+04  0.29029313021E+04  0.10100000352E+00 0.  1.
    10030    2    1    2    0    0  0.00000000000E+00  0.00000000000E+00 -0.19301720796E+04  0.38756905282E+04  0.33608648907E+04 0.  0.
        4    1    3    3  502    0  0.47050051869E+03  0.14505284946E+04 -0.17792426249E+04  0.23433116700E+04  0.12699999809E+01 0.  1.
       -4    1    3    3    0  502 -0.47050051869E+03 -0.14505284946E+04 -0.15092945471E+03  0.15323788582E+04  0.12699999809E+01 0. -1.
</event>
<event>
 5   0  0.6630125E-07  0.2915834E+04  0.7818609E-02  0.8268182E-01
        1   -1    0    0  501    0  0.00000000000E+00  0.00000000000E+00  0.15478129399E+04  0.15478129399E+04  0.50400001928E-02 0.  1.
       -1   -1    0    0    0  501  0.00000000000E+00  0.00000000000E+00 -0.13732419840E+04  0.13732419840E+04  0.50400001928E-02 0. -1.
    10030    2    1    2    0    0  0.00000000000E+00  0.00000000000E+00  0.17457095587E+03  0.29210549239E+04  0.29158338172E+04 0.  0.
        4    1    3    3  502    0  0.84871705226E+03 -0.18166274407E+03  0.12607916097E+04  0.15306596890E+04  0.12699999809E+01 0.  1.
       -4    1    3    3    0  502 -0.84871705226E+03  0.18166274407E+03 -0.10862206539E+04  0.13903952349E+04  0.12699999809E+01 0. -1.
</event>
<event>
 5   0  0.2023479E-06  0.3486213E+04  0.7818609E-02  0.8117065E-01
       -2   -1    0    0    0  501  0.00000000000E+00  0.00000000000E+00  0.96881857536E+03  0.96881857537E+03  0.25500000920E-02 0.  1.
        2   -1    0    0  501    0  0.00000000000E+00  0.00000000000E+00 -0.31362123253E+04  0.31362123253E+04  0.25500000920E-02 0. -1.
    10030    2    1    2    0    0  0.00000000000E+00  0.00000000000E+00 -0.21673937499E+04  0.41050309006E+04  0.34862132792E+04 0.  0.
        5    1    3    3  502    0 -0.14306183476E+04 -0.85887525563E+03 -0.16772140341E+04  0.23658834644E+04  0.46999998093E+01 0.  1.
       -5    1    3    3    0  502  0.14306183476E+04  0.85887525563E+03 -0.49017971583E+03  0.17391474362E+04  0.46999998093E+01 0. -1.
</event>
<event>
 5   0  0.6630125E-07  0.3504959E+04  0.7818609E-02  0.8112616E-01
       -1   -1    0    0    0  501  0.00000000000E+00  0.00000000000E+00  0.11636610645E+04  0.11636610645E+04  0.50400001928E-02 0. -1.
        1   -1    0    0  501    0  0.00000000000E+00  0.00000000000E+00 -0.26392424261E+04  0.26392424261E+04  0.50400001928E-02 0.  1.
    10030    2    1    2    0    0  0.00000000000E+00  0.00000000000E+00 -0.14755813616E+04  0.38029034906E+04  0.35049585738E+04 0.  0.
        5    1    3    3  502    0 -0.32766812787E+03  0.17214738216E+04 -0.75729186043E+03  0.19090184841E+04  0.46999998093E+01 0.  1.
       -5    1    3    3    0  502  0.32766812787E+03 -0.17214738216E+04 -0.71828950119E+03  0.18938850066E+04  0.46999998093E+01 0. -1.
</event>
<event>
 5   0  0.7378896E-07  0.3326262E+04  0.7818609E-02  0.8156245E-01
       -1   -1    0    0    0  501  0.00000000000E+00  0.00000000000E+00  0.19937136953E+04  0.19937136953E+04  0.50400001928E-02 0.  1.
        1   -1    0    0  501    0  0.00000000000E+00  0.00000000000E+00 -0.13873627541E+04  0.13873627541E+04  0.50400001928E-02 0. -1.
    10030    2    1    2    0    0  0.00000000000E+00  0.00000000000E+00  0.60635094120E+03  0.33810764493E+04  0.33262616392E+04 0.  0.
        2    1    3    3  502    0  0.52930032113E+03 -0.81382635094E+03  0.16758111187E+04  0.19367021105E+04  0.25500000920E-02 0.  1.
       -2    1    3    3    0  502 -0.52930032113E+03  0.81382635094E+03 -0.10694601775E+04  0.14443743388E+04  0.25500000920E-02 0. -1.
</event>
<event>
 5   0  0.2023479E-06  0.3530487E+04  0.7818609E-02  0.8106603E-01
       -2   -1    0    0    0  501  0.00000000000E+00  0.00000000000E+00  0.24692634841E+04  0.24692634841E+04  0.25500000920E-02 0. -1.
        2   -1    0    0  501    0  0.00000000000E+00  0.00000000000E+00 -0.12619489283E+04  0.12619489283E+04  0.25500000920E-02 0.  1.
    10030    2    1    2    0    0  0.00000000000E+00  0.00000000000E+00  0.12073145558E+04  0.37312124124E+04  0.35304868828E+04 0.  0.
        5    1    3    3  502    0 -0.67598895430E+03 -0.85095159733E+03  0.20737810716E+04  0.23412965874E+04  0.46999998093E+01 0. -1.
       -5    1    3    3    0  502  0.67598895430E+03  0.85095159733E+03 -0.86646651581E+03  0.13899158249E+04  0.46999998093E+01 0.  1.
</event>
<event>
 5   0  0.2073287E-06  0.3572336E+04  0.7818609E-02  0.8096858E-01
        2   -1    0    0  501    0  0.00000000000E+00  0.00000000000E+00  0.19716231206E+04  0.19716231206E+04  0.25500000920E-02 0. -1.
       -2   -1    0    0    0  501  0.00000000000E+00  0.00000000000E+00 -0.16181571082E+04  0.16181571082E+04  0.25500000920E-02 0.  1.
    10030    2    1    2    0    0  0.00000000000E+00  0.00000000000E+00  0.35346601239E+03  0.35897802288E+04  0.35723359121E+04 0.  0.
        1    1    3    3  502    0 -0.46107834573E+03 -0.14043482520E+04 -0.83096427234E+03  0.16956676785E+04  0.50400001928E-02 0.  1.
       -1    1    3    3    0  502  0.46107834573E+03  0.14043482520E+04  0.11844302847E+04  0.18941125503E+04  0.50400001928E-02 0. -1.
</event>
<event>
 5   0  0.7378896E-07  0.3532929E+04  0.7818609E-02  0.8106030E-01
        1   -1    0    0  501    0  0.00000000000E+00  0.00000000000E+00  0.33722233466E+04  0.33722233466E+04  0.50400001928E-02 0.  1.
       -1   -1    0    0    0  501  0.00000000000E+00  0.00000000000E+00 -0.92532331928E+03  0.92532331929E+03  0.50400001928E-02 0. -1.
    10030    2    1    2    0    0  0.00000000000E+00  0.00000000000E+00  0.24469000273E+04  0.42975466659E+04  0.35329290400E+04 0.  0.
        2    1    3    3  502    0  0.23546435284E+03 -0.48669092637E+03 -0.82220288271E+03  0.98403714341E+03  0.25500000920E-02 0. -1.
       -2    1    3    3    0  502 -0.23546435284E+03  0.48669092637E+03  0.32691029100E+04  0.33135095225E+04  0.25500000920E-02 0.  1.
</event>
<event>
 5   0  0.6630125E-07  0.3497117E+04  0.7818609E-02  0.8114473E-01
        1   -1    0    0  501    0  0.00000000000E+00  0.00000000000E+00  0.18560085910E+04  0.18560085910E+04  0.50400001928E-02 0.  1.
       -1   -1    0    0    0  501  0.00000000000E+00  0.00000000000E+00 -0.16473292513E+04  0.16473292513E+04  0.50400001928E-02 0. -1.
    10030    2    1    2    0    0  0.00000000000E+00  0.00000000000E+00  0.20867933973E+03  0.35033378423E+04  0.34971172371E+04 0.  0.
        5    1    3    3  502    0 -0.14021260230E+04  0.10147692779E+04  0.35321886308E+03  0.17664936249E+04  0.46999998093E+01 0. -1.
       -5    1    3    3    0  502  0.14021260230E+04 -0.10147692779E+04 -0.14453952335E+03  0.17368442174E+04  0.46999998093E+01 0.  1.
</event>
<event>
 5   0  0.6890600E-07  0.3610830E+04  0.7818609E-02  0.8088015E-01
        1   -1    0    0  501    0  0.00000000000E+00  0.00000000000E+00  0.19054621661E+04  0.19054621661E+04  0.50400001928E-02 0. -1.
       -1   -1    0    0    0  501  0.00000000000E+00  0.00000000000E+00 -0.17106210362E+04  0.17106210362E+04  0.50400001928E-02 0.  1.
    10030    2    1    2    0    0  0.00000000000E+00  0.00000000000E+00  0.19484112996E+03  0.36160832023E+04  0.36108301899E+04 0.  0.
        3    1    3    3  502    0  0.86833860023E+03 -0.12572702347E+04  0.10604761095E+04  0.18599327829E+04  0.10100000352E+00 0. -1.
       -3    1    3    3    0  502 -0.86833860023E+03  0.12572702347E+04 -0.86563497951E+03  0.17561504195E+04  0.10100000352E+00 0.  1.
</event>
<event>
 5   0  0.6890600E-07  0.2985343E+04  0.7818609E-02  0.8247929E-01
       -1   -1    0    0    0  501  0.00000000000E+00  0.00000000000E+00  0.19781383363E+04  0.19781383363E+04  0.50400001928E-02 0.  1.
        1   -1    0    0  501    0  0.00000000000E+00  0.00000000000E+00 -0.11263456421E+04  0.11263456421E+04  0.50400001928E-02 0. -1.
    10030    2    1    2    0    0  0.00000000000E+00  0.00000000000E+00  0.85179269417E+03  0.31044839784E+04  0.29853425228E+04 0.  0.
        3    1    3    3  502    0  0.65642411867E+03 -0.13362044507E+04  0.31325676446E+03  0.15213365073E+04  0.10100000352E+00 0. -1.
       -3    1    3    3    0  502 -0.65642411867E+03  0.13362044507E+04  0.53853592971E+03  0.15831474712E+04  0.10100000352E+00 0.  1.
</event>
<event>
 5   0  0.6630125E-07  0.3462876E+04  0.7818609E-02  0.8122645E-01
        1   -1    0    0  501    0  0.00000000000E+00  0.00000000000E+00  0.33370040309E+04  0.33370040309E+04  0.50400001928E-02 0. -1.
       -1   -1    0    0    0  501  0.00000000000E+00  0.00000000000E+00 -0.89837384431E+03  0.89837384432E+03  0.50400001928E-02 0.  1.
    10030    2    1    2    0    0  0.00000000000E+00  0.00000000000E+00  0.24386301866E+04  0.42353778752E+04  0.34628757643E+04 0.  0.
        5    1    3    3  502    0  0.29465470619E+03  0.21367440767E+03 -0.85104615650E+03  0.92562400513E+03  0.46999998093E+01 0.  1.
       -5    1    3    3    0  502 -0.29465470619E+03 -0.21367440767E+03  0.32896763431E+04  0.33097538701E+04  0.46999998093E+01 0. -1.
</event>
<event>
 5   0  0.6630125E-07  0.2462063E+04  0.7818609E-02  0.8416627E-01
       -1   -1    0    0    0  501  0.00000000000E+00  0.00000000000E+00  0.14859154951E+04  0.14859154951E+04  0.50400001928E-02 0. -1.
        1   -1    0    0  501    0  0.00000000000E+00  0.00000000000E+00 -0.10198686567E+04  0.10198686567E+04  0.50400001928E-02 0.  1.
    10030    2    1    2    0    0  0.00000000000E+00  0.00000000000E+00  0.46604683835E+03  0.25057841518E+04  0.24620630698E+04 0.  0.
        4    1    3    3  502    0  0.11992102013E+04  0.27312106921E+03  0.28626686493E+03  0.12627947403E+04  0.12699999809E+01 0.  1.
       -4    1    3    3    0  502 -0.11992102013E+04 -0.27312106921E+03  0.17977997342E+03  0.12429894115E+04  0.12699999809E+01 0. -1.
</event>
<event>
 5   0  0.6630125E-07  0.3472697E+04  0.7818609E-02  0.8120291E-01
       -1   -1    0    0    0  501  0.00000000000E+00  0.00000000000E+00  0.21519545324E+04  0.21519545324E+04  0.50400001928E-02 0.  1.
        1   -1    0    0  501    0  0.00000000000E+00  0.00000000000E+00 -0.14010086767E+04  0.14010086767E+04  0.50400001928E-02 0. -1.
    10030    2    1    2    0    0  0.00000000000E+00  0.00000000000E+00  0.75094585571E+03  0.35529632091E+04  0.34726974943E+04 0.  0.
        5    1    3    3  502    0  0.25670506625E+03 -0.59181860718E+03  0.20247932713E+04  0.21250780306E+04  0.46999998093E+01 0.  1.
       -5    1    3    3    0  502 -0.25670506625E+03  0.59181860718E+03 -0.12738474156E+04  0.14278851785E+04  0.46999998093E+01 0. -1.
</event>
<event>
 5   0  0.1999883E-06  0.3501850E+04  0.7818609E-02  0.8113352E-01
       -2   -1    0    0    0  501  0.00000000000E+00  0.00000000000E+00  0.10771979400E+04  0.10771979400E+04  0.25500000920E-02 0. -1.
        2   -1    0    0  501    0  0.00000000000E+00  0.00000000000E+00 -0.28460308542E+04  0.28460308542E+04  0.25500000920E-02 0.  1.
    10030    2    1    2    0    0  0.00000000000E+00  0.00000000000E+00 -0.17688329142E+04  0.39232287943E+04  0.35018501244E+04 0.  0.
        4    1    3    3  502    0  0.16042386320E+04  0.23513522820E+03 -0.16249088480E+04  0.22954739252E+04  0.12699999809E+01 0.  1.
       -4    1    3    3    0  502 -0.16042386320E+04 -0.23513522820E+03 -0.14392406613E+03  0.16277548690E+04  0.12699999809E+01 0. -1.
</event>
<event>
 5   0  0.6630125E-07  0.3505209E+04  0.7818609E-02  0.8112557E-01
       -1   -1    0    0    0  501  0.00000000000E+00  0.00000000000E+00  0.18493199110E+04  0.18493199110E+04  0.50400001928E-02 0.  1.
        1   -1    0    0  501    0  0.00000000000E+00  0.00000000000E+00 -0.16609474047E+04  0.16609474047E+04  0.50400001928E-02 0. -1.
    10030    2    1    2    0    0  0.00000000000E+00  0.00000000000E+00  0.18837250628E+03  0.35102673156E+04  0.35052093270E+04 0.  0.
        5    1    3    3  502    0 -0.77549492786E+03  0.35699829991E+03 -0.14386304010E+04  0.16728776674E+04  0.46999998093E+01 0. -1.
       -5    1    3    3    0  502  0.77549492786E+03 -0.35699829991E+03  0.16270029073E+04  0.18373896483E+04  0.46999998093E+01 0.  1.
</event>
<event>
 5   0  0.2020725E-06  0.2468218E+04  0.7818609E-02  0.8414396E-01
        2   -1    0    0  501    0  0.00000000000E+00  0.00000000000E+00  0.20747082330E+04  0.20747082330E+04  0.25500000920E-02 0. -1.
       -2   -1    0    0    0  501  0.00000000000E+00  0.00000000000E+00 -0.73409094054E+03  0.73409094055E+03  0.25500000920E-02 0.  1.
    10030    2    1    2    0    0  0.00000000000E+00  0.00000000000E+00  0.13406172924E+04  0.28087991735E+04  0.24682175902E+04 0.  0.
        3    1    3    3  502    0 -0.63067854177E+03 -0.38269177726E+03 -0.45556018228E+03  0.86703143502E+03  0.10100000352E+00 0.  1.
       -3    1    3    3    0  502  0.63067854177E+03  0.38269177726E+03  0.17961774747E+04  0.19417677385E+04  0.10100000352E+00 0. -1.
</event>
<event>
 5   0  0.2020725E-06  0.3409342E+04  0.7818609E-02  0.8135617E-01
       -2   -1    0    0    0  501  0.00000000000E+00  0.00000000000E+00  0.12041012529E+04  0.12041012529E+04  0.25500000920E-02 0.  1.
        2   -1    0    0  501    0  0.00000000000E+00  0.00000000000E+00 -0.24133378051E+04  0.24133378051E+04  0.25500000920E-02 0. -1.
    10030    2    1    2    0    0  0.00000000000E+00  0.00000000000E+00 -0.12092365522E+04  0.36174390581E+04  0.34093419159E+04 0.  0.
        3    1    3    3  502    0 -0.16978814538E+04 -0.36392571676E+02 -0.76119666755E+03  0.18610605115E+04  0.10100000352E+00 0. -1.
       -3    1    3    3    0  502  0.16978814538E+04  0.36392571676E+02 -0.44803988465E+03  0.17563785466E+04  0.10100000352E+00 0.  1.
</event>
<event>
 5   0  0.2023479E-06  0.3544168E+04  0.7818609E-02  0.8103402E-01
        2   -1    0    0  501    0  0.00000000000E+00  0.00000000000E+00  0.20343907513E+04  0.20343907513E+04  0.25500000920E-02 0.  1.
       -2   -1    0    0    0  501  0.00000000000E+00  0.00000000000E+00 -0.15435982762E+04  0.15435982762E+04  0.25500000920E-02 0. -1.
    10030    2    1    2    0    0  0.00000000000E+00  0.00000000000E+00  0.49079247504E+03  0.35779890275E+04  0.35441681997E+04 0.  0.
        5    1    3    3  502    0 -0.37873546616E+03 -0.16326123213E+04  0.82656008118E+03  0.18687127127E+04  0.46999998093E+01 0. -1.
       -5    1    3    3    0  502  0.37873546616E+03  0.16326123213E+04 -0.33576760614E+03  0.17092763148E+04  0.46999998093E+01 0.  1.
</event>
<event>
 5   0  0.2023479E-06  0.3439375E+04  0.7818609E-02  0.8128310E-01
       -2   -1    0    0    0  501  0.00000000000E+00  0.00000000000E+00  0.13096051316E+04  0.13096051316E+04  0.25500000920E-02 0. -1.
        2   -1    0    0  501    0  0.00000000000E+00  0.00000000000E+00 -0.22581805943E+04  0.22581805943E+04  0.25500000920E-02 0.  1.
    10030    2    1    2    0    0  0.00000000000E+00  0.00000000000E+00 -0.94857546271E+03  0.35677857259E+04  0.34393748818E+04 0.  0.
        5    1    3    3  502    0 -0.11143549467E+04  0.18980966099E+02 -0.18328232851E+04  0.21450898603E+04  0.46999998093E+01 0.  1.
       -5    1    3    3    0  502  0.11143549467E+04 -0.18980966099E+02  0.88424782241E+03  0.14226958655E+04  0.46999998093E+01 0. -1.
</event>
<event>
 5   0  0.6630125E-07  0.3505542E+04  0.7818609E-02  0.8112478E-01
        1   -1    0    0  501    0  0.00000000000E+00  0.00000000000E+00  0.21453934703E+04  0.21453934703E+04  0.50400001928E-02 0.  1.
       -1   -1    0    0    0  501  0.00000000000E+00  0.00000000000E+00 -0.14320016260E+04  0.14320016260E+04  0.50400001928E-02 0. -1.
    10030    2    1    2    0    0  0.00000000000E+00  0.00000000000E+00  0.71339184434E+03  0.35773950963E+04  0.35055424333E+04 0.  0.
        5    1    3    3  502    0  0.11296786059E+04 -0.55507050888E+03  0.16014962466E+04  0.20369313539E+04  0.46999998093E+01 0.  1.
       -5    1    3    3    0  502 -0.11296786059E+04  0.55507050888E+03 -0.88810440223E+03  0.15404637424E+04  0.46999998093E+01 0. -1.
</event>
<event>
 5   0  0.7378896E-07  0.3434001E+04  0.7818609E-02  0.8129611E-01
       -1   -1    0    0    0  501  0.00000000000E+00  0.00000000000E+00  0.28789330861E+04  0.28789330861E+04  0.50400001928E-02 0. -1.
        1   -1    0    0  501    0  0.00000000000E+00  0.00000000000E+00 -0.10240222612E+04  0.10240222612E+04  0.50400001928E-02 0.  1.
    10030    2    1    2    0    0  0.00000000000E+00  0.00000000000E+00  0.18549108249E+04  0.39029553473E+04  0.34340014961E+04 0.  0.
        2    1    3    3  502    0  0.67253190827E+02 -0.97932399532E+03  0.25285533499E+04  0.27124123069E+04  0.25500000920E-02 0. -1.
       -2    1    3    3    0  502 -0.67253190827E+02  0.97932399532E+03 -0.67364252502E+03  0.11905430404E+04  0.25500000920E-02 0.  1.
</event>
<event>
 5   0  0.2023479E-06  0.3518018E+04  0.7818609E-02  0.8109533E-01
        2   -1    0    0  501    0  0.00000000000E+00  0.00000000000E+00  0.24815687490E+04  0.24815687490E+04  0.25500000920E-02 0.  1.
       -2   -1    0    0    0  501  0.00000000000E+00  0.00000000000E+00 -0.12468377103E+04  0.12468377103E+04  0.25500000920E-02 0. -1.
    10030    2    1    2    0    0  0.00000000000E+00  0.00000000000E+00  0.12347310388E+04  0.37284064593E+04  0.35180184746E+04 0.  0.
        5    1    3    3  502    0 -0.17438016335E+04 -0.61198407038E+02  0.38156941949E+03  0.17861149722E+04  0.46999998093E+01 0. -1.
       -5    1    3    3    0  502  0.17438016335E+04  0.61198407038E+02  0.85316161926E+03  0.19422914871E+04  0.46999998093E+01 0.  1.
</event>
<event>
 5   0  0.2073287E-06  0.3298386E+04  0.7818609E-02  0.8163306E-01
       -2   -1    0    0    0  501  0.00000000000E+00  0.00000000000E+00  0.10133620229E+04  0.10133620229E+04  0.25500000920E-02 0.  1.
        2   -1    0    0  501    0  0.00000000000E+00  0.00000000000E+00 -0.26839738763E+04  0.26839738763E+04  0.25500000920E-02 0. -1.
    10030    2    1    2    0    0  0.00000000000E+00  0.00000000000E+00 -0.16706118534E+04  0.36973358992E+04  0.32983857850E+04 0.  0.
        1    1    3    3  502    0  0.15771502606E+03  0.54823746785E+03  0.89923960574E+03  0.10649273305E+04  0.50400001928E-02 0.  1.
       -1    1    3    3    0  502 -0.15771502606E+03 -0.54823746785E+03 -0.25698514592E+04  0.26324085688E+04  0.50400001928E-02 0. -1.
</event>
<event>
 5   0  0.7378896E-07  0.3429682E+04  0.7818609E-02  0.8130660E-01
       -1   -1    0    0    0  501  0.00000000000E+00  0.00000000000E+00  0.12909268233E+04  0.12909268233E+04  0.50400001928E-02 0.  1.
        1   -1    0    0  501    0  0.00000000000E+00  0.00000000000E+00 -0.22779600978E+04  0.22779600978E+04  0.50400001928E-02 0. -1.
    10030    2    1    2    0    0  0.00000000000E+00  0.00000000000E+00 -0.98703327456E+03  0.35688869211E+04  0.34296820801E+04 0.  0.
        2    1    3    3  502    0  0.12509928011E+03  0.29843978992E+03 -0.22459005345E+04  0.22690935082E+04  0.25500000920E-02 0. -1.
       -2    1    3    3    0  502 -0.12509928011E+03 -0.29843978992E+03  0.12588672599E+04  0.12997934129E+04  0.25500000920E-02 0.  1.
</event>
<event>
 5   0  0.2073287E-06  0.3530441E+04  0.7818609E-02  0.8106613E-01
       -2   -1    0    0    0  501  0.00000000000E+00  0.00000000000E+00  0.24618567450E+04  0.24618567450E+04  0.25500000920E-02 0. -1.
        2   -1    0    0  501    0  0.00000000000E+00  0.00000000000E+00 -0.12657129822E+04  0.12657129822E+04  0.25500000920E-02 0.  1.
    10030    2    1    2    0    0  0.00000000000E+00  0.00000000000E+00  0.11961437628E+04  0.37275697273E+04  0.35304413563E+04 0.  0.
        1    1    3    3  502    0 -0.45738347505E+03 -0.77417270911E+03  0.22019226639E+04  0.23784462249E+04  0.50400001928E-02 0. -1.
       -1    1    3    3    0  502  0.45738347505E+03  0.77417270911E+03 -0.10057789011E+04  0.13491235024E+04  0.50400001928E-02 0.  1.
</event>
<event>
 5   0  0.6630125E-07  0.3524202E+04  0.7818609E-02  0.8108078E-01
       -1   -1    0    0    0  501  0.00000000000E+00  0.00000000000E+00  0.96067599457E+03  0.96067599458E+03  0.50400001928E-02 0. -1.
        1   -1    0    0  501    0  0.00000000000E+00  0.00000000000E+00 -0.32320988124E+04  0.32320988125E+04  0.50400001928E-02 0.  1.
    10030    2    1    2    0    0  0.00000000000E+00  0.00000000000E+00 -0.22714228179E+04  0.41927748070E+04  0.35242018905E+04 0.  0.
        4    1    3    3  502    0  0.59345808846E+03 -0.44663121534E+03 -0.30367630163E+04  0.31262762475E+04  0.12699999809E+01 0.  1.
       -4    1    3    3    0  502 -0.59345808846E+03  0.44663121534E+03  0.76534019845E+03  0.10664985596E+04  0.12699999809E+01 0. -1.
</event>
<event>
 5   0  0.2020725E-06  0.3359224E+04  0.7818609E-02  0.8147987E-01
       -2   -1    0    0    0  501  0.00000000000E+00  0.00000000000E+00  0.90601027261E+03  0.90601027262E+03  0.25500000920E-02 0. -1.
        2   -1    0    0  501    0  0.00000000000E+00  0.00000000000E+00 -0.31137585991E+04  0.31137585991E+04  0.25500000920E-02 0.  1.
    10030    2    1    2    0    0  0.00000000000E+00  0.00000000000E+00 -0.22077483265E+04  0.40197688717E+04  0.33592244803E+04 0.  0.
        3    1    3    3  502    0  0.38833350102E+03  0.11004816951E+04 -0.25493957629E+04  0.28037977165E+04  0.10100000352E+00 0.  1.
       -3    1    3    3    0  502 -0.38833350102E+03 -0.11004816951E+04  0.34164743638E+03  0.12159711552E+04  0.10100000352E+00 0. -1.
</event>
<event>
 5   0  0.6630125E-07  0.3512560E+04  0.7818609E-02  0.8110820E-01
        1   -1    0    0  501    0  0.00000000000E+00  0.00000000000E+00  0.13073562929E+04  0.13073562930E+04  0.50400001928E-02 0. -1.
       -1   -1    0    0    0  501  0.00000000000E+00  0.00000000000E+00 -0.23593564514E+04  0.23593564514E+04  0.50400001928E-02 0.  1.
    10030    2    1    2    0    0  0.00000000000E+00  0.00000000000E+00 -0.10520001584E+04  0.36667127443E+04  0.35125600374E+04 0.  0.
        4    1    3    3  502    0 -0.16123962091E+04 -0.16038707047E+03 -0.12332068184E+04  0.20362578956E+04  0.12699999809E+01 0.  1.
       -4    1    3    3    0  502  0.16123962091E+04  0.16038707047E+03  0.18120665992E+03  0.16304548488E+04  0.12699999809E+01 0. -1.
</event>
<event>
 5   0  0.2020725E-06  0.3471488E+04  0.7818609E-02  0.8120580E-01
        2   -1    0    0  501    0  0.00000000000E+00  0.00000000000E+00  0.19625803465E+04  0.19625803465E+04  0.25500000920E-02 0. -1.
       -2   -1    0    0    0  501  0.00000000000E+00  0.00000000000E+00 -0.15351256128E+04  0.15351256128E+04  0.25500000920E-02 0.  1.
    10030    2    1    2    0    0  0.00000000000E+00  0.00000000000E+00  0.42745473367E+03  0.34977059593E+04  0.34714880712E+04 0.  0.
        3    1    3    3  502    0 -0.14980220681E+04 -0.66646139876E+03  0.78773731854E+03  0.18190027504E+04  0.10100000352E+00 0.  1.
       -3    1    3    3    0  502  0.14980220681E+04  0.66646139876E+03 -0.36028258488E+03  0.16787032089E+04  0.10100000352E+00 0. -1.
</event>
<event>
 5   0  0.1999883E-06  0.3424707E+04  0.7818609E-02  0.8131869E-01
       -2   -1    0    0    0  501  0.00000000000E+00  0.00000000000E+00  0.15836414166E+04  0.15836414166E+04  0.25500000920E-02 0. -1.
        2   -1    0    0  501    0  0.00000000000E+00  0.00000000000E+00 -0.18515271118E+04  0.18515271118E+04  0.25500000920E-02 0.  1.
    10030    2    1    2    0    0  0.00000000000E+00  0.00000000000E+00 -0.26788569518E+03  0.34351685284E+04  0.34247072974E+04 0.  0.
        4    1    3    3  502    0  0.55348825659E+02  0.37597494452E+03  0.15408078139E+04  0.15869817213E+04  0.12699999809E+01 0. -1.
       -4    1    3    3    0  502 -0.55348825659E+02 -0.37597494452E+03 -0.18086935091E+04  0.18481868071E+04  0.12699999809E+01 0.  1.
</event>
<event>
 5   0  0.2001768E-06  0.3470186E+04  0.7818609E-02  0.8120892E-01
       -2   -1    0    0    0  501  0.00000000000E+00  0.00000000000E+00  0.12538680517E+04  0.12538680517E+04  0.25500000920E-02 0.  1.
        2   -1    0    0  501    0  0.00000000000E+00  0.00000000000E+00 -0.24010087930E+04  0.24010087930E+04  0.25500000920E-02 0. -1.
    10030    2    1    2    0    0  0.00000000000E+00  0.00000000000E+00 -0.11471407413E+04  0.36548768447E+04  0.34701862875E+04 0.  0.
        2    1    3    3  502    0  0.16846360305E+04 -0.38985724881E+03 -0.72459297141E+03  0.18748392475E+04  0.25500000920E-02 0.  1.
       -2    1    3    3    0  502 -0.16846360305E+04  0.38985724881E+03 -0.42254776984E+03  0.17800375972E+04  0.25500000920E-02 0. -1.
</event>
<event>
 5   0  0.2001768E-06  0.3361348E+04  0.7818609E-02  0.8147458E-01
        2   -1    0    0  501    0  0.00000000000E+00  0.00000000000E+00  0.11327836363E+04  0.11327836363E+04  0.25500000920E-02 0. -1.
       -2   -1    0    0    0  501  0.00000000000E+00  0.00000000000E+00 -0.24935610364E+04  0.24935610364E+04  0.25500000920E-02 0.  1.
    10030    2    1    2    0    0  0.00000000000E+00  0.00000000000E+00 -0.13607774001E+04  0.36263446728E+04  0.33613480262E+04 0.  0.
        2    1    3    3  502    0 -0.72169227173E+03 -0.54707458503E+03  0.84704511059E+03  0.12400063532E+04  0.25500000920E-02 0. -1.
       -2    1    3    3    0  502  0.72169227173E+03  0.54707458503E+03 -0.22078225107E+04  0.23863383195E+04  0.25500000920E-02 0.  1.
</event>
<event>
 5   0  0.6630125E-07  0.3490507E+04  0.7818609E-02  0.8116043E-01
       -1   -1    0    0    0  501  0.00000000000E+00  0.00000000000E+00  0.16814835934E+04  0.16814835934E+04  0.50400001928E-02 0. -1.
        1   -1    0    0  501    0  0.00000000000E+00  0.00000000000E+00 -0.18114422035E+04  0.18114422035E+04  0.50400001928E-02 0.  1.
    10030    2    1    2    0    0  0.00000000000E+00  0.00000000000E+00 -0.12995861007E+03  0.34929257969E+04  0.34905073245E+04 0.  0.
        4    1    3    3  502    0  0.11356318191E+04 -0.13190677748E+04 -0.19277569718E+03  0.17512177208E+04  0.12699999809E+01 0.  1.
       -4    1    3    3    0  502 -0.11356318191E+04  0.13190677748E+04  0.62817087106E+02  0.17417080761E+04  0.12699999809E+01 0. -1.
</event>
<event>
 5   0  0.2001768E-06  0.3473807E+04  0.7818609E-02  0.8120026E-01
       -2   -1    0    0    0  501  0.00000000000E+00  0.00000000000E+00  0.14481631886E+04  0.14481631886E+04  0.25500000920E-02 0. -1.
        2   -1    0    0  501    0  0.00000000000E+00  0.00000000000E+00 -0.20832135435E+04  0.20832135435E+04  0.25500000920E-02 0.  1.
    10030    2    1    2    0    0  0.00000000000E+00  0.00000000000E+00 -0.63505035497E+03  0.35313767321E+04  0.34738066542E+04 0.  0.
        2    1    3    3  502    0  0.49958248187E+03 -0.15573242986E+04  0.27696692575E+03  0.16587803667E+04  0.25500000920E-02 0. -1.
       -2    1    3    3    0  502 -0.49958248187E+03  0.15573242986E+04 -0.91201728072E+03  0.18725963653E+04  0.25500000920E-02 0.  1.
</event>
<event>
 5   0  0.2023479E-06  0.2381629E+04  0.7818609E-02  0.8446414E-01
        2   -1    0    0  501    0  0.00000000000E+00  0.00000000000E+00  0.15015928412E+04  0.15015928412E+04  0.25500000920E-02 0.  1.
       -2   -1    0    0    0  501  0.00000000000E+00  0.00000000000E+00 -0.94435642506E+03  0.94435642506E+03  0.25500000920E-02 0. -1.
    10030    2    1    2    0    0  0.00000000000E+00  0.00000000000E+00  0.55723641616E+03  0.24459492663E+04  0.23816287263E+04 0.  0.
        5    1    3    3  502    0 -0.29330829890E+03  0.11489823124E+04  0.39030560419E+03  0.12484192673E+04  0.46999998093E+01 0.  1.
       -5    1    3    3    0  502  0.29330829890E+03 -0.11489823124E+04  0.16693081197E+03  0.11975299989E+04  0.46999998093E+01 0. -1.
</event>
<event>
 5   0  0.2023479E-06  0.2327939E+04  0.7818609E-02  0.8466986E-01
       -2   -1    0    0    0  501  0.00000000000E+00  0.00000000000E+00  0.12423416121E+04  0.12423416121E+04  0.25500000920E-02 0.  1.
        2   -1    0    0  501    0  0.00000000000E+00  0.00000000000E+00 -0.10905410498E+04  0.10905410498E+04  0.25500000920E-02 0. -1.
    10030    2    1    2    0    0  0.00000000000E+00  0.00000000000E+00  0.15180056228E+03  0.23328826619E+04  0.23279385953E+04 0.  0.
        5    1    3    3  502    0 -0.65419584365E+03  0.39530989686E+03 -0.80377967256E+03  0.11092005988E+04  0.46999998093E+01 0. -1.
       -5    1    3    3    0  502  0.65419584365E+03 -0.39530989686E+03  0.95558023484E+03  0.12236820631E+04  0.46999998093E+01 0.  1.
</event>
<event>
 5   0  0.2020725E-06  0.3563585E+04  0.7818609E-02  0.8098884E-01
       -2   -1    0    0    0  501  0.00000000000E+00  0.00000000000E+00  0.11493339846E+04  0.11493339846E+04  0.25500000920E-02 0.  1.
        2   -1    0    0  501    0  0.00000000000E+00  0.00000000000E+00 -0.27622821935E+04  0.27622821935E+04  0.25500000920E-02 0. -1.
    10030    2    1    2    0    0  0.00000000000E+00  0.00000000000E+00 -0.16129482089E+04  0.39116161781E+04  0.35635851611E+04 0.  0.
        3    1    3    3  502    0  0.89019467619E+03 -0.12373396971E+04  0.20631198959E+03  0.15381874837E+04  0.10100000352E+00 0.  1.
       -3    1    3    3    0  502 -0.89019467619E+03  0.12373396971E+04 -0.18192601985E+04  0.23734286945E+04  0.10100000352E+00 0. -1.
</event>
<event>
 5   0  0.6630125E-07  0.3469011E+04  0.7818609E-02  0.8121173E-01
        1   -1    0    0  501    0  0.00000000000E+00  0.00000000000E+00  0.22149168972E+04  0.22149168972E+04  0.50400001928E-02 0. -1.
       -1   -1    0    0    0  501  0.00000000000E+00  0.00000000000E+00 -0.13582943364E+04  0.13582943364E+04  0.50400001928E-02 0.  1.
    10030    2    1    2    0    0  0.00000000000E+00  0.00000000000E+00  0.85662256078E+03  0.35732112336E+04  0.34690108545E+04 0.  0.
        5    1    3    3  502    0 -0.12358904653E+03 -0.45359099124E+02 -0.13531341029E+04  0.13595314232E+04  0.46999998093E+01 0.  1.
       -5    1    3    3    0  502  0.12358904653E+03  0.45359099124E+02  0.22097566637E+04  0.22136798104E+04  0.46999998093E+01 0. -1.
</event>
<event>
 5   0  0.6630125E-07  0.3432301E+04  0.7818609E-02  0.8130024E-01
        1   -1    0    0  501    0  0.00000000000E+00  0.00000000000E+00  0.13002203298E+04  0.13002203298E+04  0.50400001928E-02 0.  1.
       -1   -1    0    0    0  501  0.00000000000E+00  0.00000000000E+00 -0.22651333673E+04  0.22651333673E+04  0.50400001928E-02 0. -1.
    10030    2    1    2    0    0  0.00000000000E+00  0.00000000000E+00 -0.96491303750E+03  0.35653536971E+04  0.34323009506E+04 0.  0.
        1    1    3    3  502    0  0.20993985826E+03  0.59580657353E+03 -0.21399660389E+04  0.22312585831E+04  0.50400001928E-02 0. -1.
       -1    1    3    3    0  502 -0.20993985826E+03 -0.59580657353E+03  0.11750530014E+04  0.13340951140E+04  0.50400001928E-02 0.  1.
</event>
<event>
 5   0  0.2020725E-06  0.3454945E+04  0.7818609E-02  0.8124551E-01
        2   -1    0    0  501    0  0.00000000000E+00  0.00000000000E+00  0.19951618275E+04  0.19951618275E+04  0.25500000920E-02 0.  1.
       -2   -1    0    0    0  501  0.00000000000E+00  0.00000000000E+00 -0.14956984576E+04  0.14956984577E+04  0.25500000920E-02 0. -1.
    10030    2    1    2    0    0  0.00000000000E+00  0.00000000000E+00  0.49946336990E+03  0.34908602852E+04  0.34549445542E+04 0.  0.
        3    1    3    3  502    0 -0.11607772892E+04 -0.11920573543E+04 -0.21959217288E+03  0.16782804842E+04  0.10100000352E+00 0. -1.
       -3    1    3    3    0  502  0.11607772892E+04  0.11920573543E+04  0.71905554277E+03  0.18125798010E+04  0.10100000352E+00 0.  1.
</event>
<event>
 5   0  0.7378896E-07  0.3470715E+04  0.7818609E-02  0.8120765E-01
        1   -1    0    0  501    0  0.00000000000E+00  0.00000000000E+00  0.11761569752E+04  0.11761569753E+04  0.50400001928E-02 0. -1.
       -1   -1    0    0    0  501  0.00000000000E+00  0.00000000000E+00 -0.25604283450E+04  0.25604283450E+04  0.50400001928E-02 0.  1.
    10030    2    1    2    0    0  0.00000000000E+00  0.00000000000E+00 -0.13842713697E+04  0.37365853202E+04  0.34707150027E+04 0.  0.
        2    1    3    3  502    0  0.10014464479E+04 -0.88814201210E+03  0.49690225885E+03  0.14277965810E+04  0.25500000920E-02 0. -1.
       -2    1    3    3    0  502 -0.10014464479E+04  0.88814201210E+03 -0.18811736286E+04  0.23087887393E+04  0.25500000920E-02 0.  1.
</event>
<event>
 5   0  0.1999883E-06  0.2807200E+04  0.7818609E-02  0.8301037E-01
       -2   -1    0    0    0  501  0.00000000000E+00  0.00000000000E+00  0.12388025912E+04  0.12388025912E+04  0.25500000920E-02 0. -1.
        2   -1    0    0  501    0  0.00000000000E+00  0.00000000000E+00 -0.15903204288E+04  0.15903204288E+04  0.25500000920E-02 0.  1.
    10030    2    1    2    0    0  0.00000000000E+00  0.00000000000E+00 -0.35151783763E+03  0.28291230199E+04  0.28072000769E+04 0.  0.
        4    1    3    3  502    0 -0.60036680480E+03  0.89746751596E+03 -0.10795360901E+04  0.15268556006E+04  0.12699999809E+01 0.  1.
       -4    1    3    3    0  502  0.60036680480E+03 -0.89746751596E+03  0.72801825247E+03  0.13022674193E+04  0.12699999809E+01 0. -1.
</event>
<event>
 5   0  0.6630125E-07  0.3624908E+04  0.7818609E-02  0.8084810E-01
       -1   -1    0    0    0  501  0.00000000000E+00  0.00000000000E+00  0.19323268149E+04  0.19323268149E+04  0.50400001928E-02 0.  1.
        1   -1    0    0  501    0  0.00000000000E+00  0.00000000000E+00 -0.17000176756E+04  0.17000176756E+04  0.50400001928E-02 0. -1.
    10030    2    1    2    0    0  0.00000000000E+00  0.00000000000E+00  0.23230913929E+03  0.36323444905E+04  0.36249081315E+04 0.  0.
        4    1    3    3  502    0  0.12879055059E+03 -0.12735383762E+04  0.14019475243E+04  0.18984060354E+04  0.12699999809E+01 0.  1.
       -4    1    3    3    0  502 -0.12879055059E+03  0.12735383762E+04 -0.11696383850E+04  0.17339384551E+04  0.12699999809E+01 0. -1.
</event>
<event>
 5   0  0.1999883E-06  0.3477977E+04  0.7818609E-02  0.8119029E-01
        2   -1    0    0  501    0  0.00000000000E+00  0.00000000000E+00  0.18692368842E+04  0.18692368842E+04  0.25500000920E-02 0.  1.
       -2   -1    0    0    0  501  0.00000000000E+00  0.00000000000E+00 -0.16178154746E+04  0.16178154746E+04  0.25500000920E-02 0. -1.
    10030    2    1    2    0    0  0.00000000000E+00  0.00000000000E+00  0.25142140968E+03  0.34870523588E+04  0.34779766284E+04 0.  0.
        4    1    3    3  502    0 -0.41628791016E+03 -0.70705941154E+03 -0.14115385059E+04  0.16326883359E+04  0.12699999809E+01 0. -1.
       -4    1    3    3    0  502  0.41628791016E+03  0.70705941154E+03  0.16629599156E+04  0.18543640229E+04  0.12699999809E+01 0.  1.
</event>
<event>
 5   0  0.2073287E-06  0.3619144E+04  0.7818609E-02  0.8086121E-01
        2   -1    0    0  501    0  0.00000000000E+00  0.00000000000E+00  0.19622323916E+04  0.19622323916E+04  0.25500000920E-02 0.  1.
       -2   -1    0    0    0  501  0.00000000000E+00  0.00000000000E+00 -0.16687886210E+04  0.16687886210E+04  0.25500000920E-02 0. -1.
    10030    2    1    2    0    0  0.00000000000E+00  0.00000000000E+00  0.29344377061E+03  0.36310210126E+04  0.36191441457E+04 0.  0.
        1    1    3    3  502    0 -0.31032152628E+03 -0.10783426234E+04  0.15710387415E+04  0.19306177743E+04  0.50400001928E-02 0.  1.
       -1    1    3    3    0  502  0.31032152628E+03  0.10783426234E+04 -0.12775949709E+04  0.17004032383E+04  0.50400001928E-02 0. -1.
</event>
<event>
 5   0  0.2001768E-06  0.3592841E+04  0.7818609E-02  0.8092134E-01
        2   -1    0    0  501    0  0.00000000000E+00  0.00000000000E+00  0.20442852815E+04  0.20442852815E+04  0.25500000920E-02 0. -1.
       -2   -1    0    0    0  501  0.00000000000E+00  0.00000000000E+00 -0.15786087476E+04  0.15786087476E+04  0.25500000920E-02 0.  1.
    10030    2    1    2    0    0  0.00000000000E+00  0.00000000000E+00  0.46567653391E+03  0.36228940292E+04  0.35928410085E+04 0.  0.
        2    1    3    3  502    0  0.13691231169E+03 -0.75507043035E+03  0.18706939400E+04  0.20219723423E+04  0.25500000920E-02 0. -1.
       -2    1    3    3    0  502 -0.13691231169E+03  0.75507043035E+03 -0.14050174061E+04  0.16009216869E+04  0.25500000920E-02 0.  1.
</event>
<event>
 5   0  0.6890600E-07  0.3440535E+04  0.7818609E-02  0.8128029E-01
        1   -1    0    0  501    0  0.00000000000E+00  0.00000000000E+00  0.19165157191E+04  0.19165157191E+04  0.50400001928E-02 0. -1.
       -1   -1    0    0    0  501  0.00000000000E+00  0.00000000000E+00 -0.15441147360E+04  0.15441147360E+04  0.50400001928E-02 0.  1.
    10030    2    1    2    0    0  0.00000000000E+00  0.00000000000E+00  0.37240098305E+03  0.34606304551E+04  0.34405349373E+04 0.  0.
        3    1    3    3  502    0  0.36666257840E+03  0.16742373074E+04  0.33473885047E+03  0.17462995494E+04  0.10100000352E+00 0. -1.
       -3    1    3    3    0  502 -0.36666257840E+03 -0.16742373074E+04  0.37662132581E+02  0.17143309057E+04  0.10100000352E+00 0.  1.
</event>
<event>
 5   0  0.6630125E-07  0.3538545E+04  0.7818609E-02  0.8104716E-01
       -1   -1    0    0    0  501  0.00000000000E+00  0.00000000000E+00  0.14442476051E+04  0.14442476051E+04  0.50400001928E-02 0. -1.
        1   -1    0    0  501    0  0.00000000000E+00  0.00000000000E+00 -0.21674435857E+04  0.21674435857E+04  0.50400001928E-02 0.  1.
    10030    2    1    2    0    0  0.00000000000E+00  0.00000000000E+00 -0.72319598067E+03  0.36116911908E+04  0.35385450161E+04 0.  0.
        1    1    3    3  502    0 -0.11701212760E+03 -0.12042056122E+04  0.95602583259E+03  0.15420079076E+04  0.50400001928E-02 0. -1.
       -1    1    3    3    0  502  0.11701212760E+03  0.12042056122E+04 -0.16792218133E+04  0.20696832832E+04  0.50400001928E-02 0.  1.
</event>
<event>
 5   0  0.7378896E-07  0.3454048E+04  0.7818609E-02  0.8124767E-01
       -1   -1    0    0    0  501  0.00000000000E+00  0.00000000000E+00  0.16154959927E+04  0.16154959927E+04  0.50400001928E-02 0. -1.
        1   -1    0    0  501    0  0.00000000000E+00  0.00000000000E+00 -0.18462512093E+04  0.18462512093E+04  0.50400001928E-02 0.  1.
    10030    2    1    2    0    0  0.00000000000E+00  0.00000000000E+00 -0.23075521656E+03  0.34617472020E+04  0.34540477300E+04 0.  0.
        2    1    3    3  502    0  0.83883784289E+02  0.84082767317E+03  0.13941616952E+04  0.16302498268E+04  0.25500000920E-02 0. -1.
       -2    1    3    3    0  502 -0.83883784289E+02 -0.84082767317E+03 -0.16249169118E+04  0.18314973752E+04  0.25500000920E-02 0.  1.
</event>
<event>
 5   0  0.2001768E-06  0.2677577E+04  0.7818609E-02  0.8342317E-01
        2   -1    0    0  501    0  0.00000000000E+00  0.00000000000E+00  0.14463259688E+04  0.14463259688E+04  0.25500000920E-02 0.  1.
       -2   -1    0    0    0  501  0.00000000000E+00  0.00000000000E+00 -0.12392468515E+04  0.12392468515E+04  0.25500000920E-02 0. -1.
    10030    2    1    2    0    0  0.00000000000E+00  0.00000000000E+00  0.20707911730E+03  0.26855728203E+04  0.26775771907E+04 0.  0.
        2    1    3    3  502    0  0.31111980163E+03 -0.51045795536E+03  0.13050282303E+04  0.14354307844E+04  0.25500000920E-02 0.  1.
       -2    1    3    3    0  502 -0.31111980163E+03  0.51045795536E+03 -0.10979491130E+04  0.12501420359E+04  0.25500000920E-02 0. -1.
</event>
<event>
 5   0  0.2023479E-06  0.2272806E+04  0.7818609E-02  0.8488721E-01
       -2   -1    0    0    0  501  0.00000000000E+00  0.00000000000E+00  0.86477086375E+03  0.86477086376E+03  0.25500000920E-02 0. -1.
        2   -1    0    0  501    0  0.00000000000E+00  0.00000000000E+00 -0.14933567624E+04  0.14933567624E+04  0.25500000920E-02 0.  1.
    10030    2    1    2    0    0  0.00000000000E+00  0.00000000000E+00 -0.62858589860E+03  0.23581276261E+04  0.22728056822E+04 0.  0.
        5    1    3    3  502    0 -0.45646994723E+03  0.10047419206E+04 -0.32971791671E+02  0.11040744398E+04  0.46999998093E+01 0. -1.
       -5    1    3    3    0  502  0.45646994723E+03 -0.10047419206E+04 -0.59561410693E+03  0.12540531863E+04  0.46999998093E+01 0.  1.
</event>
<event>
 5   0  0.6630125E-07  0.3494249E+04  0.7818609E-02  0.8115154E-01
       -1   -1    0    0    0  501  0.00000000000E+00  0.00000000000E+00  0.12804428931E+04  0.12804428931E+04  0.50400001928E-02 0. -1.
        1   -1    0    0  501    0  0.00000000000E+00  0.00000000000E+00 -0.23838963936E+04  0.23838963936E+04  0.50400001928E-02 0.  1.
    10030    2    1    2    0    0  0.00000000000E+00  0.00000000000E+00 -0.11034535005E+04  0.36643392867E+04  0.34942485287E+04 0.  0.
        1    1    3    3  502    0  0.79968121016E+03 -0.96333853472E+03 -0.18296217613E+04  0.22169860080E+04  0.50400001928E-02 0.  1.
       -1    1    3    3    0  502 -0.79968121016E+03  0.96333853472E+03  0.72616826078E+03  0.14473532787E+04  0.50400001928E-02 0. -1.
</event>
<event>
 5   0  0.2073287E-06  0.3528481E+04  0.7818609E-02  0.8107073E-01
       -2   -1    0    0    0  501  0.00000000000E+00  0.00000000000E+00  0.24492853184E+04  0.24492853184E+04  0.25500000920E-02 0.  1.
        2   -1    0    0  501    0  0.00000000000E+00  0.00000000000E+00 -0.12707968825E+04  0.12707968825E+04  0.25500000920E-02 0. -1.
    10030    2    1    2    0    0  0.00000000000E+00  0.00000000000E+00  0.11784884360E+04  0.37200822009E+04  0.35284807761E+04 0.  0.
        1    1    3    3  502    0  0.13418298530E+04 -0.12809431508E+03 -0.61082155755E+03  0.14798711035E+04  0.50400001928E-02 0. -1.
       -1    1    3    3    0  502 -0.13418298530E+04  0.12809431508E+03  0.17893099935E+04  0.22402110974E+04  0.50400001928E-02 0.  1.
</event>
<event>
 5   0  0.6630125E-07  0.3286670E+04  0.7818609E-02  0.8166295E-01
       -1   -1    0    0    0  501  0.00000000000E+00  0.00000000000E+00  0.12390134416E+04  0.12390134416E+04  0.50400001928E-02 0.  1.
        1   -1    0    0  501    0  0.00000000000E+00  0.00000000000E+00 -0.21795971358E+04  0.21795971358E+04  0.50400001928E-02 0. -1.
    10030    2    1    2    0    0  0.00000000000E+00  0.00000000000E+00 -0.94058369416E+03  0.34186105774E+04  0.32866701378E+04 0.  0.
        1    1    3    3  502    0  0.11569027677E+04  0.69766884362E+03  0.50288752432E+03  0.14415483660E+04  0.50400001928E-02 0.  1.
       -1    1    3    3    0  502 -0.11569027677E+04 -0.69766884362E+03 -0.14434712185E+04  0.19770622114E+04  0.50400001928E-02 0. -1.
</event>
<event>
 5   0  0.2023479E-06  0.3323598E+04  0.7818609E-02  0.8156917E-01
       -2   -1    0    0    0  501  0.00000000000E+00  0.00000000000E+00  0.17106472574E+04  0.17106472574E+04  0.25500000920E-02 0.  1.
        2   -1    0    0  501    0  0.00000000000E+00  0.00000000000E+00 -0.16143455062E+04  0.16143455062E+04  0.25500000920E-02 0. -1.
    10030    2    1    2    0    0  0.00000000000E+00  0.00000000000E+00  0.96301751188E+02  0.33249927636E+04  0.33235978774E+04 0.  0.
        5    1    3    3  502    0  0.68992794420E+03 -0.10750074116E+04 -0.10152684903E+04  0.16316965712E+04  0.46999998093E+01 0. -1.
       -5    1    3    3    0  502 -0.68992794420E+03  0.10750074116E+04  0.11115702415E+04  0.16932961923E+04  0.46999998093E+01 0.  1.
</event>
<event>
 5   0  0.1999883E-06  0.3422114E+04  0.7818609E-02  0.8132500E-01
       -2   -1    0    0    0  501  0.00000000000E+00  0.00000000000E+00  0.13288952075E+04  0.13288952075E+04  0.25500000920E-02 0.  1.
        2   -1    0    0  501    0  0.00000000000E+00  0.00000000000E+00 -0.22031198886E+04  0.22031198886E+04  0.25500000920E-02 0. -1.
    10030    2    1    2    0    0  0.00000000000E+00  0.00000000000E+00 -0.87422468111E+03  0.35320150961E+04  0.34221136519E+04 0.  0.
        4    1    3    3  502    0  0.13634264125E+04  0.34494212116E+03 -0.14429862990E+04  0.20149758612E+04  0.12699999809E+01 0. -1.
       -4    1    3    3    0  502 -0.13634264125E+04 -0.34494212116E+03  0.56876161792E+03  0.15170392349E+04  0.12699999809E+01 0.  1.
</event>
<event>
 5   0  0.2023479E-06  0.3466511E+04  0.7818609E-02  0.8121773E-01
        2   -1    0    0  501    0  0.00000000000E+00  0.00000000000E+00  0.29201560999E+04  0.29201560999E+04  0.25500000920E-02 0.  1.
       -2   -1    0    0    0  501  0.00000000000E+00  0.00000000000E+00 -0.10287716365E+04  0.10287716365E+04  0.25500000920E-02 0. -1.
    10030    2    1    2    0    0  0.00000000000E+00  0.00000000000E+00  0.18913844634E+04  0.39489277364E+04  0.34665105047E+04 0.  0.
        5    1    3    3  502    0  0.92348289308E+03 -0.40677442453E+02 -0.72452595096E+03  0.11744936150E+04  0.46999998093E+01 0. -1.
       -5    1    3    3    0  502 -0.92348289308E+03  0.40677442453E+02  0.26159104143E+04  0.27744341214E+04  0.46999998093E+01 0.  1.
</event>
<event>
 5   0  0.2023479E-06  0.3366051E+04  0.7818609E-02  0.8146289E-01
       -2   -1    0    0    0  501  0.00000000000E+00  0.00000000000E+00  0.14943541049E+04  0.14943541049E+04  0.25500000920E-02 0.  1.
        2   -1    0    0  501    0  0.00000000000E+00  0.00000000000E+00 -0.18955176456E+04  0.18955176456E+04  0.25500000920E-02 0. -1.
    10030    2    1    2    0    0  0.00000000000E+00  0.00000000000E+00 -0.40116354073E+03  0.33898717505E+04  0.33660508461E+04 0.  0.
        5    1    3    3  502    0 -0.11283311959E+04 -0.30489421389E+02  0.10566484962E+04  0.15461529766E+04  0.46999998093E+01 0.  1.
       -5    1    3    3    0  502  0.11283311959E+04  0.30489421389E+02 -0.14578120369E+04  0.18437187739E+04  0.46999998093E+01 0. -1.
</event>
<event>
 5   0  0.2023479E-06  0.3493556E+04  0.7818609E-02  0.8115319E-01
       -2   -1    0    0    0  501  0.00000000000E+00  0.00000000000E+00  0.15560050568E+04  0.15560050568E+04  0.25500000920E-02 0. -1.
        2   -1    0    0  501    0  0.00000000000E+00  0.00000000000E+00 -0.19609404189E+04  0.19609404189E+04  0.25500000920E-02 0.  1.
    10030    2    1    2    0    0  0.00000000000E+00  0.00000000000E+00 -0.40493536210E+03  0.35169454757E+04  0.34935559007E+04 0.  0.
        5    1    3    3  502    0 -0.14112238464E+03 -0.99823353388E+03  0.12335557092E+04  0.15931313484E+04  0.46999998093E+01 0. -1.
       -5    1    3    3    0  502  0.14112238464E+03  0.99823353388E+03 -0.16384910713E+04  0.19238141273E+04  0.46999998093E+01 0.  1.
</event>
<event>
 5   0  0.2073287E-06  0.3543884E+04  0.7818609E-02  0.8103468E-01
        2   -1    0    0  501    0  0.00000000000E+00  0.00000000000E+00  0.16908339680E+04  0.16908339680E+04  0.25500000920E-02 0. -1.
       -2   -1    0    0    0  501  0.00000000000E+00  0.00000000000E+00 -0.18569403543E+04  0.18569403543E+04  0.25500000920E-02 0.  1.
    10030    2    1    2    0    0  0.00000000000E+00  0.00000000000E+00 -0.16610638629E+03  0.35477743223E+04  0.35438836480E+04 0.  0.
        1    1    3    3  502    0  0.60789286854E+03  0.11732085322E+03  0.15790345495E+04  0.16960684039E+04  0.50400001928E-02 0. -1.
       -1    1    3    3    0  502 -0.60789286854E+03 -0.11732085322E+03 -0.17451409358E+04  0.18517059184E+04  0.50400001928E-02 0.  1.
</event>
<event>
 5   0  0.7378896E-07  0.3319646E+04  0.7818609E-02  0.8157914E-01
       -1   -1    0    0    0  501  0.00000000000E+00  0.00000000000E+00  0.30025717920E+04  0.30025717920E+04  0.50400001928E-02 0. -1.
        1   -1    0    0  501    0  0.00000000000E+00  0.00000000000E+00 -0.91755098769E+03  0.91755098770E+03  0.50400001928E-02 0.  1.
    10030    2    1    2    0    0  0.00000000000E+00  0.00000000000E+00  0.20850208043E+04  0.39201227797E+04  0.33196461940E+04 0.  0.
        2    1    3    3  502    0  0.10678626506E+04 -0.42636753924E+03 -0.37105113493E+03  0.12082213638E+04  0.25500000920E-02 0.  1.
       -2    1    3    3    0  502 -0.10678626506E+04  0.42636753924E+03  0.24560719392E+04  0.27119014159E+04  0.25500000920E-02 0. -1.
</event>
<event>
 5   0  0.1999883E-06  0.3574316E+04  0.7818609E-02  0.8096400E-01
        2   -1    0    0  501    0  0.00000000000E+00  0.00000000000E+00  0.19366927203E+04  0.19366927203E+04  0.25500000920E-02 0.  1.
       -2   -1    0    0    0  501  0.00000000000E+00  0.00000000000E+00 -0.16491694844E+04  0.16491694844E+04  0.25500000920E-02 0. -1.
    10030    2    1    2    0    0  0.00000000000E+00  0.00000000000E+00  0.28752323590E+03  0.35858622048E+04  0.35743164578E+04 0.  0.
        4    1    3    3  502    0 -0.35453057876E+03  0.17319996458E+04  0.40617529950E+03  0.18139720757E+04  0.12699999809E+01 0.  1.
       -4    1    3    3    0  502  0.35453057876E+03 -0.17319996458E+04 -0.11865206360E+03  0.17718901291E+04  0.12699999809E+01 0. -1.
</event>
<event>
 5   0  0.6890600E-07  0.3546922E+04  0.7818609E-02  0.8102759E-01
       -1   -1    0    0    0  501  0.00000000000E+00  0.00000000000E+00  0.13361901365E+04  0.13361901365E+04  0.50400001928E-02 0. -1.
        1   -1    0    0  501    0  0.00000000000E+00  0.00000000000E+00 -0.23538296049E+04  0.23538296049E+04  0.50400001928E-02 0.  1.
    10030    2    1    2    0    0  0.00000000000E+00  0.00000000000E+00 -0.10176394685E+04  0.36900197414E+04  0.35469219901E+04 0.  0.
        3    1    3    3  502    0  0.51776742981E+03  0.13942390828E+04  0.49616470102E+03  0.15678536769E+04  0.10100000352E+00 0. -1.
       -3    1    3    3    0  502 -0.51776742981E+03 -0.13942390828E+04 -0.15138041695E+04  0.21221660645E+04  0.10100000352E+00 0.  1.
</event>
<event>
 5   0  0.2020725E-06  0.2361207E+04  0.7818609E-02  0.8454172E-01
        2   -1    0    0  501    0  0.00000000000E+00  0.00000000000E+00  0.44660039349E+03  0.44660039349E+03  0.25500000920E-02 0. -1.
       -2   -1    0    0    0  501  0.00000000000E+00  0.00000000000E+00 -0.31209653684E+04  0.31209653684E+04  0.25500000920E-02 0.  1.
    10030    2    1    2    0    0  0.00000000000E+00  0.00000000000E+00 -0.26743649749E+04  0.35675657619E+04  0.23612067776E+04 0.  0.
        3    1    3    3  502    0 -0.18648063607E+03 -0.56334810954E+02 -0.30965149124E+04  0.31026365001E+04  0.10100000352E+00 0.  1.
       -3    1    3    3    0  502  0.18648063607E+03  0.56334810954E+02  0.42214993751E+03  0.46492926182E+03  0.10100000352E+00 0. -1.
</event>
<event>
 5   0  0.6630125E-07  0.3023322E+04  0.7818609E-02  0.8237102E-01
        1   -1    0    0  501    0  0.00000000000E+00  0.00000000000E+00  0.14153498940E+04  0.14153498940E+04  0.50400001928E-02 0.  1.
       -1   -1    0    0    0  501  0.00000000000E+00  0.00000000000E+00 -0.16145255550E+04  0.16145255550E+04  0.50400001928E-02 0. -1.
    10030    2    1    2    0    0  0.00000000000E+00  0.00000000000E+00 -0.19917566095E+03  0.30298754490E+04  0.30233217316E+04 0.  0.
        4    1    3    3  502    0  0.68714161356E+03  0.12021384225E+04  0.50820568040E+03  0.14749830543E+04  0.12699999809E+01 0.  1.
       -4    1    3    3    0  502 -0.68714161356E+03 -0.12021384225E+04 -0.70738134135E+03  0.15548923947E+04  0.12699999809E+01 0. -1.
</event>
<event>
 5   0  0.2073287E-06  0.3430559E+04  0.7818609E-02  0.8130447E-01
        2   -1    0    0  501    0  0.00000000000E+00  0.00000000000E+00  0.20254290061E+04  0.20254290061E+04  0.25500000920E-02 0. -1.
       -2   -1    0    0    0  501  0.00000000000E+00  0.00000000000E+00 -0.14526228616E+04  0.14526228616E+04  0.25500000920E-02 0.  1.
    10030    2    1    2    0    0  0.00000000000E+00  0.00000000000E+00  0.57280614448E+03  0.34780518677E+04  0.34305594172E+04 0.  0.
        1    1    3    3  502    0  0.11683927009E+04 -0.12368946114E+04  0.66292216445E+02  0.17027755111E+04  0.50400001928E-02 0.  1.
       -1    1    3    3    0  502 -0.11683927009E+04  0.12368946114E+04  0.50651392804E+03  0.17752763566E+04  0.50400001928E-02 0. -1.
</event>
<event>
 5   0  0.6630125E-07  0.2710738E+04  0.7818609E-02  0.8331529E-01
        1   -1    0    0  501    0  0.00000000000E+00  0.00000000000E+00  0.14527623813E+04  0.14527623813E+04  0.50400001928E-02 0.  1.
       -1   -1    0    0    0  501  0.00000000000E+00  0.00000000000E+00 -0.12645052938E+04  0.12645052938E+04  0.50400001928E-02 0. -1.
    10030    2    1    2    0    0  0.00000000000E+00  0.00000000000E+00  0.18825708748E+03  0.27172676751E+04  0.27107384395E+04 0.  0.
        5    1    3    3  502    0 -0.53294587681E+03  0.98190820080E+03  0.86332851536E+03  0.14119253655E+04  0.46999998093E+01 0.  1.
       -5    1    3    3    0  502  0.53294587681E+03 -0.98190820080E+03 -0.67507142788E+03  0.13053423096E+04  0.46999998093E+01 0. -1.
</event>
<event>
 5   0  0.6630125E-07  0.3420334E+04  0.7818609E-02  0.8132934E-01
       -1   -1    0    0    0  501  0.00000000000E+00  0.00000000000E+00  0.12471362802E+04  0.12471362803E+04  0.50400001928E-02 0.  1.
        1   -1    0    0  501    0  0.00000000000E+00  0.00000000000E+00 -0.23451092244E+04  0.23451092245E+04  0.50400001928E-02 0. -1.
    10030    2    1    2    0    0  0.00000000000E+00  0.00000000000E+00 -0.10979729442E+04  0.35922455047E+04  0.34203337819E+04 0.  0.
        4    1    3    3  502    0  0.12727724972E+04 -0.10123055860E+04 -0.11046897955E+04  0.19659739536E+04  0.12699999809E+01 0. -1.
       -4    1    3    3    0  502 -0.12727724972E+04  0.10123055860E+04  0.67168513029E+01  0.16262715511E+04  0.12699999809E+01 0.  1.
</event>
<event>
 5   0  0.2020725E-06  0.3435006E+04  0.7818609E-02  0.8129368E-01
        2   -1    0    0  501    0  0.00000000000E+00  0.00000000000E+00  0.25091770431E+04  0.25091770431E+04  0.25500000920E-02 0.  1.
       -2   -1    0    0    0  501  0.00000000000E+00  0.00000000000E+00 -0.11756112514E+04  0.11756112514E+04  0.25500000920E-02 0. -1.
    10030    2    1    2    0    0  0.00000000000E+00  0.00000000000E+00  0.13335657916E+04  0.36847882945E+04  0.34350061215E+04 0.  0.
        3    1    3    3  502    0 -0.14353953576E+04  0.22770202071E+03  0.16485435393E+04  0.21977042235E+04  0.10100000352E+00 0.  1.
       -3    1    3    3    0  502  0.14353953576E+04 -0.22770202071E+03 -0.31497774761E+03  0.14870840711E+04  0.10100000352E+00 0. -1.
</event>
<event>
 5   0  0.6630125E-07  0.3426068E+04  0.7818609E-02  0.8131538E-01
        1   -1    0    0  501    0  0.00000000000E+00  0.00000000000E+00  0.15277043714E+04  0.15277043714E+04  0.50400001928E-02 0.  1.
       -1   -1    0    0    0  501  0.00000000000E+00  0.00000000000E+00 -0.19208463138E+04  0.19208463138E+04  0.50400001928E-02 0. -1.
    10030    2    1    2    0    0  0.00000000000E+00  0.00000000000E+00 -0.39314194234E+03  0.34485506852E+04  0.34260678980E+04 0.  0.
        5    1    3    3  502    0  0.54834858129E+03  0.12563703752E+04  0.83745342293E+03  0.16063944135E+04  0.46999998093E+01 0.  1.
       -5    1    3    3    0  502 -0.54834858129E+03 -0.12563703752E+04 -0.12305953653E+04  0.18421562717E+04  0.46999998093E+01 0. -1.
</event>
<event>
 5   0  0.6890600E-07  0.3532190E+04  0.7818609E-02  0.8106203E-01
       -1   -1    0    0    0  501  0.00000000000E+00  0.00000000000E+00  0.15416006207E+04  0.15416006207E+04  0.50400001928E-02 0.  1.
        1   -1    0    0  501    0  0.00000000000E+00  0.00000000000E+00 -0.20232813352E+04  0.20232813352E+04  0.50400001928E-02 0. -1.
    10030    2    1    2    0    0  0.00000000000E+00  0.00000000000E+00 -0.48168071456E+03  0.35648819559E+04  0.35321901207E+04 0.  0.
        3    1    3    3  502    0 -0.12754669904E+04  0.12166819442E+04 -0.13046290031E+03  0.17675269659E+04  0.10100000352E+00 0.  1.
       -3    1    3    3    0  502  0.12754669904E+04 -0.12166819442E+04 -0.35121781425E+03  0.17973549900E+04  0.10100000352E+00 0. -1.
</event>
<event>
 5   0  0.7378896E-07  0.3637531E+04  0.7818609E-02  0.8081948E-01
       -1   -1    0    0    0  501  0.00000000000E+00  0.00000000000E+00  0.19393592373E+04  0.19393592373E+04  0.50400001928E-02 0. -1.
        1   -1    0    0  501    0  0.00000000000E+00  0.00000000000E+00 -0.17056707471E+04  0.17056707471E+04  0.50400001928E-02 0.  1.
    10030    2    1    2    0    0  0.00000000000E+00  0.00000000000E+00  0.23368849021E+03  0.36450299844E+04  0.36375312063E+04 0.  0.
        2    1    3    3  502    0  0.77958186844E+02 -0.47399047627E+03 -0.16409566837E+04  0.17098196654E+04  0.25500000920E-02 0.  1.
       -2    1    3    3    0  502 -0.77958186844E+02  0.47399047627E+03  0.18746451739E+04  0.19352103189E+04  0.25500000920E-02 0. -1.
</event>
<event>
 5   0  0.2001768E-06  0.3469451E+04  0.7818609E-02  0.8121068E-01
        2   -1    0    0  501    0  0.00000000000E+00  0.00000000000E+00  0.17647746035E+04  0.17647746035E+04  0.25500000920E-02 0.  1.
       -2   -1    0    0    0  501  0.00000000000E+00  0.00000000000E+00 -0.17051884165E+04  0.17051884165E+04  0.25500000920E-02 0. -1.
    10030    2    1    2    0    0  0.00000000000E+00  0.00000000000E+00  0.59586186949E+02  0.34699630200E+04  0.34694513755E+04 0.  0.
        2    1    3    3  502    0 -0.51335027412E+03 -0.64084184800E+03  0.15581108598E+04  0.17612257748E+04  0.25500000920E-02 0.  1.
       -2    1    3    3    0  502  0.51335027412E+03  0.64084184800E+03 -0.14985246729E+04  0.17087372453E+04  0.25500000920E-02 0. -1.
</event>
<event>
 5   0  0.7378896E-07  0.3547476E+04  0.7818609E-02  0.8102630E-01
       -1   -1    0    0    0  501  0.00000000000E+00  0.00000000000E+00  0.17085968978E+04  0.17085968978E+04  0.50400001928E-02 0. -1.
        1   -1    0    0  501    0  0.00000000000E+00  0.00000000000E+00 -0.18413628715E+04  0.18413628715E+04  0.50400001928E-02 0.  1.
    10030    2    1    2    0    0  0.00000000000E+00  0.00000000000E+00 -0.13276597371E+03  0.35499597693E+04  0.35474762240E+04 0.  0.
        2    1    3    3  502    0 -0.23907354951E+02  0.17192649101E+04 -0.50223755936E+03  0.17912805361E+04  0.25500000920E-02 0. -1.
       -2    1    3    3    0  502  0.23907354951E+02 -0.17192649101E+04  0.36947158566E+03  0.17586792332E+04  0.25500000920E-02 0.  1.
</event>
<event>
 5   0  0.7378896E-07  0.3424484E+04  0.7818609E-02  0.8131923E-01
        1   -1    0    0  501    0  0.00000000000E+00  0.00000000000E+00  0.18178715726E+04  0.18178715726E+04  0.50400001928E-02 0. -1.
       -1   -1    0    0    0  501  0.00000000000E+00  0.00000000000E+00 -0.16127503593E+04  0.16127503594E+04  0.50400001928E-02 0.  1.
    10030    2    1    2    0    0  0.00000000000E+00  0.00000000000E+00  0.20512121324E+03  0.34306219319E+04  0.34244842134E+04 0.  0.
        2    1    3    3  502    0  0.83194380463E+03  0.38808401660E+03 -0.13453787610E+04  0.16287368445E+04  0.25500000920E-02 0.  1.
       -2    1    3    3    0  502 -0.83194380463E+03 -0.38808401660E+03  0.15504999743E+04  0.18018850874E+04  0.25500000920E-02 0. -1.
</event>
<event>
 5   0  0.6890600E-07  0.3412637E+04  0.7818609E-02  0.8134812E-01
        1   -1    0    0  501    0  0.00000000000E+00  0.00000000000E+00  0.12320993759E+04  0.12320993759E+04  0.50400001928E-02 0. -1.
       -1   -1    0    0    0  501  0.00000000000E+00  0.00000000000E+00 -0.23630585715E+04  0.23630585715E+04  0.50400001928E-02 0.  1.
    10030    2    1    2    0    0  0.00000000000E+00  0.00000000000E+00 -0.11309591956E+04  0.35951579474E+04  0.34126370983E+04 0.  0.
        3    1    3    3  502    0 -0.11934581894E+03  0.16835328820E+04 -0.30106441177E+03  0.17143996557E+04  0.10100000352E+00 0.  1.
       -3    1    3    3    0  502  0.11934581894E+03 -0.16835328820E+04 -0.82989478379E+03  0.18807582917E+04  0.10100000352E+00 0. -1.
</event>
<event>
 5   0  0.2073287E-06  0.3317658E+04  0.7818609E-02  0.8158417E-01
       -2   -1    0    0    0  501  0.00000000000E+00  0.00000000000E+00  0.22145128269E+04  0.22145128269E+04  0.25500000920E-02 0.  1.
        2   -1    0    0  501    0  0.00000000000E+00  0.00000000000E+00 -0.12425816160E+04  0.12425816160E+04  0.25500000920E-02 0. -1.
    10030    2    1    2    0    0  0.00000000000E+00  0.00000000000E+00  0.97193121090E+03  0.34570944430E+04  0.33176575635E+04 0.  0.
        1    1    3    3  502    0 -0.27541653499E+03  0.33246667185E+03 -0.11830132970E+04  0.12593287166E+04  0.50400001928E-02 0. -1.
       -1    1    3    3    0  502  0.27541653499E+03 -0.33246667185E+03  0.21549445079E+04  0.21977657263E+04  0.50400001928E-02 0.  1.
</event>
<event>
 5   0  0.1999883E-06  0.3478597E+04  0.7818609E-02  0.8118881E-01
        2   -1    0    0  501    0  0.00000000000E+00  0.00000000000E+00  0.23985054142E+04  0.23985054142E+04  0.25500000920E-02 0.  1.
       -2   -1    0    0    0  501  0.00000000000E+00  0.00000000000E+00 -0.12612687255E+04  0.12612687255E+04  0.25500000920E-02 0. -1.
    10030    2    1    2    0    0  0.00000000000E+00  0.00000000000E+00  0.11372366887E+04  0.36597741397E+04  0.34785973420E+04 0.  0.
        4    1    3    3  502    0  0.70026852335E+03 -0.36881238086E+03 -0.10608408651E+04  0.13235495952E+04  0.12699999809E+01 0. -1.
       -4    1    3    3    0  502 -0.70026852335E+03  0.36881238086E+03  0.21980775538E+04  0.23362245445E+04  0.12699999809E+01 0.  1.
</event>
<event>
 5   0  0.6630125E-07  0.3416100E+04  0.7818609E-02  0.8133966E-01
       -1   -1    0    0    0  501  0.00000000000E+00  0.00000000000E+00  0.15978458226E+04  0.15978458226E+04  0.50400001928E-02 0. -1.
        1   -1    0    0  501    0  0.00000000000E+00  0.00000000000E+00 -0.18258553908E+04  0.18258553908E+04  0.50400001928E-02 0.  1.
    10030    2    1    2    0    0  0.00000000000E+00  0.00000000000E+00 -0.22800956827E+03  0.34237012134E+04  0.34161003550E+04 0.  0.
        1    1    3    3  502    0  0.26855615920E+03 -0.98845002470E+03  0.12558867001E+04  0.16206194079E+04  0.50400001928E-02 0. -1.
       -1    1    3    3    0  502 -0.26855615920E+03  0.98845002470E+03 -0.14838962683E+04  0.18030818055E+04  0.50400001928E-02 0.  1.
</event>
<event>
 5   0  0.2073287E-06  0.3469435E+04  0.7818609E-02  0.8121072E-01
       -2   -1    0    0    0  501  0.00000000000E+00  0.00000000000E+00  0.16325587679E+04  0.16325587679E+04  0.25500000920E-02 0. -1.
        2   -1    0    0  501    0  0.00000000000E+00  0.00000000000E+00 -0.18432686391E+04  0.18432686391E+04  0.25500000920E-02 0.  1.
    10030    2    1    2    0    0  0.00000000000E+00  0.00000000000E+00 -0.21070987125E+03  0.34758274070E+04  0.34694347542E+04 0.  0.
        1    1    3    3  502    0  0.38032949646E+03 -0.50787903600E+02  0.15895111485E+04  0.16351683791E+04  0.50400001928E-02 0. -1.
       -1    1    3    3    0  502 -0.38032949646E+03  0.50787903600E+02 -0.18002210197E+04  0.18406590279E+04  0.50400001928E-02 0.  1.
</event>
<event>
 5   0  0.1999883E-06  0.3543340E+04  0.7818609E-02  0.8103595E-01
       -2   -1    0    0    0  501  0.00000000000E+00  0.00000000000E+00  0.12541657395E+04  0.12541657395E+04  0.25500000920E-02 0. -1.
        2   -1    0    0  501    0  0.00000000000E+00  0.00000000000E+00 -0.25027105191E+04  0.25027105191E+04  0.25500000920E-02 0.  1.
    10030    2    1    2    0    0  0.00000000000E+00  0.00000000000E+00 -0.12485447795E+04  0.37568762586E+04  0.35433395485E+04 0.  0.
        4    1    3    3  502    0  0.41625388185E+03 -0.47907993238E+03  0.11295044579E+04  0.12955951563E+04  0.12699999809E+01 0. -1.
       -4    1    3    3    0  502 -0.41625388185E+03  0.47907993238E+03 -0.23780492374E+04  0.24612811023E+04  0.12699999809E+01 0.  1.
</event>
<event>
 5   0  0.2023479E-06  0.3435781E+04  0.7818609E-02  0.8129180E-01
       -2   -1    0    0    0  501  0.00000000000E+00  0.00000000000E+00  0.13714935256E+04  0.13714935256E+04  0.25500000920E-02 0.  1.
        2   -1    0    0  501    0  0.00000000000E+00  0.00000000000E+00 -0.21517771731E+04  0.21517771731E+04  0.25500000920E-02 0. -1.
    10030    2    1    2    0    0  0.00000000000E+00  0.00000000000E+00 -0.78028364755E+03  0.35232706987E+04  0.34357814025E+04 0.  0.
        5    1    3    3  502    0 -0.97681367608E+03  0.11965990657E+04 -0.11610236136E+04  0.19323592324E+04  0.46999998093E+01 0. -1.
       -5    1    3    3    0  502  0.97681367608E+03 -0.11965990657E+04  0.38073996608E+03  0.15909114663E+04  0.46999998093E+01 0.  1.
</event>
<event>
 5   0  0.2073287E-06  0.3510642E+04  0.7818609E-02  0.8111273E-01
       -2   -1    0    0    0  501  0.00000000000E+00  0.00000000000E+00  0.12822786922E+04  0.12822786922E+04  0.25500000920E-02 0. -1.
        2   -1    0    0  501    0  0.00000000000E+00  0.00000000000E+00 -0.24028723848E+04  0.24028723848E+04  0.25500000920E-02 0.  1.
    10030    2    1    2    0    0  0.00000000000E+00  0.00000000000E+00 -0.11205936925E+04  0.36851510770E+04  0.35106421402E+04 0.  0.
        1    1    3    3  502    0 -0.18459119516E+03 -0.17413041519E+04 -0.43200029881E+03  0.18035626734E+04  0.50400001928E-02 0. -1.
       -1    1    3    3    0  502  0.18459119516E+03  0.17413041519E+04 -0.68859339373E+03  0.18815884036E+04  0.50400001928E-02 0.  1.
</event>
<event>
 5   0  0.2023479E-06  0.3362053E+04  0.7818609E-02  0.8147283E-01
       -2   -1    0    0    0  501  0.00000000000E+00  0.00000000000E+00  0.13215782596E+04  0.13215782596E+04  0.25500000920E-02 0.  1.
        2   -1    0    0  501    0  0.00000000000E+00  0.00000000000E+00 -0.21382388419E+04  0.21382388419E+04  0.25500000920E-02 0. -1.
    10030    2    1    2    0    0  0.00000000000E+00  0.00000000000E+00 -0.81666058232E+03  0.34598171015E+04  0.33620529248E+04 0.  0.
        5    1    3    3  502    0 -0.14351127885E+04 -0.76941622969E+03  0.21275041444E+02  0.16285038433E+04  0.46999998093E+01 0.  1.
       -5    1    3    3    0  502  0.14351127885E+04  0.76941622969E+03 -0.83793562377E+03  0.18313132582E+04  0.46999998093E+01 0. -1.
</event>
<event>
 5   0  0.2073287E-06  0.3504025E+04  0.7818609E-02  0.8112837E-01
        2   -1    0    0  501    0  0.00000000000E+00  0.00000000000E+00  0.20313033511E+04  0.20313033511E+04  0.25500000920E-02 0. -1.
       -2   -1    0    0    0  501  0.00000000000E+00  0.00000000000E+00 -0.15111222643E+04  0.15111222643E+04  0.25500000920E-02 0.  1.
    10030    2    1    2    0    0  0.00000000000E+00  0.00000000000E+00  0.52018108675E+03  0.35424256154E+04  0.35040249539E+04 0.  0.
        1    1    3    3  502    0  0.16130199153E+04  0.30401482972E+03 -0.35923177419E+03  0.16802695414E+04  0.50400001928E-02 0. -1.
       -1    1    3    3    0  502 -0.16130199153E+04 -0.30401482972E+03  0.87941286094E+03  0.18621560740E+04  0.50400001928E-02 0.  1.
</event>
<event>
 5   0  0.6630125E-07  0.3568921E+04  0.7818609E-02  0.8097648E-01
       -1   -1    0    0    0  501  0.00000000000E+00  0.00000000000E+00  0.99647884167E+03  0.99647884168E+03  0.50400001928E-02 0. -1.
        1   -1    0    0  501    0  0.00000000000E+00  0.00000000000E+00 -0.31955518265E+04  0.31955518265E+04  0.50400001928E-02 0.  1.
    10030    2    1    2    0    0  0.00000000000E+00  0.00000000000E+00 -0.21990729848E+04  0.41920306682E+04  0.35689212839E+04 0.  0.
        4    1    3    3  502    0  0.93403692337E+03  0.25026176650E+03  0.66205659614E+03  0.11719114623E+04  0.12699999809E+01 0. -1.
       -4    1    3    3    0  502 -0.93403692337E+03 -0.25026176650E+03 -0.28611295810E+04  0.30201192059E+04  0.12699999809E+01 0.  1.
</event>
<event>
 5   0  0.6890600E-07  0.3487575E+04  0.7818609E-02  0.8116741E-01
       -1   -1    0    0    0  501  0.00000000000E+00  0.00000000000E+00  0.11228669358E+04  0.11228669358E+04  0.50400001928E-02 0. -1.
        1   -1    0    0  501    0  0.00000000000E+00  0.00000000000E+00 -0.27080636124E+04  0.27080636124E+04  0.50400001928E-02 0.  1.
    10030    2    1    2    0    0  0.00000000000E+00  0.00000000000E+00 -0.15851966766E+04  0.38309305482E+04  0.34875751407E+04 0.  0.
        3    1    3    3  502    0  0.80327723962E+03  0.14989304927E+04 -0.12162476150E+04  0.20907666577E+04  0.10100000352E+00 0.  1.
       -3    1    3    3    0  502 -0.80327723962E+03 -0.14989304927E+04 -0.36894906155E+03  0.17401638905E+04  0.10100000352E+00 0. -1.
</event>
<event>
 5   0  0.2073287E-06  0.3315773E+04  0.7818609E-02  0.8158893E-01
       -2   -1    0    0    0  501  0.00000000000E+00  0.00000000000E+00  0.13099069607E+04  0.13099069607E+04  0.25500000920E-02 0.  1.
        2   -1    0    0  501    0  0.00000000000E+00  0.00000000000E+00 -0.20983077350E+04  0.20983077350E+04  0.25500000920E-02 0. -1.
    10030    2    1    2    0    0  0.00000000000E+00  0.00000000000E+00 -0.78840077430E+03  0.34082146957E+04  0.33157731574E+04 0.  0.
        1    1    3    3  502    0 -0.32255613753E+03  0.16261950172E+04 -0.38810098876E+03  0.17026964126E+04  0.50400001928E-02 0.  1.
       -1    1    3    3    0  502  0.32255613753E+03 -0.16261950172E+04 -0.40029978554E+03  0.17055182832E+04  0.50400001928E-02 0. -1.
</event>
<event>
 5   0  0.7378896E-07  0.3498933E+04  0.7818609E-02  0.8114043E-01
       -1   -1    0    0    0  501  0.00000000000E+00  0.00000000000E+00  0.22725327773E+04  0.22725327773E+04  0.50400001928E-02 0.  1.
        1   -1    0    0  501    0  0.00000000000E+00  0.00000000000E+00 -0.13467935585E+04  0.13467935585E+04  0.50400001928E-02 0. -1.
    10030    2    1    2    0    0  0.00000000000E+00  0.00000000000E+00  0.92573921878E+03  0.36193263358E+04  0.34989326978E+04 0.  0.
        2    1    3    3  502    0  0.98616645042E+03  0.31477963650E+03  0.19217240090E+04  0.21828040806E+04  0.25500000920E-02 0.  1.
       -2    1    3    3    0  502 -0.98616645042E+03 -0.31477963650E+03 -0.99598479019E+03  0.14365222552E+04  0.25500000920E-02 0. -1.
</event>
<event>
 5   0  0.2001768E-06  0.3234306E+04  0.7818609E-02  0.8179815E-01
       -2   -1    0    0    0  501  0.00000000000E+00  0.00000000000E+00  0.18058724969E+04  0.18058724969E+04  0.25500000920E-02 0. -1.
        2   -1    0    0  501    0  0.00000000000E+00  0.00000000000E+00 -0.14481548545E+04  0.14481548545E+04  0.25500000920E-02 0.  1.
    10030    2    1    2    0    0  0.00000000000E+00  0.00000000000E+00  0.35771764238E+03  0.32540273513E+04  0.32343055037E+04 0.  0.
        2    1    3    3  502    0 -0.32300576378E+03 -0.48406157032E+03  0.16968781311E+04  0.17938906653E+04  0.25500000920E-02 0. -1.
       -2    1    3    3    0  502  0.32300576378E+03  0.48406157032E+03 -0.13391604887E+04  0.14601366860E+04  0.25500000920E-02 0.  1.
</event>
<event>
 5   0  0.6630125E-07  0.3569108E+04  0.7818609E-02  0.8097605E-01
       -1   -1    0    0    0  501  0.00000000000E+00  0.00000000000E+00  0.13760232525E+04  0.13760232525E+04  0.50400001928E-02 0.  1.
        1   -1    0    0  501    0  0.00000000000E+00  0.00000000000E+00 -0.23143748175E+04  0.23143748175E+04  0.50400001928E-02 0. -1.
    10030    2    1    2    0    0  0.00000000000E+00  0.00000000000E+00 -0.93835156492E+03  0.36903980700E+04  0.35691083278E+04 0.  0.
        4    1    3    3  502    0  0.66484813936E+03 -0.17258600221E+03 -0.21722132872E+04  0.22782276345E+04  0.12699999809E+01 0. -1.
       -4    1    3    3    0  502 -0.66484813936E+03  0.17258600221E+03  0.12338617222E+04  0.14121704356E+04  0.12699999809E+01 0.  1.
</event>
<event>
 5   0  0.2023479E-06  0.3356334E+04  0.7818609E-02  0.8148707E-01
        2   -1    0    0  501    0  0.00000000000E+00  0.00000000000E+00  0.13160385431E+04  0.13160385431E+04  0.25500000920E-02 0. -1.
       -2   -1    0    0    0  501  0.00000000000E+00  0.00000000000E+00 -0.21399410640E+04  0.21399410640E+04  0.25500000920E-02 0.  1.
    10030    2    1    2    0    0  0.00000000000E+00  0.00000000000E+00 -0.82390252089E+03  0.34559796071E+04  0.33563342623E+04 0.  0.
        5    1    3    3  502    0  0.21591864200E+03 -0.12330053542E+04  0.73895325568E+03  0.14536151717E+04  0.46999998093E+01 0. -1.
       -5    1    3    3    0  502 -0.21591864200E+03  0.12330053542E+04 -0.15628557766E+04  0.20023644353E+04  0.46999998093E+01 0.  1.
</event>
<event>
 5   0  0.6630125E-07  0.3548342E+04  0.7818609E-02  0.8102428E-01
        1   -1    0    0  501    0  0.00000000000E+00  0.00000000000E+00  0.17158716838E+04  0.17158716838E+04  0.50400001928E-02 0. -1.
       -1   -1    0    0    0  501  0.00000000000E+00  0.00000000000E+00 -0.18344509777E+04  0.18344509777E+04  0.50400001928E-02 0.  1.
    10030    2    1    2    0    0  0.00000000000E+00  0.00000000000E+00 -0.11857929390E+03  0.35503226615E+04  0.35483418595E+04 0.  0.
        4    1    3    3  502    0 -0.99063465090E+03  0.46267601993E+00  0.14133756075E+04  0.17259749264E+04  0.12699999809E+01 0. -1.
       -4    1    3    3    0  502  0.99063465090E+03 -0.46267601993E+00 -0.15319549015E+04  0.18243477351E+04  0.12699999809E+01 0.  1.
</event>
<event>
 5   0  0.2073287E-06  0.3519996E+04  0.7818609E-02  0.8109068E-01
        2   -1    0    0  501    0  0.00000000000E+00  0.00000000000E+00  0.20650798944E+04  0.20650798944E+04  0.25500000920E-02 0.  1.
       -2   -1    0    0    0  501  0.00000000000E+00  0.00000000000E+00 -0.14999866814E+04  0.14999866814E+04  0.25500000920E-02 0. -1.
    10030    2    1    2    0    0  0.00000000000E+00  0.00000000000E+00  0.56509321303E+03  0.35650665757E+04  0.35199956463E+04 0.  0.
        1    1    3    3  502    0 -0.15165177834E+04 -0.87839690131E+03  0.44643646826E+03  0.18085112175E+04  0.50400001928E-02 0.  1.
       -1    1    3    3    0  502  0.15165177834E+04  0.87839690131E+03  0.11865674476E+03  0.17565553583E+04  0.50400001928E-02 0. -1.
</event>
<event>
 5   0  0.7378896E-07  0.3416067E+04  0.7818609E-02  0.8133974E-01
       -1   -1    0    0    0  501  0.00000000000E+00  0.00000000000E+00  0.15901856813E+04  0.15901856813E+04  0.50400001928E-02 0. -1.
        1   -1    0    0  501    0  0.00000000000E+00  0.00000000000E+00 -0.18346150478E+04  0.18346150479E+04  0.50400001928E-02 0.  1.
    10030    2    1    2    0    0  0.00000000000E+00  0.00000000000E+00 -0.24442936652E+03  0.34248007292E+04  0.34160670836E+04 0.  0.
        2    1    3    3  502    0  0.10522765827E+04  0.91047858119E+03  0.87083339358E+03  0.16415261353E+04  0.25500000920E-02 0. -1.
       -2    1    3    3    0  502 -0.10522765827E+04 -0.91047858119E+03 -0.11152627601E+04  0.17832745939E+04  0.25500000920E-02 0.  1.
</event>
<event>
 5   0  0.7378896E-07  0.3485472E+04  0.7818609E-02  0.8117241E-01
       -1   -1    0    0    0  501  0.00000000000E+00  0.00000000000E+00  0.12176271395E+04  0.12176271395E+04  0.50400001928E-02 0. -1.
        1   -1    0    0  501    0  0.00000000000E+00  0.00000000000E+00 -0.24943016246E+04  0.24943016246E+04  0.50400001928E-02 0.  1.
    10030    2    1    2    0    0  0.00000000000E+00  0.00000000000E+00 -0.12766744851E+04  0.37119287641E+04  0.34854723365E+04 0.  0.
        2    1    3    3  502    0 -0.76947100714E+03  0.44435973316E+02 -0.23029218490E+04  0.24284787891E+04  0.25500000920E-02 0.  1.
       -2    1    3    3    0  502  0.76947100714E+03 -0.44435973316E+02  0.10262473638E+04  0.12834499750E+04  0.25500000920E-02 0. -1.
</event>
<event>
 5   0  0.6890600E-07  0.3496031E+04  0.7818609E-02  0.8114731E-01
       -1   -1    0    0    0  501  0.00000000000E+00  0.00000000000E+00  0.10552595778E+04  0.10552595778E+04  0.50400001928E-02 0. -1.
        1   -1    0    0  501    0  0.00000000000E+00  0.00000000000E+00 -0.28955518177E+04  0.28955518177E+04  0.50400001928E-02 0.  1.
    10030    2    1    2    0    0  0.00000000000E+00  0.00000000000E+00 -0.18402922399E+04  0.39508113955E+04  0.34960313435E+04 0.  0.
        3    1    3    3  502    0 -0.50390338425E+03  0.41194813241E+03 -0.27535108876E+04  0.28293889982E+04  0.10100000352E+00 0.  1.
       -3    1    3    3    0  502  0.50390338425E+03 -0.41194813241E+03  0.91321864776E+03  0.11214223973E+04  0.10100000352E+00 0. -1.
</event>
<event>
 5   0  0.6630125E-07  0.3497837E+04  0.7818609E-02  0.8114303E-01
       -1   -1    0    0    0  501  0.00000000000E+00  0.00000000000E+00  0.13196334361E+04  0.13196334361E+04  0.50400001928E-02 0. -1.
        1   -1    0    0  501    0  0.00000000000E+00  0.00000000000E+00 -0.23178520987E+04  0.23178520987E+04  0.50400001928E-02 0.  1.
    10030    2    1    2    0    0  0.00000000000E+00  0.00000000000E+00 -0.99821866260E+03  0.36374855348E+04  0.34978365481E+04 0.  0.
        5    1    3    3  502    0  0.60566017053E+03 -0.13290108442E+04  0.50138169051E+03  0.15441825526E+04  0.46999998093E+01 0. -1.
       -5    1    3    3    0  502 -0.60566017053E+03  0.13290108442E+04 -0.14996003531E+04  0.20933029822E+04  0.46999998093E+01 0.  1.
</event>
<event>
 5   0  0.6630125E-07  0.2844080E+04  0.7818609E-02  0.8289712E-01
       -1   -1    0    0    0  501  0.00000000000E+00  0.00000000000E+00  0.13301543227E+04  0.13301543227E+04  0.50400001928E-02 0. -1.
        1   -1    0    0  501    0  0.00000000000E+00  0.00000000000E+00 -0.15202730088E+04  0.15202730088E+04  0.50400001928E-02 0.  1.
    10030    2    1    2    0    0  0.00000000000E+00  0.00000000000E+00 -0.19011868607E+03  0.28504273315E+04  0.28440799667E+04 0.  0.
        4    1    3    3  502    0  0.11793211650E+04 -0.52814769282E+03 -0.69006579541E+03  0.14648995906E+04  0.12699999809E+01 0.  1.
       -4    1    3    3    0  502 -0.11793211650E+04  0.52814769282E+03  0.49994710934E+03  0.13855277409E+04  0.12699999809E+01 0. -1.
</event>
<event>
 5   0  0.1999883E-06  0.2687995E+04  0.7818609E-02  0.8338911E-01
        2   -1    0    0  501    0  0.00000000000E+00  0.00000000000E+00  0.24250100762E+04  0.24250100762E+04  0.25500000920E-02 0. -1.
       -2   -1    0    0    0  501  0.00000000000E+00  0.00000000000E+00 -0.74487509017E+03  0.74487509017E+03  0.25500000920E-02 0.  1.
    10030    2    1    2    0    0  0.00000000000E+00  0.00000000000E+00  0.16801349860E+04  0.31698851664E+04  0.26879952375E+04 0.  0.
        4    1    3    3  502    0 -0.17330810453E+02 -0.27983313301E+03  0.23901394044E+04  0.24065275658E+04  0.12699999809E+01 0. -1.
       -4    1    3    3    0  502  0.17330810453E+02  0.27983313301E+03 -0.71000441841E+03  0.76335760059E+03  0.12699999809E+01 0.  1.
</event>
<event>
 5   0  0.2073287E-06  0.3573660E+04  0.7818609E-02  0.8096552E-01
       -2   -1    0    0    0  501  0.00000000000E+00  0.00000000000E+00  0.13950857809E+04  0.13950857809E+04  0.25500000920E-02 0.  1.
        2   -1    0    0  501    0  0.00000000000E+00  0.00000000000E+00 -0.22885768058E+04  0.22885768058E+04  0.25500000920E-02 0. -1.
    10030    2    1    2    0    0  0.00000000000E+00  0.00000000000E+00 -0.89349102496E+03  0.36836625867E+04  0.35736597266E+04 0.  0.
        1    1    3    3  502    0 -0.11577366738E+04 -0.12197517268E+04  0.17567286871E+03  0.16908605613E+04  0.50400001928E-02 0.  1.
       -1    1    3    3    0  502  0.11577366738E+04  0.12197517268E+04 -0.10691638937E+04  0.19928020254E+04  0.50400001928E-02 0. -1.
</event>
<event>
 5   0  0.2023479E-06  0.3396727E+04  0.7818609E-02  0.8138710E-01
        2   -1    0    0  501    0  0.00000000000E+00  0.00000000000E+00  0.34596379227E+04  0.34596379227E+04  0.25500000920E-02 0. -1.
       -2   -1    0    0    0  501  0.00000000000E+00  0.00000000000E+00 -0.83373991052E+03  0.83373991052E+03  0.25500000920E-02 0.  1.
    10030    2    1    2    0    0  0.00000000000E+00  0.00000000000E+00  0.26258980122E+04  0.42933778332E+04  0.33967267845E+04 0.  0.
        5    1    3    3  502    0  0.12279596047E+03 -0.15931539835E+03  0.34445205852E+04  0.34503919192E+04  0.46999998093E+01 0. -1.
       -5    1    3    3    0  502 -0.12279596047E+03  0.15931539835E+03 -0.81862257307E+03  0.84298591399E+03  0.46999998093E+01 0.  1.
</event>
<event>
 5   0  0.2001768E-06  0.3516263E+04  0.7818609E-02  0.8109947E-01
       -2   -1    0    0    0  501  0.00000000000E+00  0.00000000000E+00  0.12084605399E+04  0.12084605399E+04  0.25500000920E-02 0.  1.
        2   -1    0    0  501    0  0.00000000000E+00  0.00000000000E+00 -0.25578220258E+04  0.25578220258E+04  0.25500000920E-02 0. -1.
    10030    2    1    2    0    0  0.00000000000E+00  0.00000000000E+00 -0.13493614859E+04  0.37662825657E+04  0.35162633497E+04 0.  0.
        2    1    3    3  502    0  0.32575479684E+03 -0.41227897866E+03  0.11223927299E+04  0.12392964068E+04  0.25500000920E-02 0.  1.
       -2    1    3    3    0  502 -0.32575479684E+03  0.41227897866E+03 -0.24717542158E+04  0.25269861589E+04  0.25500000920E-02 0. -1.
</event>
<event>
 5   0  0.7378896E-07  0.2437799E+04  0.7818609E-02  0.8425486E-01
       -1   -1    0    0    0  501  0.00000000000E+00  0.00000000000E+00  0.71095454422E+03  0.71095454424E+03  0.50400001928E-02 0.  1.
        1   -1    0    0  501    0  0.00000000000E+00  0.00000000000E+00 -0.20897487070E+04  0.20897487070E+04  0.50400001928E-02 0. -1.
    10030    2    1    2    0    0  0.00000000000E+00  0.00000000000E+00 -0.13787941628E+04  0.28007032512E+04  0.24377992859E+04 0.  0.
        2    1    3    3  502    0 -0.41105709987E+03  0.68684935067E+03 -0.17454702331E+04  0.19202594368E+04  0.25500000920E-02 0. -1.
       -2    1    3    3    0  502  0.41105709987E+03 -0.68684935067E+03  0.36667607033E+03  0.88044381446E+03  0.25500000920E-02 0.  1.
</event>
<event>
 5   0  0.6630125E-07  0.3166466E+04  0.7818609E-02  0.8197730E-01
        1   -1    0    0  501    0  0.00000000000E+00  0.00000000000E+00  0.13888868206E+04  0.13888868206E+04  0.50400001928E-02 0. -1.
       -1   -1    0    0    0  501  0.00000000000E+00  0.00000000000E+00 -0.18047741609E+04  0.18047741609E+04  0.50400001928E-02 0.  1.
    10030    2    1    2    0    0  0.00000000000E+00  0.00000000000E+00 -0.41588734034E+03  0.31936609816E+04  0.31664661983E+04 0.  0.
        1    1    3    3  502    0  0.65160127099E+03  0.49190437064E+03 -0.15760866079E+04  0.17749938371E+04  0.50400001928E-02 0.  1.
       -1    1    3    3    0  502 -0.65160127099E+03 -0.49190437064E+03  0.11601992676E+04  0.14186671444E+04  0.50400001928E-02 0. -1.
</event>
<event>
 5   0  0.2023479E-06  0.3319529E+04  0.7818609E-02  0.8157944E-01
        2   -1    0    0  501    0  0.00000000000E+00  0.00000000000E+00  0.23049232806E+04  0.23049232806E+04  0.25500000920E-02 0.  1.
       -2   -1    0    0    0  501  0.00000000000E+00  0.00000000000E+00 -0.11951885525E+04  0.11951885525E+04  0.25500000920E-02 0. -1.
    10030    2    1    2    0    0  0.00000000000E+00  0.00000000000E+00  0.11097347281E+04  0.35001118331E+04  0.33195288337E+04 0.  0.
        5    1    3    3  502    0 -0.15471966153E+04  0.55693812872E+03  0.31722141063E+03  0.16747086191E+04  0.46999998093E+01 0.  1.
       -5    1    3    3    0  502  0.15471966153E+04 -0.55693812872E+03  0.79251331742E+03  0.18254032140E+04  0.46999998093E+01 0. -1.
</event>
<event>
 5   0  0.2073287E-06  0.3475458E+04  0.7818609E-02  0.8119631E-01
       -2   -1    0    0    0  501  0.00000000000E+00  0.00000000000E+00  0.18685654214E+04  0.18685654214E+04  0.25500000920E-02 0. -1.
        2   -1    0    0  501    0  0.00000000000E+00  0.00000000000E+00 -0.16160538702E+04  0.16160538702E+04  0.25500000920E-02 0.  1.
    10030    2    1    2    0    0  0.00000000000E+00  0.00000000000E+00  0.25251155120E+03  0.34846192915E+04  0.34754581746E+04 0.  0.
        1    1    3    3  502    0 -0.22319500538E+03 -0.16528081600E+04  0.61550878680E+03  0.17777631707E+04  0.50400001928E-02 0.  1.
       -1    1    3    3    0  502  0.22319500538E+03  0.16528081600E+04 -0.36299723560E+03  0.17068561209E+04  0.50400001928E-02 0. -1.
</event>
<event>
 5   0  0.6630125E-07  0.3520884E+04  0.7818609E-02  0.8108858E-01
       -1   -1    0    0    0  501  0.00000000000E+00  0.00000000000E+00  0.13059797972E+04  0.13059797972E+04  0.50400001928E-02 0. -1.
        1   -1    0    0  501    0  0.00000000000E+00  0.00000000000E+00 -0.23730504603E+04  0.23730504603E+04  0.50400001928E-02 0.  1.
    10030    2    1    2    0    0  0.00000000000E+00  0.00000000000E+00 -0.10670706631E+04  0.36790302575E+04  0.35208839565E+04 0.  0.
        5    1    3    3  502    0  0.91153013306E+03  0.14506307446E+04 -0.11048326934E+03  0.17168125650E+04  0.46999998093E+01 0. -1.
       -5    1    3    3    0  502 -0.91153013306E+03 -0.14506307446E+04 -0.95658739372E+03  0.19622176924E+04  0.46999998093E+01 0.  1.
</event>
<event>
 5   0  0.6890600E-07  0.3588327E+04  0.7818609E-02  0.8093171E-01
       -1   -1    0    0    0  501  0.00000000000E+00  0.00000000000E+00  0.13532584047E+04  0.13532584047E+04  0.50400001928E-02 0.  1.
        1   -1    0    0  501    0  0.00000000000E+00  0.00000000000E+00 -0.23787195166E+04  0.23787195166E+04  0.50400001928E-02 0. -1.
    10030    2    1    2    0    0  0.00000000000E+00  0.00000000000E+00 -0.10254611119E+04  0.37319779213E+04  0.35883267289E+04 0.  0.
        3    1    3    3  502    0  0.28039915997E+03  0.19088420030E+03  0.13196060700E+04  0.13625052870E+04  0.10100000352E+00 0.  1.
       -3    1    3    3    0  502 -0.28039915997E+03 -0.19088420030E+03 -0.23450671819E+04  0.23694726343E+04  0.10100000352E+00 0. -1.
</event>
<event>
 5   0  0.2023479E-06  0.2780205E+04  0.7818609E-02  0.8309440E-01
        2   -1    0    0  501    0  0.00000000000E+00  0.00000000000E+00  0.16511890106E+04  0.16511890106E+04  0.25500000920E-02 0.  1.
       -2   -1    0    0    0  501  0.00000000000E+00  0.00000000000E+00 -0.11702987906E+04  0.11702987906E+04  0.25500000920E-02 0. -1.
    10030    2    1    2    0    0  0.00000000000E+00  0.00000000000E+00  0.48089022002E+03  0.28214878012E+04  0.27802046703E+04 0.  0.
        5    1    3    3  502    0 -0.78435689698E+02 -0.13212762465E+04 -0.19064396597E+03  0.13372697142E+04  0.46999998093E+01 0. -1.
       -5    1    3    3    0  502  0.78435689698E+02  0.13212762465E+04  0.67153418598E+03  0.14842180870E+04  0.46999998093E+01 0.  1.
</event>
<event>
 5   0  0.6890600E-07  0.3429572E+04  0.7818609E-02  0.8130686E-01
       -1   -1    0    0    0  501  0.00000000000E+00  0.00000000000E+00  0.18604357967E+04  0.18604357967E+04  0.50400001928E-02 0.  1.
        1   -1    0    0  501    0  0.00000000000E+00  0.00000000000E+00 -0.15805392249E+04  0.15805392249E+04  0.50400001928E-02 0. -1.
    10030    2    1    2    0    0  0.00000000000E+00  0.00000000000E+00  0.27989657182E+03  0.34409750216E+04  0.34295724236E+04 0.  0.
        3    1    3    3  502    0 -0.13459490977E+04 -0.40912489278E+03  0.11237846451E+04  0.18005149514E+04  0.10100000352E+00 0.  1.
       -3    1    3    3    0  502  0.13459490977E+04  0.40912489278E+03 -0.84388807331E+03  0.16404600702E+04  0.10100000352E+00 0. -1.
</event>
<event>
 5   0  0.2020725E-06  0.3476516E+04  0.7818609E-02  0.8119378E-01
        2   -1    0    0  501    0  0.00000000000E+00  0.00000000000E+00  0.25860664871E+04  0.25860664871E+04  0.25500000920E-02 0. -1.
       -2   -1    0    0    0  501  0.00000000000E+00  0.00000000000E+00 -0.11683926267E+04  0.11683926267E+04  0.25500000920E-02 0.  1.
    10030    2    1    2    0    0  0.00000000000E+00  0.00000000000E+00  0.14176738604E+04  0.37544591139E+04  0.34765160812E+04 0.  0.
        3    1    3    3  502    0 -0.37941695999E+03  0.56660070063E+03 -0.10179154490E+04  0.12252124122E+04  0.10100000352E+00 0.  1.
       -3    1    3    3    0  502  0.37941695999E+03 -0.56660070063E+03  0.24355893094E+04  0.25292467017E+04  0.10100000352E+00 0. -1.
</event>
<event>
 5   0  0.7378896E-07  0.3441474E+04  0.7818609E-02  0.8127802E-01
       -1   -1    0    0    0  501  0.00000000000E+00  0.00000000000E+00  0.12727887386E+04  0.12727887386E+04  0.50400001928E-02 0. -1.
        1   -1    0    0  501    0  0.00000000000E+00  0.00000000000E+00 -0.23263369103E+04  0.23263369103E+04  0.50400001928E-02 0.  1.
    10030    2    1    2    0    0  0.00000000000E+00  0.00000000000E+00 -0.10535481717E+04  0.35991256490E+04  0.34414737667E+04 0.  0.
        2    1    3    3  502    0 -0.11803472898E+04  0.38489239859E+03  0.71926450449E+03  0.14348182151E+04  0.25500000920E-02 0. -1.
       -2    1    3    3    0  502  0.11803472898E+04 -0.38489239859E+03 -0.17728126762E+04  0.21643074338E+04  0.25500000920E-02 0.  1.
</event>
<event>
 5   0  0.2073287E-06  0.3482245E+04  0.7818609E-02  0.8118010E-01
        2   -1    0    0  501    0  0.00000000000E+00  0.00000000000E+00  0.21656731189E+04  0.21656731189E+04  0.25500000920E-02 0.  1.
       -2   -1    0    0    0  501  0.00000000000E+00  0.00000000000E+00 -0.13997995862E+04  0.13997995862E+04  0.25500000920E-02 0. -1.
    10030    2    1    2    0    0  0.00000000000E+00  0.00000000000E+00  0.76587353268E+03  0.35654727051E+04  0.34822454455E+04 0.  0.
        1    1    3    3  502    0 -0.16959735653E+03 -0.27426577727E+03 -0.13689576215E+04  0.14064245267E+04  0.50400001928E-02 0. -1.
       -1    1    3    3    0  502  0.16959735653E+03  0.27426577727E+03  0.21348311542E+04  0.21590481784E+04  0.50400001928E-02 0.  1.
</event>
<event>
 5   0  0.7378896E-07  0.3446763E+04  0.7818609E-02  0.8126523E-01
       -1   -1    0    0    0  501  0.00000000000E+00  0.00000000000E+00  0.13774758202E+04  0.13774758202E+04  0.50400001928E-02 0. -1.
        1   -1    0    0  501    0  0.00000000000E+00  0.00000000000E+00 -0.21561500194E+04  0.21561500194E+04  0.50400001928E-02 0.  1.
    10030    2    1    2    0    0  0.00000000000E+00  0.00000000000E+00 -0.77867419917E+03  0.35336258396E+04  0.34467634189E+04 0.  0.
        2    1    3    3  502    0  0.10682360443E+04  0.11900076747E+04 -0.10480222635E+04  0.19119616044E+04  0.25500000920E-02 0.  1.
       -2    1    3    3    0  502 -0.10682360443E+04 -0.11900076747E+04  0.26934806431E+03  0.16216642352E+04  0.25500000920E-02 0. -1.
</event>
<event>
 5   0  0.1999883E-06  0.3459668E+04  0.7818609E-02  0.8123415E-01
        2   -1    0    0  501    0  0.00000000000E+00  0.00000000000E+00  0.26255126159E+04  0.26255126159E+04  0.25500000920E-02 0. -1.
       -2   -1    0    0    0  501  0.00000000000E+00  0.00000000000E+00 -0.11397109472E+04  0.11397109472E+04  0.25500000920E-02 0.  1.
    10030    2    1    2    0    0  0.00000000000E+00  0.00000000000E+00  0.14858016686E+04  0.37652235631E+04  0.34596678860E+04 0.  0.
        4    1    3    3  502    0  0.59177255494E+03  0.14093900088E+04  0.16242036227E+04  0.22303842662E+04  0.12699999809E+01 0. -1.
       -4    1    3    3    0  502 -0.59177255494E+03 -0.14093900088E+04 -0.13840195411E+03  0.15348392970E+04  0.12699999809E+01 0.  1.
</event>
<event>
 5   0  0.6630125E-07  0.3428308E+04  0.7818609E-02  0.8130993E-01
       -1   -1    0    0    0  501  0.00000000000E+00  0.00000000000E+00  0.17208299302E+04  0.17208299302E+04  0.50400001928E-02 0. -1.
        1   -1    0    0  501    0  0.00000000000E+00  0.00000000000E+00 -0.17075039978E+04  0.17075039978E+04  0.50400001928E-02 0.  1.
    10030    2    1    2    0    0  0.00000000000E+00  0.00000000000E+00  0.13325932363E+02  0.34283339280E+04  0.34283080290E+04 0.  0.
        4    1    3    3  502    0  0.10636495483E+04  0.92153590825E+03 -0.97198817250E+03  0.17103629475E+04  0.12699999809E+01 0.  1.
       -4    1    3    3    0  502 -0.10636495483E+04 -0.92153590825E+03  0.98531410486E+03  0.17179709805E+04  0.12699999809E+01 0. -1.
</event>
<event>
 5   0  0.6630125E-07  0.2623641E+04  0.7818609E-02  0.8360215E-01
       -4   -1    0    0    0  501  0.00000000000E+00  0.00000000000E+00  0.22207019724E+04  0.22207023355E+04  0.12699999809E+01 0. -1.
        4   -1    0    0  501    0  0.00000000000E+00  0.00000000000E+00 -0.77492202044E+03  0.77492306113E+03  0.12699999809E+01 0.  1.
    10030    2    1    2    0    0  0.00000000000E+00  0.00000000000E+00  0.14457799519E+04  0.29956253966E+04  0.26236409525E+04 0.  0.
        2    1    3    3  502    0  0.12016188643E+04 -0.52038300135E+03  0.81269674546E+03  0.15411561775E+04  0.25500000920E-02 0.  1.
       -2    1    3    3    0  502 -0.12016188643E+04  0.52038300135E+03  0.63308320645E+03  0.14544692192E+04  0.25500000920E-02 0. -1.
</event>
<event>
 5   0  0.6630125E-07  0.2144198E+04  0.7818609E-02  0.8542020E-01
        1   -1    0    0  501    0  0.00000000000E+00  0.00000000000E+00  0.11701380718E+04  0.11701380718E+04  0.50400001928E-02 0. -1.
       -1   -1    0    0    0  501  0.00000000000E+00  0.00000000000E+00 -0.98227360258E+03  0.98227360259E+03  0.50400001928E-02 0.  1.
    10030    2    1    2    0    0  0.00000000000E+00  0.00000000000E+00  0.18786446922E+03  0.21524116744E+04  0.21441975089E+04 0.  0.
        5    1    3    3  502    0  0.26323185463E+03  0.19459106381E+03 -0.93086895167E+03  0.98676024777E+03  0.46999998093E+01 0.  1.
       -5    1    3    3    0  502 -0.26323185463E+03 -0.19459106381E+03  0.11187334209E+04  0.11656514266E+04  0.46999998093E+01 0. -1.
</event>
<event>
 5   0  0.7378896E-07  0.3627401E+04  0.7818609E-02  0.8084244E-01
       -1   -1    0    0    0  501  0.00000000000E+00  0.00000000000E+00  0.27458316115E+04  0.27458316115E+04  0.50400001928E-02 0. -1.
        1   -1    0    0  501    0  0.00000000000E+00  0.00000000000E+00 -0.11980011297E+04  0.11980011297E+04  0.50400001928E-02 0.  1.
    10030    2    1    2    0    0  0.00000000000E+00  0.00000000000E+00  0.15478304819E+04  0.39438327412E+04  0.36274009277E+04 0.  0.
        2    1    3    3  502    0  0.85309791976E+03  0.14968555401E+04  0.15777227905E+03  0.17300996101E+04  0.25500000920E-02 0. -1.
       -2    1    3    3    0  502 -0.85309791976E+03 -0.14968555401E+04  0.13900582028E+04  0.22137331312E+04  0.25500000920E-02 0.  1.
</event>
<event>
 5   0  0.6890600E-07  0.3781346E+04  0.7818609E-02  0.8050170E-01
       -1   -1    0    0    0  501  0.00000000000E+00  0.00000000000E+00  0.23271070954E+04  0.23271070954E+04  0.50400001928E-02 0.  1.
        1   -1    0    0  501    0  0.00000000000E+00  0.00000000000E+00 -0.15360896582E+04  0.15360896582E+04  0.50400001928E-02 0. -1.
    10030    2    1    2    0    0  0.00000000000E+00  0.00000000000E+00  0.79101743722E+03  0.38631967537E+04  0.37813463967E+04 0.  0.
        3    1    3    3  502    0  0.82849884343E+03  0.15625756923E+04 -0.28723204886E+03  0.17918022736E+04  0.10100000352E+00 0. -1.
       -3    1    3    3    0  502 -0.82849884343E+03 -0.15625756923E+04  0.10782494861E+04  0.20713944801E+04  0.10100000352E+00 0.  1.
</event>
<event>
 5   0  0.6630125E-07  0.3559868E+04  0.7818609E-02  0.8099747E-01
        1   -1    0    0  501    0  0.00000000000E+00  0.00000000000E+00  0.28402602158E+04  0.28402602158E+04  0.50400001928E-02 0.  1.
       -1   -1    0    0    0  501  0.00000000000E+00  0.00000000000E+00 -0.11154489129E+04  0.11154489129E+04  0.50400001928E-02 0. -1.
    10030    2    1    2    0    0  0.00000000000E+00  0.00000000000E+00  0.17248113029E+04  0.39557091287E+04  0.35598680706E+04 0.  0.
        5    1    3    3  502    0 -0.10090595400E+04  0.83390375845E+03 -0.47774691730E+03  0.13935066705E+04  0.46999998093E+01 0. -1.
       -5    1    3    3    0  502  0.10090595400E+04 -0.83390375845E+03  0.22025582202E+04  0.25622024582E+04  0.46999998093E+01 0.  1.
</event>
<event>
 5   0  0.6630125E-07  0.3485203E+04  0.7818609E-02  0.8117306E-01
        1   -1    0    0  501    0  0.00000000000E+00  0.00000000000E+00  0.31714925617E+04  0.31714925617E+04  0.50400001928E-02 0. -1.
       -1   -1    0    0    0  501  0.00000000000E+00  0.00000000000E+00 -0.95748622801E+03  0.95748622802E+03  0.50400001928E-02 0.  1.
    10030    2    1    2    0    0  0.00000000000E+00  0.00000000000E+00  0.22140063336E+04  0.41289787897E+04  0.34852032653E+04 0.  0.
        5    1    3    3  502    0 -0.64663518646E+03 -0.91228463662E+03 -0.47637337459E+03  0.12154645222E+04  0.46999998093E+01 0.  1.
       -5    1    3    3    0  502  0.64663518646E+03  0.91228463662E+03  0.26903797082E+04  0.29135142675E+04  0.46999998093E+01 0. -1.
</event>
<event>
 5   0  0.6630125E-07  0.3490511E+04  0.7818609E-02  0.8116042E-01
        1   -1    0    0  501    0  0.00000000000E+00  0.00000000000E+00  0.21511586077E+04  0.21511586077E+04  0.50400001928E-02 0. -1.
       -1   -1    0    0    0  501  0.00000000000E+00  0.00000000000E+00 -0.14159422510E+04  0.14159422510E+04  0.50400001928E-02 0.  1.
    10030    2    1    2    0    0  0.00000000000E+00  0.00000000000E+00  0.73521635668E+03  0.35671008588E+04  0.34905107714E+04 0.  0.
        5    1    3    3  502    0 -0.98085843558E+03  0.11068780123E+04  0.13145645234E+04  0.19787279199E+04  0.46999998093E+01 0. -1.
       -5    1    3    3    0  502  0.98085843558E+03 -0.11068780123E+04 -0.57934816671E+03  0.15883729389E+04  0.46999998093E+01 0.  1.
</event>
<event>
 5   0  0.1999883E-06  0.3108028E+04  0.7818609E-02  0.8213538E-01
       -2   -1    0    0    0  501  0.00000000000E+00  0.00000000000E+00  0.11578069772E+04  0.11578069772E+04  0.25500000920E-02 0. -1.
        2   -1    0    0  501    0  0.00000000000E+00  0.00000000000E+00 -0.20858051217E+04  0.20858051217E+04  0.25500000920E-02 0.  1.
    10030    2    1    2    0    0  0.00000000000E+00  0.00000000000E+00 -0.92799814451E+03  0.32436120988E+04  0.31080281356E+04 0.  0.
        4    1    3    3  502    0  0.14280602107E+03 -0.68809734019E+03  0.98249760881E+03  0.12079630265E+04  0.12699999809E+01 0. -1.
       -4    1    3    3    0  502 -0.14280602107E+03  0.68809734019E+03 -0.19104957533E+04  0.20356490723E+04  0.12699999809E+01 0.  1.
</event>
<event>
 5   0  0.6630125E-07  0.3309182E+04  0.7818609E-02  0.8160563E-01
        1   -1    0    0  501    0  0.00000000000E+00  0.00000000000E+00  0.15510106494E+04  0.15510106494E+04  0.50400001928E-02 0.  1.
       -1   -1    0    0    0  501  0.00000000000E+00  0.00000000000E+00 -0.17650891954E+04  0.17650891954E+04  0.50400001928E-02 0. -1.
    10030    2    1    2    0    0  0.00000000000E+00  0.00000000000E+00 -0.21407854603E+03  0.33160998449E+04  0.33091824605E+04 0.  0.
        4    1    3    3  502    0  0.10429437963E+04 -0.72678126652E+03  0.95429115959E+03  0.15895332654E+04  0.12699999809E+01 0.  1.
       -4    1    3    3    0  502 -0.10429437963E+04  0.72678126652E+03 -0.11683697056E+04  0.17265665795E+04  0.12699999809E+01 0. -1.
</event>
<event>
 5   0  0.2020725E-06  0.3119515E+04  0.7818609E-02  0.8210403E-01
       -2   -1    0    0    0  501  0.00000000000E+00  0.00000000000E+00  0.12372197486E+04  0.12372197486E+04  0.25500000920E-02 0. -1.
        2   -1    0    0  501    0  0.00000000000E+00  0.00000000000E+00 -0.19663790909E+04  0.19663790909E+04  0.25500000920E-02 0.  1.
    10030    2    1    2    0    0  0.00000000000E+00  0.00000000000E+00 -0.72915934234E+03  0.32035988395E+04  0.31195147344E+04 0.  0.
        3    1    3    3  502    0 -0.41548205566E+03 -0.10752777258E+04 -0.14436127027E+04  0.18473941571E+04  0.10100000352E+00 0.  1.
       -3    1    3    3    0  502  0.41548205566E+03  0.10752777258E+04  0.71445336037E+03  0.13562046824E+04  0.10100000352E+00 0. -1.
</event>
<event>
 5   0  0.2073287E-06  0.3469752E+04  0.7818609E-02  0.8120996E-01
        2   -1    0    0  501    0  0.00000000000E+00  0.00000000000E+00  0.20005710634E+04  0.20005710634E+04  0.25500000920E-02 0. -1.
       -2   -1    0    0    0  501  0.00000000000E+00  0.00000000000E+00 -0.15044677654E+04  0.15044677654E+04  0.25500000920E-02 0.  1.
    10030    2    1    2    0    0  0.00000000000E+00  0.00000000000E+00  0.49610329801E+03  0.35050388289E+04  0.34697519666E+04 0.  0.
        1    1    3    3  502    0  0.78964409931E+03  0.65283854092E+03  0.16623106232E+04  0.19526936709E+04  0.50400001928E-02 0. -1.
       -1    1    3    3    0  502 -0.78964409931E+03 -0.65283854092E+03 -0.11662073252E+04  0.15523451580E+04  0.50400001928E-02 0.  1.
</event>
<event>
 5   0  0.6630125E-07  0.3512662E+04  0.7818609E-02  0.8110796E-01
       -1   -1    0    0    0  501  0.00000000000E+00  0.00000000000E+00  0.12640444752E+04  0.12640444752E+04  0.50400001928E-02 0. -1.
        1   -1    0    0  501    0  0.00000000000E+00  0.00000000000E+00 -0.24403397523E+04  0.24403397523E+04  0.50400001928E-02 0.  1.
    10030    2    1    2    0    0  0.00000000000E+00  0.00000000000E+00 -0.11762952770E+04  0.37043842275E+04  0.35126616584E+04 0.  0.
        4    1    3    3  502    0 -0.30042160984E+03 -0.17101147439E+04 -0.30922997982E+03  0.17636242157E+04  0.12699999809E+01 0. -1.
       -4    1    3    3    0  502  0.30042160984E+03  0.17101147439E+04 -0.86706529722E+03  0.19407600118E+04  0.12699999809E+01 0.  1.
</event>
<event>
 5   0  0.2073287E-06  0.3450365E+04  0.7818609E-02  0.8125655E-01
        2   -1    0    0  501    0  0.00000000000E+00  0.00000000000E+00  0.12503059364E+04  0.12503059364E+04  0.25500000920E-02 0. -1.
       -2   -1    0    0    0  501  0.00000000000E+00  0.00000000000E+00 -0.23804210142E+04  0.23804210142E+04  0.25500000920E-02 0.  1.
    10030    2    1    2    0    0  0.00000000000E+00  0.00000000000E+00 -0.11301150778E+04  0.36307269506E+04  0.34503649228E+04 0.  0.
        1    1    3    3  502    0 -0.70455321377E+03  0.13319768759E+04 -0.14490278163E+04  0.20905117176E+04  0.50400001928E-02 0.  1.
       -1    1    3    3    0  502  0.70455321377E+03 -0.13319768759E+04  0.31891273857E+03  0.15402152330E+04  0.50400001928E-02 0. -1.
</event>
<event>
 5   0  0.2073287E-06  0.3483373E+04  0.7818609E-02  0.8117742E-01
        2   -1    0    0  501    0  0.00000000000E+00  0.00000000000E+00  0.18048682297E+04  0.18048682297E+04  0.25500000920E-02 0. -1.
       -2   -1    0    0    0  501  0.00000000000E+00  0.00000000000E+00 -0.16807165054E+04  0.16807165054E+04  0.25500000920E-02 0.  1.
    10030    2    1    2    0    0  0.00000000000E+00  0.00000000000E+00  0.12415172429E+03  0.34855847351E+04  0.34833729767E+04 0.  0.
        1    1    3    3  502    0  0.65886829660E+03  0.93113090543E+03 -0.12549511843E+04  0.16958816793E+04  0.50400001928E-02 0.  1.
       -1    1    3    3    0  502 -0.65886829660E+03 -0.93113090543E+03  0.13791029086E+04  0.17897030558E+04  0.50400001928E-02 0. -1.
</event>
<event>
 5   0  0.7378896E-07  0.3651978E+04  0.7818609E-02  0.8078688E-01
        1   -1    0    0  501    0  0.00000000000E+00  0.00000000000E+00  0.20999157682E+04  0.20999157682E+04  0.50400001928E-02 0.  1.
       -1   -1    0    0    0  501  0.00000000000E+00  0.00000000000E+00 -0.15877953602E+04  0.15877953602E+04  0.50400001928E-02 0. -1.
    10030    2    1    2    0    0  0.00000000000E+00  0.00000000000E+00  0.51212040801E+03  0.36877111284E+04  0.36519783754E+04 0.  0.
        2    1    3    3  502    0 -0.20492988076E+03 -0.42620103367E+03 -0.15248838929E+04  0.15965320115E+04  0.25500000920E-02 0. -1.
       -2    1    3    3    0  502  0.20492988076E+03  0.42620103367E+03  0.20370043009E+04  0.20911791169E+04  0.25500000920E-02 0.  1.
</event>
<event>
 5   0  0.2073287E-06  0.3297321E+04  0.7818609E-02  0.8163577E-01
       -2   -1    0    0    0  501  0.00000000000E+00  0.00000000000E+00  0.13775014032E+04  0.13775014032E+04  0.25500000920E-02 0. -1.
        2   -1    0    0  501    0  0.00000000000E+00  0.00000000000E+00 -0.19731969780E+04  0.19731969780E+04  0.25500000920E-02 0.  1.
    10030    2    1    2    0    0  0.00000000000E+00  0.00000000000E+00 -0.59569557484E+03  0.33506983812E+04  0.32973210981E+04 0.  0.
        1    1    3    3  502    0 -0.32676848174E+03 -0.16083312497E+03 -0.19318063802E+04  0.19658384536E+04  0.50400001928E-02 0.  1.
       -1    1    3    3    0  502  0.32676848174E+03  0.16083312497E+03  0.13361108054E+04  0.13848599276E+04  0.50400001928E-02 0. -1.
</event>
<event>
 5   0  0.6630125E-07  0.2809503E+04  0.7818609E-02  0.8300324E-01
        1   -1    0    0  501    0  0.00000000000E+00  0.00000000000E+00  0.29090781481E+04  0.29090781481E+04  0.50400001928E-02 0.  1.
       -1   -1    0    0    0  501  0.00000000000E+00  0.00000000000E+00 -0.67833406134E+03  0.67833406136E+03  0.50400001928E-02 0. -1.
    10030    2    1    2    0    0  0.00000000000E+00  0.00000000000E+00  0.22307440867E+04  0.35874122094E+04  0.28095030130E+04 0.  0.
        4    1    3    3  502    0  0.11510664382E+04  0.79162521261E+03  0.92727184760E+03  0.16767406224E+04  0.12699999809E+01 0.  1.
       -4    1    3    3    0  502 -0.11510664382E+04 -0.79162521261E+03  0.13034722391E+04  0.19106715870E+04  0.12699999809E+01 0. -1.
</event>
<event>
 5   0  0.7378896E-07  0.3424291E+04  0.7818609E-02  0.8131970E-01
       -1   -1    0    0    0  501  0.00000000000E+00  0.00000000000E+00  0.16344287884E+04  0.16344287884E+04  0.50400001928E-02 0. -1.
        1   -1    0    0  501    0  0.00000000000E+00  0.00000000000E+00 -0.17935573766E+04  0.17935573766E+04  0.50400001928E-02 0.  1.
    10030    2    1    2    0    0  0.00000000000E+00  0.00000000000E+00 -0.15912858820E+03  0.34279861650E+04  0.34242907645E+04 0.  0.
        2    1    3    3  502    0  0.15172354565E+04  0.61980036667E+03  0.41623363083E+03  0.16909779302E+04  0.25500000920E-02 0. -1.
       -2    1    3    3    0  502 -0.15172354565E+04 -0.61980036667E+03 -0.57536221903E+03  0.17370082349E+04  0.25500000920E-02 0.  1.
</event>
<event>
 5   0  0.6630125E-07  0.3535627E+04  0.7818609E-02  0.8105398E-01
        1   -1    0    0  501    0  0.00000000000E+00  0.00000000000E+00  0.25796578269E+04  0.25796578269E+04  0.50400001928E-02 0. -1.
       -1   -1    0    0    0  501  0.00000000000E+00  0.00000000000E+00 -0.12114649339E+04  0.12114649339E+04  0.50400001928E-02 0.  1.
    10030    2    1    2    0    0  0.00000000000E+00  0.00000000000E+00  0.13681928930E+04  0.37911227608E+04  0.35356272420E+04 0.  0.
        4    1    3    3  502    0  0.14201302569E+04 -0.10436107067E+04  0.83294469290E+03  0.19492797972E+04  0.12699999809E+01 0. -1.
       -4    1    3    3    0  502 -0.14201302569E+04  0.10436107067E+04  0.53524820009E+03  0.18418429635E+04  0.12699999809E+01 0.  1.
</event>
<event>
 5   0  0.2073287E-06  0.3340793E+04  0.7818609E-02  0.8152592E-01
       -2   -1    0    0    0  501  0.00000000000E+00  0.00000000000E+00  0.19752826268E+04  0.19752826268E+04  0.25500000920E-02 0.  1.
        2   -1    0    0  501    0  0.00000000000E+00  0.00000000000E+00 -0.14125701358E+04  0.14125701358E+04  0.25500000920E-02 0. -1.
    10030    2    1    2    0    0  0.00000000000E+00  0.00000000000E+00  0.56271249101E+03  0.33878527627E+04  0.33407934677E+04 0.  0.
        1    1    3    3  502    0 -0.11271632308E+04 -0.65777894079E+03 -0.77594974182E+03  0.15183109318E+04  0.50400001928E-02 0.  1.
       -1    1    3    3    0  502  0.11271632308E+04  0.65777894079E+03  0.13386622328E+04  0.18695418309E+04  0.50400001928E-02 0. -1.
</event>
<event>
 5   0  0.6630125E-07  0.3496859E+04  0.7818609E-02  0.8114535E-01
        1   -1    0    0  501    0  0.00000000000E+00  0.00000000000E+00  0.16628986872E+04  0.16628986872E+04  0.50400001928E-02 0. -1.
       -1   -1    0    0    0  501  0.00000000000E+00  0.00000000000E+00 -0.18383596705E+04  0.18383596705E+04  0.50400001928E-02 0.  1.
    10030    2    1    2    0    0  0.00000000000E+00  0.00000000000E+00 -0.17546098336E+03  0.35012583577E+04  0.34968590951E+04 0.  0.
        1    1    3    3  502    0 -0.33581945212E+02  0.11377398916E+03  0.16588647174E+04  0.16631008443E+04  0.50400001928E-02 0. -1.
       -1    1    3    3    0  502  0.33581945212E+02 -0.11377398916E+03 -0.18343257008E+04  0.18381575134E+04  0.50400001928E-02 0.  1.
</event>
<event>
 5   0  0.6630125E-07  0.2257292E+04  0.7818609E-02  0.8494953E-01
        1   -1    0    0  501    0  0.00000000000E+00  0.00000000000E+00  0.12867629245E+04  0.12867629245E+04  0.50400001928E-02 0. -1.
       -1   -1    0    0    0  501  0.00000000000E+00  0.00000000000E+00 -0.98995843307E+03  0.98995843308E+03  0.50400001928E-02 0.  1.
    10030    2    1    2    0    0  0.00000000000E+00  0.00000000000E+00  0.29680449147E+03  0.22767213576E+04  0.22572920135E+04 0.  0.
        4    1    3    3  502    0 -0.86413331627E+03 -0.61864610797E+03 -0.23485634521E+03  0.10883972211E+04  0.12699999809E+01 0. -1.
       -4    1    3    3    0  502  0.86413331627E+03  0.61864610797E+03  0.53166083668E+03  0.11883241365E+04  0.12699999809E+01 0.  1.
</event>
<event>
 5   0  0.2001768E-06  0.3179074E+04  0.7818609E-02  0.8194366E-01
        2   -1    0    0  501    0  0.00000000000E+00  0.00000000000E+00  0.21951645284E+04  0.21951645284E+04  0.25500000920E-02 0.  1.
       -2   -1    0    0    0  501  0.00000000000E+00  0.00000000000E+00 -0.11509972080E+04  0.11509972080E+04  0.25500000920E-02 0. -1.
    10030    2    1    2    0    0  0.00000000000E+00  0.00000000000E+00  0.10441673204E+04  0.33461617364E+04  0.31790742321E+04 0.  0.
        2    1    3    3  502    0  0.28316710158E+03 -0.39000026470E+02 -0.11237233549E+04  0.11595079939E+04  0.25500000920E-02 0. -1.
       -2    1    3    3    0  502 -0.28316710158E+03  0.39000026470E+02  0.21678906754E+04  0.21866537425E+04  0.25500000920E-02 0.  1.
</event>
<event>
 5   0  0.2001768E-06  0.2159596E+04  0.7818609E-02  0.8535436E-01
        2   -1    0    0  501    0  0.00000000000E+00  0.00000000000E+00  0.20496277086E+04  0.20496277086E+04  0.25500000920E-02 0.  1.
       -2   -1    0    0    0  501  0.00000000000E+00  0.00000000000E+00 -0.56886589167E+03  0.56886589168E+03  0.25500000920E-02 0. -1.
    10030    2    1    2    0    0  0.00000000000E+00  0.00000000000E+00  0.14807618170E+04  0.26184936003E+04  0.21595956048E+04 0.  0.
        2    1    3    3  502    0 -0.35275280958E+03 -0.91705927634E+03  0.19741835644E+03  0.10022007127E+04  0.25500000920E-02 0.  1.
       -2    1    3    3    0  502  0.35275280958E+03  0.91705927634E+03  0.12833434605E+04  0.16162928876E+04  0.25500000920E-02 0. -1.
</event>
<event>
 5   0  0.2023479E-06  0.3413871E+04  0.7818609E-02  0.8134510E-01
       -2   -1    0    0    0  501  0.00000000000E+00  0.00000000000E+00  0.11662055316E+04  0.11662055316E+04  0.25500000920E-02 0.  1.
        2   -1    0    0  501    0  0.00000000000E+00  0.00000000000E+00 -0.24983829794E+04  0.24983829794E+04  0.25500000920E-02 0. -1.
    10030    2    1    2    0    0  0.00000000000E+00  0.00000000000E+00 -0.13321774478E+04  0.36645885110E+04  0.34138705603E+04 0.  0.
        5    1    3    3  502    0 -0.14314482746E+04 -0.80210114340E+03 -0.16123407293E+03  0.16487658789E+04  0.46999998093E+01 0.  1.
       -5    1    3    3    0  502  0.14314482746E+04  0.80210114340E+03 -0.11709433749E+04  0.20158226321E+04  0.46999998093E+01 0. -1.
</event>
<event>
 5   0  0.2073287E-06  0.2753452E+04  0.7818609E-02  0.8317867E-01
        2   -1    0    0  501    0  0.00000000000E+00  0.00000000000E+00  0.91489586723E+03  0.91489586724E+03  0.25500000920E-02 0.  1.
       -2   -1    0    0    0  501  0.00000000000E+00  0.00000000000E+00 -0.20716839112E+04  0.20716839112E+04  0.25500000920E-02 0. -1.
    10030    2    1    2    0    0  0.00000000000E+00  0.00000000000E+00 -0.11567880439E+04  0.29865797784E+04  0.27534524137E+04 0.  0.
        1    1    3    3  502    0 -0.13272552226E+03 -0.89580962356E+03 -0.17031496050E+04  0.19289399998E+04  0.50400001928E-02 0. -1.
       -1    1    3    3    0  502  0.13272552226E+03  0.89580962356E+03  0.54636156102E+03  0.10576397786E+04  0.50400001928E-02 0.  1.
</event>
<event>
 5   0  0.6890600E-07  0.3208124E+04  0.7818609E-02  0.8186675E-01
        1   -1    0    0  501    0  0.00000000000E+00  0.00000000000E+00  0.16171680692E+04  0.16171680692E+04  0.50400001928E-02 0. -1.
       -1   -1    0    0    0  501  0.00000000000E+00  0.00000000000E+00 -0.15910616797E+04  0.15910616797E+04  0.50400001928E-02 0.  1.
    10030    2    1    2    0    0  0.00000000000E+00  0.00000000000E+00  0.26106389490E+02  0.32082297489E+04  0.32081235291E+04 0.  0.
        3    1    3    3  502    0 -0.71789290549E+03 -0.59942744278E+03  0.13162965011E+04  0.16147197812E+04  0.10100000352E+00 0. -1.
       -3    1    3    3    0  502  0.71789290549E+03  0.59942744278E+03 -0.12901901116E+04  0.15935099677E+04  0.10100000352E+00 0.  1.
</event>
<event>
 5   0  0.1999883E-06  0.3429337E+04  0.7818609E-02  0.8130743E-01
       -2   -1    0    0    0  501  0.00000000000E+00  0.00000000000E+00  0.14150954418E+04  0.14150954418E+04  0.25500000920E-02 0.  1.
        2   -1    0    0  501    0  0.00000000000E+00  0.00000000000E+00 -0.20776610054E+04  0.20776610054E+04  0.25500000920E-02 0. -1.
    10030    2    1    2    0    0  0.00000000000E+00  0.00000000000E+00 -0.66256556354E+03  0.34927564472E+04  0.34293373228E+04 0.  0.
        4    1    3    3  502    0  0.14603411197E+04  0.79363839753E+03 -0.76053735104E+03  0.18278065453E+04  0.12699999809E+01 0. -1.
       -4    1    3    3    0  502 -0.14603411197E+04 -0.79363839753E+03  0.97971787500E+02  0.16649499019E+04  0.12699999809E+01 0.  1.
</event>
<event>
 5   0  0.2023479E-06  0.3553717E+04  0.7818609E-02  0.8101176E-01
        2   -1    0    0  501    0  0.00000000000E+00  0.00000000000E+00  0.18127557261E+04  0.18127557261E+04  0.25500000920E-02 0. -1.
       -2   -1    0    0    0  501  0.00000000000E+00  0.00000000000E+00 -0.17416724059E+04  0.17416724059E+04  0.25500000920E-02 0.  1.
    10030    2    1    2    0    0  0.00000000000E+00  0.00000000000E+00  0.71083320231E+02  0.35544281321E+04  0.35537172802E+04 0.  0.
        5    1    3    3  502    0 -0.12221576759E+03  0.73034667554E+03  0.16510618193E+04  0.18095220865E+04  0.46999998093E+01 0. -1.
       -5    1    3    3    0  502  0.12221576759E+03 -0.73034667554E+03 -0.15799784991E+04  0.17449060456E+04  0.46999998093E+01 0.  1.
</event>
<event>
 5   0  0.2073287E-06  0.3451797E+04  0.7818609E-02  0.8125309E-01
        2   -1    0    0  501    0  0.00000000000E+00  0.00000000000E+00  0.11473038497E+04  0.11473038497E+04  0.25500000920E-02 0. -1.
       -2   -1    0    0    0  501  0.00000000000E+00  0.00000000000E+00 -0.25962832655E+04  0.25962832655E+04  0.25500000920E-02 0.  1.
    10030    2    1    2    0    0  0.00000000000E+00  0.00000000000E+00 -0.14489794158E+04  0.37435871152E+04  0.34517970887E+04 0.  0.
        1    1    3    3  502    0 -0.78573686877E+03 -0.50591273253E+03 -0.22981447876E+04  0.24808868545E+04  0.50400001928E-02 0.  1.
       -1    1    3    3    0  502  0.78573686877E+03  0.50591273253E+03  0.84916537176E+03  0.12627002608E+04  0.50400001928E-02 0. -1.
</event>
<event>
 5   0  0.6630125E-07  0.3436632E+04  0.7818609E-02  0.8128974E-01
        1   -1    0    0  501    0  0.00000000000E+00  0.00000000000E+00  0.18591676512E+04  0.18591676513E+04  0.50400001928E-02 0. -1.
       -1   -1    0    0    0  501  0.00000000000E+00  0.00000000000E+00 -0.15881349319E+04  0.15881349320E+04  0.50400001928E-02 0.  1.
    10030    2    1    2    0    0  0.00000000000E+00  0.00000000000E+00  0.27103271930E+03  0.34473025832E+04  0.34366315434E+04 0.  0.
        1    1    3    3  502    0  0.16627765601E+02 -0.98641817515E+03 -0.12757322884E+04  0.16126965525E+04  0.50400001928E-02 0.  1.
       -1    1    3    3    0  502 -0.16627765601E+02  0.98641817515E+03  0.15467650077E+04  0.18346060307E+04  0.50400001928E-02 0. -1.
</event>
<event>
 5   0  0.6630125E-07  0.3092291E+04  0.7818609E-02  0.8217857E-01
       -4   -1    0    0    0  501  0.00000000000E+00  0.00000000000E+00  0.14159534740E+04  0.14159540435E+04  0.12699999809E+01 0. -1.
        4   -1    0    0  501    0  0.00000000000E+00  0.00000000000E+00 -0.16883073514E+04  0.16883078291E+04  0.12699999809E+01 0.  1.
    10030    2    1    2    0    0  0.00000000000E+00  0.00000000000E+00 -0.27235387743E+03  0.31042618726E+04  0.30922912442E+04 0.  0.
        4    1    3    3  502    0 -0.10325456071E+04 -0.89519126383E+03  0.58984250585E+03  0.14884332784E+04  0.12699999809E+01 0.  1.
       -4    1    3    3    0  502  0.10325456071E+04  0.89519126383E+03 -0.86219638328E+03  0.16158285942E+04  0.12699999809E+01 0. -1.
</event>
<event>
 5   0  0.7378896E-07  0.3387971E+04  0.7818609E-02  0.8140865E-01
       -1   -1    0    0    0  501  0.00000000000E+00  0.00000000000E+00  0.11939774770E+04  0.11939774770E+04  0.50400001928E-02 0. -1.
        1   -1    0    0  501    0  0.00000000000E+00  0.00000000000E+00 -0.24033839049E+04  0.24033839049E+04  0.50400001928E-02 0.  1.
    10030    2    1    2    0    0  0.00000000000E+00  0.00000000000E+00 -0.12094064279E+04  0.35973613819E+04  0.33879706321E+04 0.  0.
        2    1    3    3  502    0  0.11195970111E+03 -0.72631161959E+03  0.10159045126E+04  0.12538442974E+04  0.25500000920E-02 0. -1.
       -2    1    3    3    0  502 -0.11195970111E+03  0.72631161959E+03 -0.22253109405E+04  0.23435170845E+04  0.25500000920E-02 0.  1.
</event>
<event>
 5   0  0.2001768E-06  0.3418974E+04  0.7818609E-02  0.8133265E-01
       -2   -1    0    0    0  501  0.00000000000E+00  0.00000000000E+00  0.15775539391E+04  0.15775539391E+04  0.25500000920E-02 0.  1.
        2   -1    0    0  501    0  0.00000000000E+00  0.00000000000E+00 -0.18524538203E+04  0.18524538203E+04  0.25500000920E-02 0. -1.
    10030    2    1    2    0    0  0.00000000000E+00  0.00000000000E+00 -0.27489988118E+03  0.34300077594E+04  0.34189740105E+04 0.  0.
        2    1    3    3  502    0  0.90613255479E+03  0.60058199835E+03 -0.14610145906E+04  0.18210817053E+04  0.25500000920E-02 0. -1.
       -2    1    3    3    0  502 -0.90613255479E+03 -0.60058199835E+03  0.11861147094E+04  0.16089260540E+04  0.25500000920E-02 0.  1.
</event>
<event>
 5   0  0.1999883E-06  0.3522625E+04  0.7818609E-02  0.8108449E-01
        2   -1    0    0  501    0  0.00000000000E+00  0.00000000000E+00  0.20682881833E+04  0.20682881833E+04  0.25500000920E-02 0.  1.
       -2   -1    0    0    0  501  0.00000000000E+00  0.00000000000E+00 -0.14998980646E+04  0.14998980646E+04  0.25500000920E-02 0. -1.
    10030    2    1    2    0    0  0.00000000000E+00  0.00000000000E+00  0.56839011867E+03  0.35681862480E+04  0.35226248414E+04 0.  0.
        4    1    3    3  502    0 -0.16666472769E+04  0.45398117394E+03 -0.64359877499E+02  0.17285704668E+04  0.12699999809E+01 0. -1.
       -4    1    3    3    0  502  0.16666472769E+04 -0.45398117394E+03  0.63274999617E+03  0.18396157812E+04  0.12699999809E+01 0.  1.
</event>
<event>
 5   0  0.2023479E-06  0.3527785E+04  0.7818609E-02  0.8107237E-01
        2   -1    0    0  501    0  0.00000000000E+00  0.00000000000E+00  0.19540627875E+04  0.19540627875E+04  0.25500000920E-02 0. -1.
       -2   -1    0    0    0  501  0.00000000000E+00  0.00000000000E+00 -0.15922298614E+04  0.15922298614E+04  0.25500000920E-02 0.  1.
    10030    2    1    2    0    0  0.00000000000E+00  0.00000000000E+00  0.36183292613E+03  0.35462926489E+04  0.35277852096E+04 0.  0.
        5    1    3    3  502    0  0.15615232595E+02 -0.15336537498E+04 -0.69483551800E+03  0.16837921923E+04  0.46999998093E+01 0.  1.
       -5    1    3    3    0  502 -0.15615232595E+02  0.15336537498E+04  0.10566684441E+04  0.18625004566E+04  0.46999998093E+01 0. -1.
</event>
<event>
 5   0  0.6630125E-07  0.3407548E+04  0.7818609E-02  0.8136056E-01
        1   -1    0    0  501    0  0.00000000000E+00  0.00000000000E+00  0.16300335149E+04  0.16300335149E+04  0.50400001928E-02 0.  1.
       -1   -1    0    0    0  501  0.00000000000E+00  0.00000000000E+00 -0.17808507496E+04  0.17808507496E+04  0.50400001928E-02 0. -1.
    10030    2    1    2    0    0  0.00000000000E+00  0.00000000000E+00 -0.15081723471E+03  0.34108842645E+04  0.34075483309E+04 0.  0.
        1    1    3    3  502    0  0.15023490178E+04 -0.52696379177E+03  0.53190026965E+03  0.16785890819E+04  0.50400001928E-02 0.  1.
       -1    1    3    3    0  502 -0.15023490178E+04  0.52696379177E+03 -0.68271750436E+03  0.17322951826E+04  0.50400001928E-02 0. -1.
</event>
<event>
 5   0  0.6630125E-07  0.3505148E+04  0.7818609E-02  0.8112571E-01
       -1   -1    0    0    0  501  0.00000000000E+00  0.00000000000E+00  0.18718083599E+04  0.18718083599E+04  0.50400001928E-02 0. -1.
        1   -1    0    0  501    0  0.00000000000E+00  0.00000000000E+00 -0.16409349845E+04  0.16409349845E+04  0.50400001928E-02 0.  1.
    10030    2    1    2    0    0  0.00000000000E+00  0.00000000000E+00  0.23087337533E+03  0.35127433444E+04  0.35051481122E+04 0.  0.
        4    1    3    3  502    0  0.55393028678E+03  0.10694486143E+04  0.13913628401E+04  0.18402313080E+04  0.12699999809E+01 0. -1.
       -4    1    3    3    0  502 -0.55393028678E+03 -0.10694486143E+04 -0.11604894648E+04  0.16725120364E+04  0.12699999809E+01 0.  1.
</event>
<event>
 5   0  0.2001768E-06  0.3371004E+04  0.7818609E-02  0.8145060E-01
       -2   -1    0    0    0  501  0.00000000000E+00  0.00000000000E+00  0.15068823888E+04  0.15068823888E+04  0.25500000920E-02 0. -1.
        2   -1    0    0  501    0  0.00000000000E+00  0.00000000000E+00 -0.18852942616E+04  0.18852942616E+04  0.25500000920E-02 0.  1.
    10030    2    1    2    0    0  0.00000000000E+00  0.00000000000E+00 -0.37841187276E+03  0.33921766504E+04  0.33710038389E+04 0.  0.
        2    1    3    3  502    0 -0.78096392576E+03  0.29575173585E+03 -0.16624859967E+04  0.18604390428E+04  0.25500000920E-02 0.  1.
       -2    1    3    3    0  502  0.78096392576E+03 -0.29575173585E+03  0.12840741240E+04  0.15317376076E+04  0.25500000920E-02 0. -1.
</event>
<event>
 5   0  0.2073287E-06  0.2599981E+04  0.7818609E-02  0.8368208E-01
       -2   -1    0    0    0  501  0.00000000000E+00  0.00000000000E+00  0.81079040197E+03  0.81079040198E+03  0.25500000920E-02 0. -1.
        2   -1    0    0  501    0  0.00000000000E+00  0.00000000000E+00 -0.20843557796E+04  0.20843557796E+04  0.25500000920E-02 0.  1.
    10030    2    1    2    0    0  0.00000000000E+00  0.00000000000E+00 -0.12735653776E+04  0.28951461816E+04  0.25999812772E+04 0.  0.
        1    1    3    3  502    0  0.77361136532E+01  0.97158904036E+03  0.32493913962E+03  0.10245147902E+04  0.50400001928E-02 0. -1.
       -1    1    3    3    0  502 -0.77361136532E+01 -0.97158904036E+03 -0.15985045173E+04  0.18706313914E+04  0.50400001928E-02 0.  1.
</event>
<event>
 5   0  0.1999883E-06  0.3631325E+04  0.7818609E-02  0.8083354E-01
        2   -1    0    0  501    0  0.00000000000E+00  0.00000000000E+00  0.18384908262E+04  0.18384908262E+04  0.25500000920E-02 0.  1.
       -2   -1    0    0    0  501  0.00000000000E+00  0.00000000000E+00 -0.17931174237E+04  0.17931174237E+04  0.25500000920E-02 0. -1.
    10030    2    1    2    0    0  0.00000000000E+00  0.00000000000E+00  0.45373402459E+02  0.36316082499E+04  0.36313247906E+04 0.  0.
        4    1    3    3  502    0 -0.10756600592E+02 -0.11684579471E+04 -0.13671047053E+04  0.17984400371E+04  0.12699999809E+01 0. -1.
       -4    1    3    3    0  502  0.10756600592E+02  0.11684579471E+04  0.14124781078E+04  0.18331682128E+04  0.12699999809E+01 0.  1.
</event>
<event>
 5   0  0.7378896E-07  0.3563654E+04  0.7818609E-02  0.8098868E-01
        1   -1    0    0  501    0  0.00000000000E+00  0.00000000000E+00  0.16391380863E+04  0.16391380863E+04  0.50400001928E-02 0.  1.
       -1   -1    0    0    0  501  0.00000000000E+00  0.00000000000E+00 -0.19369373357E+04  0.19369373357E+04  0.50400001928E-02 0. -1.
    10030    2    1    2    0    0  0.00000000000E+00  0.00000000000E+00 -0.29779924937E+03  0.35760754220E+04  0.35636541682E+04 0.  0.
        2    1    3    3  502    0  0.42735283050E+03  0.14073882058E+04  0.86035729841E+03  0.17039913980E+04  0.25500000920E-02 0.  1.
       -2    1    3    3    0  502 -0.42735283050E+03 -0.14073882058E+04 -0.11581565478E+04  0.18720840240E+04  0.25500000920E-02 0. -1.
</event>
<event>
 5   0  0.2023479E-06  0.3497566E+04  0.7818609E-02  0.8114367E-01
        2   -1    0    0  501    0  0.00000000000E+00  0.00000000000E+00  0.27008997507E+04  0.27008997507E+04  0.25500000920E-02 0.  1.
       -2   -1    0    0    0  501  0.00000000000E+00  0.00000000000E+00 -0.11323048095E+04  0.11323048095E+04  0.25500000920E-02 0. -1.
    10030    2    1    2    0    0  0.00000000000E+00  0.00000000000E+00  0.15685949412E+04  0.38332045601E+04  0.34975658836E+04 0.  0.
        5    1    3    3  502    0 -0.78973112803E+03 -0.89237649338E+02  0.24915332157E+04  0.26152243628E+04  0.46999998093E+01 0.  1.
       -5    1    3    3    0  502  0.78973112803E+03  0.89237649338E+02 -0.92293827450E+03  0.12179801974E+04  0.46999998093E+01 0. -1.
</event>
<event>
 5   0  0.6630125E-07  0.3445119E+04  0.7818609E-02  0.8126921E-01
       -1   -1    0    0    0  501  0.00000000000E+00  0.00000000000E+00  0.14312010550E+04  0.14312010550E+04  0.50400001928E-02 0. -1.
        1   -1    0    0  501    0  0.00000000000E+00  0.00000000000E+00 -0.20732312991E+04  0.20732312991E+04  0.50400001928E-02 0.  1.
    10030    2    1    2    0    0  0.00000000000E+00  0.00000000000E+00 -0.64203024411E+03  0.35044323540E+04  0.34451187628E+04 0.  0.
        4    1    3    3  502    0 -0.78967095960E+02  0.10663241966E+04 -0.16947948523E+04  0.20038997727E+04  0.12699999809E+01 0.  1.
       -4    1    3    3    0  502  0.78967095960E+02 -0.10663241966E+04  0.10527646082E+04  0.15005325814E+04  0.12699999809E+01 0. -1.
</event>
<event>
 5   0  0.6630125E-07  0.2601830E+04  0.7818609E-02  0.8367580E-01
        1   -1    0    0  501    0  0.00000000000E+00  0.00000000000E+00  0.12941327379E+04  0.12941327379E+04  0.50400001928E-02 0.  1.
       -1   -1    0    0    0  501  0.00000000000E+00  0.00000000000E+00 -0.13077331510E+04  0.13077331510E+04  0.50400001928E-02 0. -1.
    10030    2    1    2    0    0  0.00000000000E+00  0.00000000000E+00 -0.13600413139E+02  0.26018658889E+04  0.26018303428E+04 0.  0.
        1    1    3    3  502    0  0.96309662260E+03  0.10170999334E+03  0.86181988960E+03  0.12963925136E+04  0.50400001928E-02 0.  1.
       -1    1    3    3    0  502 -0.96309662260E+03 -0.10170999334E+03 -0.87542030274E+03  0.13054733753E+04  0.50400001928E-02 0. -1.
</event>
<event>
 5   0  0.6630125E-07  0.3532342E+04  0.7818609E-02  0.8106168E-01
       -1   -1    0    0    0  501  0.00000000000E+00  0.00000000000E+00  0.18242708623E+04  0.18242708624E+04  0.50400001928E-02 0.  1.
        1   -1    0    0  501    0  0.00000000000E+00  0.00000000000E+00 -0.17099210819E+04  0.17099210819E+04  0.50400001928E-02 0. -1.
    10030    2    1    2    0    0  0.00000000000E+00  0.00000000000E+00  0.11434978043E+03  0.35341919443E+04  0.35323415501E+04 0.  0.
        1    1    3    3  502    0 -0.10026991078E+04 -0.11048429346E+04  0.10028026787E+04  0.17976920268E+04  0.50400001928E-02 0.  1.
       -1    1    3    3    0  502  0.10026991078E+04  0.11048429346E+04 -0.88845289825E+03  0.17364999175E+04  0.50400001928E-02 0. -1.
</event>
<event>
 5   0  0.7378896E-07  0.3535876E+04  0.7818609E-02  0.8105340E-01
        1   -1    0    0  501    0  0.00000000000E+00  0.00000000000E+00  0.13390977060E+04  0.13390977061E+04  0.50400001928E-02 0.  1.
       -1   -1    0    0    0  501  0.00000000000E+00  0.00000000000E+00 -0.23341128793E+04  0.23341128793E+04  0.50400001928E-02 0. -1.
    10030    2    1    2    0    0  0.00000000000E+00  0.00000000000E+00 -0.99501517324E+03  0.36732105853E+04  0.35358762435E+04 0.  0.
        2    1    3    3  502    0  0.17200118679E+04 -0.40843433998E+03 -0.47819055844E+03  0.18313726125E+04  0.25500000920E-02 0. -1.
       -2    1    3    3    0  502 -0.17200118679E+04  0.40843433998E+03 -0.51682461480E+03  0.18418379728E+04  0.25500000920E-02 0.  1.
</event>
<event>
 5   0  0.6630125E-07  0.3637516E+04  0.7818609E-02  0.8081952E-01
        1   -1    0    0  501    0  0.00000000000E+00  0.00000000000E+00  0.23075685951E+04  0.23075685952E+04  0.50400001928E-02 0. -1.
       -1   -1    0    0    0  501  0.00000000000E+00  0.00000000000E+00 -0.14334915306E+04  0.14334915306E+04  0.50400001928E-02 0.  1.
    10030    2    1    2    0    0  0.00000000000E+00  0.00000000000E+00  0.87407706452E+03  0.37410601258E+04  0.36375156563E+04 0.  0.
        1    1    3    3  502    0 -0.16247143040E+04  0.73894521051E+03  0.77599780967E+02  0.17865492772E+04  0.50400001928E-02 0.  1.
       -1    1    3    3    0  502  0.16247143040E+04 -0.73894521051E+03  0.79647728355E+03  0.19545108486E+04  0.50400001928E-02 0. -1.
</event>
<event>
 5   0  0.2073287E-06  0.3554445E+04  0.7818609E-02  0.8101007E-01
       -2   -1    0    0    0  501  0.00000000000E+00  0.00000000000E+00  0.14541891484E+04  0.14541891484E+04  0.25500000920E-02 0. -1.
        2   -1    0    0  501    0  0.00000000000E+00  0.00000000000E+00 -0.21720143721E+04  0.21720143722E+04  0.25500000920E-02 0.  1.
    10030    2    1    2    0    0  0.00000000000E+00  0.00000000000E+00 -0.71782522375E+03  0.36262035205E+04  0.35544449525E+04 0.  0.
        1    1    3    3  502    0  0.12399730419E+04 -0.64587557642E+03  0.76043042639E+03  0.15915221765E+04  0.50400001928E-02 0. -1.
       -1    1    3    3    0  502 -0.12399730419E+04  0.64587557642E+03 -0.14782556501E+04  0.20346813441E+04  0.50400001928E-02 0.  1.
</event>
<event>
 5   0  0.6890600E-07  0.3550789E+04  0.7818609E-02  0.8101858E-01
       -1   -1    0    0    0  501  0.00000000000E+00  0.00000000000E+00  0.27383304035E+04  0.27383304035E+04  0.50400001928E-02 0. -1.
        1   -1    0    0  501    0  0.00000000000E+00  0.00000000000E+00 -0.11510759660E+04  0.11510759661E+04  0.50400001928E-02 0.  1.
    10030    2    1    2    0    0  0.00000000000E+00  0.00000000000E+00  0.15872544374E+04  0.38894063695E+04  0.35507893852E+04 0.  0.
        3    1    3    3  502    0 -0.57782587434E+03 -0.34376531305E+03  0.25934833626E+04  0.26792187842E+04  0.10100000352E+00 0. -1.
       -3    1    3    3    0  502  0.57782587434E+03  0.34376531305E+03 -0.10062289252E+04  0.12101875853E+04  0.10100000352E+00 0.  1.
</event>
<event>
 5   0  0.1999883E-06  0.3518688E+04  0.7818609E-02  0.8109375E-01
        2   -1    0    0  501    0  0.00000000000E+00  0.00000000000E+00  0.16341402554E+04  0.16341402554E+04  0.25500000920E-02 0. -1.
       -2   -1    0    0    0  501  0.00000000000E+00  0.00000000000E+00 -0.18941403051E+04  0.18941403051E+04  0.25500000920E-02 0.  1.
    10030    2    1    2    0    0  0.00000000000E+00  0.00000000000E+00 -0.26000004972E+03  0.35282805604E+04  0.35186877792E+04 0.  0.
        4    1    3    3  502    0  0.50757749611E+03  0.85799041607E+03 -0.15836096273E+04  0.18712572066E+04  0.12699999809E+01 0.  1.
       -4    1    3    3    0  502 -0.50757749611E+03 -0.85799041607E+03  0.13236095775E+04  0.16570233539E+04  0.12699999809E+01 0. -1.
</event>
<event>
 5   0  0.2020725E-06  0.3543308E+04  0.7818609E-02  0.8103602E-01
       -2   -1    0    0    0  501  0.00000000000E+00  0.00000000000E+00  0.18624869875E+04  0.18624869875E+04  0.25500000920E-02 0. -1.
        2   -1    0    0  501    0  0.00000000000E+00  0.00000000000E+00 -0.16852511536E+04  0.16852511536E+04  0.25500000920E-02 0.  1.
    10030    2    1    2    0    0  0.00000000000E+00  0.00000000000E+00  0.17723583390E+03  0.35477381411E+04  0.35433082531E+04 0.  0.
        3    1    3    3  502    0  0.85709745960E+03  0.79536095247E+03 -0.12440394335E+04  0.17072929515E+04  0.10100000352E+00 0.  1.
       -3    1    3    3    0  502 -0.85709745960E+03 -0.79536095247E+03  0.14212752674E+04  0.18404451896E+04  0.10100000352E+00 0. -1.
</event>
<event>
 5   0  0.2001768E-06  0.3441653E+04  0.7818609E-02  0.8127758E-01
       -2   -1    0    0    0  501  0.00000000000E+00  0.00000000000E+00  0.30636708895E+04  0.30636708895E+04  0.25500000920E-02 0. -1.
        2   -1    0    0  501    0  0.00000000000E+00  0.00000000000E+00 -0.96656734933E+03  0.96656734933E+03  0.25500000920E-02 0.  1.
    10030    2    1    2    0    0  0.00000000000E+00  0.00000000000E+00  0.20971035401E+04  0.40302382388E+04  0.34416532369E+04 0.  0.
        2    1    3    3  502    0 -0.53109728988E+03 -0.67475321629E+03 -0.69775310202E+03  0.11064427801E+04  0.25500000920E-02 0.  1.
       -2    1    3    3    0  502  0.53109728988E+03  0.67475321629E+03  0.27948566421E+04  0.29237954587E+04  0.25500000920E-02 0. -1.
</event>
<event>
 5   0  0.6630125E-07  0.3514598E+04  0.7818609E-02  0.8110339E-01
       -1   -1    0    0    0  501  0.00000000000E+00  0.00000000000E+00  0.14056782041E+04  0.14056782041E+04  0.50400001928E-02 0. -1.
        1   -1    0    0  501    0  0.00000000000E+00  0.00000000000E+00 -0.21968754644E+04  0.21968754645E+04  0.50400001928E-02 0.  1.
    10030    2    1    2    0    0  0.00000000000E+00  0.00000000000E+00 -0.79119726032E+03  0.36025536686E+04  0.35145981037E+04 0.  0.
        5    1    3    3  502    0 -0.16991739092E+04  0.48706314249E+02  0.61100210884E+02  0.17009760740E+04  0.46999998093E+01 0. -1.
       -5    1    3    3    0  502  0.16991739092E+04 -0.48706314249E+02 -0.85229747121E+03  0.19015775945E+04  0.46999998093E+01 0.  1.
</event>
<event>
 5   0  0.6630125E-07  0.3408102E+04  0.7818609E-02  0.8135921E-01
        1   -1    0    0  501    0  0.00000000000E+00  0.00000000000E+00  0.19686389500E+04  0.19686389501E+04  0.50400001928E-02 0. -1.
       -1   -1    0    0    0  501  0.00000000000E+00  0.00000000000E+00 -0.14750243152E+04  0.14750243152E+04  0.50400001928E-02 0.  1.
    10030    2    1    2    0    0  0.00000000000E+00  0.00000000000E+00  0.49361463481E+03  0.34436632653E+04  0.34081022985E+04 0.  0.
        1    1    3    3  502    0 -0.38901200330E+03  0.85903923836E+03  0.16809519056E+04  0.19274018939E+04  0.50400001928E-02 0. -1.
       -1    1    3    3    0  502  0.38901200330E+03 -0.85903923836E+03 -0.11873372708E+04  0.15162613714E+04  0.50400001928E-02 0.  1.
</event>
<event>
 5   0  0.1999883E-06  0.3440013E+04  0.7818609E-02  0.8128155E-01
       -2   -1    0    0    0  501  0.00000000000E+00  0.00000000000E+00  0.31535746293E+04  0.31535746293E+04  0.25500000920E-02 0.  1.
        2   -1    0    0  501    0  0.00000000000E+00  0.00000000000E+00 -0.93811730989E+03  0.93811730989E+03  0.25500000920E-02 0. -1.
    10030    2    1    2    0    0  0.00000000000E+00  0.00000000000E+00  0.22154573194E+04  0.40916919392E+04  0.34400133417E+04 0.  0.
        4    1    3    3  502    0  0.82988065920E+03  0.65637309916E+03  0.27206794721E+04  0.29191824124E+04  0.12699999809E+01 0.  1.
       -4    1    3    3    0  502 -0.82988065920E+03 -0.65637309916E+03 -0.50522215276E+03  0.11725095268E+04  0.12699999809E+01 0. -1.
</event>
<event>
 5   0  0.1999883E-06  0.2237434E+04  0.7818609E-02  0.8503007E-01
       -2   -1    0    0    0  501  0.00000000000E+00  0.00000000000E+00  0.13852424753E+04  0.13852424753E+04  0.25500000920E-02 0.  1.
        2   -1    0    0  501    0  0.00000000000E+00  0.00000000000E+00 -0.90347206651E+03  0.90347206651E+03  0.25500000920E-02 0. -1.
    10030    2    1    2    0    0  0.00000000000E+00  0.00000000000E+00  0.48177040880E+03  0.22887145418E+04  0.22374341392E+04 0.  0.
        4    1    3    3  502    0  0.69822726258E+03 -0.53413958807E+03 -0.46685361702E+03  0.99537948661E+03  0.12699999809E+01 0. -1.
       -4    1    3    3    0  502 -0.69822726258E+03  0.53413958807E+03  0.94862402582E+03  0.12933350552E+04  0.12699999809E+01 0.  1.
</event>
<event>
 5   0  0.2023479E-06  0.3142714E+04  0.7818609E-02  0.8204112E-01
       -2   -1    0    0    0  501  0.00000000000E+00  0.00000000000E+00  0.88547488143E+03  0.88547488143E+03  0.25500000920E-02 0.  1.
        2   -1    0    0  501    0  0.00000000000E+00  0.00000000000E+00 -0.27885176796E+04  0.27885176796E+04  0.25500000920E-02 0. -1.
    10030    2    1    2    0    0  0.00000000000E+00  0.00000000000E+00 -0.19030427982E+04  0.36739925610E+04  0.31427137074E+04 0.  0.
        5    1    3    3  502    0 -0.44712427191E+02 -0.46022411547E+03  0.80413274804E+03  0.92760821691E+03  0.46999998093E+01 0.  1.
       -5    1    3    3    0  502  0.44712427191E+02  0.46022411547E+03 -0.27071755462E+04  0.27463843441E+04  0.46999998093E+01 0. -1.
</event>
<event>
 5   0  0.2020725E-06  0.3431624E+04  0.7818609E-02  0.8130188E-01
        2   -1    0    0  501    0  0.00000000000E+00  0.00000000000E+00  0.27430482865E+04  0.27430482865E+04  0.25500000920E-02 0.  1.
       -2   -1    0    0    0  501  0.00000000000E+00  0.00000000000E+00 -0.10732625288E+04  0.10732625288E+04  0.25500000920E-02 0. -1.
    10030    2    1    2    0    0  0.00000000000E+00  0.00000000000E+00  0.16697857578E+04  0.38163108153E+04  0.34316240707E+04 0.  0.
        3    1    3    3  502    0  0.13044160825E+04 -0.31987951145E+03  0.20223885096E+04  0.24277313509E+04  0.10100000352E+00 0.  1.
       -3    1    3    3    0  502 -0.13044160825E+04  0.31987951145E+03 -0.35260275190E+03  0.13885794644E+04  0.10100000352E+00 0. -1.
</event>
<event>
 5   0  0.1999883E-06  0.3481136E+04  0.7818609E-02  0.8118275E-01
       -2   -1    0    0    0  501  0.00000000000E+00  0.00000000000E+00  0.95074460892E+03  0.95074460892E+03  0.25500000920E-02 0. -1.
        2   -1    0    0  501    0  0.00000000000E+00  0.00000000000E+00 -0.31865314287E+04  0.31865314287E+04  0.25500000920E-02 0.  1.
    10030    2    1    2    0    0  0.00000000000E+00  0.00000000000E+00 -0.22357868197E+04  0.41372760376E+04  0.34811363529E+04 0.  0.
        4    1    3    3  502    0 -0.11021883583E+04  0.73043909329E+03 -0.24631482347E+04  0.27956146525E+04  0.12699999809E+01 0.  1.
       -4    1    3    3    0  502  0.11021883583E+04 -0.73043909329E+03  0.22736141498E+03  0.13416613851E+04  0.12699999809E+01 0. -1.
</event>
<event>
 5   0  0.6630125E-07  0.3573112E+04  0.7818609E-02  0.8096679E-01
        1   -1    0    0  501    0  0.00000000000E+00  0.00000000000E+00  0.15620629691E+04  0.15620629691E+04  0.50400001928E-02 0.  1.
       -1   -1    0    0    0  501  0.00000000000E+00  0.00000000000E+00 -0.20433121686E+04  0.20433121686E+04  0.50400001928E-02 0. -1.
    10030    2    1    2    0    0  0.00000000000E+00  0.00000000000E+00 -0.48124919948E+03  0.36053751377E+04  0.35731119618E+04 0.  0.
        5    1    3    3  502    0  0.39189807439E+03  0.16784537304E+04 -0.71494266320E+03  0.18660000342E+04  0.46999998093E+01 0. -1.
       -5    1    3    3    0  502 -0.39189807439E+03 -0.16784537304E+04  0.23369346371E+03  0.17393751035E+04  0.46999998093E+01 0.  1.
</event>
<event>
 5   0  0.7378896E-07  0.3431352E+04  0.7818609E-02  0.8130254E-01
        1   -1    0    0  501    0  0.00000000000E+00  0.00000000000E+00  0.12252879071E+04  0.12252879071E+04  0.50400001928E-02 0. -1.
       -1   -1    0    0    0  501  0.00000000000E+00  0.00000000000E+00 -0.24023285454E+04  0.24023285454E+04  0.50400001928E-02 0.  1.
    10030    2    1    2    0    0  0.00000000000E+00  0.00000000000E+00 -0.11770406384E+04  0.36276164525E+04  0.34313519875E+04 0.  0.
        2    1    3    3  502    0 -0.15932735073E+03 -0.16859864218E+04 -0.29782236997E+03  0.17194864300E+04  0.25500000920E-02 0. -1.
       -2    1    3    3    0  502  0.15932735073E+03  0.16859864218E+04 -0.87921826840E+03  0.19081300224E+04  0.25500000920E-02 0.  1.
</event>
<event>
 5   0  0.1999883E-06  0.3668082E+04  0.7818609E-02  0.8075072E-01
       -2   -1    0    0    0  501  0.00000000000E+00  0.00000000000E+00  0.24869810201E+04  0.24869810201E+04  0.25500000920E-02 0.  1.
        2   -1    0    0  501    0  0.00000000000E+00  0.00000000000E+00 -0.13525259896E+04  0.13525259896E+04  0.25500000920E-02 0. -1.
    10030    2    1    2    0    0  0.00000000000E+00  0.00000000000E+00  0.11344550306E+04  0.38395070097E+04  0.36680820412E+04 0.  0.
        4    1    3    3  502    0  0.40222398378E+03  0.64152882343E+03 -0.11812765999E+04  0.14031248636E+04  0.12699999809E+01 0. -1.
       -4    1    3    3    0  502 -0.40222398378E+03 -0.64152882343E+03  0.23157316305E+04  0.24363821461E+04  0.12699999809E+01 0.  1.
</event>
<event>
 5   0  0.2020725E-06  0.3450752E+04  0.7818609E-02  0.8125561E-01
        2   -1    0    0  501    0  0.00000000000E+00  0.00000000000E+00  0.19257192738E+04  0.19257192738E+04  0.25500000920E-02 0.  1.
       -2   -1    0    0    0  501  0.00000000000E+00  0.00000000000E+00 -0.15458757312E+04  0.15458757312E+04  0.25500000920E-02 0. -1.
    10030    2    1    2    0    0  0.00000000000E+00  0.00000000000E+00  0.37984354252E+03  0.34715950050E+04  0.34507522023E+04 0.  0.
        3    1    3    3  502    0  0.12655933786E+03  0.80198725070E+03 -0.13416802818E+04  0.15682177161E+04  0.10100000352E+00 0. -1.
       -3    1    3    3    0  502 -0.12655933786E+03 -0.80198725070E+03  0.17215238243E+04  0.19033772889E+04  0.10100000352E+00 0.  1.
</event>
<event>
 5   0  0.6630125E-07  0.2157817E+04  0.7818609E-02  0.8536193E-01
        3   -1    0    0  501    0  0.00000000000E+00  0.00000000000E+00  0.10122744821E+04  0.10122744871E+04  0.10100000352E+00 0. -1.
       -3   -1    0    0    0  501  0.00000000000E+00  0.00000000000E+00 -0.11499290520E+04  0.11499290565E+04  0.10100000352E+00 0.  1.
    10030    2    1    2    0    0  0.00000000000E+00  0.00000000000E+00 -0.13765456994E+03  0.21622035436E+04  0.21578172729E+04 0.  0.
        2    1    3    3  502    0 -0.77579772518E+03  0.74978615074E+03 -0.67254507925E+02  0.10810016425E+04  0.25500000920E-02 0. -1.
       -2    1    3    3    0  502  0.77579772518E+03 -0.74978615074E+03 -0.70400062017E+02  0.10812019011E+04  0.25500000920E-02 0.  1.
</event>
<event>
 5   0  0.2001768E-06  0.3523590E+04  0.7818609E-02  0.8108222E-01
        2   -1    0    0  501    0  0.00000000000E+00  0.00000000000E+00  0.25079451117E+04  0.25079451117E+04  0.25500000920E-02 0.  1.
       -2   -1    0    0    0  501  0.00000000000E+00  0.00000000000E+00 -0.12376357353E+04  0.12376357353E+04  0.25500000920E-02 0. -1.
    10030    2    1    2    0    0  0.00000000000E+00  0.00000000000E+00  0.12703093764E+04  0.37455808470E+04  0.35235904941E+04 0.  0.
        2    1    3    3  502    0  0.17391626824E+04 -0.28102058232E+03  0.61791278889E+03  0.18669428535E+04  0.25500000920E-02 0.  1.
       -2    1    3    3    0  502 -0.17391626824E+04  0.28102058232E+03  0.65239658750E+03  0.18786379936E+04  0.25500000920E-02 0. -1.
</event>
<event>
 5   0  0.1999883E-06  0.3491391E+04  0.7818609E-02  0.8115833E-01
        2   -1    0    0  501    0  0.00000000000E+00  0.00000000000E+00  0.23195802501E+04  0.23195802501E+04  0.25500000920E-02 0.  1.
       -2   -1    0    0    0  501  0.00000000000E+00  0.00000000000E+00 -0.13137946074E+04  0.13137946074E+04  0.25500000920E-02 0. -1.
    10030    2    1    2    0    0  0.00000000000E+00  0.00000000000E+00  0.10057856426E+04  0.36333748575E+04  0.34913905677E+04 0.  0.
        4    1    3    3  502    0  0.89950568284E+03  0.49351439397E+03  0.19726975959E+04  0.22235566888E+04  0.12699999809E+01 0.  1.
       -4    1    3    3    0  502 -0.89950568284E+03 -0.49351439397E+03 -0.96691195325E+03  0.14098181687E+04  0.12699999809E+01 0. -1.
</event>
<event>
 5   0  0.6630125E-07  0.2864340E+04  0.7818609E-02  0.8283567E-01
        1   -1    0    0  501    0  0.00000000000E+00  0.00000000000E+00  0.86194394001E+03  0.86194394003E+03  0.50400001928E-02 0. -1.
       -1   -1    0    0    0  501  0.00000000000E+00  0.00000000000E+00 -0.23796334570E+04  0.23796334570E+04  0.50400001928E-02 0.  1.
    10030    2    1    2    0    0  0.00000000000E+00  0.00000000000E+00 -0.15176895170E+04  0.32415773970E+04  0.28643398107E+04 0.  0.
        1    1    3    3  502    0  0.14812135372E+03 -0.19379269366E+03  0.83826425539E+03  0.87303064404E+03  0.50400001928E-02 0. -1.
       -1    1    3    3    0  502 -0.14812135372E+03  0.19379269366E+03 -0.23559537724E+04  0.23685467530E+04  0.50400001928E-02 0.  1.
</event>
<event>
 5   0  0.2001768E-06  0.2823097E+04  0.7818609E-02  0.8296133E-01
        2   -1    0    0  501    0  0.00000000000E+00  0.00000000000E+00  0.18515372428E+04  0.18515372428E+04  0.25500000920E-02 0.  1.
       -2   -1    0    0    0  501  0.00000000000E+00  0.00000000000E+00 -0.10761163397E+04  0.10761163397E+04  0.25500000920E-02 0. -1.
    10030    2    1    2    0    0  0.00000000000E+00  0.00000000000E+00  0.77542090308E+03  0.29276535826E+04  0.28230972216E+04 0.  0.
        2    1    3    3  502    0  0.77836770007E+03  0.59752557003E+03  0.14399706449E+04  0.17425293517E+04  0.25500000920E-02 0.  1.
       -2    1    3    3    0  502 -0.77836770007E+03 -0.59752557003E+03 -0.66454974179E+03  0.11851242309E+04  0.25500000920E-02 0. -1.
</event>
<event>
 5   0  0.6630125E-07  0.3472197E+04  0.7818609E-02  0.8120411E-01
        1   -1    0    0  501    0  0.00000000000E+00  0.00000000000E+00  0.15186745536E+04  0.15186745536E+04  0.50400001928E-02 0. -1.
       -1   -1    0    0    0  501  0.00000000000E+00  0.00000000000E+00 -0.19846503166E+04  0.19846503166E+04  0.50400001928E-02 0.  1.
    10030    2    1    2    0    0  0.00000000000E+00  0.00000000000E+00 -0.46597576300E+03  0.35033248703E+04  0.34721969609E+04 0.  0.
        5    1    3    3  502    0  0.41265712612E+03 -0.53572283756E+02 -0.19335831706E+04  0.19778578971E+04  0.46999998093E+01 0.  1.
       -5    1    3    3    0  502 -0.41265712612E+03  0.53572283756E+02  0.14676074076E+04  0.15254669732E+04  0.46999998093E+01 0. -1.
</event>
<event>
 5   0  0.6890600E-07  0.3391558E+04  0.7818609E-02  0.8139981E-01
       -1   -1    0    0    0  501  0.00000000000E+00  0.00000000000E+00  0.15709293121E+04  0.15709293121E+04  0.50400001928E-02 0.  1.
        1   -1    0    0  501    0  0.00000000000E+00  0.00000000000E+00 -0.18305514193E+04  0.18305514193E+04  0.50400001928E-02 0. -1.
    10030    2    1    2    0    0  0.00000000000E+00  0.00000000000E+00 -0.25962210721E+03  0.34014807314E+04  0.33915582743E+04 0.  0.
        3    1    3    3  502    0 -0.10524675437E+04 -0.26112003806E+03  0.11777652435E+04  0.16009380324E+04  0.10100000352E+00 0.  1.
       -3    1    3    3    0  502  0.10524675437E+04  0.26112003806E+03 -0.14373873507E+04  0.18005426990E+04  0.10100000352E+00 0. -1.
</event>
<event>
 5   0  0.2023479E-06  0.3589050E+04  0.7818609E-02  0.8093005E-01
       -2   -1    0    0    0  501  0.00000000000E+00  0.00000000000E+00  0.14570919830E+04  0.14570919830E+04  0.25500000920E-02 0. -1.
        2   -1    0    0  501    0  0.00000000000E+00  0.00000000000E+00 -0.22101002663E+04  0.22101002663E+04  0.25500000920E-02 0.  1.
    10030    2    1    2    0    0  0.00000000000E+00  0.00000000000E+00 -0.75300828330E+03  0.36671922493E+04  0.35890496679E+04 0.  0.
        5    1    3    3  502    0  0.34753617348E+03  0.17106111221E+04 -0.80189232735E+03  0.19209438298E+04  0.46999998093E+01 0. -1.
       -5    1    3    3    0  502 -0.34753617348E+03 -0.17106111221E+04  0.48884044047E+02  0.17462484195E+04  0.46999998093E+01 0.  1.
</event>
<event>
 5   0  0.6630125E-07  0.3500591E+04  0.7818609E-02  0.8113650E-01
       -1   -1    0    0    0  501  0.00000000000E+00  0.00000000000E+00  0.16747273853E+04  0.16747273853E+04  0.50400001928E-02 0. -1.
        1   -1    0    0  501    0  0.00000000000E+00  0.00000000000E+00 -0.18292735706E+04  0.18292735706E+04  0.50400001928E-02 0.  1.
    10030    2    1    2    0    0  0.00000000000E+00  0.00000000000E+00 -0.15454618532E+03  0.35040009559E+04  0.35005911180E+04 0.  0.
        5    1    3    3  502    0 -0.60977683013E+03  0.25991127902E+02  0.15647543659E+04  0.16795778151E+04  0.46999998093E+01 0. -1.
       -5    1    3    3    0  502  0.60977683013E+03 -0.25991127902E+02 -0.17193005512E+04  0.18244231408E+04  0.46999998093E+01 0.  1.
</event>
<event>
 5   0  0.2020725E-06  0.3690401E+04  0.7818609E-02  0.8070092E-01
        2   -1    0    0  501    0  0.00000000000E+00  0.00000000000E+00  0.18747961066E+04  0.18747961066E+04  0.25500000920E-02 0. -1.
       -2   -1    0    0    0  501  0.00000000000E+00  0.00000000000E+00 -0.18160725163E+04  0.18160725163E+04  0.25500000920E-02 0.  1.
    10030    2    1    2    0    0  0.00000000000E+00  0.00000000000E+00  0.58723590291E+02  0.36908686229E+04  0.36904014323E+04 0.  0.
        3    1    3    3  502    0  0.33864121593E+03 -0.98537544482E+03  0.15524212994E+04  0.18696669600E+04  0.10100000352E+00 0. -1.
       -3    1    3    3    0  502 -0.33864121593E+03  0.98537544482E+03 -0.14936977091E+04  0.18212016629E+04  0.10100000352E+00 0.  1.
</event>
<event>
 5   0  0.6630125E-07  0.3474305E+04  0.7818609E-02  0.8119907E-01
       -1   -1    0    0    0  501  0.00000000000E+00  0.00000000000E+00  0.17199865992E+04  0.17199865992E+04  0.50400001928E-02 0. -1.
        1   -1    0    0  501    0  0.00000000000E+00  0.00000000000E+00 -0.17544893722E+04  0.17544893722E+04  0.50400001928E-02 0.  1.
    10030    2    1    2    0    0  0.00000000000E+00  0.00000000000E+00 -0.34502773027E+02  0.34744759714E+04  0.34743046548E+04 0.  0.
        1    1    3    3  502    0  0.63695301866E+03  0.15745099465E+04 -0.38183415689E+03  0.17408584213E+04  0.50400001928E-02 0. -1.
       -1    1    3    3    0  502 -0.63695301866E+03 -0.15745099465E+04  0.34733138386E+03  0.17336175501E+04  0.50400001928E-02 0.  1.
</event>
<event>
 5   0  0.6630125E-07  0.3494102E+04  0.7818609E-02  0.8115189E-01
       -1   -1    0    0    0  501  0.00000000000E+00  0.00000000000E+00  0.25708631576E+04  0.25708631576E+04  0.50400001928E-02 0. -1.
        1   -1    0    0  501    0  0.00000000000E+00  0.00000000000E+00 -0.11872227573E+04  0.11872227573E+04  0.50400001928E-02 0.  1.
    10030    2    1    2    0    0  0.00000000000E+00  0.00000000000E+00  0.13836404003E+04  0.37580859148E+04  0.34941020285E+04 0.  0.
        5    1    3    3  502    0  0.46387957627E+03  0.16703298034E+04  0.45869773377E+03  0.17932126518E+04  0.46999998093E+01 0. -1.
       -5    1    3    3    0  502 -0.46387957627E+03 -0.16703298034E+04  0.92494266653E+03  0.19648732631E+04  0.46999998093E+01 0.  1.
</event>
<event>
 5   0  0.2020725E-06  0.2216730E+04  0.7818609E-02  0.8511497E-01
        2   -1    0    0  501    0  0.00000000000E+00  0.00000000000E+00  0.15244767127E+04  0.15244767127E+04  0.25500000920E-02 0.  1.
       -2   -1    0    0    0  501  0.00000000000E+00  0.00000000000E+00 -0.80583222197E+03  0.80583222197E+03  0.25500000920E-02 0. -1.
    10030    2    1    2    0    0  0.00000000000E+00  0.00000000000E+00  0.71864449069E+03  0.23303089346E+04  0.22167295340E+04 0.  0.
        3    1    3    3  502    0  0.30674356933E+03 -0.19425591189E+03  0.14601868725E+04  0.15046503546E+04  0.10100000352E+00 0.  1.
       -3    1    3    3    0  502 -0.30674356933E+03  0.19425591189E+03 -0.74154238181E+03  0.82565858008E+03  0.10100000352E+00 0. -1.
</event>
<event>
 5   0  0.2023479E-06  0.2994642E+04  0.7818609E-02  0.8245263E-01
       -2   -1    0    0    0  501  0.00000000000E+00  0.00000000000E+00  0.12242956253E+04  0.12242956253E+04  0.25500000920E-02 0. -1.
        2   -1    0    0  501    0  0.00000000000E+00  0.00000000000E+00 -0.18312326113E+04  0.18312326113E+04  0.25500000920E-02 0.  1.
    10030    2    1    2    0    0  0.00000000000E+00  0.00000000000E+00 -0.60693698597E+03  0.30555282366E+04  0.29946419318E+04 0.  0.
        5    1    3    3  502    0  0.64340897811E+03 -0.65759150738E+02  0.10744133572E+04  0.12540675944E+04  0.46999998093E+01 0. -1.
       -5    1    3    3    0  502 -0.64340897811E+03  0.65759150738E+02 -0.16813503432E+04  0.18014606423E+04  0.46999998093E+01 0.  1.
</event>
<event>
 5   0  0.2023479E-06  0.2995269E+04  0.7818609E-02  0.8245083E-01
        2   -1    0    0  501    0  0.00000000000E+00  0.00000000000E+00  0.19236744814E+04  0.19236744814E+04  0.25500000920E-02 0.  1.
       -2   -1    0    0    0  501  0.00000000000E+00  0.00000000000E+00 -0.11659504519E+04  0.11659504519E+04  0.25500000920E-02 0. -1.
    10030    2    1    2    0    0  0.00000000000E+00  0.00000000000E+00  0.75772402950E+03  0.30896249332E+04  0.29952690235E+04 0.  0.
        5    1    3    3  502    0  0.10193106952E+04  0.10702025636E+04  0.62847522664E+03  0.16060295829E+04  0.46999998093E+01 0.  1.
       -5    1    3    3    0  502 -0.10193106952E+04 -0.10702025636E+04  0.12924880286E+03  0.14835953504E+04  0.46999998093E+01 0. -1.
</event>
<event>
 5   0  0.6630125E-07  0.2694189E+04  0.7818609E-02  0.8336893E-01
        1   -1    0    0  501    0  0.00000000000E+00  0.00000000000E+00  0.19078458884E+04  0.19078458884E+04  0.50400001928E-02 0.  1.
       -1   -1    0    0    0  501  0.00000000000E+00  0.00000000000E+00 -0.95115835359E+03  0.95115835360E+03  0.50400001928E-02 0. -1.
    10030    2    1    2    0    0  0.00000000000E+00  0.00000000000E+00  0.95668753477E+03  0.28590042420E+04  0.26941889719E+04 0.  0.
        4    1    3    3  502    0 -0.41485304868E+02  0.10856762265E+04 -0.36677221153E+03  0.11467071847E+04  0.12699999809E+01 0. -1.
       -4    1    3    3    0  502  0.41485304868E+02 -0.10856762265E+04  0.13234597463E+04  0.17122970573E+04  0.12699999809E+01 0.  1.
</event>
<event>
 5   0  0.6630125E-07  0.3124254E+04  0.7818609E-02  0.8209113E-01
        1   -1    0    0  501    0  0.00000000000E+00  0.00000000000E+00  0.19707625597E+04  0.19707625597E+04  0.50400001928E-02 0.  1.
       -1   -1    0    0    0  501  0.00000000000E+00  0.00000000000E+00 -0.12382213883E+04  0.12382213883E+04  0.50400001928E-02 0. -1.
    10030    2    1    2    0    0  0.00000000000E+00  0.00000000000E+00  0.73254117138E+03  0.32089839479E+04  0.31242537366E+04 0.  0.
        5    1    3    3  502    0 -0.24737503988E+03  0.13993429293E+04  0.10326042157E+04  0.17566014347E+04  0.46999998093E+01 0.  1.
       -5    1    3    3    0  502  0.24737503988E+03 -0.13993429293E+04 -0.30006304432E+03  0.14523825132E+04  0.46999998093E+01 0. -1.
</event>
<event>
 5   0  0.6630125E-07  0.3562957E+04  0.7818609E-02  0.8099030E-01
        1   -1    0    0  501    0  0.00000000000E+00  0.00000000000E+00  0.18045621015E+04  0.18045621016E+04  0.50400001928E-02 0. -1.
       -1   -1    0    0    0  501  0.00000000000E+00  0.00000000000E+00 -0.17586903914E+04  0.17586903915E+04  0.50400001928E-02 0.  1.
    10030    2    1    2    0    0  0.00000000000E+00  0.00000000000E+00  0.45871710095E+02  0.35632524930E+04  0.35629572149E+04 0.  0.
        4    1    3    3  502    0  0.16035773833E+04  0.29202260588E+03 -0.69609993892E+03  0.17723697031E+04  0.12699999809E+01 0. -1.
       -4    1    3    3    0  502 -0.16035773833E+04 -0.29202260588E+03  0.74197164902E+03  0.17908827899E+04  0.12699999809E+01 0.  1.
</event>
<event>
 5   0  0.6890600E-07  0.3614956E+04  0.7818609E-02  0.8087075E-01
       -1   -1    0    0    0  501  0.00000000000E+00  0.00000000000E+00  0.18152902757E+04  0.18152902757E+04  0.50400001928E-02 0.  1.
        1   -1    0    0  501    0  0.00000000000E+00  0.00000000000E+00 -0.17996989066E+04  0.17996989067E+04  0.50400001928E-02 0. -1.
    10030    2    1    2    0    0  0.00000000000E+00  0.00000000000E+00  0.15591369013E+02  0.36149891823E+04  0.36149555596E+04 0.  0.
        3    1    3    3  502    0 -0.48883150509E+03 -0.15259407460E+04  0.84417928430E+03  0.18111018953E+04  0.10100000352E+00 0.  1.
       -3    1    3    3    0  502  0.48883150509E+03  0.15259407460E+04 -0.82858791529E+03  0.18038872870E+04  0.10100000352E+00 0. -1.
</event>
<event>
 5   0  0.6630125E-07  0.3671143E+04  0.7818609E-02  0.8074387E-01
       -1   -1    0    0    0  501  0.00000000000E+00  0.00000000000E+00  0.18038199271E+04  0.18038199271E+04  0.50400001928E-02 0. -1.
        1   -1    0    0  501    0  0.00000000000E+00  0.00000000000E+00 -0.18678817532E+04  0.18678817532E+04  0.50400001928E-02 0.  1.
    10030    2    1    2    0    0  0.00000000000E+00  0.00000000000E+00 -0.64061826072E+02  0.36717016803E+04  0.36711427800E+04 0.  0.
        4    1    3    3  502    0 -0.89546856471E+03  0.11930284012E+04  0.10377767314E+04  0.18171854263E+04  0.12699999809E+01 0.  1.
       -4    1    3    3    0  502  0.89546856471E+03 -0.11930284012E+04 -0.11018385575E+04  0.18545162539E+04  0.12699999809E+01 0. -1.
</event>
<event>
 5   0  0.2020725E-06  0.3520704E+04  0.7818609E-02  0.8108901E-01
       -2   -1    0    0    0  501  0.00000000000E+00  0.00000000000E+00  0.17356481960E+04  0.17356481960E+04  0.25500000920E-02 0.  1.
        2   -1    0    0  501    0  0.00000000000E+00  0.00000000000E+00 -0.17854074819E+04  0.17854074819E+04  0.25500000920E-02 0. -1.
    10030    2    1    2    0    0  0.00000000000E+00  0.00000000000E+00 -0.49759285955E+02  0.35210556779E+04  0.35207040631E+04 0.  0.
        3    1    3    3  502    0 -0.38640273042E+03 -0.17072095144E+04 -0.21189529382E+03  0.17631707296E+04  0.10100000352E+00 0. -1.
       -3    1    3    3    0  502  0.38640273042E+03  0.17072095144E+04  0.16213600787E+03  0.17578849483E+04  0.10100000352E+00 0.  1.
</event>
<event>
 5   0  0.2023479E-06  0.3493488E+04  0.7818609E-02  0.8115335E-01
        2   -1    0    0  501    0  0.00000000000E+00  0.00000000000E+00  0.30621372107E+04  0.30621372107E+04  0.25500000920E-02 0. -1.
       -2   -1    0    0    0  501  0.00000000000E+00  0.00000000000E+00 -0.99640019779E+03  0.99640019780E+03  0.25500000920E-02 0.  1.
    10030    2    1    2    0    0  0.00000000000E+00  0.00000000000E+00  0.20657370129E+04  0.40585374085E+04  0.34934877257E+04 0.  0.
        5    1    3    3  502    0 -0.11833612406E+04  0.12055111897E+04  0.15491469143E+04  0.22920469686E+04  0.46999998093E+01 0. -1.
       -5    1    3    3    0  502  0.11833612406E+04 -0.12055111897E+04  0.51659009864E+03  0.17664904399E+04  0.46999998093E+01 0.  1.
</event>
<event>
 5   0  0.2023479E-06  0.2244129E+04  0.7818609E-02  0.8500282E-01
        2   -1    0    0  501    0  0.00000000000E+00  0.00000000000E+00  0.55828791062E+03  0.55828791062E+03  0.25500000920E-02 0. -1.
       -2   -1    0    0    0  501  0.00000000000E+00  0.00000000000E+00 -0.22551598363E+04  0.22551598363E+04  0.25500000920E-02 0.  1.
    10030    2    1    2    0    0  0.00000000000E+00  0.00000000000E+00 -0.16968719257E+04  0.28134477469E+04  0.22441287602E+04 0.  0.
        5    1    3    3  502    0  0.74645512088E+03  0.82179188998E+03 -0.64446812300E+03  0.12837049542E+04  0.46999998093E+01 0. -1.
       -5    1    3    3    0  502 -0.74645512088E+03 -0.82179188998E+03 -0.10524038027E+04  0.15297427927E+04  0.46999998093E+01 0.  1.
</event>
<event>
 5   0  0.6630125E-07  0.3411771E+04  0.7818609E-02  0.8135023E-01
        1   -1    0    0  501    0  0.00000000000E+00  0.00000000000E+00  0.17386868086E+04  0.17386868086E+04  0.50400001928E-02 0. -1.
       -1   -1    0    0    0  501  0.00000000000E+00  0.00000000000E+00 -0.16737033000E+04  0.16737033000E+04  0.50400001928E-02 0.  1.
    10030    2    1    2    0    0  0.00000000000E+00  0.00000000000E+00  0.64983508600E+02  0.34123901086E+04  0.34117712990E+04 0.  0.
        1    1    3    3  502    0 -0.98871240873E+03  0.92706054240E+03  0.10685620499E+04  0.17259253550E+04  0.50400001928E-02 0. -1.
       -1    1    3    3    0  502  0.98871240873E+03 -0.92706054240E+03 -0.10035785413E+04  0.16864647536E+04  0.50400001928E-02 0.  1.
</event>
<event>
 5   0  0.2073287E-06  0.2257742E+04  0.7818609E-02  0.8494772E-01
       -2   -1    0    0    0  501  0.00000000000E+00  0.00000000000E+00  0.87661373565E+03  0.87661373566E+03  0.25500000920E-02 0.  1.
        2   -1    0    0  501    0  0.00000000000E+00  0.00000000000E+00 -0.14537189968E+04  0.14537189968E+04  0.25500000920E-02 0. -1.
    10030    2    1    2    0    0  0.00000000000E+00  0.00000000000E+00 -0.57710526116E+03  0.23303327325E+04  0.22577422708E+04 0.  0.
        1    1    3    3  502    0 -0.43249059194E+03 -0.31057178521E+01  0.78770619061E+03  0.89863162661E+03  0.50400001928E-02 0.  1.
       -1    1    3    3    0  502  0.43249059194E+03  0.31057178521E+01 -0.13648114518E+04  0.14317011059E+04  0.50400001928E-02 0. -1.
</event>
<event>
 5   0  0.2073287E-06  0.3447407E+04  0.7818609E-02  0.8126368E-01
       -2   -1    0    0    0  501  0.00000000000E+00  0.00000000000E+00  0.15324299714E+04  0.15324299714E+04  0.25500000920E-02 0. -1.
        2   -1    0    0  501    0  0.00000000000E+00  0.00000000000E+00 -0.19388510392E+04  0.19388510392E+04  0.25500000920E-02 0.  1.
    10030    2    1    2    0    0  0.00000000000E+00  0.00000000000E+00 -0.40642106782E+03  0.34712810105E+04  0.34474068181E+04 0.  0.
        1    1    3    3  502    0  0.81356399182E+02  0.77602592021E+03  0.13444170013E+04  0.15544427188E+04  0.50400001928E-02 0. -1.
       -1    1    3    3    0  502 -0.81356399182E+02 -0.77602592021E+03 -0.17508380691E+04  0.19168382918E+04  0.50400001928E-02 0.  1.
</event>
<event>
 5   0  0.6890600E-07  0.3416801E+04  0.7818609E-02  0.8133795E-01
        1   -1    0    0  501    0  0.00000000000E+00  0.00000000000E+00  0.17985763003E+04  0.17985763003E+04  0.50400001928E-02 0.  1.
       -1   -1    0    0    0  501  0.00000000000E+00  0.00000000000E+00 -0.16227454740E+04  0.16227454740E+04  0.50400001928E-02 0. -1.
    10030    2    1    2    0    0  0.00000000000E+00  0.00000000000E+00  0.17583082628E+03  0.34213217744E+04  0.34168005801E+04 0.  0.
        3    1    3    3  502    0 -0.89337357215E+03 -0.12970071179E+04  0.75082446510E+03  0.17447295466E+04  0.10100000352E+00 0.  1.
       -3    1    3    3    0  502  0.89337357215E+03  0.12970071179E+04 -0.57499363882E+03  0.16765922277E+04  0.10100000352E+00 0. -1.
</event>
<event>
 5   0  0.1999883E-06  0.3474997E+04  0.7818609E-02  0.8119741E-01
       -2   -1    0    0    0  501  0.00000000000E+00  0.00000000000E+00  0.16014722259E+04  0.16014722259E+04  0.25500000920E-02 0. -1.
        2   -1    0    0  501    0  0.00000000000E+00  0.00000000000E+00 -0.18850785306E+04  0.18850785306E+04  0.25500000920E-02 0.  1.
    10030    2    1    2    0    0  0.00000000000E+00  0.00000000000E+00 -0.28360630468E+03  0.34865507566E+04  0.34749969269E+04 0.  0.
        4    1    3    3  502    0  0.59450914747E+03  0.70707594559E+03  0.13346539710E+04  0.16231760084E+04  0.12699999809E+01 0. -1.
       -4    1    3    3    0  502 -0.59450914747E+03 -0.70707594559E+03 -0.16182602757E+04  0.18633747481E+04  0.12699999809E+01 0.  1.
</event>
<event>
 5   0  0.7378896E-07  0.3302893E+04  0.7818609E-02  0.8162160E-01
        1   -1    0    0  501    0  0.00000000000E+00  0.00000000000E+00  0.19772828040E+04  0.19772828040E+04  0.50400001928E-02 0.  1.
       -1   -1    0    0    0  501  0.00000000000E+00  0.00000000000E+00 -0.13793050571E+04  0.13793050571E+04  0.50400001928E-02 0. -1.
    10030    2    1    2    0    0  0.00000000000E+00  0.00000000000E+00  0.59797774686E+03  0.33565878611E+04  0.33028933806E+04 0.  0.
        2    1    3    3  502    0 -0.63225741428E+02 -0.90174604237E+03  0.17035325233E+04  0.19285140594E+04  0.25500000920E-02 0.  1.
       -2    1    3    3    0  502  0.63225741428E+02  0.90174604237E+03 -0.11055547765E+04  0.14280738017E+04  0.25500000920E-02 0. -1.
</event>
<event>
 5   0  0.2001768E-06  0.3393493E+04  0.7818609E-02  0.8139505E-01
        2   -1    0    0  501    0  0.00000000000E+00  0.00000000000E+00  0.20660842039E+04  0.20660842039E+04  0.25500000920E-02 0. -1.
       -2   -1    0    0    0  501  0.00000000000E+00  0.00000000000E+00 -0.13934325039E+04  0.13934325039E+04  0.25500000920E-02 0.  1.
    10030    2    1    2    0    0  0.00000000000E+00  0.00000000000E+00  0.67265170001E+03  0.34595167078E+04  0.33934931180E+04 0.  0.
        2    1    3    3  502    0  0.24340347637E+03  0.95929709215E+03  0.17413464887E+04  0.20029437728E+04  0.25500000920E-02 0. -1.
       -2    1    3    3    0  502 -0.24340347637E+03 -0.95929709215E+03 -0.10686947887E+04  0.14565729349E+04  0.25500000920E-02 0.  1.
</event>
<event>
 5   0  0.6630125E-07  0.2740706E+04  0.7818609E-02  0.8321917E-01
       -1   -1    0    0    0  501  0.00000000000E+00  0.00000000000E+00  0.13879782122E+04  0.13879782122E+04  0.50400001928E-02 0.  1.
        1   -1    0    0  501    0  0.00000000000E+00  0.00000000000E+00 -0.13529511707E+04  0.13529511707E+04  0.50400001928E-02 0. -1.
    10030    2    1    2    0    0  0.00000000000E+00  0.00000000000E+00  0.35027041465E+02  0.27409293829E+04  0.27407055640E+04 0.  0.
        1    1    3    3  502    0 -0.30058685941E+03  0.10934034808E+04  0.78698074388E+03  0.13802979110E+04  0.50400001928E-02 0.  1.
       -1    1    3    3    0  502  0.30058685941E+03 -0.10934034808E+04 -0.75195370242E+03  0.13606314719E+04  0.50400001928E-02 0. -1.
</event>
<event>
 5   0  0.2001768E-06  0.3408385E+04  0.7818609E-02  0.8135851E-01
        2   -1    0    0  501    0  0.00000000000E+00  0.00000000000E+00  0.24110862401E+04  0.24110862401E+04  0.25500000920E-02 0. -1.
       -2   -1    0    0    0  501  0.00000000000E+00  0.00000000000E+00 -0.12045494709E+04  0.12045494709E+04  0.25500000920E-02 0.  1.
    10030    2    1    2    0    0  0.00000000000E+00  0.00000000000E+00  0.12065367692E+04  0.36156357110E+04  0.34083853390E+04 0.  0.
        2    1    3    3  502    0 -0.17703720858E+03 -0.16874990567E+04  0.77192458448E+03  0.18640983889E+04  0.25500000920E-02 0. -1.
       -2    1    3    3    0  502  0.17703720858E+03  0.16874990567E+04  0.43461218472E+03  0.17515373221E+04  0.25500000920E-02 0.  1.
</event>
<event>
 5   0  0.2023479E-06  0.3530592E+04  0.7818609E-02  0.8106578E-01
       -2   -1    0    0    0  501  0.00000000000E+00  0.00000000000E+00  0.13003149030E+04  0.13003149030E+04  0.25500000920E-02 0. -1.
        2   -1    0    0  501    0  0.00000000000E+00  0.00000000000E+00 -0.23965498674E+04  0.23965498674E+04  0.25500000920E-02 0.  1.
    10030    2    1    2    0    0  0.00000000000E+00  0.00000000000E+00 -0.10962349644E+04  0.36968647703E+04  0.35305917398E+04 0.  0.
        5    1    3    3  502    0 -0.14565497128E+04 -0.97106926040E+03 -0.78628231518E+03  0.19190556385E+04  0.46999998093E+01 0.  1.
       -5    1    3    3    0  502  0.14565497128E+04  0.97106926040E+03 -0.30995264921E+03  0.17778091318E+04  0.46999998093E+01 0. -1.
</event>
<event>
 5   0  0.2023479E-06  0.3524755E+04  0.7818609E-02  0.8107948E-01
        2   -1    0    0  501    0  0.00000000000E+00  0.00000000000E+00  0.27040546609E+04  0.27040546609E+04  0.25500000920E-02 0.  1.
       -2   -1    0    0    0  501  0.00000000000E+00  0.00000000000E+00 -0.11486360000E+04  0.11486360000E+04  0.25500000920E-02 0. -1.
    10030    2    1    2    0    0  0.00000000000E+00  0.00000000000E+00  0.15554186609E+04  0.38526906609E+04  0.35247550437E+04 0.  0.
        5    1    3    3  502    0 -0.20007168060E+03 -0.11856853056E+04  0.21860215218E+04  0.24949129253E+04  0.46999998093E+01 0.  1.
       -5    1    3    3    0  502  0.20007168060E+03  0.11856853056E+04 -0.63060286087E+03  0.13577777356E+04  0.46999998093E+01 0. -1.
</event>
<event>
 5   0  0.2023479E-06  0.3496909E+04  0.7818609E-02  0.8114523E-01
       -2   -1    0    0    0  501  0.00000000000E+00  0.00000000000E+00  0.17584919275E+04  0.17584919275E+04  0.25500000920E-02 0.  1.
        2   -1    0    0  501    0  0.00000000000E+00  0.00000000000E+00 -0.17384743710E+04  0.17384743710E+04  0.25500000920E-02 0. -1.
    10030    2    1    2    0    0  0.00000000000E+00  0.00000000000E+00  0.20017556474E+02  0.34969662985E+04  0.34969090052E+04 0.  0.
        5    1    3    3  502    0 -0.13535087322E+04  0.98875646043E+03 -0.48743864601E+03  0.17456356291E+04  0.46999998093E+01 0. -1.
       -5    1    3    3    0  502  0.13535087322E+04 -0.98875646043E+03  0.50745620249E+03  0.17513306694E+04  0.46999998093E+01 0.  1.
</event>
<event>
 5   0  0.6630125E-07  0.3513803E+04  0.7818609E-02  0.8110527E-01
        1   -1    0    0  501    0  0.00000000000E+00  0.00000000000E+00  0.23650324253E+04  0.23650324254E+04  0.50400001928E-02 0.  1.
       -1   -1    0    0    0  501  0.00000000000E+00  0.00000000000E+00 -0.13051416100E+04  0.13051416100E+04  0.50400001928E-02 0. -1.
    10030    2    1    2    0    0  0.00000000000E+00  0.00000000000E+00  0.10598908153E+04  0.36701740354E+04  0.35138026281E+04 0.  0.
        1    1    3    3  502    0  0.16370676442E+04 -0.44271128854E+03  0.50476336053E+02  0.16966235932E+04  0.50400001928E-02 0. -1.
       -1    1    3    3    0  502 -0.16370676442E+04  0.44271128854E+03  0.10094144793E+04  0.19735504421E+04  0.50400001928E-02 0.  1.
</event>
<event>
 5   0  0.6890600E-07  0.3342975E+04  0.7818609E-02  0.8152046E-01
       -1   -1    0    0    0  501  0.00000000000E+00  0.00000000000E+00  0.10766655767E+04  0.10766655767E+04  0.50400001928E-02 0. -1.
        1   -1    0    0  501    0  0.00000000000E+00  0.00000000000E+00 -0.25949282317E+04  0.25949282317E+04  0.50400001928E-02 0.  1.
    10030    2    1    2    0    0  0.00000000000E+00  0.00000000000E+00 -0.15182626550E+04  0.36715938085E+04  0.33429746641E+04 0.  0.
        3    1    3    3  502    0 -0.50617496593E+02  0.11192615633E+04  0.60318809263E+03  0.12724560753E+04  0.10100000352E+00 0. -1.
       -3    1    3    3    0  502  0.50617496593E+02 -0.11192615633E+04 -0.21214507476E+04  0.23991377332E+04  0.10100000352E+00 0.  1.
</event>
<event>
 5   0  0.6890600E-07  0.3577877E+04  0.7818609E-02  0.8095578E-01
        1   -1    0    0  501    0  0.00000000000E+00  0.00000000000E+00  0.17513043451E+04  0.17513043451E+04  0.50400001928E-02 0. -1.
       -1   -1    0    0    0  501  0.00000000000E+00  0.00000000000E+00 -0.18273815621E+04  0.18273815621E+04  0.50400001928E-02 0.  1.
    10030    2    1    2    0    0  0.00000000000E+00  0.00000000000E+00 -0.76077216926E+02  0.35786859072E+04  0.35778771750E+04 0.  0.
        3    1    3    3  502    0  0.66504006771E+02  0.42265466871E+03  0.16993748937E+04  0.17524082834E+04  0.10100000352E+00 0. -1.
       -3    1    3    3    0  502 -0.66504006771E+02 -0.42265466871E+03 -0.17754521107E+04  0.18262776238E+04  0.10100000352E+00 0.  1.
</event>
<event>
 5   0  0.2073287E-06  0.3488307E+04  0.7818609E-02  0.8116567E-01
       -2   -1    0    0    0  501  0.00000000000E+00  0.00000000000E+00  0.22053600807E+04  0.22053600807E+04  0.25500000920E-02 0.  1.
        2   -1    0    0  501    0  0.00000000000E+00  0.00000000000E+00 -0.13793992183E+04  0.13793992183E+04  0.25500000920E-02 0. -1.
    10030    2    1    2    0    0  0.00000000000E+00  0.00000000000E+00  0.82596086239E+03  0.35847592990E+04  0.34883073095E+04 0.  0.
        1    1    3    3  502    0 -0.63931404786E+03 -0.66947641438E+03 -0.11061182047E+04  0.14423656277E+04  0.50400001928E-02 0. -1.
       -1    1    3    3    0  502  0.63931404786E+03  0.66947641438E+03  0.19320790671E+04  0.21423936713E+04  0.50400001928E-02 0.  1.
</event>
<event>
 5   0  0.6630125E-07  0.3277156E+04  0.7818609E-02  0.8168733E-01
        1   -1    0    0  501    0  0.00000000000E+00  0.00000000000E+00  0.98673429994E+03  0.98673429995E+03  0.50400001928E-02 0. -1.
       -1   -1    0    0    0  501  0.00000000000E+00  0.00000000000E+00 -0.27210339308E+04  0.27210339308E+04  0.50400001928E-02 0.  1.
    10030    2    1    2    0    0  0.00000000000E+00  0.00000000000E+00 -0.17342996309E+04  0.37077682308E+04  0.32771557857E+04 0.  0.
        5    1    3    3  502    0 -0.14746452417E+04 -0.15522318414E+03 -0.16560862125E+04  0.22229072088E+04  0.46999998093E+01 0.  1.
       -5    1    3    3    0  502  0.14746452417E+04  0.15522318414E+03 -0.78213418427E+02  0.14848610220E+04  0.46999998093E+01 0. -1.
</event>
<event>
 5   0  0.2073287E-06  0.3504449E+04  0.7818609E-02  0.8112736E-01
       -2   -1    0    0    0  501  0.00000000000E+00  0.00000000000E+00  0.11431247730E+04  0.11431247730E+04  0.25500000920E-02 0.  1.
        2   -1    0    0  501    0  0.00000000000E+00  0.00000000000E+00 -0.26858750514E+04  0.26858750514E+04  0.25500000920E-02 0. -1.
    10030    2    1    2    0    0  0.00000000000E+00  0.00000000000E+00 -0.15427502784E+04  0.38289998244E+04  0.35044487774E+04 0.  0.
        1    1    3    3  502    0  0.87958785560E+03 -0.12884726905E+04 -0.16430389522E+04  0.22657037910E+04  0.50400001928E-02 0. -1.
       -1    1    3    3    0  502 -0.87958785560E+03  0.12884726905E+04  0.10028867385E+03  0.15632960334E+04  0.50400001928E-02 0.  1.
</event>
<event>
 5   0  0.2020725E-06  0.3265699E+04  0.7818609E-02  0.8171679E-01
       -2   -1    0    0    0  501  0.00000000000E+00  0.00000000000E+00  0.12838951553E+04  0.12838951553E+04  0.25500000920E-02 0.  1.
        2   -1    0    0  501    0  0.00000000000E+00  0.00000000000E+00 -0.20766472625E+04  0.20766472625E+04  0.25500000920E-02 0. -1.
    10030    2    1    2    0    0  0.00000000000E+00  0.00000000000E+00 -0.79275210726E+03  0.33605424178E+04  0.32656989203E+04 0.  0.
        3    1    3    3  502    0  0.10517128745E+04  0.10247383969E+04 -0.11312654606E+04  0.18536316530E+04  0.10100000352E+00 0. -1.
       -3    1    3    3    0  502 -0.10517128745E+04 -0.10247383969E+04  0.33851335331E+03  0.15069107648E+04  0.10100000352E+00 0.  1.
</event>
<event>
 5   0  0.2001768E-06  0.3509045E+04  0.7818609E-02  0.8111650E-01
        2   -1    0    0  501    0  0.00000000000E+00  0.00000000000E+00  0.14584429840E+04  0.14584429840E+04  0.25500000920E-02 0.  1.
       -2   -1    0    0    0  501  0.00000000000E+00  0.00000000000E+00 -0.21107092617E+04  0.21107092617E+04  0.25500000920E-02 0. -1.
    10030    2    1    2    0    0  0.00000000000E+00  0.00000000000E+00 -0.65226627764E+03  0.35691522457E+04  0.35090449493E+04 0.  0.
        2    1    3    3  502    0  0.76344278464E+03  0.14768386252E+04 -0.89649864966E+03  0.18888110120E+04  0.25500000920E-02 0. -1.
       -2    1    3    3    0  502 -0.76344278464E+03 -0.14768386252E+04  0.24423237203E+03  0.16803412337E+04  0.25500000920E-02 0.  1.
</event>
<event>
 5   0  0.7378896E-07  0.3518655E+04  0.7818609E-02  0.8109383E-01
       -1   -1    0    0    0  501  0.00000000000E+00  0.00000000000E+00  0.11337120466E+04  0.11337120466E+04  0.50400001928E-02 0. -1.
        1   -1    0    0  501    0  0.00000000000E+00  0.00000000000E+00 -0.27301750869E+04  0.27301750870E+04  0.50400001928E-02 0.  1.
    10030    2    1    2    0    0  0.00000000000E+00  0.00000000000E+00 -0.15964630403E+04  0.38638871336E+04  0.35186545073E+04 0.  0.
        2    1    3    3  502    0 -0.10844242852E+03  0.16965785064E+04 -0.30092485490E+03  0.17264686957E+04  0.25500000920E-02 0. -1.
       -2    1    3    3    0  502  0.10844242852E+03 -0.16965785064E+04 -0.12955381854E+04  0.21374184379E+04  0.25500000920E-02 0.  1.
</event>
<event>
 5   0  0.2023479E-06  0.3384579E+04  0.7818609E-02  0.8141701E-01
       -2   -1    0    0    0  501  0.00000000000E+00  0.00000000000E+00  0.11280761205E+04  0.11280761205E+04  0.25500000920E-02 0. -1.
        2   -1    0    0  501    0  0.00000000000E+00  0.00000000000E+00 -0.25386975105E+04  0.25386975105E+04  0.25500000920E-02 0.  1.
    10030    2    1    2    0    0  0.00000000000E+00  0.00000000000E+00 -0.14106213900E+04  0.36667736311E+04  0.33845791697E+04 0.  0.
        5    1    3    3  502    0  0.12707784655E+04  0.10996692895E+04 -0.92109442794E+03  0.19163996164E+04  0.46999998093E+01 0.  1.
       -5    1    3    3    0  502 -0.12707784655E+04 -0.10996692895E+04 -0.48952696204E+03  0.17503740147E+04  0.46999998093E+01 0. -1.
</event>
<event>
 5   0  0.6630125E-07  0.3472103E+04  0.7818609E-02  0.8120433E-01
        3   -1    0    0  501    0  0.00000000000E+00  0.00000000000E+00  0.20992980319E+04  0.20992980343E+04  0.10100000352E+00 0.  1.
       -3   -1    0    0    0  501  0.00000000000E+00  0.00000000000E+00 -0.14356582148E+04  0.14356582183E+04  0.10100000352E+00 0. -1.
    10030    2    1    2    0    0  0.00000000000E+00  0.00000000000E+00  0.66363981713E+03  0.35349562527E+04  0.34721028069E+04 0.  0.
        1    1    3    3  502    0 -0.15141471998E+04  0.50365850971E+03 -0.36434244129E+03  0.16367831413E+04  0.50400001928E-02 0.  1.
       -1    1    3    3    0  502  0.15141471998E+04 -0.50365850971E+03  0.10279822584E+04  0.18981731114E+04  0.50400001928E-02 0. -1.
</event>
<event>
 5   0  0.2023479E-06  0.3496494E+04  0.7818609E-02  0.8114621E-01
       -2   -1    0    0    0  501  0.00000000000E+00  0.00000000000E+00  0.13167295736E+04  0.13167295736E+04  0.25500000920E-02 0. -1.
        2   -1    0    0  501    0  0.00000000000E+00  0.00000000000E+00 -0.23211815392E+04  0.23211815392E+04  0.25500000920E-02 0.  1.
    10030    2    1    2    0    0  0.00000000000E+00  0.00000000000E+00 -0.10044519656E+04  0.36379111128E+04  0.34964944606E+04 0.  0.
        5    1    3    3  502    0  0.16018400871E+04 -0.65919832302E+03 -0.74824716912E+03  0.18868836768E+04  0.46999998093E+01 0.  1.
       -5    1    3    3    0  502 -0.16018400871E+04  0.65919832302E+03 -0.25620479646E+03  0.17510274360E+04  0.46999998093E+01 0. -1.
</event>
<event>
 5   0  0.2073287E-06  0.2944180E+04  0.7818609E-02  0.8259853E-01
       -2   -1    0    0    0  501  0.00000000000E+00  0.00000000000E+00  0.12686093360E+04  0.12686093360E+04  0.25500000920E-02 0. -1.
        2   -1    0    0  501    0  0.00000000000E+00  0.00000000000E+00 -0.17082088510E+04  0.17082088510E+04  0.25500000920E-02 0.  1.
    10030    2    1    2    0    0  0.00000000000E+00  0.00000000000E+00 -0.43959951497E+03  0.29768181870E+04  0.29441804946E+04 0.  0.
        1    1    3    3  502    0 -0.47776661374E+03  0.18404626498E+03 -0.16152866557E+04  0.16944866317E+04  0.50400001928E-02 0.  1.
       -1    1    3    3    0  502  0.47776661374E+03 -0.18404626498E+03  0.11756871407E+04  0.12823315553E+04  0.50400001928E-02 0. -1.
</event>
<event>
 5   0  0.1999883E-06  0.2872849E+04  0.7818609E-02  0.8281002E-01
        2   -1    0    0  501    0  0.00000000000E+00  0.00000000000E+00  0.15177265021E+04  0.15177265021E+04  0.25500000920E-02 0.  1.
       -2   -1    0    0    0  501  0.00000000000E+00  0.00000000000E+00 -0.13594775901E+04  0.13594775901E+04  0.25500000920E-02 0. -1.
    10030    2    1    2    0    0  0.00000000000E+00  0.00000000000E+00  0.15824891199E+03  0.28772040921E+04  0.28728488769E+04 0.  0.
        4    1    3    3  502    0  0.60644422268E+03 -0.68112347005E+03 -0.10323371173E+04  0.13774706216E+04  0.12699999809E+01 0. -1.
       -4    1    3    3    0  502 -0.60644422268E+03  0.68112347005E+03  0.11905860293E+04  0.14997334705E+04  0.12699999809E+01 0.  1.
</event>
<event>
 5   0  0.7378896E-07  0.3541714E+04  0.7818609E-02  0.8103975E-01
        1   -1    0    0  501    0  0.00000000000E+00  0.00000000000E+00  0.21146520948E+04  0.21146520948E+04  0.50400001928E-02 0.  1.
       -1   -1    0    0    0  501  0.00000000000E+00  0.00000000000E+00 -0.14829553034E+04  0.14829553034E+04  0.50400001928E-02 0. -1.
    10030    2    1    2    0    0  0.00000000000E+00  0.00000000000E+00  0.63169679137E+03  0.35976073982E+04  0.35417140138E+04 0.  0.
        2    1    3    3  502    0  0.10211086707E+04 -0.79329195820E+03  0.15448849713E+04  0.20146078087E+04  0.25500000920E-02 0.  1.
       -2    1    3    3    0  502 -0.10211086707E+04  0.79329195820E+03 -0.91318817990E+03  0.15829995895E+04  0.25500000920E-02 0. -1.
</event>
<event>
 5   0  0.7378896E-07  0.2570460E+04  0.7818609E-02  0.8378305E-01
        1   -1    0    0  501    0  0.00000000000E+00  0.00000000000E+00  0.15394075237E+04  0.15394075237E+04  0.50400001928E-02 0. -1.
       -1   -1    0    0    0  501  0.00000000000E+00  0.00000000000E+00 -0.10730208267E+04  0.10730208268E+04  0.50400001928E-02 0.  1.
    10030    2    1    2    0    0  0.00000000000E+00  0.00000000000E+00  0.46638669692E+03  0.26124283504E+04  0.25704601407E+04 0.  0.
        2    1    3    3  502    0 -0.80567399547E+02 -0.84286182021E+03  0.12158871720E+04  0.14816506906E+04  0.25500000920E-02 0.  1.
       -2    1    3    3    0  502  0.80567399547E+02  0.84286182021E+03 -0.74950047509E+03  0.11307776598E+04  0.25500000920E-02 0. -1.
</event>
<event>
 5   0  0.2023479E-06  0.3623293E+04  0.7818609E-02  0.8085177E-01
        2   -1    0    0  501    0  0.00000000000E+00  0.00000000000E+00  0.21027555467E+04  0.21027555467E+04  0.25500000920E-02 0.  1.
       -2   -1    0    0    0  501  0.00000000000E+00  0.00000000000E+00 -0.15608389793E+04  0.15608389793E+04  0.25500000920E-02 0. -1.
    10030    2    1    2    0    0  0.00000000000E+00  0.00000000000E+00  0.54191656740E+03  0.36635945260E+04  0.36232928787E+04 0.  0.
        5    1    3    3  502    0 -0.15847717166E+04 -0.39996560681E+03  0.10610373806E+04  0.19486652595E+04  0.46999998093E+01 0.  1.
       -5    1    3    3    0  502  0.15847717166E+04  0.39996560681E+03 -0.51912081319E+03  0.17149292665E+04  0.46999998093E+01 0. -1.
</event>
<event>
 5   0  0.2020725E-06  0.3361976E+04  0.7818609E-02  0.8147302E-01
        2   -1    0    0  501    0  0.00000000000E+00  0.00000000000E+00  0.17627728178E+04  0.17627728178E+04  0.25500000920E-02 0. -1.
       -2   -1    0    0    0  501  0.00000000000E+00  0.00000000000E+00 -0.16029979534E+04  0.16029979534E+04  0.25500000920E-02 0.  1.
    10030    2    1    2    0    0  0.00000000000E+00  0.00000000000E+00  0.15977486438E+03  0.33657707712E+04  0.33619763350E+04 0.  0.
        3    1    3    3  502    0 -0.68858301346E+03  0.14244600841E+04  0.64840872780E+03  0.17098733830E+04  0.10100000352E+00 0. -1.
       -3    1    3    3    0  502  0.68858301346E+03 -0.14244600841E+04 -0.48863386342E+03  0.16558973882E+04  0.10100000352E+00 0.  1.
</event>
<event>
 5   0  0.7378896E-07  0.3229403E+04  0.7818609E-02  0.8181095E-01
        1   -1    0    0  501    0  0.00000000000E+00  0.00000000000E+00  0.19049818059E+04  0.19049818059E+04  0.50400001928E-02 0.  1.
       -1   -1    0    0    0  501  0.00000000000E+00  0.00000000000E+00 -0.13686540915E+04  0.13686540915E+04  0.50400001928E-02 0. -1.
    10030    2    1    2    0    0  0.00000000000E+00  0.00000000000E+00  0.53632771442E+03  0.32736358975E+04  0.32294031294E+04 0.  0.
        2    1    3    3  502    0 -0.64693199124E+03 -0.12784002741E+04  0.10229650918E+04  0.17604788669E+04  0.25500000920E-02 0.  1.
       -2    1    3    3    0  502  0.64693199124E+03  0.12784002741E+04 -0.48663737733E+03  0.15131570305E+04  0.25500000920E-02 0. -1.
</event>
<event>
 5   0  0.2001768E-06  0.3506169E+04  0.7818609E-02  0.8112330E-01
       -2   -1    0    0    0  501  0.00000000000E+00  0.00000000000E+00  0.18587235879E+04  0.18587235879E+04  0.25500000920E-02 0.  1.
        2   -1    0    0  501    0  0.00000000000E+00  0.00000000000E+00 -0.16534490513E+04  0.16534490513E+04  0.25500000920E-02 0. -1.
    10030    2    1    2    0    0  0.00000000000E+00  0.00000000000E+00  0.20527453654E+03  0.35121726392E+04  0.35061687085E+04 0.  0.
        2    1    3    3  502    0 -0.15812901285E+04 -0.70439577674E+03 -0.17469937979E+03  0.17398769365E+04  0.25500000920E-02 0. -1.
       -2    1    3    3    0  502  0.15812901285E+04  0.70439577674E+03  0.37997391633E+03  0.17722957027E+04  0.25500000920E-02 0.  1.
</event>
<event>
 5   0  0.6630125E-07  0.2171894E+04  0.7818609E-02  0.8530218E-01
        1   -1    0    0  501    0  0.00000000000E+00  0.00000000000E+00  0.11130163718E+04  0.11130163718E+04  0.50400001928E-02 0. -1.
       -1   -1    0    0    0  501  0.00000000000E+00  0.00000000000E+00 -0.10595356337E+04  0.10595356338E+04  0.50400001928E-02 0.  1.
    10030    2    1    2    0    0  0.00000000000E+00  0.00000000000E+00  0.53480738071E+02  0.21725520056E+04  0.21718936502E+04 0.  0.
        4    1    3    3  502    0 -0.64987347165E+03  0.69094950326E+03 -0.50212789516E+03  0.10732570900E+04  0.12699999809E+01 0. -1.
       -4    1    3    3    0  502  0.64987347165E+03 -0.69094950326E+03  0.55560863323E+03  0.10992949156E+04  0.12699999809E+01 0.  1.
</event>
<event>
 5   0  0.6890600E-07  0.3514190E+04  0.7818609E-02  0.8110435E-01
        1   -1    0    0  501    0  0.00000000000E+00  0.00000000000E+00  0.12547103667E+04  0.12547103667E+04  0.50400001928E-02 0.  1.
       -1   -1    0    0    0  501  0.00000000000E+00  0.00000000000E+00 -0.24606339780E+04  0.24606339780E+04  0.50400001928E-02 0. -1.
    10030    2    1    2    0    0  0.00000000000E+00  0.00000000000E+00 -0.12059236113E+04  0.37153443447E+04  0.35141900694E+04 0.  0.
        3    1    3    3  502    0 -0.16824695427E+04  0.43875974371E+03 -0.87077792698E+03  0.19445997231E+04  0.10100000352E+00 0. -1.
       -3    1    3    3    0  502  0.16824695427E+04 -0.43875974371E+03 -0.33514568434E+03  0.17707446216E+04  0.10100000352E+00 0.  1.
</event>
<event>
 5   0  0.2073287E-06  0.3452576E+04  0.7818609E-02  0.8125122E-01
       -2   -1    0    0    0  501  0.00000000000E+00  0.00000000000E+00  0.24653295184E+04  0.24653295184E+04  0.25500000920E-02 0.  1.
        2   -1    0    0  501    0  0.00000000000E+00  0.00000000000E+00 -0.12087915808E+04  0.12087915808E+04  0.25500000920E-02 0. -1.
    10030    2    1    2    0    0  0.00000000000E+00  0.00000000000E+00  0.12565379376E+04  0.36741210992E+04  0.34525755984E+04 0.  0.
        1    1    3    3  502    0 -0.60249645125E+03  0.39280023366E+03 -0.10417549375E+04  0.12659175910E+04  0.50400001928E-02 0. -1.
       -1    1    3    3    0  502  0.60249645125E+03 -0.39280023366E+03  0.22982928751E+04  0.24082035082E+04  0.50400001928E-02 0.  1.
</event>
<event>
 5   0  0.7378896E-07  0.2912816E+04  0.7818609E-02  0.8269075E-01
       -1   -1    0    0    0  501  0.00000000000E+00  0.00000000000E+00  0.74704131961E+03  0.74704131963E+03  0.50400001928E-02 0.  1.
        1   -1    0    0  501    0  0.00000000000E+00  0.00000000000E+00 -0.28393662834E+04  0.28393662834E+04  0.50400001928E-02 0. -1.
    10030    2    1    2    0    0  0.00000000000E+00  0.00000000000E+00 -0.20923249638E+04  0.35864076030E+04  0.29128157753E+04 0.  0.
        2    1    3    3  502    0  0.49233599338E+03  0.13595854954E+04 -0.83199384662E+03  0.16682569378E+04  0.25500000920E-02 0.  1.
       -2    1    3    3    0  502 -0.49233599338E+03 -0.13595854954E+04 -0.12603311172E+04  0.19181506652E+04  0.25500000920E-02 0. -1.
</event>
<event>
 5   0  0.2073287E-06  0.3510038E+04  0.7818609E-02  0.8111415E-01
        2   -1    0    0  501    0  0.00000000000E+00  0.00000000000E+00  0.30874601553E+04  0.30874601553E+04  0.25500000920E-02 0. -1.
       -2   -1    0    0    0  501  0.00000000000E+00  0.00000000000E+00 -0.99761346307E+03  0.99761346307E+03  0.25500000920E-02 0.  1.
    10030    2    1    2    0    0  0.00000000000E+00  0.00000000000E+00  0.20898466922E+04  0.40850736184E+04  0.35100380725E+04 0.  0.
        1    1    3    3  502    0 -0.96829099129E+03  0.96325432535E+02 -0.65491050055E+03  0.11729338415E+04  0.50400001928E-02 0.  1.
       -1    1    3    3    0  502  0.96829099129E+03 -0.96325432535E+02  0.27447571928E+04  0.29121397769E+04  0.50400001928E-02 0. -1.
</event>
<event>
 5   0  0.2020725E-06  0.2485478E+04  0.7818609E-02  0.8408177E-01
       -2   -1    0    0    0  501  0.00000000000E+00  0.00000000000E+00  0.17717659871E+04  0.17717659871E+04  0.25500000920E-02 0.  1.
        2   -1    0    0  501    0  0.00000000000E+00  0.00000000000E+00 -0.87167282510E+03  0.87167282510E+03  0.25500000920E-02 0. -1.
    10030    2    1    2    0    0  0.00000000000E+00  0.00000000000E+00  0.90009316200E+03  0.26434388122E+04  0.24854780332E+04 0.  0.
        3    1    3    3  502    0  0.46298945577E+03  0.11532666771E+04  0.45443025261E+03  0.13232120500E+04  0.10100000352E+00 0.  1.
       -3    1    3    3    0  502 -0.46298945577E+03 -0.11532666771E+04  0.44566290939E+03  0.13202267622E+04  0.10100000352E+00 0. -1.
</event>
<event>
 5   0  0.6630125E-07  0.3373157E+04  0.7818609E-02  0.8144526E-01
       -1   -1    0    0    0  501  0.00000000000E+00  0.00000000000E+00  0.30993892853E+04  0.30993892853E+04  0.50400001928E-02 0. -1.
        1   -1    0    0  501    0  0.00000000000E+00  0.00000000000E+00 -0.91777666649E+03  0.91777666650E+03  0.50400001928E-02 0.  1.
    10030    2    1    2    0    0  0.00000000000E+00  0.00000000000E+00  0.21816126188E+04  0.40171659518E+04  0.33731570769E+04 0.  0.
        1    1    3    3  502    0 -0.21343693757E+03  0.17269574912E+03  0.30725973530E+04  0.30848393219E+04  0.50400001928E-02 0. -1.
       -1    1    3    3    0  502  0.21343693757E+03 -0.17269574912E+03 -0.89098473425E+03  0.93232662988E+03  0.50400001928E-02 0.  1.
</event>
<event>
 5   0  0.6630125E-07  0.3463676E+04  0.7818609E-02  0.8122453E-01
        1   -1    0    0  501    0  0.00000000000E+00  0.00000000000E+00  0.22489925327E+04  0.22489925327E+04  0.50400001928E-02 0.  1.
       -1   -1    0    0    0  501  0.00000000000E+00  0.00000000000E+00 -0.13336031456E+04  0.13336031456E+04  0.50400001928E-02 0. -1.
    10030    2    1    2    0    0  0.00000000000E+00  0.00000000000E+00  0.91538938715E+03  0.35825956783E+04  0.34636763798E+04 0.  0.
        1    1    3    3  502    0  0.10658019038E+04 -0.92909622315E+03  0.14920848528E+04  0.20555949742E+04  0.50400001928E-02 0.  1.
       -1    1    3    3    0  502 -0.10658019038E+04  0.92909622315E+03 -0.57669546567E+03  0.15270007040E+04  0.50400001928E-02 0. -1.
</event>
<event>
 5   0  0.2073287E-06  0.3493948E+04  0.7818609E-02  0.8115226E-01
        2   -1    0    0  501    0  0.00000000000E+00  0.00000000000E+00  0.29783567810E+04  0.29783567810E+04  0.25500000920E-02 0.  1.
       -2   -1    0    0    0  501  0.00000000000E+00  0.00000000000E+00 -0.10246983524E+04  0.10246983524E+04  0.25500000920E-02 0. -1.
    10030    2    1    2    0    0  0.00000000000E+00  0.00000000000E+00  0.19536584285E+04  0.40030551334E+04  0.34939475018E+04 0.  0.
        1    1    3    3  502    0  0.12416625755E+04 -0.10207393964E+04  0.19280563671E+03  0.16188912503E+04  0.50400001928E-02 0. -1.
       -1    1    3    3    0  502 -0.12416625755E+04  0.10207393964E+04  0.17608527918E+04  0.23841638831E+04  0.50400001928E-02 0.  1.
</event>
<event>
 5   0  0.7378896E-07  0.3314414E+04  0.7818609E-02  0.8159237E-01
       -1   -1    0    0    0  501  0.00000000000E+00  0.00000000000E+00  0.14379420108E+04  0.14379420108E+04  0.50400001928E-02 0.  1.
        1   -1    0    0  501    0  0.00000000000E+00  0.00000000000E+00 -0.19099064460E+04  0.19099064460E+04  0.50400001928E-02 0. -1.
    10030    2    1    2    0    0  0.00000000000E+00  0.00000000000E+00 -0.47196443522E+03  0.33478484568E+04  0.33144138036E+04 0.  0.
        2    1    3    3  502    0  0.22789936352E+03 -0.73958601113E+03  0.12442043523E+04  0.14652542639E+04  0.25500000920E-02 0.  1.
       -2    1    3    3    0  502 -0.22789936352E+03  0.73958601113E+03 -0.17161687875E+04  0.18825941928E+04  0.25500000920E-02 0. -1.
</event>
<event>
 5   0  0.6630125E-07  0.3770232E+04  0.7818609E-02  0.8052573E-01
        1   -1    0    0  501    0  0.00000000000E+00  0.00000000000E+00  0.16110970100E+04  0.16110970100E+04  0.50400001928E-02 0.  1.
       -1   -1    0    0    0  501  0.00000000000E+00  0.00000000000E+00 -0.22057410821E+04  0.22057410821E+04  0.50400001928E-02 0. -1.
    10030    2    1    2    0    0  0.00000000000E+00  0.00000000000E+00 -0.59464407208E+03  0.38168380921E+04  0.37702322805E+04 0.  0.
        1    1    3    3  502    0  0.12761873519E+03 -0.14606234364E+04  0.90221124296E+03  0.17215378275E+04  0.50400001928E-02 0.  1.
       -1    1    3    3    0  502 -0.12761873519E+03  0.14606234364E+04 -0.14968553150E+04  0.20953002646E+04  0.50400001928E-02 0. -1.
</event>
<event>
 5   0  0.2020725E-06  0.3422413E+04  0.7818609E-02  0.8132427E-01
       -2   -1    0    0    0  501  0.00000000000E+00  0.00000000000E+00  0.94906093428E+03  0.94906093429E+03  0.25500000920E-02 0. -1.
        2   -1    0    0  501    0  0.00000000000E+00  0.00000000000E+00 -0.30853941481E+04  0.30853941481E+04  0.25500000920E-02 0.  1.
    10030    2    1    2    0    0  0.00000000000E+00  0.00000000000E+00 -0.21363332138E+04  0.40344550824E+04  0.34224126302E+04 0.  0.
        3    1    3    3  502    0 -0.11046850703E+04 -0.11634704599E+03  0.46629323378E+03  0.12046971112E+04  0.10100000352E+00 0. -1.
       -3    1    3    3    0  502  0.11046850703E+04  0.11634704599E+03 -0.26026264476E+04  0.28297579712E+04  0.10100000352E+00 0.  1.
</event>
<event>
 5   0  0.6630125E-07  0.3505680E+04  0.7818609E-02  0.8112445E-01
       -1   -1    0    0    0  501  0.00000000000E+00  0.00000000000E+00  0.30829235567E+04  0.30829235567E+04  0.50400001928E-02 0.  1.
        1   -1    0    0  501    0  0.00000000000E+00  0.00000000000E+00 -0.99660231221E+03  0.99660231222E+03  0.50400001928E-02 0. -1.
    10030    2    1    2    0    0  0.00000000000E+00  0.00000000000E+00  0.20863212445E+04  0.40795258690E+04  0.35056803876E+04 0.  0.
        4    1    3    3  502    0 -0.95155166478E+03  0.60147642118E+03  0.26066781798E+04  0.28393656337E+04  0.12699999809E+01 0.  1.
       -4    1    3    3    0  502  0.95155166478E+03 -0.60147642118E+03 -0.52035693530E+03  0.12401602352E+04  0.12699999809E+01 0. -1.
</event>
<event>
 5   0  0.6630125E-07  0.3535401E+04  0.7818609E-02  0.8105451E-01
        1   -1    0    0  501    0  0.00000000000E+00  0.00000000000E+00  0.15719280112E+04  0.15719280112E+04  0.50400001928E-02 0.  1.
       -1   -1    0    0    0  501  0.00000000000E+00  0.00000000000E+00 -0.19878551310E+04  0.19878551310E+04  0.50400001928E-02 0. -1.
    10030    2    1    2    0    0  0.00000000000E+00  0.00000000000E+00 -0.41592711984E+03  0.35597831422E+04  0.35354010593E+04 0.  0.
        1    1    3    3  502    0  0.95206925642E+03 -0.13751674645E+04 -0.78396096496E+03  0.18471914408E+04  0.50400001928E-02 0. -1.
       -1    1    3    3    0  502 -0.95206925642E+03  0.13751674645E+04  0.36803384512E+03  0.17125917014E+04  0.50400001928E-02 0.  1.
</event>
<event>
 5   0  0.6630125E-07  0.3458453E+04  0.7818609E-02  0.8123707E-01
       -1   -1    0    0    0  501  0.00000000000E+00  0.00000000000E+00  0.10153580883E+04  0.10153580883E+04  0.50400001928E-02 0.  1.
        1   -1    0    0  501    0  0.00000000000E+00  0.00000000000E+00 -0.29449946160E+04  0.29449946160E+04  0.50400001928E-02 0. -1.
    10030    2    1    2    0    0  0.00000000000E+00  0.00000000000E+00 -0.19296365277E+04  0.39603527043E+04  0.34584528930E+04 0.  0.
        4    1    3    3  502    0  0.10022677252E+04 -0.10036926225E+04 -0.20974383464E+04  0.25320325242E+04  0.12699999809E+01 0.  1.
       -4    1    3    3    0  502 -0.10022677252E+04  0.10036926225E+04  0.16780181870E+03  0.14283201801E+04  0.12699999809E+01 0. -1.
</event>
<event>
 5   0  0.2001768E-06  0.2655149E+04  0.7818609E-02  0.8349706E-01
       -2   -1    0    0    0  501  0.00000000000E+00  0.00000000000E+00  0.15557089643E+04  0.15557089643E+04  0.25500000920E-02 0. -1.
        2   -1    0    0  501    0  0.00000000000E+00  0.00000000000E+00 -0.11328945221E+04  0.11328945221E+04  0.25500000920E-02 0.  1.
    10030    2    1    2    0    0  0.00000000000E+00  0.00000000000E+00  0.42281444220E+03  0.26886034864E+04  0.26551490833E+04 0.  0.
        2    1    3    3  502    0 -0.12991977752E+03 -0.63612537049E+03  0.13839783696E+04  0.15287023134E+04  0.25500000920E-02 0. -1.
       -2    1    3    3    0  502  0.12991977752E+03  0.63612537049E+03 -0.96116392742E+03  0.11599011729E+04  0.25500000920E-02 0.  1.
</event>
<event>
 5   0  0.1999883E-06  0.3509898E+04  0.7818609E-02  0.8111448E-01
        2   -1    0    0  501    0  0.00000000000E+00  0.00000000000E+00  0.11551837325E+04  0.11551837325E+04  0.25500000920E-02 0.  1.
       -2   -1    0    0    0  501  0.00000000000E+00  0.00000000000E+00 -0.26661089871E+04  0.26661089871E+04  0.25500000920E-02 0. -1.
    10030    2    1    2    0    0  0.00000000000E+00  0.00000000000E+00 -0.15109252546E+04  0.38212927196E+04  0.35098978510E+04 0.  0.
        4    1    3    3  502    0 -0.12427991132E+04 -0.12074312697E+04 -0.45256342821E+03  0.17908811173E+04  0.12699999809E+01 0.  1.
       -4    1    3    3    0  502  0.12427991132E+04  0.12074312697E+04 -0.10583618264E+04  0.20304116024E+04  0.12699999809E+01 0. -1.
</event>
<event>
 5   0  0.2020725E-06  0.2196686E+04  0.7818609E-02  0.8519809E-01
       -2   -1    0    0    0  501  0.00000000000E+00  0.00000000000E+00  0.10636395442E+04  0.10636395442E+04  0.25500000920E-02 0.  1.
        2   -1    0    0  501    0  0.00000000000E+00  0.00000000000E+00 -0.11341790180E+04  0.11341790180E+04  0.25500000920E-02 0. -1.
    10030    2    1    2    0    0  0.00000000000E+00  0.00000000000E+00 -0.70539473789E+02  0.21978185623E+04  0.21966862806E+04 0.  0.
        3    1    3    3  502    0  0.84170448732E+03  0.22991790726E+03  0.63217902823E+03  0.10774873651E+04  0.10100000352E+00 0.  1.
       -3    1    3    3    0  502 -0.84170448732E+03 -0.22991790726E+03 -0.70271850202E+03  0.11203311972E+04  0.10100000352E+00 0. -1.
</event>
<event>
 5   0  0.6890600E-07  0.3491074E+04  0.7818609E-02  0.8115909E-01
        1   -1    0    0  501    0  0.00000000000E+00  0.00000000000E+00  0.16028004634E+04  0.16028004634E+04  0.50400001928E-02 0. -1.
       -1   -1    0    0    0  501  0.00000000000E+00  0.00000000000E+00 -0.19009849274E+04  0.19009849274E+04  0.50400001928E-02 0.  1.
    10030    2    1    2    0    0  0.00000000000E+00  0.00000000000E+00 -0.29818446395E+03  0.35037853908E+04  0.34910740597E+04 0.  0.
        3    1    3    3  502    0  0.38669833129E+03 -0.83005941872E+03  0.13423755973E+04  0.16249635358E+04  0.10100000352E+00 0. -1.
       -3    1    3    3    0  502 -0.38669833129E+03  0.83005941872E+03 -0.16405600613E+04  0.18788218550E+04  0.10100000352E+00 0.  1.
</event>
<event>
 5   0  0.2020725E-06  0.3211879E+04  0.7818609E-02  0.8185687E-01
        2   -1    0    0  501    0  0.00000000000E+00  0.00000000000E+00  0.15322442498E+04  0.15322442498E+04  0.25500000920E-02 0.  1.
       -2   -1    0    0    0  501  0.00000000000E+00  0.00000000000E+00 -0.16831790406E+04  0.16831790406E+04  0.25500000920E-02 0. -1.
    10030    2    1    2    0    0  0.00000000000E+00  0.00000000000E+00 -0.15093479080E+03  0.32154232905E+04  0.32118788311E+04 0.  0.
        3    1    3    3  502    0  0.10966957891E+03 -0.71953907650E+03  0.13576421402E+04  0.15404402261E+04  0.10100000352E+00 0.  1.
       -3    1    3    3    0  502 -0.10966957891E+03  0.71953907650E+03 -0.15085769310E+04  0.16749830644E+04  0.10100000352E+00 0. -1.
</event>
<event>
 5   0  0.2001768E-06  0.3113081E+04  0.7818609E-02  0.8212157E-01
        2   -1    0    0  501    0  0.00000000000E+00  0.00000000000E+00  0.12405098325E+04  0.12405098325E+04  0.25500000920E-02 0. -1.
       -2   -1    0    0    0  501  0.00000000000E+00  0.00000000000E+00 -0.19530830701E+04  0.19530830701E+04  0.25500000920E-02 0.  1.
    10030    2    1    2    0    0  0.00000000000E+00  0.00000000000E+00 -0.71257323764E+03  0.31935929027E+04  0.31130812724E+04 0.  0.
        2    1    3    3  502    0  0.11864093173E+04  0.10014058939E+04 -0.24187688597E+03  0.15712686786E+04  0.25500000920E-02 0. -1.
       -2    1    3    3    0  502 -0.11864093173E+04 -0.10014058939E+04 -0.47069635166E+03  0.16223242240E+04  0.25500000920E-02 0.  1.
</event>
<event>
 5   0  0.6890600E-07  0.3420260E+04  0.7818609E-02  0.8132952E-01
       -1   -1    0    0    0  501  0.00000000000E+00  0.00000000000E+00  0.11104592239E+04  0.11104592239E+04  0.50400001928E-02 0.  1.
        1   -1    0    0  501    0  0.00000000000E+00  0.00000000000E+00 -0.26336348144E+04  0.26336348144E+04  0.50400001928E-02 0. -1.
    10030    2    1    2    0    0  0.00000000000E+00  0.00000000000E+00 -0.15231755905E+04  0.37440940383E+04  0.34202596814E+04 0.  0.
        3    1    3    3  502    0 -0.13158695434E+04  0.10508694751E+04 -0.43555513133E+03  0.17394101275E+04  0.10100000352E+00 0.  1.
       -3    1    3    3    0  502  0.13158695434E+04 -0.10508694751E+04 -0.10876204591E+04  0.20046839108E+04  0.10100000352E+00 0. -1.
</event>
<event>
 5   0  0.2023479E-06  0.3543460E+04  0.7818609E-02  0.8103567E-01
        2   -1    0    0  501    0  0.00000000000E+00  0.00000000000E+00  0.13809674583E+04  0.13809674583E+04  0.25500000920E-02 0. -1.
       -2   -1    0    0    0  501  0.00000000000E+00  0.00000000000E+00 -0.22730632248E+04  0.22730632248E+04  0.25500000920E-02 0.  1.
    10030    2    1    2    0    0  0.00000000000E+00  0.00000000000E+00 -0.89209576642E+03  0.36540306831E+04  0.35434595209E+04 0.  0.
        5    1    3    3  502    0 -0.83232549508E+02 -0.11588367980E+03 -0.22671230135E+04  0.22716129804E+04  0.46999998093E+01 0.  1.
       -5    1    3    3    0  502  0.83232549508E+02  0.11588367980E+03  0.13750272471E+04  0.13824177027E+04  0.46999998093E+01 0. -1.
</event>
<event>
 5   0  0.6630125E-07  0.2852883E+04  0.7818609E-02  0.8287036E-01
        1   -1    0    0  501    0  0.00000000000E+00  0.00000000000E+00  0.80344006368E+03  0.80344006369E+03  0.50400001928E-02 0. -1.
       -1   -1    0    0    0  501  0.00000000000E+00  0.00000000000E+00 -0.25325291223E+04  0.25325291223E+04  0.50400001928E-02 0.  1.
    10030    2    1    2    0    0  0.00000000000E+00  0.00000000000E+00 -0.17290890586E+04  0.33359691860E+04  0.28528830045E+04 0.  0.
        5    1    3    3  502    0 -0.10703821271E+04  0.51324110934E+03 -0.17894111953E+04  0.21473585751E+04  0.46999998093E+01 0. -1.
       -5    1    3    3    0  502  0.10703821271E+04 -0.51324110934E+03  0.60322136632E+02  0.11886106109E+04  0.46999998093E+01 0.  1.
</event>
<event>
 5   0  0.2023479E-06  0.3326969E+04  0.7818609E-02  0.8156067E-01
        2   -1    0    0  501    0  0.00000000000E+00  0.00000000000E+00  0.14948463185E+04  0.14948463185E+04  0.25500000920E-02 0. -1.
       -2   -1    0    0    0  501  0.00000000000E+00  0.00000000000E+00 -0.18511470274E+04  0.18511470274E+04  0.25500000920E-02 0.  1.
    10030    2    1    2    0    0  0.00000000000E+00  0.00000000000E+00 -0.35630070884E+03  0.33459933459E+04  0.33269687819E+04 0.  0.
        5    1    3    3  502    0  0.58492374981E+02  0.10358101465E+03  0.14905565837E+04  0.14953031143E+04  0.46999998093E+01 0. -1.
       -5    1    3    3    0  502 -0.58492374981E+02 -0.10358101465E+03 -0.18468572925E+04  0.18506902316E+04  0.46999998093E+01 0.  1.
</event>
<event>
 5   0  0.2073287E-06  0.3032580E+04  0.7818609E-02  0.8234488E-01
       -2   -1    0    0    0  501  0.00000000000E+00  0.00000000000E+00  0.12392629325E+04  0.12392629325E+04  0.25500000920E-02 0. -1.
        2   -1    0    0  501    0  0.00000000000E+00  0.00000000000E+00 -0.18552442800E+04  0.18552442800E+04  0.25500000920E-02 0.  1.
    10030    2    1    2    0    0  0.00000000000E+00  0.00000000000E+00 -0.61598134757E+03  0.30945072125E+04  0.30325800678E+04 0.  0.
        1    1    3    3  502    0  0.49995701639E+03 -0.60085482520E+03  0.10178306131E+04  0.12833404444E+04  0.50400001928E-02 0. -1.
       -1    1    3    3    0  502 -0.49995701639E+03  0.60085482520E+03 -0.16338119607E+04  0.18111667681E+04  0.50400001928E-02 0.  1.
</event>
<event>
 5   0  0.1999883E-06  0.3543412E+04  0.7818609E-02  0.8103578E-01
       -2   -1    0    0    0  501  0.00000000000E+00  0.00000000000E+00  0.16756578795E+04  0.16756578795E+04  0.25500000920E-02 0.  1.
        2   -1    0    0  501    0  0.00000000000E+00  0.00000000000E+00 -0.18732593345E+04  0.18732593345E+04  0.25500000920E-02 0. -1.
    10030    2    1    2    0    0  0.00000000000E+00  0.00000000000E+00 -0.19760145503E+03  0.35489172141E+04  0.35434117820E+04 0.  0.
        4    1    3    3  502    0  0.35959339567E+03  0.12107234209E+04  0.11456197969E+04  0.17051700631E+04  0.12699999809E+01 0.  1.
       -4    1    3    3    0  502 -0.35959339567E+03 -0.12107234209E+04 -0.13432212520E+04  0.18437471510E+04  0.12699999809E+01 0. -1.
</event>
<event>
 5   0  0.6890600E-07  0.3549374E+04  0.7818609E-02  0.8102188E-01
        1   -1    0    0  501    0  0.00000000000E+00  0.00000000000E+00  0.18386950304E+04  0.18386950304E+04  0.50400001928E-02 0. -1.
       -1   -1    0    0    0  501  0.00000000000E+00  0.00000000000E+00 -0.17129073131E+04  0.17129073131E+04  0.50400001928E-02 0.  1.
    10030    2    1    2    0    0  0.00000000000E+00  0.00000000000E+00  0.12578771728E+03  0.35516023435E+04  0.35493741219E+04 0.  0.
        3    1    3    3  502    0  0.66949475020E+03 -0.39017216004E+03 -0.15346849691E+04  0.17192194449E+04  0.10100000352E+00 0.  1.
       -3    1    3    3    0  502 -0.66949475020E+03  0.39017216004E+03  0.16604726864E+04  0.18323828987E+04  0.10100000352E+00 0. -1.
</event>
<event>
 5   0  0.6630125E-07  0.3503637E+04  0.7818609E-02  0.8112929E-01
       -1   -1    0    0    0  501  0.00000000000E+00  0.00000000000E+00  0.12821946115E+04  0.12821946115E+04  0.50400001928E-02 0. -1.
        1   -1    0    0  501    0  0.00000000000E+00  0.00000000000E+00 -0.23934488416E+04  0.23934488416E+04  0.50400001928E-02 0.  1.
    10030    2    1    2    0    0  0.00000000000E+00  0.00000000000E+00 -0.11112542301E+04  0.36756434531E+04  0.35036365151E+04 0.  0.
        4    1    3    3  502    0 -0.96619726453E+03 -0.70638655535E+03 -0.18976254153E+04  0.22435469572E+04  0.12699999809E+01 0.  1.
       -4    1    3    3    0  502  0.96619726453E+03  0.70638655535E+03  0.78637118521E+03  0.14320964958E+04  0.12699999809E+01 0. -1.
</event>
<event>
 5   0  0.2073287E-06  0.3530162E+04  0.7818609E-02  0.8106679E-01
       -2   -1    0    0    0  501  0.00000000000E+00  0.00000000000E+00  0.26709877886E+04  0.26709877886E+04  0.25500000920E-02 0. -1.
        2   -1    0    0  501    0  0.00000000000E+00  0.00000000000E+00 -0.11664263025E+04  0.11664263025E+04  0.25500000920E-02 0.  1.
    10030    2    1    2    0    0  0.00000000000E+00  0.00000000000E+00  0.15045614861E+04  0.38374140911E+04  0.35301617018E+04 0.  0.
        1    1    3    3  502    0  0.71716318945E+03 -0.13690653692E+04 -0.17447584716E+03  0.15553471789E+04  0.50400001928E-02 0.  1.
       -1    1    3    3    0  502 -0.71716318945E+03  0.13690653692E+04  0.16790373332E+04  0.22820669122E+04  0.50400001928E-02 0. -1.
</event>
<event>
 5   0  0.6630125E-07  0.3448179E+04  0.7818609E-02  0.8126182E-01
        1   -1    0    0  501    0  0.00000000000E+00  0.00000000000E+00  0.16098050035E+04  0.16098050035E+04  0.50400001928E-02 0. -1.
       -1   -1    0    0    0  501  0.00000000000E+00  0.00000000000E+00 -0.18464870325E+04  0.18464870325E+04  0.50400001928E-02 0.  1.
    10030    2    1    2    0    0  0.00000000000E+00  0.00000000000E+00 -0.23668202904E+03  0.34562920361E+04  0.34481786867E+04 0.  0.
        1    1    3    3  502    0 -0.13148785521E+04  0.62181464642E+03 -0.10462215720E+04  0.17916859767E+04  0.50400001928E-02 0.  1.
       -1    1    3    3    0  502  0.13148785521E+04 -0.62181464642E+03  0.80953954300E+03  0.16646060594E+04  0.50400001928E-02 0. -1.
</event>
<event>
 5   0  0.1999883E-06  0.3518776E+04  0.7818609E-02  0.8109355E-01
       -2   -1    0    0    0  501  0.00000000000E+00  0.00000000000E+00  0.15654520112E+04  0.15654520112E+04  0.25500000920E-02 0. -1.
        2   -1    0    0  501    0  0.00000000000E+00  0.00000000000E+00 -0.19773496029E+04  0.19773496029E+04  0.25500000920E-02 0.  1.
    10030    2    1    2    0    0  0.00000000000E+00  0.00000000000E+00 -0.41189759173E+03  0.35428016140E+04  0.35187758739E+04 0.  0.
        4    1    3    3  502    0  0.69490607058E+03 -0.15274247175E+04  0.32636099848E+03  0.17095127460E+04  0.12699999809E+01 0. -1.
       -4    1    3    3    0  502 -0.69490607058E+03  0.15274247175E+04 -0.73825859020E+03  0.18332888680E+04  0.12699999809E+01 0.  1.
</event>
<event>
 5   0  0.2020725E-06  0.3414498E+04  0.7818609E-02  0.8134357E-01
       -2   -1    0    0    0  501  0.00000000000E+00  0.00000000000E+00  0.23996246968E+04  0.23996246968E+04  0.25500000920E-02 0.  1.
        2   -1    0    0  501    0  0.00000000000E+00  0.00000000000E+00 -0.12146482674E+04  0.12146482674E+04  0.25500000920E-02 0. -1.
    10030    2    1    2    0    0  0.00000000000E+00  0.00000000000E+00  0.11849764294E+04  0.36142729641E+04  0.34144984875E+04 0.  0.
        3    1    3    3  502    0 -0.80746931939E+03  0.65506023543E+03 -0.84083806641E+03  0.13372057725E+04  0.10100000352E+00 0. -1.
       -3    1    3    3    0  502  0.80746931939E+03 -0.65506023543E+03  0.20258144958E+04  0.22770671917E+04  0.10100000352E+00 0.  1.
</event>
<event>
 5   0  0.2023479E-06  0.3467210E+04  0.7818609E-02  0.8121605E-01
       -2   -1    0    0    0  501  0.00000000000E+00  0.00000000000E+00  0.16646213681E+04  0.16646213681E+04  0.25500000920E-02 0.  1.
        2   -1    0    0  501    0  0.00000000000E+00  0.00000000000E+00 -0.18054473169E+04  0.18054473169E+04  0.25500000920E-02 0. -1.
    10030    2    1    2    0    0  0.00000000000E+00  0.00000000000E+00 -0.14082594878E+03  0.34700686850E+04  0.34672099346E+04 0.  0.
        5    1    3    3  502    0 -0.67278123075E+03 -0.96700285998E+03 -0.13433244364E+04  0.17866929639E+04  0.46999998093E+01 0. -1.
       -5    1    3    3    0  502  0.67278123075E+03  0.96700285998E+03  0.12024984877E+04  0.16833757211E+04  0.46999998093E+01 0.  1.
</event>
<event>
 5   0  0.6630125E-07  0.2341351E+04  0.7818609E-02  0.8461793E-01
        1   -1    0    0  501    0  0.00000000000E+00  0.00000000000E+00  0.27568599745E+04  0.27568599745E+04  0.50400001928E-02 0.  1.
       -1   -1    0    0    0  501  0.00000000000E+00  0.00000000000E+00 -0.49711649313E+03  0.49711649316E+03  0.50400001928E-02 0. -1.
    10030    2    1    2    0    0  0.00000000000E+00  0.00000000000E+00  0.22597434814E+04  0.32539764677E+04  0.23413505185E+04 0.  0.
        4    1    3    3  502    0 -0.62698980107E+03 -0.90911324513E+03  0.59004072628E+03  0.12520993470E+04  0.12699999809E+01 0. -1.
       -4    1    3    3    0  502  0.62698980107E+03  0.90911324513E+03  0.16697027551E+04  0.20018771207E+04  0.12699999809E+01 0.  1.
</event>
<event>
 5   0  0.6630125E-07  0.3462085E+04  0.7818609E-02  0.8122834E-01
        1   -1    0    0  501    0  0.00000000000E+00  0.00000000000E+00  0.20827689646E+04  0.20827689646E+04  0.50400001928E-02 0. -1.
       -1   -1    0    0    0  501  0.00000000000E+00  0.00000000000E+00 -0.14387140035E+04  0.14387140035E+04  0.50400001928E-02 0.  1.
    10030    2    1    2    0    0  0.00000000000E+00  0.00000000000E+00  0.64405496113E+03  0.35214829682E+04  0.34620854268E+04 0.  0.
        4    1    3    3  502    0  0.75132116356E+03 -0.74395985815E+03 -0.10720884919E+04  0.15057672824E+04  0.12699999809E+01 0.  1.
       -4    1    3    3    0  502 -0.75132116356E+03  0.74395985815E+03  0.17161434531E+04  0.20157156857E+04  0.12699999809E+01 0. -1.
</event>
<event>
 5   0  0.6630125E-07  0.3564230E+04  0.7818609E-02  0.8098735E-01
       -1   -1    0    0    0  501  0.00000000000E+00  0.00000000000E+00  0.13763546837E+04  0.13763546837E+04  0.50400001928E-02 0.  1.
        1   -1    0    0  501    0  0.00000000000E+00  0.00000000000E+00 -0.23074962170E+04  0.23074962170E+04  0.50400001928E-02 0. -1.
    10030    2    1    2    0    0  0.00000000000E+00  0.00000000000E+00 -0.93114153328E+03  0.36838509007E+04  0.35642296368E+04 0.  0.
        1    1    3    3  502    0 -0.11834963303E+04  0.85694739362E+03  0.58892084702E+03  0.15753888927E+04  0.50400001928E-02 0.  1.
       -1    1    3    3    0  502  0.11834963303E+04 -0.85694739362E+03 -0.15200623803E+04  0.21084620080E+04  0.50400001928E-02 0. -1.
</event>
<event>
 5   0  0.2023479E-06  0.3634300E+04  0.7818609E-02  0.8082680E-01
       -2   -1    0    0    0  501  0.00000000000E+00  0.00000000000E+00  0.10672078602E+04  0.10672078602E+04  0.25500000920E-02 0. -1.
        2   -1    0    0  501    0  0.00000000000E+00  0.00000000000E+00 -0.30940871126E+04  0.30940871126E+04  0.25500000920E-02 0.  1.
    10030    2    1    2    0    0  0.00000000000E+00  0.00000000000E+00 -0.20268792524E+04  0.41612949727E+04  0.36342999802E+04 0.  0.
        5    1    3    3  502    0 -0.12882838487E+04 -0.65584278795E+02  0.45200487233E+03  0.13668602953E+04  0.46999998093E+01 0. -1.
       -5    1    3    3    0  502  0.12882838487E+04  0.65584278795E+02 -0.24788841248E+04  0.27944346774E+04  0.46999998093E+01 0.  1.
</event>
<event>
 5   0  0.1999883E-06  0.3298843E+04  0.7818609E-02  0.8163190E-01
        2   -1    0    0  501    0  0.00000000000E+00  0.00000000000E+00  0.16088103468E+04  0.16088103468E+04  0.25500000920E-02 0. -1.
       -2   -1    0    0    0  501  0.00000000000E+00  0.00000000000E+00 -0.16910579723E+04  0.16910579723E+04  0.25500000920E-02 0.  1.
    10030    2    1    2    0    0  0.00000000000E+00  0.00000000000E+00 -0.82247625428E+02  0.32998683191E+04  0.32988431687E+04 0.  0.
        4    1    3    3  502    0  0.10761671887E+04 -0.52838295035E+03 -0.11742889774E+04  0.16781777544E+04  0.12699999809E+01 0.  1.
       -4    1    3    3    0  502 -0.10761671887E+04  0.52838295035E+03  0.10920413519E+04  0.16216905646E+04  0.12699999809E+01 0. -1.
</event>
<event>
 5   0  0.2073287E-06  0.3641437E+04  0.7818609E-02  0.8081065E-01
        2   -1    0    0  501    0  0.00000000000E+00  0.00000000000E+00  0.17530817233E+04  0.17530817233E+04  0.25500000920E-02 0. -1.
       -2   -1    0    0    0  501  0.00000000000E+00  0.00000000000E+00 -0.18909649273E+04  0.18909649273E+04  0.25500000920E-02 0.  1.
    10030    2    1    2    0    0  0.00000000000E+00  0.00000000000E+00 -0.13788320396E+03  0.36440466506E+04  0.36414371083E+04 0.  0.
        1    1    3    3  502    0 -0.10695085069E+04  0.86739465205E+03  0.11230434390E+04  0.17769210716E+04  0.50400001928E-02 0. -1.
       -1    1    3    3    0  502  0.10695085069E+04 -0.86739465205E+03 -0.12609266430E+04  0.18671255790E+04  0.50400001928E-02 0.  1.
</event>
<event>
 5   0  0.2073287E-06  0.3491402E+04  0.7818609E-02  0.8115830E-01
        2   -1    0    0  501    0  0.00000000000E+00  0.00000000000E+00  0.19465159217E+04  0.19465159217E+04  0.25500000920E-02 0.  1.
       -2   -1    0    0    0  501  0.00000000000E+00  0.00000000000E+00 -0.15656038520E+04  0.15656038520E+04  0.25500000920E-02 0. -1.
    10030    2    1    2    0    0  0.00000000000E+00  0.00000000000E+00  0.38091206977E+03  0.35121197737E+04  0.34914024833E+04 0.  0.
        1    1    3    3  502    0 -0.95040980478E+02 -0.17234555741E+04  0.45304314423E+03  0.17845391546E+04  0.50400001928E-02 0.  1.
       -1    1    3    3    0  502  0.95040980478E+02  0.17234555741E+04 -0.72131074468E+02  0.17275806191E+04  0.50400001928E-02 0. -1.
</event>
<event>
 5   0  0.7378896E-07  0.3522912E+04  0.7818609E-02  0.8108382E-01
        1   -1    0    0  501    0  0.00000000000E+00  0.00000000000E+00  0.14591024165E+04  0.14591024165E+04  0.50400001928E-02 0.  1.
       -1   -1    0    0    0  501  0.00000000000E+00  0.00000000000E+00 -0.21264624723E+04  0.21264624723E+04  0.50400001928E-02 0. -1.
    10030    2    1    2    0    0  0.00000000000E+00  0.00000000000E+00 -0.66736005579E+03  0.35855648888E+04  0.35229115981E+04 0.  0.
        2    1    3    3  502    0  0.89199911250E+03 -0.46878379216E+02  0.12114987403E+04  0.15051874291E+04  0.25500000920E-02 0.  1.
       -2    1    3    3    0  502 -0.89199911250E+03  0.46878379216E+02 -0.18788587961E+04  0.20803774597E+04  0.25500000920E-02 0. -1.
</event>
<event>
 5   0  0.6630125E-07  0.3508666E+04  0.7818609E-02  0.8111739E-01
       -1   -1    0    0    0  501  0.00000000000E+00  0.00000000000E+00  0.13527490994E+04  0.13527490994E+04  0.50400001928E-02 0.  1.
        1   -1    0    0  501    0  0.00000000000E+00  0.00000000000E+00 -0.22751334168E+04  0.22751334168E+04  0.50400001928E-02 0. -1.
    10030    2    1    2    0    0  0.00000000000E+00  0.00000000000E+00 -0.92238431738E+03  0.36278825162E+04  0.35086662312E+04 0.  0.
        5    1    3    3  502    0 -0.10260070968E+03 -0.12961211149E+04  0.75662361859E+03  0.15043132121E+04  0.46999998093E+01 0.  1.
       -5    1    3    3    0  502  0.10260070968E+03  0.12961211149E+04 -0.16790079360E+04  0.21235693040E+04  0.46999998093E+01 0. -1.
</event>
<event>
 5   0  0.2023479E-06  0.2566911E+04  0.7818609E-02  0.8379528E-01
        2   -1    0    0  501    0  0.00000000000E+00  0.00000000000E+00  0.21145639253E+04  0.21145639253E+04  0.25500000920E-02 0. -1.
       -2   -1    0    0    0  501  0.00000000000E+00  0.00000000000E+00 -0.77900603598E+03  0.77900603599E+03  0.25500000920E-02 0.  1.
    10030    2    1    2    0    0  0.00000000000E+00  0.00000000000E+00  0.13355578893E+04  0.28935699613E+04  0.25669110318E+04 0.  0.
        5    1    3    3  502    0  0.90054980631E+02 -0.26027033059E+02 -0.77513220832E+03  0.78079404221E+03  0.46999998093E+01 0.  1.
       -5    1    3    3    0  502 -0.90054980631E+02  0.26027033059E+02  0.21106900976E+04  0.21127759191E+04  0.46999998093E+01 0. -1.
</event>
<event>
 5   0  0.6630125E-07  0.3512422E+04  0.7818609E-02  0.8110852E-01
       -1   -1    0    0    0  501  0.00000000000E+00  0.00000000000E+00  0.18704084923E+04  0.18704084923E+04  0.50400001928E-02 0.  1.
        1   -1    0    0  501    0  0.00000000000E+00  0.00000000000E+00 -0.16489857768E+04  0.16489857768E+04  0.50400001928E-02 0. -1.
    10030    2    1    2    0    0  0.00000000000E+00  0.00000000000E+00  0.22142271558E+03  0.35193942691E+04  0.35124219568E+04 0.  0.
        4    1    3    3  502    0 -0.10857740956E+04  0.12085017719E+04  0.77903873840E+03  0.18017449565E+04  0.12699999809E+01 0.  1.
       -4    1    3    3    0  502  0.10857740956E+04 -0.12085017719E+04 -0.55761602282E+03  0.17176493126E+04  0.12699999809E+01 0. -1.
</event>
<event>
 5   0  0.2001768E-06  0.3452836E+04  0.7818609E-02  0.8125059E-01
       -2   -1    0    0    0  501  0.00000000000E+00  0.00000000000E+00  0.13745511249E+04  0.13745511249E+04  0.25500000920E-02 0.  1.
        2   -1    0    0  501    0  0.00000000000E+00  0.00000000000E+00 -0.21683582675E+04  0.21683582675E+04  0.25500000920E-02 0. -1.
    10030    2    1    2    0    0  0.00000000000E+00  0.00000000000E+00 -0.79380714262E+03  0.35429093924E+04  0.34528361071E+04 0.  0.
        2    1    3    3  502    0  0.70254065374E+03  0.33531958917E+03  0.11842414146E+04  0.14171909981E+04  0.25500000920E-02 0.  1.
       -2    1    3    3    0  502 -0.70254065374E+03 -0.33531958917E+03 -0.19780485572E+04  0.21257183943E+04  0.25500000920E-02 0. -1.
</event>
<event>
 5   0  0.6630125E-07  0.3457205E+04  0.7818609E-02  0.8124007E-01
       -1   -1    0    0    0  501  0.00000000000E+00  0.00000000000E+00  0.29578693749E+04  0.29578693749E+04  0.50400001928E-02 0.  1.
        1   -1    0    0  501    0  0.00000000000E+00  0.00000000000E+00 -0.10102090502E+04  0.10102090502E+04  0.50400001928E-02 0. -1.
    10030    2    1    2    0    0  0.00000000000E+00  0.00000000000E+00  0.19476603247E+04  0.39680784251E+04  0.34572048895E+04 0.  0.
        1    1    3    3  502    0  0.68694467117E+03 -0.14916816303E+04  0.15930514838E+04  0.22879729232E+04  0.50400001928E-02 0.  1.
       -1    1    3    3    0  502 -0.68694467117E+03  0.14916816303E+04  0.35460884091E+03  0.16801055019E+04  0.50400001928E-02 0. -1.
</event>
<event>
 5   0  0.2020725E-06  0.2415048E+04  0.7818609E-02  0.8433891E-01
       -2   -1    0    0    0  501  0.00000000000E+00  0.00000000000E+00  0.10494146398E+04  0.10494146398E+04  0.25500000920E-02 0.  1.
        2   -1    0    0  501    0  0.00000000000E+00  0.00000000000E+00 -0.13894552312E+04  0.13894552312E+04  0.25500000920E-02 0. -1.
    10030    2    1    2    0    0  0.00000000000E+00  0.00000000000E+00 -0.34004059140E+03  0.24388698710E+04  0.24150483730E+04 0.  0.
        3    1    3    3  502    0  0.70979161398E+03  0.36445654659E+03  0.74527621117E+03  0.10918192848E+04  0.10100000352E+00 0.  1.
       -3    1    3    3    0  502 -0.70979161398E+03 -0.36445654659E+03 -0.10853168026E+04  0.13470505862E+04  0.10100000352E+00 0. -1.
</event>
<event>
 5   0  0.2023479E-06  0.3435109E+04  0.7818609E-02  0.8129343E-01
        2   -1    0    0  501    0  0.00000000000E+00  0.00000000000E+00  0.19239520342E+04  0.19239520342E+04  0.25500000920E-02 0. -1.
       -2   -1    0    0    0  501  0.00000000000E+00  0.00000000000E+00 -0.15332992467E+04  0.15332992467E+04  0.25500000920E-02 0.  1.
    10030    2    1    2    0    0  0.00000000000E+00  0.00000000000E+00  0.39065278749E+03  0.34572512809E+04  0.34351094334E+04 0.  0.
        5    1    3    3  502    0  0.85816433084E+03  0.98985234729E+03 -0.92256186513E+03  0.16023096371E+04  0.46999998093E+01 0.  1.
       -5    1    3    3    0  502 -0.85816433084E+03 -0.98985234729E+03  0.13132146526E+04  0.18549416438E+04  0.46999998093E+01 0. -1.
</event>
<event>
 5   0  0.6630125E-07  0.2218252E+04  0.7818609E-02  0.8510869E-01
       -1   -1    0    0    0  501  0.00000000000E+00  0.00000000000E+00  0.70472159699E+03  0.70472159701E+03  0.50400001928E-02 0.  1.
        1   -1    0    0  501    0  0.00000000000E+00  0.00000000000E+00 -0.17455976484E+04  0.17455976484E+04  0.50400001928E-02 0. -1.
    10030    2    1    2    0    0  0.00000000000E+00  0.00000000000E+00 -0.10408760514E+04  0.24503192454E+04  0.22182518906E+04 0.  0.
        1    1    3    3  502    0 -0.10271279766E+04  0.41177729213E+03 -0.60315861878E+03  0.12602986702E+04  0.50400001928E-02 0. -1.
       -1    1    3    3    0  502  0.10271279766E+04 -0.41177729213E+03 -0.43771743260E+03  0.11900205752E+04  0.50400001928E-02 0.  1.
</event>
<event>
 5   0  0.6630125E-07  0.3106260E+04  0.7818609E-02  0.8214022E-01
        1   -1    0    0  501    0  0.00000000000E+00  0.00000000000E+00  0.21786820401E+04  0.21786820401E+04  0.50400001928E-02 0. -1.
       -1   -1    0    0    0  501  0.00000000000E+00  0.00000000000E+00 -0.11071892688E+04  0.11071892688E+04  0.50400001928E-02 0.  1.
    10030    2    1    2    0    0  0.00000000000E+00  0.00000000000E+00  0.10714927713E+04  0.32858713089E+04  0.31062603721E+04 0.  0.
        4    1    3    3  502    0  0.99294893486E+03  0.31470854730E+03  0.17544121067E+04  0.20403314707E+04  0.12699999809E+01 0. -1.
       -4    1    3    3    0  502 -0.99294893486E+03 -0.31470854730E+03 -0.68291933540E+03  0.12455398382E+04  0.12699999809E+01 0.  1.
</event>
<event>
 5   0  0.6630125E-07  0.2404288E+04  0.7818609E-02  0.8437900E-01
       -1   -1    0    0    0  501  0.00000000000E+00  0.00000000000E+00  0.10723269479E+04  0.10723269479E+04  0.50400001928E-02 0. -1.
        1   -1    0    0  501    0  0.00000000000E+00  0.00000000000E+00 -0.13476767681E+04  0.13476767681E+04  0.50400001928E-02 0.  1.
    10030    2    1    2    0    0  0.00000000000E+00  0.00000000000E+00 -0.27534982014E+03  0.24200037160E+04  0.24042879325E+04 0.  0.
        5    1    3    3  502    0  0.50363863550E+02  0.10358896060E+04  0.47418361740E+03  0.11403841403E+04  0.46999998093E+01 0. -1.
       -5    1    3    3    0  502 -0.50363863550E+02 -0.10358896060E+04 -0.74953343754E+03  0.12796195757E+04  0.46999998093E+01 0.  1.
</event>
<event>
 5   0  0.6630125E-07  0.3235329E+04  0.7818609E-02  0.8179549E-01
       -1   -1    0    0    0  501  0.00000000000E+00  0.00000000000E+00  0.10725077401E+04  0.10725077401E+04  0.50400001928E-02 0. -1.
        1   -1    0    0  501    0  0.00000000000E+00  0.00000000000E+00 -0.24399255888E+04  0.24399255888E+04  0.50400001928E-02 0.  1.
    10030    2    1    2    0    0  0.00000000000E+00  0.00000000000E+00 -0.13674178488E+04  0.35124333289E+04  0.32353293985E+04 0.  0.
        5    1    3    3  502    0  0.54073018819E+03  0.25606303375E+03  0.94796811422E+03  0.11209919934E+04  0.46999998093E+01 0. -1.
       -5    1    3    3    0  502 -0.54073018819E+03 -0.25606303375E+03 -0.23153859630E+04  0.23914413355E+04  0.46999998093E+01 0.  1.
</event>
<event>
 5   0  0.2023479E-06  0.3656105E+04  0.7818609E-02  0.8077760E-01
        2   -1    0    0  501    0  0.00000000000E+00  0.00000000000E+00  0.10953776774E+04  0.10953776774E+04  0.25500000920E-02 0. -1.
       -2   -1    0    0    0  501  0.00000000000E+00  0.00000000000E+00 -0.30507982889E+04  0.30507982889E+04  0.25500000920E-02 0.  1.
    10030    2    1    2    0    0  0.00000000000E+00  0.00000000000E+00 -0.19554206114E+04  0.41461759663E+04  0.36561052195E+04 0.  0.
        5    1    3    3  502    0 -0.29922041416E+03 -0.16692643226E+04 -0.17516703464E+04  0.24381032233E+04  0.46999998093E+01 0.  1.
       -5    1    3    3    0  502  0.29922041416E+03  0.16692643226E+04 -0.20375026509E+03  0.17080727431E+04  0.46999998093E+01 0. -1.
</event>
<event>
 5   0  0.2023479E-06  0.3450841E+04  0.7818609E-02  0.8125540E-01
        2   -1    0    0  501    0  0.00000000000E+00  0.00000000000E+00  0.21662448474E+04  0.21662448474E+04  0.25500000920E-02 0.  1.
       -2   -1    0    0    0  501  0.00000000000E+00  0.00000000000E+00 -0.13743027165E+04  0.13743027165E+04  0.25500000920E-02 0. -1.
    10030    2    1    2    0    0  0.00000000000E+00  0.00000000000E+00  0.79194213088E+03  0.35405475639E+04  0.34508411603E+04 0.  0.
        5    1    3    3  502    0 -0.16857244280E+04 -0.19026362354E+03  0.72844377286E+02  0.16979974932E+04  0.46999998093E+01 0. -1.
       -5    1    3    3    0  502  0.16857244280E+04  0.19026362354E+03  0.71909775360E+03  0.18425500707E+04  0.46999998093E+01 0.  1.
</event>
<event>
 5   0  0.2020725E-06  0.3517902E+04  0.7818609E-02  0.8109561E-01
        2   -1    0    0  501    0  0.00000000000E+00  0.00000000000E+00  0.15247867873E+04  0.15247867873E+04  0.25500000920E-02 0. -1.
       -2   -1    0    0    0  501  0.00000000000E+00  0.00000000000E+00 -0.20290758774E+04  0.20290758774E+04  0.25500000920E-02 0.  1.
    10030    2    1    2    0    0  0.00000000000E+00  0.00000000000E+00 -0.50428909012E+03  0.35538626646E+04  0.35179016974E+04 0.  0.
        3    1    3    3  502    0  0.20552605070E+03  0.31764170395E+03 -0.19874849745E+04  0.20231741753E+04  0.10100000352E+00 0.  1.
       -3    1    3    3    0  502 -0.20552605070E+03 -0.31764170395E+03  0.14831958844E+04  0.15306884893E+04  0.10100000352E+00 0. -1.
</event>
<event>
 5   0  0.2023479E-06  0.3476298E+04  0.7818609E-02  0.8119430E-01
       -2   -1    0    0    0  501  0.00000000000E+00  0.00000000000E+00  0.19506801643E+04  0.19506801643E+04  0.25500000920E-02 0.  1.
        2   -1    0    0  501    0  0.00000000000E+00  0.00000000000E+00 -0.15487733238E+04  0.15487733239E+04  0.25500000920E-02 0. -1.
    10030    2    1    2    0    0  0.00000000000E+00  0.00000000000E+00  0.40190684040E+03  0.34994534881E+04  0.34762976868E+04 0.  0.
        5    1    3    3  502    0 -0.15484788994E+04 -0.20875671716E+03 -0.56554678504E+03  0.16616953767E+04  0.46999998093E+01 0. -1.
       -5    1    3    3    0  502  0.15484788994E+04  0.20875671716E+03  0.96745362545E+03  0.18377581114E+04  0.46999998093E+01 0.  1.
</event>
<event>
 5   0  0.7378896E-07  0.3390263E+04  0.7818609E-02  0.8140300E-01
       -1   -1    0    0    0  501  0.00000000000E+00  0.00000000000E+00  0.15286247841E+04  0.15286247841E+04  0.50400001928E-02 0. -1.
        1   -1    0    0  501    0  0.00000000000E+00  0.00000000000E+00 -0.18797747925E+04  0.18797747925E+04  0.50400001928E-02 0.  1.
    10030    2    1    2    0    0  0.00000000000E+00  0.00000000000E+00 -0.35115000841E+03  0.34083995766E+04  0.33902627252E+04 0.  0.
        2    1    3    3  502    0 -0.24505103121E+03 -0.13683544391E+04 -0.11508297334E+04  0.18046753044E+04  0.25500000920E-02 0.  1.
       -2    1    3    3    0  502  0.24505103121E+03  0.13683544391E+04  0.79967972502E+03  0.16037242723E+04  0.25500000920E-02 0. -1.
</event>
<event>
 5   0  0.2020725E-06  0.3496579E+04  0.7818609E-02  0.8114601E-01
        2   -1    0    0  501    0  0.00000000000E+00  0.00000000000E+00  0.16085367985E+04  0.16085367985E+04  0.25500000920E-02 0. -1.
       -2   -1    0    0    0  501  0.00000000000E+00  0.00000000000E+00 -0.19001840908E+04  0.19001840908E+04  0.25500000920E-02 0.  1.
    10030    2    1    2    0    0  0.00000000000E+00  0.00000000000E+00 -0.29164729224E+03  0.35087208893E+04  0.34965789189E+04 0.  0.
        3    1    3    3  502    0  0.14359255101E+04 -0.13663366152E+03 -0.11371636981E+04  0.18367613112E+04  0.10100000352E+00 0.  1.
       -3    1    3    3    0  502 -0.14359255101E+04  0.13663366152E+03  0.84551640585E+03  0.16719595781E+04  0.10100000352E+00 0. -1.
</event>
<event>
 5   0  0.2001768E-06  0.2888874E+04  0.7818609E-02  0.8276196E-01
       -2   -1    0    0    0  501  0.00000000000E+00  0.00000000000E+00  0.15544029434E+04  0.15544029434E+04  0.25500000920E-02 0. -1.
        2   -1    0    0  501    0  0.00000000000E+00  0.00000000000E+00 -0.13422502331E+04  0.13422502331E+04  0.25500000920E-02 0.  1.
    10030    2    1    2    0    0  0.00000000000E+00  0.00000000000E+00  0.21215271024E+03  0.28966531765E+04  0.28888736304E+04 0.  0.
        2    1    3    3  502    0  0.10168445266E+04 -0.94559139353E+03 -0.29284152012E+03  0.14191095908E+04  0.25500000920E-02 0. -1.
       -2    1    3    3    0  502 -0.10168445266E+04  0.94559139353E+03  0.50499423037E+03  0.14775435857E+04  0.25500000920E-02 0.  1.
</event>
<event>
 5   0  0.2020725E-06  0.3167480E+04  0.7818609E-02  0.8197459E-01
       -2   -1    0    0    0  501  0.00000000000E+00  0.00000000000E+00  0.15636187299E+04  0.15636187299E+04  0.25500000920E-02 0.  1.
        2   -1    0    0  501    0  0.00000000000E+00  0.00000000000E+00 -0.16041202097E+04  0.16041202097E+04  0.25500000920E-02 0. -1.
    10030    2    1    2    0    0  0.00000000000E+00  0.00000000000E+00 -0.40501479820E+02  0.31677389396E+04  0.31674800109E+04 0.  0.
        3    1    3    3  502    0 -0.77046056982E+03 -0.12595958038E+04 -0.59304647171E+03  0.15911930136E+04  0.10100000352E+00 0.  1.
       -3    1    3    3    0  502  0.77046056982E+03  0.12595958038E+04  0.55254499189E+03  0.15765459260E+04  0.10100000352E+00 0. -1.
</event>
<event>
 5   0  0.7378896E-07  0.2966878E+04  0.7818609E-02  0.8253253E-01
       -1   -1    0    0    0  501  0.00000000000E+00  0.00000000000E+00  0.15058705076E+04  0.15058705076E+04  0.50400001928E-02 0.  1.
        1   -1    0    0  501    0  0.00000000000E+00  0.00000000000E+00 -0.14613416431E+04  0.14613416431E+04  0.50400001928E-02 0. -1.
    10030    2    1    2    0    0  0.00000000000E+00  0.00000000000E+00  0.44528864494E+02  0.29672121508E+04  0.29668780103E+04 0.  0.
        2    1    3    3  502    0 -0.53627390028E+03  0.76402532425E+03  0.11753326524E+04  0.15009101359E+04  0.25500000920E-02 0.  1.
       -2    1    3    3    0  502  0.53627390028E+03 -0.76402532425E+03 -0.11308037879E+04  0.14663020149E+04  0.25500000920E-02 0. -1.
</event>
<event>
 5   0  0.2001768E-06  0.3524817E+04  0.7818609E-02  0.8107934E-01
        2   -1    0    0  501    0  0.00000000000E+00  0.00000000000E+00  0.15730965564E+04  0.15730965564E+04  0.25500000920E-02 0.  1.
       -2   -1    0    0    0  501  0.00000000000E+00  0.00000000000E+00 -0.19745029256E+04  0.19745029256E+04  0.25500000920E-02 0. -1.
    10030    2    1    2    0    0  0.00000000000E+00  0.00000000000E+00 -0.40140636925E+03  0.35475994820E+04  0.35248170182E+04 0.  0.
        2    1    3    3  502    0  0.11739293334E+04  0.13055584470E+04 -0.46445416773E+02  0.17563456708E+04  0.25500000920E-02 0. -1.
       -2    1    3    3    0  502 -0.11739293334E+04 -0.13055584470E+04 -0.35496095248E+03  0.17912538112E+04  0.25500000920E-02 0.  1.
</event>
<event>
 5   0  0.6630125E-07  0.3131979E+04  0.7818609E-02  0.8207016E-01
       -1   -1    0    0    0  501  0.00000000000E+00  0.00000000000E+00  0.14594149819E+04  0.14594149819E+04  0.50400001928E-02 0.  1.
        1   -1    0    0  501    0  0.00000000000E+00  0.00000000000E+00 -0.16803468262E+04  0.16803468262E+04  0.50400001928E-02 0. -1.
    10030    2    1    2    0    0  0.00000000000E+00  0.00000000000E+00 -0.22093184430E+03  0.31397618081E+04  0.31319791397E+04 0.  0.
        4    1    3    3  502    0 -0.12552989697E+03  0.14493768872E+03 -0.16685342142E+04  0.16795156223E+04  0.12699999809E+01 0. -1.
       -4    1    3    3    0  502  0.12552989697E+03 -0.14493768872E+03  0.14476023699E+04  0.14602461858E+04  0.12699999809E+01 0.  1.
</event>
<event>
 5   0  0.6630125E-07  0.3517407E+04  0.7818609E-02  0.8109677E-01
        1   -1    0    0  501    0  0.00000000000E+00  0.00000000000E+00  0.21792483056E+04  0.21792483056E+04  0.50400001928E-02 0.  1.
       -1   -1    0    0    0  501  0.00000000000E+00  0.00000000000E+00 -0.14193140129E+04  0.14193140129E+04  0.50400001928E-02 0. -1.
    10030    2    1    2    0    0  0.00000000000E+00  0.00000000000E+00  0.75993429269E+03  0.35985623186E+04  0.35174068049E+04 0.  0.
        4    1    3    3  502    0  0.95125791285E+03  0.79827735393E+03 -0.89411668321E+03  0.15302237113E+04  0.12699999809E+01 0. -1.
       -4    1    3    3    0  502 -0.95125791285E+03 -0.79827735393E+03  0.16540509759E+04  0.20683386073E+04  0.12699999809E+01 0.  1.
</event>
<event>
 5   0  0.1999883E-06  0.3578974E+04  0.7818609E-02  0.8095325E-01
        2   -1    0    0  501    0  0.00000000000E+00  0.00000000000E+00  0.15059413774E+04  0.15059413774E+04  0.25500000920E-02 0.  1.
       -2   -1    0    0    0  501  0.00000000000E+00  0.00000000000E+00 -0.21264204181E+04  0.21264204181E+04  0.25500000920E-02 0. -1.
    10030    2    1    2    0    0  0.00000000000E+00  0.00000000000E+00 -0.62047904071E+03  0.36323617955E+04  0.35789744303E+04 0.  0.
        4    1    3    3  502    0  0.20825378463E+03 -0.51295167172E+03 -0.20373209823E+04  0.21112004770E+04  0.12699999809E+01 0. -1.
       -4    1    3    3    0  502 -0.20825378463E+03  0.51295167172E+03  0.14168419416E+04  0.15211613184E+04  0.12699999809E+01 0.  1.
</event>
<event>
 5   0  0.6890600E-07  0.2617434E+04  0.7818609E-02  0.8362303E-01
       -1   -1    0    0    0  501  0.00000000000E+00  0.00000000000E+00  0.10860257052E+04  0.10860257052E+04  0.50400001928E-02 0. -1.
        1   -1    0    0  501    0  0.00000000000E+00  0.00000000000E+00 -0.15770709353E+04  0.15770709353E+04  0.50400001928E-02 0.  1.
    10030    2    1    2    0    0  0.00000000000E+00  0.00000000000E+00 -0.49104523008E+03  0.26630966405E+04  0.26174335328E+04 0.  0.
        3    1    3    3  502    0  0.35162341894E+03 -0.92147266723E+03 -0.11207558421E+04  0.14929315366E+04  0.10100000352E+00 0.  1.
       -3    1    3    3    0  502 -0.35162341894E+03  0.92147266723E+03  0.62971061207E+03  0.11701651039E+04  0.10100000352E+00 0. -1.
</event>
<event>
 5   0  0.6630125E-07  0.2371330E+04  0.7818609E-02  0.8450316E-01
       -4   -1    0    0    0  501  0.00000000000E+00  0.00000000000E+00  0.87264084955E+03  0.87264177370E+03  0.12699999809E+01 0. -1.
        4   -1    0    0  501    0  0.00000000000E+00  0.00000000000E+00 -0.16109717602E+04  0.16109722608E+04  0.12699999809E+01 0.  1.
    10030    2    1    2    0    0  0.00000000000E+00  0.00000000000E+00 -0.73833091066E+03  0.24836140345E+04  0.23713300358E+04 0.  0.
        5    1    3    3  502    0 -0.47657718270E+03  0.75320871751E+03 -0.11880639076E+04  0.14852498516E+04  0.46999998093E+01 0.  1.
       -5    1    3    3    0  502  0.47657718270E+03 -0.75320871751E+03  0.44973299691E+03  0.99836418291E+03  0.46999998093E+01 0. -1.
</event>
<event>
 5   0  0.2073287E-06  0.3783194E+04  0.7818609E-02  0.8049771E-01
       -2   -1    0    0    0  501  0.00000000000E+00  0.00000000000E+00  0.29010205765E+04  0.29010205765E+04  0.25500000920E-02 0.  1.
        2   -1    0    0  501    0  0.00000000000E+00  0.00000000000E+00 -0.12334071812E+04  0.12334071812E+04  0.25500000920E-02 0. -1.
    10030    2    1    2    0    0  0.00000000000E+00  0.00000000000E+00  0.16676133953E+04  0.41344277577E+04  0.37831942122E+04 0.  0.
        1    1    3    3  502    0 -0.96847280837E+03 -0.85219773269E+02  0.26070856373E+04  0.27824624905E+04  0.50400001928E-02 0.  1.
       -1    1    3    3    0  502  0.96847280837E+03  0.85219773269E+02 -0.93947224202E+03  0.13519652673E+04  0.50400001928E-02 0. -1.
</event>
<event>
 5   0  0.2020725E-06  0.3322895E+04  0.7818609E-02  0.8157094E-01
        2   -1    0    0  501    0  0.00000000000E+00  0.00000000000E+00  0.23299035584E+04  0.23299035584E+04  0.25500000920E-02 0.  1.
       -2   -1    0    0    0  501  0.00000000000E+00  0.00000000000E+00 -0.11847731031E+04  0.11847731031E+04  0.25500000920E-02 0. -1.
    10030    2    1    2    0    0  0.00000000000E+00  0.00000000000E+00  0.11451304553E+04  0.35146766616E+04  0.33228945629E+04 0.  0.
        3    1    3    3  502    0 -0.41905746031E+03 -0.71803923303E+02 -0.11262593852E+04  0.12038376849E+04  0.10100000352E+00 0. -1.
       -3    1    3    3    0  502  0.41905746031E+03  0.71803923303E+02  0.22713898405E+04  0.23108389767E+04  0.10100000352E+00 0.  1.
</event>
<event>
 5   0  0.2001768E-06  0.3562724E+04  0.7818609E-02  0.8099084E-01
       -2   -1    0    0    0  501  0.00000000000E+00  0.00000000000E+00  0.15472000521E+04  0.15472000521E+04  0.25500000920E-02 0.  1.
        2   -1    0    0  501    0  0.00000000000E+00  0.00000000000E+00 -0.20509632653E+04  0.20509632653E+04  0.25500000920E-02 0. -1.
    10030    2    1    2    0    0  0.00000000000E+00  0.00000000000E+00 -0.50376321318E+03  0.35981633173E+04  0.35627239415E+04 0.  0.
        2    1    3    3  502    0 -0.14244925352E+04 -0.10581146454E+04 -0.40985003203E+03  0.18211981316E+04  0.25500000920E-02 0. -1.
       -2    1    3    3    0  502  0.14244925352E+04  0.10581146454E+04 -0.93913181155E+02  0.17769651857E+04  0.25500000920E-02 0.  1.
</event>
<event>
 5   0  0.6630125E-07  0.3442761E+04  0.7818609E-02  0.8127490E-01
        1   -1    0    0  501    0  0.00000000000E+00  0.00000000000E+00  0.25873995946E+04  0.25873995946E+04  0.50400001928E-02 0.  1.
       -1   -1    0    0    0  501  0.00000000000E+00  0.00000000000E+00 -0.11452236883E+04  0.11452236883E+04  0.50400001928E-02 0. -1.
    10030    2    1    2    0    0  0.00000000000E+00  0.00000000000E+00  0.14421759063E+04  0.37326232830E+04  0.34427612795E+04 0.  0.
        1    1    3    3  502    0 -0.14499008616E+04  0.59329446210E+03  0.14945530992E+04  0.21651558359E+04  0.50400001928E-02 0.  1.
       -1    1    3    3    0  502  0.14499008616E+04 -0.59329446210E+03 -0.52377192957E+02  0.15674674471E+04  0.50400001928E-02 0. -1.
</event>
<event>
 5   0  0.1999883E-06  0.2907666E+04  0.7818609E-02  0.8270600E-01
       -2   -1    0    0    0  501  0.00000000000E+00  0.00000000000E+00  0.12624416251E+04  0.12624416251E+04  0.25500000920E-02 0.  1.
        2   -1    0    0  501    0  0.00000000000E+00  0.00000000000E+00 -0.16742399491E+04  0.16742399491E+04  0.25500000920E-02 0. -1.
    10030    2    1    2    0    0  0.00000000000E+00  0.00000000000E+00 -0.41179832404E+03  0.29366815742E+04  0.29076658695E+04 0.  0.
        4    1    3    3  502    0  0.68896065745E+03 -0.31141764482E+03  0.10482576750E+04  0.12924757263E+04  0.12699999809E+01 0.  1.
       -4    1    3    3    0  502 -0.68896065745E+03  0.31141764482E+03 -0.14600559990E+04  0.16442058479E+04  0.12699999809E+01 0. -1.
</event>
<event>
 5   0  0.6890600E-07  0.3572553E+04  0.7818609E-02  0.8096808E-01
        1   -1    0    0  501    0  0.00000000000E+00  0.00000000000E+00  0.15764945722E+04  0.15764945722E+04  0.50400001928E-02 0.  1.
       -1   -1    0    0    0  501  0.00000000000E+00  0.00000000000E+00 -0.20239743454E+04  0.20239743454E+04  0.50400001928E-02 0. -1.
    10030    2    1    2    0    0  0.00000000000E+00  0.00000000000E+00 -0.44747977321E+03  0.36004689176E+04  0.35725534677E+04 0.  0.
        3    1    3    3  502    0 -0.11530554365E+04  0.94616327635E+03 -0.12142844334E+04  0.19233430481E+04  0.10100000352E+00 0. -1.
       -3    1    3    3    0  502  0.11530554365E+04 -0.94616327635E+03  0.76680466015E+03  0.16771258695E+04  0.10100000352E+00 0.  1.
</event>
<event>
 5   0  0.2020725E-06  0.3471116E+04  0.7818609E-02  0.8120669E-01
        2   -1    0    0  501    0  0.00000000000E+00  0.00000000000E+00  0.26262774982E+04  0.26262774982E+04  0.25500000920E-02 0. -1.
       -2   -1    0    0    0  501  0.00000000000E+00  0.00000000000E+00 -0.11469317063E+04  0.11469317063E+04  0.25500000920E-02 0.  1.
    10030    2    1    2    0    0  0.00000000000E+00  0.00000000000E+00  0.14793457919E+04  0.37732092045E+04  0.34711156317E+04 0.  0.
        3    1    3    3  502    0  0.17732424733E+03  0.34260423132E+02  0.26160349919E+04  0.26222617631E+04  0.10100000352E+00 0. -1.
       -3    1    3    3    0  502 -0.17732424733E+03 -0.34260423132E+02 -0.11366892000E+04  0.11509474414E+04  0.10100000352E+00 0.  1.
</event>
<event>
 5   0  0.2020725E-06  0.3478529E+04  0.7818609E-02  0.8118897E-01
       -2   -1    0    0    0  501  0.00000000000E+00  0.00000000000E+00  0.10813680051E+04  0.10813680051E+04  0.25500000920E-02 0.  1.
        2   -1    0    0  501    0  0.00000000000E+00  0.00000000000E+00 -0.27974203928E+04  0.27974203928E+04  0.25500000920E-02 0. -1.
    10030    2    1    2    0    0  0.00000000000E+00  0.00000000000E+00 -0.17160523877E+04  0.38787883979E+04  0.34785289474E+04 0.  0.
        3    1    3    3  502    0 -0.78022526775E+02  0.12489319033E+04 -0.22049602727E+04  0.25353043660E+04  0.10100000352E+00 0.  1.
       -3    1    3    3    0  502  0.78022526775E+02 -0.12489319033E+04  0.48890788496E+03  0.13434840319E+04  0.10100000352E+00 0. -1.
</event>
<event>
 5   0  0.6630125E-07  0.3409877E+04  0.7818609E-02  0.8135486E-01
       -1   -1    0    0    0  501  0.00000000000E+00  0.00000000000E+00  0.22743550247E+04  0.22743550248E+04  0.50400001928E-02 0. -1.
        1   -1    0    0  501    0  0.00000000000E+00  0.00000000000E+00 -0.12780833442E+04  0.12780833442E+04  0.50400001928E-02 0.  1.
    10030    2    1    2    0    0  0.00000000000E+00  0.00000000000E+00  0.99627168052E+03  0.35524383690E+04  0.34098769925E+04 0.  0.
        4    1    3    3  502    0 -0.10659441146E+04 -0.55368043830E+03  0.17586872723E+04  0.21297374058E+04  0.12699999809E+01 0. -1.
       -4    1    3    3    0  502  0.10659441146E+04  0.55368043830E+03 -0.76241559173E+03  0.14227009632E+04  0.12699999809E+01 0.  1.
</event>
<event>
 5   0  0.6630125E-07  0.3484103E+04  0.7818609E-02  0.8117568E-01
        1   -1    0    0  501    0  0.00000000000E+00  0.00000000000E+00  0.21895411117E+04  0.21895411117E+04  0.50400001928E-02 0. -1.
       -1   -1    0    0    0  501  0.00000000000E+00  0.00000000000E+00 -0.13860179841E+04  0.13860179841E+04  0.50400001928E-02 0.  1.
    10030    2    1    2    0    0  0.00000000000E+00  0.00000000000E+00  0.80352312759E+03  0.35755590958E+04  0.34841029593E+04 0.  0.
        1    1    3    3  502    0  0.13557986951E+04  0.98177442774E+03 -0.93261296278E+02  0.16765347590E+04  0.50400001928E-02 0.  1.
       -1    1    3    3    0  502 -0.13557986951E+04 -0.98177442774E+03  0.89678442387E+03  0.18990243368E+04  0.50400001928E-02 0. -1.
</event>
<event>
 5   0  0.2073287E-06  0.3577894E+04  0.7818609E-02  0.8095574E-01
       -2   -1    0    0    0  501  0.00000000000E+00  0.00000000000E+00  0.18037792303E+04  0.18037792303E+04  0.25500000920E-02 0.  1.
        2   -1    0    0  501    0  0.00000000000E+00  0.00000000000E+00 -0.17742368171E+04  0.17742368171E+04  0.25500000920E-02 0. -1.
    10030    2    1    2    0    0  0.00000000000E+00  0.00000000000E+00  0.29542413208E+02  0.35780160474E+04  0.35778940847E+04 0.  0.
        1    1    3    3  502    0 -0.64718299529E+03 -0.28906623734E+03  0.16573637725E+04  0.18025703297E+04  0.50400001928E-02 0.  1.
       -1    1    3    3    0  502  0.64718299529E+03  0.28906623734E+03 -0.16278213593E+04  0.17754457178E+04  0.50400001928E-02 0. -1.
</event>
<event>
 5   0  0.6630125E-07  0.3275640E+04  0.7818609E-02  0.8169121E-01
        1   -1    0    0  501    0  0.00000000000E+00  0.00000000000E+00  0.18754734621E+04  0.18754734621E+04  0.50400001928E-02 0.  1.
       -1   -1    0    0    0  501  0.00000000000E+00  0.00000000000E+00 -0.14302814855E+04  0.14302814855E+04  0.50400001928E-02 0. -1.
    10030    2    1    2    0    0  0.00000000000E+00  0.00000000000E+00  0.44519197664E+03  0.33057549476E+04  0.32756403767E+04 0.  0.
        4    1    3    3  502    0 -0.96902276852E+03 -0.12458669681E+04  0.66395373093E+03  0.17123159165E+04  0.12699999809E+01 0.  1.
       -4    1    3    3    0  502  0.96902276852E+03  0.12458669681E+04 -0.21876175429E+03  0.15934390312E+04  0.12699999809E+01 0. -1.
</event>
<event>
 5   0  0.2023479E-06  0.2777308E+04  0.7818609E-02  0.8310348E-01
        2   -1    0    0  501    0  0.00000000000E+00  0.00000000000E+00  0.20694433997E+04  0.20694433997E+04  0.25500000920E-02 0. -1.
       -2   -1    0    0    0  501  0.00000000000E+00  0.00000000000E+00 -0.93182536098E+03  0.93182536098E+03  0.25500000920E-02 0.  1.
    10030    2    1    2    0    0  0.00000000000E+00  0.00000000000E+00  0.11376180387E+04  0.30012687606E+04  0.27773079361E+04 0.  0.
        5    1    3    3  502    0 -0.79783497836E+03  0.23959788950E+02  0.17967612834E+04  0.19660844142E+04  0.46999998093E+01 0. -1.
       -5    1    3    3    0  502  0.79783497836E+03 -0.23959788950E+02 -0.65914324469E+03  0.10351843465E+04  0.46999998093E+01 0.  1.
</event>
<event>
 5   0  0.7378896E-07  0.3496552E+04  0.7818609E-02  0.8114607E-01
        1   -1    0    0  501    0  0.00000000000E+00  0.00000000000E+00  0.22002184863E+04  0.22002184863E+04  0.50400001928E-02 0.  1.
       -1   -1    0    0    0  501  0.00000000000E+00  0.00000000000E+00 -0.13891665083E+04  0.13891665083E+04  0.50400001928E-02 0. -1.
    10030    2    1    2    0    0  0.00000000000E+00  0.00000000000E+00  0.81105197801E+03  0.35893849946E+04  0.34965524919E+04 0.  0.
        2    1    3    3  502    0 -0.54926477142E+03  0.55217648440E+03  0.20122908422E+04  0.21577546415E+04  0.25500000920E-02 0.  1.
       -2    1    3    3    0  502  0.54926477142E+03 -0.55217648440E+03 -0.12012388642E+04  0.14316303531E+04  0.25500000920E-02 0. -1.
</event>
<event>
 5   0  0.6630125E-07  0.3583292E+04  0.7818609E-02  0.8094330E-01
       -1   -1    0    0    0  501  0.00000000000E+00  0.00000000000E+00  0.20773226316E+04  0.20773226316E+04  0.50400001928E-02 0.  1.
        1   -1    0    0  501    0  0.00000000000E+00  0.00000000000E+00 -0.15452556910E+04  0.15452556911E+04  0.50400001928E-02 0. -1.
    10030    2    1    2    0    0  0.00000000000E+00  0.00000000000E+00  0.53206694050E+03  0.36225783226E+04  0.35832915698E+04 0.  0.
        5    1    3    3  502    0 -0.13226013668E+04 -0.69537696069E+03 -0.73331290152E+03  0.16645099562E+04  0.46999998093E+01 0. -1.
       -5    1    3    3    0  502  0.13226013668E+04  0.69537696069E+03  0.12653798420E+04  0.19580683664E+04  0.46999998093E+01 0.  1.
</event>
<event>
 5   0  0.6630125E-07  0.3522718E+04  0.7818609E-02  0.8108427E-01
        1   -1    0    0  501    0  0.00000000000E+00  0.00000000000E+00  0.20538511538E+04  0.20538511538E+04  0.50400001928E-02 0. -1.
       -1   -1    0    0    0  501  0.00000000000E+00  0.00000000000E+00 -0.15105215187E+04  0.15105215187E+04  0.50400001928E-02 0.  1.
    10030    2    1    2    0    0  0.00000000000E+00  0.00000000000E+00  0.54332963514E+03  0.35643726725E+04  0.35227184752E+04 0.  0.
        1    1    3    3  502    0 -0.22058559184E+03 -0.13065597371E+04  0.14458303112E+04  0.19611684371E+04  0.50400001928E-02 0. -1.
       -1    1    3    3    0  502  0.22058559184E+03  0.13065597371E+04 -0.90250067607E+03  0.16032042354E+04  0.50400001928E-02 0.  1.
</event>
<event>
 5   0  0.2023479E-06  0.3515911E+04  0.7818609E-02  0.8110030E-01
       -2   -1    0    0    0  501  0.00000000000E+00  0.00000000000E+00  0.23149863420E+04  0.23149863420E+04  0.25500000920E-02 0.  1.
        2   -1    0    0  501    0  0.00000000000E+00  0.00000000000E+00 -0.13349571837E+04  0.13349571837E+04  0.25500000920E-02 0. -1.
    10030    2    1    2    0    0  0.00000000000E+00  0.00000000000E+00  0.98002915828E+03  0.36499435257E+04  0.35159110611E+04 0.  0.
        5    1    3    3  502    0 -0.97767568661E+03 -0.14213302667E+04  0.13895736794E+03  0.17307110433E+04  0.46999998093E+01 0. -1.
       -5    1    3    3    0  502  0.97767568661E+03  0.14213302667E+04  0.84107179034E+03  0.19192324825E+04  0.46999998093E+01 0.  1.
</event>
<event>
 5   0  0.7378896E-07  0.3356241E+04  0.7818609E-02  0.8148730E-01
       -1   -1    0    0    0  501  0.00000000000E+00  0.00000000000E+00  0.15777323843E+04  0.15777323843E+04  0.50400001928E-02 0. -1.
        1   -1    0    0  501    0  0.00000000000E+00  0.00000000000E+00 -0.17848964261E+04  0.17848964261E+04  0.50400001928E-02 0.  1.
    10030    2    1    2    0    0  0.00000000000E+00  0.00000000000E+00 -0.20716404179E+03  0.33626288103E+04  0.33562412869E+04 0.  0.
        2    1    3    3  502    0  0.66151938588E+03  0.30653316078E+03 -0.16179209463E+04  0.17746094401E+04  0.25500000920E-02 0.  1.
       -2    1    3    3    0  502 -0.66151938588E+03 -0.30653316078E+03  0.14107569045E+04  0.15880193702E+04  0.25500000920E-02 0. -1.
</event>
<event>
 5   0  0.6890600E-07  0.3481935E+04  0.7818609E-02  0.8118084E-01
        1   -1    0    0  501    0  0.00000000000E+00  0.00000000000E+00  0.25528445860E+04  0.25528445861E+04  0.50400001928E-02 0.  1.
       -1   -1    0    0    0  501  0.00000000000E+00  0.00000000000E+00 -0.11872906103E+04  0.11872906103E+04  0.50400001928E-02 0. -1.
    10030    2    1    2    0    0  0.00000000000E+00  0.00000000000E+00  0.13655539757E+04  0.37401351964E+04  0.34819353277E+04 0.  0.
        3    1    3    3  502    0  0.87671830967E+03 -0.43971008263E+03  0.22278379985E+04  0.24341820205E+04  0.10100000352E+00 0.  1.
       -3    1    3    3    0  502 -0.87671830967E+03  0.43971008263E+03 -0.86228402279E+03  0.13059531758E+04  0.10100000352E+00 0. -1.
</event>
<event>
 5   0  0.2020725E-06  0.3496660E+04  0.7818609E-02  0.8114582E-01
       -2   -1    0    0    0  501  0.00000000000E+00  0.00000000000E+00  0.15220021551E+04  0.15220021551E+04  0.25500000920E-02 0. -1.
        2   -1    0    0  501    0  0.00000000000E+00  0.00000000000E+00 -0.20083131446E+04  0.20083131446E+04  0.25500000920E-02 0.  1.
    10030    2    1    2    0    0  0.00000000000E+00  0.00000000000E+00 -0.48631098945E+03  0.35303152997E+04  0.34966595111E+04 0.  0.
        3    1    3    3  502    0 -0.98313103229E+03  0.28086770942E+02 -0.17025166413E+04  0.19661888051E+04  0.10100000352E+00 0.  1.
       -3    1    3    3    0  502  0.98313103229E+03 -0.28086770942E+02  0.12162056518E+04  0.15641264946E+04  0.10100000352E+00 0. -1.
</event>
<event>
 5   0  0.2023479E-06  0.3422102E+04  0.7818609E-02  0.8132503E-01
        2   -1    0    0  501    0  0.00000000000E+00  0.00000000000E+00  0.18736426581E+04  0.18736426581E+04  0.25500000920E-02 0. -1.
       -2   -1    0    0    0  501  0.00000000000E+00  0.00000000000E+00 -0.15625684435E+04  0.15625684435E+04  0.25500000920E-02 0.  1.
    10030    2    1    2    0    0  0.00000000000E+00  0.00000000000E+00  0.31107421458E+03  0.34362111016E+04  0.34221016303E+04 0.  0.
        5    1    3    3  502    0 -0.10815818773E+03 -0.20890925920E+03 -0.15462460309E+04  0.15640460832E+04  0.46999998093E+01 0.  1.
       -5    1    3    3    0  502  0.10815818773E+03  0.20890925920E+03  0.18573202455E+04  0.18721650185E+04  0.46999998093E+01 0. -1.
</event>
<event>
 5   0  0.2073287E-06  0.3514189E+04  0.7818609E-02  0.8110436E-01
       -2   -1    0    0    0  501  0.00000000000E+00  0.00000000000E+00  0.17982696751E+04  0.17982696751E+04  0.25500000920E-02 0. -1.
        2   -1    0    0  501    0  0.00000000000E+00  0.00000000000E+00 -0.17168621661E+04  0.17168621661E+04  0.25500000920E-02 0.  1.
    10030    2    1    2    0    0  0.00000000000E+00  0.00000000000E+00  0.81407508970E+02  0.35151318412E+04  0.35141890499E+04 0.  0.
        1    1    3    3  502    0  0.17264238826E+04 -0.32461662226E+03  0.78999737184E+02  0.17584528235E+04  0.50400001928E-02 0. -1.
       -1    1    3    3    0  502 -0.17264238826E+04  0.32461662226E+03  0.24077717865E+01  0.17566790177E+04  0.50400001928E-02 0.  1.
</event>
<event>
 5   0  0.6630125E-07  0.3480397E+04  0.7818609E-02  0.8118451E-01
       -1   -1    0    0    0  501  0.00000000000E+00  0.00000000000E+00  0.13181530695E+04  0.13181530695E+04  0.50400001928E-02 0. -1.
        1   -1    0    0  501    0  0.00000000000E+00  0.00000000000E+00 -0.22973740261E+04  0.22973740261E+04  0.50400001928E-02 0.  1.
    10030    2    1    2    0    0  0.00000000000E+00  0.00000000000E+00 -0.97922095663E+03  0.36155270957E+04  0.34803968879E+04 0.  0.
        4    1    3    3  502    0 -0.88220297736E+03  0.28132573474E+03 -0.20202010443E+04  0.22223051399E+04  0.12699999809E+01 0.  1.
       -4    1    3    3    0  502  0.88220297736E+03 -0.28132573474E+03  0.10409800877E+04  0.13932219558E+04  0.12699999809E+01 0. -1.
</event>
<event>
 5   0  0.6890600E-07  0.3614196E+04  0.7818609E-02  0.8087248E-01
        1   -1    0    0  501    0  0.00000000000E+00  0.00000000000E+00  0.11226628104E+04  0.11226628104E+04  0.50400001928E-02 0.  1.
       -1   -1    0    0    0  501  0.00000000000E+00  0.00000000000E+00 -0.29088015557E+04  0.29088015557E+04  0.50400001928E-02 0. -1.
    10030    2    1    2    0    0  0.00000000000E+00  0.00000000000E+00 -0.17861387453E+04  0.40314643662E+04  0.36141960818E+04 0.  0.
        3    1    3    3  502    0  0.12722028902E+04  0.12643977461E+04 -0.11384726557E+04  0.21244580138E+04  0.10100000352E+00 0. -1.
       -3    1    3    3    0  502 -0.12722028902E+04 -0.12643977461E+04 -0.64766608961E+03  0.19070063524E+04  0.10100000352E+00 0.  1.
</event>
<event>
 5   0  0.6630125E-07  0.3629299E+04  0.7818609E-02  0.8083813E-01
       -1   -1    0    0    0  501  0.00000000000E+00  0.00000000000E+00  0.13356252633E+04  0.13356252634E+04  0.50400001928E-02 0. -1.
        1   -1    0    0  501    0  0.00000000000E+00  0.00000000000E+00 -0.24654763559E+04  0.24654763559E+04  0.50400001928E-02 0.  1.
    10030    2    1    2    0    0  0.00000000000E+00  0.00000000000E+00 -0.11298510926E+04  0.38011016193E+04  0.36292988343E+04 0.  0.
        1    1    3    3  502    0  0.13527022602E+04  0.96561878372E+03 -0.13279234620E+04  0.21273466481E+04  0.50400001928E-02 0.  1.
       -1    1    3    3    0  502 -0.13527022602E+04 -0.96561878372E+03  0.19807236940E+03  0.16737549712E+04  0.50400001928E-02 0. -1.
</event>
<event>
 5   0  0.2001768E-06  0.3220118E+04  0.7818609E-02  0.8183524E-01
        2   -1    0    0  501    0  0.00000000000E+00  0.00000000000E+00  0.19761595662E+04  0.19761595662E+04  0.25500000920E-02 0. -1.
       -2   -1    0    0    0  501  0.00000000000E+00  0.00000000000E+00 -0.13117815105E+04  0.13117815105E+04  0.25500000920E-02 0.  1.
    10030    2    1    2    0    0  0.00000000000E+00  0.00000000000E+00  0.66437805575E+03  0.32879410767E+04  0.32201177498E+04 0.  0.
        2    1    3    3  502    0  0.55604606420E+03  0.10247717167E+04 -0.80157891963E+03  0.14148756345E+04  0.25500000920E-02 0.  1.
       -2    1    3    3    0  502 -0.55604606420E+03 -0.10247717167E+04  0.14659569754E+04  0.18730654421E+04  0.25500000920E-02 0. -1.
</event>
<event>
 5   0  0.6630125E-07  0.3115565E+04  0.7818609E-02  0.8211479E-01
        1   -1    0    0  501    0  0.00000000000E+00  0.00000000000E+00  0.27278480233E+04  0.27278480233E+04  0.50400001928E-02 0. -1.
       -1   -1    0    0    0  501  0.00000000000E+00  0.00000000000E+00 -0.88959710117E+03  0.88959710118E+03  0.50400001928E-02 0.  1.
    10030    2    1    2    0    0  0.00000000000E+00  0.00000000000E+00  0.18382509221E+04  0.36174451245E+04  0.31155645999E+04 0.  0.
        1    1    3    3  502    0  0.26741311487E+03 -0.43951080732E+03 -0.78811091494E+03  0.94116860234E+03  0.50400001928E-02 0.  1.
       -1    1    3    3    0  502 -0.26741311487E+03  0.43951080732E+03  0.26263618370E+04  0.26762765221E+04  0.50400001928E-02 0. -1.
</event>
<event>
 5   0  0.2023479E-06  0.3517510E+04  0.7818609E-02  0.8109653E-01
       -2   -1    0    0    0  501  0.00000000000E+00  0.00000000000E+00  0.12900285801E+04  0.12900285801E+04  0.25500000920E-02 0.  1.
        2   -1    0    0  501    0  0.00000000000E+00  0.00000000000E+00 -0.23977915991E+04  0.23977915991E+04  0.25500000920E-02 0. -1.
    10030    2    1    2    0    0  0.00000000000E+00  0.00000000000E+00 -0.11077630191E+04  0.36878201792E+04  0.35175103082E+04 0.  0.
        5    1    3    3  502    0 -0.13934056660E+04 -0.78804209552E+03 -0.13175787416E+04  0.20733126934E+04  0.46999998093E+01 0. -1.
       -5    1    3    3    0  502  0.13934056660E+04  0.78804209552E+03  0.20981572250E+03  0.16145074858E+04  0.46999998093E+01 0.  1.
</event>
<event>
 5   0  0.6630125E-07  0.3685603E+04  0.7818609E-02  0.8071160E-01
        1   -1    0    0  501    0  0.00000000000E+00  0.00000000000E+00  0.25251506826E+04  0.25251506826E+04  0.50400001928E-02 0. -1.
       -1   -1    0    0    0  501  0.00000000000E+00  0.00000000000E+00 -0.13448372139E+04  0.13448372139E+04  0.50400001928E-02 0.  1.
    10030    2    1    2    0    0  0.00000000000E+00  0.00000000000E+00  0.11803134688E+04  0.38699878965E+04  0.36856025877E+04 0.  0.
        4    1    3    3  502    0  0.34803591291E+03  0.42946841316E+03  0.24360408673E+04  0.24979729451E+04  0.12699999809E+01 0. -1.
       -4    1    3    3    0  502 -0.34803591291E+03 -0.42946841316E+03 -0.12557273985E+04  0.13720149514E+04  0.12699999809E+01 0.  1.
</event>
<event>
 5   0  0.2073287E-06  0.2667897E+04  0.7818609E-02  0.8345497E-01
       -2   -1    0    0    0  501  0.00000000000E+00  0.00000000000E+00  0.82135085511E+03  0.82135085512E+03  0.25500000920E-02 0.  1.
        2   -1    0    0  501    0  0.00000000000E+00  0.00000000000E+00 -0.21664540185E+04  0.21664540185E+04  0.25500000920E-02 0. -1.
    10030    2    1    2    0    0  0.00000000000E+00  0.00000000000E+00 -0.13451031633E+04  0.29878048736E+04  0.26678971949E+04 0.  0.
        1    1    3    3  502    0  0.12082787403E+04 -0.19338265177E+03 -0.12673540330E+04  0.17616811883E+04  0.50400001928E-02 0. -1.
       -1    1    3    3    0  502 -0.12082787403E+04  0.19338265177E+03 -0.77749130376E+02  0.12261236853E+04  0.50400001928E-02 0.  1.
</event>
<event>
 5   0  0.2020725E-06  0.3443155E+04  0.7818609E-02  0.8127395E-01
        2   -1    0    0  501    0  0.00000000000E+00  0.00000000000E+00  0.18986632905E+04  0.18986632905E+04  0.25500000920E-02 0.  1.
       -2   -1    0    0    0  501  0.00000000000E+00  0.00000000000E+00 -0.15610083097E+04  0.15610083097E+04  0.25500000920E-02 0. -1.
    10030    2    1    2    0    0  0.00000000000E+00  0.00000000000E+00  0.33765498085E+03  0.34596716002E+04  0.34431550496E+04 0.  0.
        3    1    3    3  502    0 -0.49386809939E+03 -0.44299874943E+03 -0.14274010018E+04  0.15740480366E+04  0.10100000352E+00 0. -1.
       -3    1    3    3    0  502  0.49386809939E+03  0.44299874943E+03  0.17650559826E+04  0.18856235636E+04  0.10100000352E+00 0.  1.
</event>
<event>
 5   0  0.7378896E-07  0.2857955E+04  0.7818609E-02  0.8285498E-01
       -1   -1    0    0    0  501  0.00000000000E+00  0.00000000000E+00  0.15438235225E+04  0.15438235225E+04  0.50400001928E-02 0. -1.
        1   -1    0    0  501    0  0.00000000000E+00  0.00000000000E+00 -0.13226752931E+04  0.13226752931E+04  0.50400001928E-02 0.  1.
    10030    2    1    2    0    0  0.00000000000E+00  0.00000000000E+00  0.22114822943E+03  0.28664988156E+04  0.28579553741E+04 0.  0.
        2    1    3    3  502    0  0.85811386011E+03  0.11124639574E+04  0.37220206928E+03  0.14534338079E+04  0.25500000920E-02 0.  1.
       -2    1    3    3    0  502 -0.85811386011E+03 -0.11124639574E+04 -0.15105383985E+03  0.14130650077E+04  0.25500000920E-02 0. -1.
</event>
<event>
 5   0  0.6630125E-07  0.3576672E+04  0.7818609E-02  0.8095856E-01
       -3   -1    0    0    0  501  0.00000000000E+00  0.00000000000E+00  0.13754432684E+04  0.13754432721E+04  0.10100000352E+00 0. -1.
        3   -1    0    0  501    0  0.00000000000E+00  0.00000000000E+00 -0.23251749444E+04  0.23251749466E+04  0.10100000352E+00 0.  1.
    10030    2    1    2    0    0  0.00000000000E+00  0.00000000000E+00 -0.94973167604E+03  0.37006182187E+04  0.35766723283E+04 0.  0.
        5    1    3    3  502    0  0.44328715052E+01 -0.76539425164E+03  0.11973975028E+04  0.14211371787E+04  0.46999998093E+01 0. -1.
       -5    1    3    3    0  502 -0.44328715052E+01  0.76539425164E+03 -0.21471291789E+04  0.22794810400E+04  0.46999998093E+01 0.  1.
</event>
<event>
 5   0  0.6630125E-07  0.3531375E+04  0.7818609E-02  0.8106395E-01
        1   -1    0    0  501    0  0.00000000000E+00  0.00000000000E+00  0.93071502223E+03  0.93071502224E+03  0.50400001928E-02 0. -1.
       -1   -1    0    0    0  501  0.00000000000E+00  0.00000000000E+00 -0.33497380203E+04  0.33497380203E+04  0.50400001928E-02 0.  1.
    10030    2    1    2    0    0  0.00000000000E+00  0.00000000000E+00 -0.24190229981E+04  0.42804530425E+04  0.35313745177E+04 0.  0.
        5    1    3    3  502    0 -0.16949656130E+04  0.36380971553E+03 -0.16158224478E+04  0.23698460311E+04  0.46999998093E+01 0.  1.
       -5    1    3    3    0  502  0.16949656130E+04 -0.36380971553E+03 -0.80320055024E+03  0.19106070114E+04  0.46999998093E+01 0. -1.
</event>
<event>
 5   0  0.2023479E-06  0.3495396E+04  0.7818609E-02  0.8114882E-01
        2   -1    0    0  501    0  0.00000000000E+00  0.00000000000E+00  0.19565632526E+04  0.19565632526E+04  0.25500000920E-02 0. -1.
       -2   -1    0    0    0  501  0.00000000000E+00  0.00000000000E+00 -0.15611296382E+04  0.15611296382E+04  0.25500000920E-02 0.  1.
    10030    2    1    2    0    0  0.00000000000E+00  0.00000000000E+00  0.39543361442E+03  0.35176928908E+04  0.34953963338E+04 0.  0.
        5    1    3    3  502    0 -0.27738852688E+03  0.12711654469E+04 -0.97661164660E+03  0.16268369268E+04  0.46999998093E+01 0.  1.
       -5    1    3    3    0  502  0.27738852688E+03 -0.12711654469E+04  0.13720452610E+04  0.18908559640E+04  0.46999998093E+01 0. -1.
</event>
<event>
 5   0  0.2073287E-06  0.3361898E+04  0.7818609E-02  0.8147322E-01
        2   -1    0    0  501    0  0.00000000000E+00  0.00000000000E+00  0.20789932921E+04  0.20789932921E+04  0.25500000920E-02 0.  1.
       -2   -1    0    0    0  501  0.00000000000E+00  0.00000000000E+00 -0.13591140306E+04  0.13591140306E+04  0.25500000920E-02 0. -1.
    10030    2    1    2    0    0  0.00000000000E+00  0.00000000000E+00  0.71987926155E+03  0.34381073227E+04  0.33618976503E+04 0.  0.
        1    1    3    3  502    0 -0.35044724324E+03  0.16438786936E+04  0.38135528072E+03  0.17235377222E+04  0.50400001928E-02 0. -1.
       -1    1    3    3    0  502  0.35044724324E+03 -0.16438786936E+04  0.33852398083E+03  0.17145696006E+04  0.50400001928E-02 0.  1.
</event>
<event>
 5   0  0.6630125E-07  0.3502604E+04  0.7818609E-02  0.8113173E-01
        1   -1    0    0  501    0  0.00000000000E+00  0.00000000000E+00  0.18258397996E+04  0.18258397996E+04  0.50400001928E-02 0.  1.
       -1   -1    0    0    0  501  0.00000000000E+00  0.00000000000E+00 -0.16798073249E+04  0.16798073249E+04  0.50400001928E-02 0. -1.
    10030    2    1    2    0    0  0.00000000000E+00  0.00000000000E+00  0.14603247472E+03  0.35056471246E+04  0.35026042138E+04 0.  0.
        5    1    3    3  502    0  0.98882266389E+03  0.62136770898E+03 -0.12331726668E+04  0.16984124960E+04  0.46999998093E+01 0. -1.
       -5    1    3    3    0  502 -0.98882266389E+03 -0.62136770898E+03  0.13792051415E+04  0.18072346286E+04  0.46999998093E+01 0.  1.
</event>
<event>
 5   0  0.6630125E-07  0.3520759E+04  0.7818609E-02  0.8108888E-01
       -1   -1    0    0    0  501  0.00000000000E+00  0.00000000000E+00  0.27042640650E+04  0.27042640650E+04  0.50400001928E-02 0. -1.
        1   -1    0    0  501    0  0.00000000000E+00  0.00000000000E+00 -0.11459443687E+04  0.11459443687E+04  0.50400001928E-02 0.  1.
    10030    2    1    2    0    0  0.00000000000E+00  0.00000000000E+00  0.15583196963E+04  0.38502084337E+04  0.35207591095E+04 0.  0.
        4    1    3    3  502    0 -0.49241167087E+03 -0.89258248629E+03  0.23486421787E+04  0.25603309249E+04  0.12699999809E+01 0. -1.
       -4    1    3    3    0  502  0.49241167087E+03  0.89258248629E+03 -0.79032248244E+03  0.12898775088E+04  0.12699999809E+01 0.  1.
</event>
<event>
 5   0  0.1999883E-06  0.3677474E+04  0.7818609E-02  0.8072972E-01
        2   -1    0    0  501    0  0.00000000000E+00  0.00000000000E+00  0.16855686826E+04  0.16855686826E+04  0.25500000920E-02 0. -1.
       -2   -1    0    0    0  501  0.00000000000E+00  0.00000000000E+00 -0.20058236799E+04  0.20058236799E+04  0.25500000920E-02 0.  1.
    10030    2    1    2    0    0  0.00000000000E+00  0.00000000000E+00 -0.32025499732E+03  0.36913923625E+04  0.36774739034E+04 0.  0.
        4    1    3    3  502    0 -0.11109041645E+04 -0.70944585523E+03 -0.14469821339E+04  0.19573401322E+04  0.12699999809E+01 0.  1.
       -4    1    3    3    0  502  0.11109041645E+04  0.70944585523E+03  0.11267271366E+04  0.17340522303E+04  0.12699999809E+01 0. -1.
</event>
<event>
 5   0  0.2073287E-06  0.3502888E+04  0.7818609E-02  0.8113106E-01
        2   -1    0    0  501    0  0.00000000000E+00  0.00000000000E+00  0.14398607338E+04  0.14398607338E+04  0.25500000920E-02 0.  1.
       -2   -1    0    0    0  501  0.00000000000E+00  0.00000000000E+00 -0.21304531520E+04  0.21304531520E+04  0.25500000920E-02 0. -1.
    10030    2    1    2    0    0  0.00000000000E+00  0.00000000000E+00 -0.69059241815E+03  0.35703138858E+04  0.35028878594E+04 0.  0.
        1    1    3    3  502    0  0.79398309934E+03 -0.12813611374E+04  0.56364296134E+03  0.16093442498E+04  0.50400001928E-02 0.  1.
       -1    1    3    3    0  502 -0.79398309934E+03  0.12813611374E+04 -0.12542353795E+04  0.19609696361E+04  0.50400001928E-02 0. -1.
</event>
<event>
 5   0  0.2023479E-06  0.3493615E+04  0.7818609E-02  0.8115305E-01
        2   -1    0    0  501    0  0.00000000000E+00  0.00000000000E+00  0.20264388362E+04  0.20264388362E+04  0.25500000920E-02 0. -1.
       -2   -1    0    0    0  501  0.00000000000E+00  0.00000000000E+00 -0.15057631987E+04  0.15057631987E+04  0.25500000920E-02 0.  1.
    10030    2    1    2    0    0  0.00000000000E+00  0.00000000000E+00  0.52067563754E+03  0.35322020349E+04  0.34936153331E+04 0.  0.
        5    1    3    3  502    0 -0.16011681402E+04 -0.68198186597E+03  0.41191451286E+03  0.17884446691E+04  0.46999998093E+01 0. -1.
       -5    1    3    3    0  502  0.16011681402E+04  0.68198186597E+03  0.10876112468E+03  0.17437573658E+04  0.46999998093E+01 0.  1.
</event>
<event>
 5   0  0.2023479E-06  0.3525902E+04  0.7818609E-02  0.8107679E-01
       -2   -1    0    0    0  501  0.00000000000E+00  0.00000000000E+00  0.19345914627E+04  0.19345914628E+04  0.25500000920E-02 0. -1.
        2   -1    0    0  501    0  0.00000000000E+00  0.00000000000E+00 -0.16065383667E+04  0.16065383667E+04  0.25500000920E-02 0.  1.
    10030    2    1    2    0    0  0.00000000000E+00  0.00000000000E+00  0.32805309605E+03  0.35411298295E+04  0.35259015351E+04 0.  0.
        5    1    3    3  502    0 -0.36106855376E+03 -0.14717698635E+04  0.10687481048E+04  0.18543790424E+04  0.46999998093E+01 0. -1.
       -5    1    3    3    0  502  0.36106855376E+03  0.14717698635E+04 -0.74069500873E+03  0.16867507870E+04  0.46999998093E+01 0.  1.
</event>
<event>
 5   0  0.2023479E-06  0.3585298E+04  0.7818609E-02  0.8093868E-01
        2   -1    0    0  501    0  0.00000000000E+00  0.00000000000E+00  0.17748135176E+04  0.17748135176E+04  0.25500000920E-02 0.  1.
       -2   -1    0    0    0  501  0.00000000000E+00  0.00000000000E+00 -0.18106634788E+04  0.18106634788E+04  0.25500000920E-02 0. -1.
    10030    2    1    2    0    0  0.00000000000E+00  0.00000000000E+00 -0.35849961183E+02  0.35854769964E+04  0.35852977661E+04 0.  0.
        5    1    3    3  502    0  0.77595307445E+03  0.63337507277E+02 -0.16327667115E+04  0.18088847497E+04  0.46999998093E+01 0. -1.
       -5    1    3    3    0  502 -0.77595307445E+03 -0.63337507277E+02  0.15969167503E+04  0.17765922467E+04  0.46999998093E+01 0.  1.
</event>
<event>
 5   0  0.6630125E-07  0.3629681E+04  0.7818609E-02  0.8083727E-01
        1   -1    0    0  501    0  0.00000000000E+00  0.00000000000E+00  0.18864125579E+04  0.18864125579E+04  0.50400001928E-02 0. -1.
       -1   -1    0    0    0  501  0.00000000000E+00  0.00000000000E+00 -0.17459839805E+04  0.17459839805E+04  0.50400001928E-02 0.  1.
    10030    2    1    2    0    0  0.00000000000E+00  0.00000000000E+00  0.14042857739E+03  0.36323965384E+04  0.36296810365E+04 0.  0.
        5    1    3    3  502    0 -0.14500745737E+04  0.13020522117E+03 -0.10140880511E+04  0.17742791028E+04  0.46999998093E+01 0.  1.
       -5    1    3    3    0  502  0.14500745737E+04 -0.13020522117E+03  0.11545166285E+04  0.18581174356E+04  0.46999998093E+01 0. -1.
</event>
<event>
 5   0  0.2073287E-06  0.3408583E+04  0.7818609E-02  0.8135803E-01
        2   -1    0    0  501    0  0.00000000000E+00  0.00000000000E+00  0.22172695004E+04  0.22172695004E+04  0.25500000920E-02 0. -1.
       -2   -1    0    0    0  501  0.00000000000E+00  0.00000000000E+00 -0.13099938891E+04  0.13099938891E+04  0.25500000920E-02 0.  1.
    10030    2    1    2    0    0  0.00000000000E+00  0.00000000000E+00  0.90727561126E+03  0.35272633895E+04  0.34085829877E+04 0.  0.
        1    1    3    3  502    0  0.88189922362E+03 -0.41639638371E+02  0.19621773808E+04  0.21516552172E+04  0.50400001928E-02 0. -1.
       -1    1    3    3    0  502 -0.88189922362E+03  0.41639638371E+02 -0.10549017696E+04  0.13756081722E+04  0.50400001928E-02 0.  1.
</event>
<event>
 5   0  0.7378896E-07  0.2216311E+04  0.7818609E-02  0.8511670E-01
       -1   -1    0    0    0  501  0.00000000000E+00  0.00000000000E+00  0.80089452643E+03  0.80089452644E+03  0.50400001928E-02 0. -1.
        1   -1    0    0  501    0  0.00000000000E+00  0.00000000000E+00 -0.15332967265E+04  0.15332967265E+04  0.50400001928E-02 0.  1.
    10030    2    1    2    0    0  0.00000000000E+00  0.00000000000E+00 -0.73240220002E+03  0.23341912529E+04  0.22163113099E+04 0.  0.
        2    1    3    3  502    0 -0.73384388978E+03 -0.14580207910E+02  0.50817889173E+03  0.89274028868E+03  0.25500000920E-02 0. -1.
       -2    1    3    3    0  502  0.73384388978E+03  0.14580207910E+02 -0.12405810917E+04  0.14414509642E+04  0.25500000920E-02 0.  1.
</event>
<event>
 5   0  0.7378896E-07  0.3441149E+04  0.7818609E-02  0.8127880E-01
        1   -1    0    0  501    0  0.00000000000E+00  0.00000000000E+00  0.13533768108E+04  0.13533768108E+04  0.50400001928E-02 0. -1.
       -1   -1    0    0    0  501  0.00000000000E+00  0.00000000000E+00 -0.21873998893E+04  0.21873998893E+04  0.50400001928E-02 0.  1.
    10030    2    1    2    0    0  0.00000000000E+00  0.00000000000E+00 -0.83402307843E+03  0.35407767001E+04  0.34411488117E+04 0.  0.
        2    1    3    3  502    0  0.17067690320E+04  0.13171421072E+03 -0.59513356263E+03  0.18123446469E+04  0.25500000920E-02 0.  1.
       -2    1    3    3    0  502 -0.17067690320E+04 -0.13171421072E+03 -0.23888951580E+03  0.17284320532E+04  0.25500000920E-02 0. -1.
</event>
<event>
 5   0  0.6890600E-07  0.3572355E+04  0.7818609E-02  0.8096854E-01
        1   -1    0    0  501    0  0.00000000000E+00  0.00000000000E+00  0.18265825229E+04  0.18265825229E+04  0.50400001928E-02 0.  1.
       -1   -1    0    0    0  501  0.00000000000E+00  0.00000000000E+00 -0.17466660743E+04  0.17466660743E+04  0.50400001928E-02 0. -1.
    10030    2    1    2    0    0  0.00000000000E+00  0.00000000000E+00  0.79916448526E+02  0.35732485972E+04  0.35723548114E+04 0.  0.
        3    1    3    3  502    0  0.15704776508E+04  0.29846987108E+03  0.83699220036E+03  0.18044501293E+04  0.10100000352E+00 0.  1.
       -3    1    3    3    0  502 -0.15704776508E+04 -0.29846987108E+03 -0.75707575184E+03  0.17687984678E+04  0.10100000352E+00 0. -1.
</event>
<event>
 5   0  0.2073287E-06  0.3460815E+04  0.7818609E-02  0.8123139E-01
       -2   -1    0    0    0  501  0.00000000000E+00  0.00000000000E+00  0.94545936902E+03  0.94545936902E+03  0.25500000920E-02 0.  1.
        2   -1    0    0  501    0  0.00000000000E+00  0.00000000000E+00 -0.31670430849E+04  0.31670430849E+04  0.25500000920E-02 0. -1.
    10030    2    1    2    0    0  0.00000000000E+00  0.00000000000E+00 -0.22215837159E+04  0.41125024539E+04  0.34608152546E+04 0.  0.
        1    1    3    3  502    0 -0.32590863539E+02 -0.53433066707E+03  0.84458812163E+03  0.99995025945E+03  0.50400001928E-02 0.  1.
       -1    1    3    3    0  502  0.32590863539E+02  0.53433066707E+03 -0.30661718375E+04  0.31125521944E+04  0.50400001928E-02 0. -1.
</event>
<event>
 5   0  0.6630125E-07  0.3394136E+04  0.7818609E-02  0.8139347E-01
       -1   -1    0    0    0  501  0.00000000000E+00  0.00000000000E+00  0.15718160045E+04  0.15718160045E+04  0.50400001928E-02 0. -1.
        1   -1    0    0  501    0  0.00000000000E+00  0.00000000000E+00 -0.18323011489E+04  0.18323011489E+04  0.50400001928E-02 0.  1.
    10030    2    1    2    0    0  0.00000000000E+00  0.00000000000E+00 -0.26048514434E+03  0.34041171534E+04  0.33941362795E+04 0.  0.
        4    1    3    3  502    0 -0.15946162687E+04 -0.54057236547E+03  0.82558483022E+02  0.16857749087E+04  0.12699999809E+01 0. -1.
       -4    1    3    3    0  502  0.15946162687E+04  0.54057236547E+03 -0.34304362736E+03  0.17183422447E+04  0.12699999809E+01 0.  1.
</event>
<event>
 5   0  0.6630125E-07  0.3537444E+04  0.7818609E-02  0.8104973E-01
       -1   -1    0    0    0  501  0.00000000000E+00  0.00000000000E+00  0.16486306756E+04  0.16486306757E+04  0.50400001928E-02 0. -1.
        1   -1    0    0  501    0  0.00000000000E+00  0.00000000000E+00 -0.18975614418E+04  0.18975614418E+04  0.50400001928E-02 0.  1.
    10030    2    1    2    0    0  0.00000000000E+00  0.00000000000E+00 -0.24893076614E+03  0.35461921174E+04  0.35374442762E+04 0.  0.
        4    1    3    3  502    0  0.16669365467E+03  0.17039225078E+04  0.32074739415E+03  0.17418436183E+04  0.12699999809E+01 0. -1.
       -4    1    3    3    0  502 -0.16669365467E+03 -0.17039225078E+04 -0.56967816028E+03  0.18043484991E+04  0.12699999809E+01 0.  1.
</event>
<event>
 5   0  0.6630125E-07  0.2372606E+04  0.7818609E-02  0.8449831E-01
       -1   -1    0    0    0  501  0.00000000000E+00  0.00000000000E+00  0.13839028814E+04  0.13839028814E+04  0.50400001928E-02 0.  1.
        1   -1    0    0  501    0  0.00000000000E+00  0.00000000000E+00 -0.10169175217E+04  0.10169175218E+04  0.50400001928E-02 0. -1.
    10030    2    1    2    0    0  0.00000000000E+00  0.00000000000E+00  0.36698535962E+03  0.24008204031E+04  0.23726062366E+04 0.  0.
        5    1    3    3  502    0 -0.64215056686E+03 -0.90060190651E+03  0.61737106229E+03  0.12667321197E+04  0.46999998093E+01 0.  1.
       -5    1    3    3    0  502  0.64215056686E+03  0.90060190651E+03 -0.25038570267E+03  0.11340882834E+04  0.46999998093E+01 0. -1.
</event>
<event>
 5   0  0.2001768E-06  0.3466415E+04  0.7818609E-02  0.8121796E-01
        2   -1    0    0  501    0  0.00000000000E+00  0.00000000000E+00  0.31986036179E+04  0.31986036179E+04  0.25500000920E-02 0.  1.
       -2   -1    0    0    0  501  0.00000000000E+00  0.00000000000E+00 -0.93916254928E+03  0.93916254929E+03  0.25500000920E-02 0. -1.
    10030    2    1    2    0    0  0.00000000000E+00  0.00000000000E+00  0.22594410686E+04  0.41377661672E+04  0.34664152827E+04 0.  0.
        2    1    3    3  502    0  0.76423083881E+03 -0.26969252233E+03  0.29585061516E+04  0.30674975926E+04  0.25500000920E-02 0.  1.
       -2    1    3    3    0  502 -0.76423083881E+03  0.26969252233E+03 -0.69906508295E+03  0.10702685746E+04  0.25500000920E-02 0. -1.
</event>
<event>
 5   0  0.1999883E-06  0.2278808E+04  0.7818609E-02  0.8486324E-01
       -2   -1    0    0    0  501  0.00000000000E+00  0.00000000000E+00  0.62532233655E+03  0.62532233655E+03  0.25500000920E-02 0.  1.
        2   -1    0    0  501    0  0.00000000000E+00  0.00000000000E+00 -0.20761161987E+04  0.20761161987E+04  0.25500000920E-02 0. -1.
    10030    2    1    2    0    0  0.00000000000E+00  0.00000000000E+00 -0.14507938622E+04  0.27014385353E+04  0.22788083134E+04 0.  0.
        4    1    3    3  502    0  0.89846192873E+03  0.64444724473E+03 -0.10515476940E+04  0.15258768805E+04  0.12699999809E+01 0.  1.
       -4    1    3    3    0  502 -0.89846192873E+03 -0.64444724473E+03 -0.39924616816E+03  0.11755616548E+04  0.12699999809E+01 0. -1.
</event>
<event>
 5   0  0.2023479E-06  0.3544657E+04  0.7818609E-02  0.8103288E-01
        2   -1    0    0  501    0  0.00000000000E+00  0.00000000000E+00  0.16131936113E+04  0.16131936113E+04  0.25500000920E-02 0.  1.
       -2   -1    0    0    0  501  0.00000000000E+00  0.00000000000E+00 -0.19471609688E+04  0.19471609688E+04  0.25500000920E-02 0. -1.
    10030    2    1    2    0    0  0.00000000000E+00  0.00000000000E+00 -0.33396735745E+03  0.35603545801E+04  0.35446566181E+04 0.  0.
        5    1    3    3  502    0 -0.61156727976E+02 -0.15927663654E+04 -0.94532235318E+03  0.18531867908E+04  0.46999998093E+01 0. -1.
       -5    1    3    3    0  502  0.61156727976E+02  0.15927663654E+04  0.61135499573E+03  0.17071677893E+04  0.46999998093E+01 0.  1.
</event>
<event>
 5   0  0.2020725E-06  0.3503219E+04  0.7818609E-02  0.8113027E-01
       -2   -1    0    0    0  501  0.00000000000E+00  0.00000000000E+00  0.18679260895E+04  0.18679260895E+04  0.25500000920E-02 0. -1.
        2   -1    0    0  501    0  0.00000000000E+00  0.00000000000E+00 -0.16425363909E+04  0.16425363909E+04  0.25500000920E-02 0.  1.
    10030    2    1    2    0    0  0.00000000000E+00  0.00000000000E+00  0.22538969866E+03  0.35104624804E+04  0.35032194208E+04 0.  0.
        3    1    3    3  502    0  0.78172150044E+03 -0.36087402090E+03  0.16412397610E+04  0.18533716644E+04  0.10100000352E+00 0. -1.
       -3    1    3    3    0  502 -0.78172150044E+03  0.36087402090E+03 -0.14158500623E+04  0.16570908160E+04  0.10100000352E+00 0.  1.
</event>
<event>
 5   0  0.2023479E-06  0.3252459E+04  0.7818609E-02  0.8175099E-01
       -2   -1    0    0    0  501  0.00000000000E+00  0.00000000000E+00  0.19685204565E+04  0.19685204565E+04  0.25500000920E-02 0.  1.
        2   -1    0    0  501    0  0.00000000000E+00  0.00000000000E+00 -0.13434566604E+04  0.13434566604E+04  0.25500000920E-02 0. -1.
    10030    2    1    2    0    0  0.00000000000E+00  0.00000000000E+00  0.62506379612E+03  0.33119771169E+04  0.32524587120E+04 0.  0.
        5    1    3    3  502    0 -0.99963060087E+03  0.34699901478E+03 -0.94494644540E+03  0.14186668140E+04  0.46999998093E+01 0. -1.
       -5    1    3    3    0  502  0.99963060087E+03 -0.34699901478E+03  0.15700102415E+04  0.18933103029E+04  0.46999998093E+01 0.  1.
</event>
<event>
 5   0  0.2001768E-06  0.3539477E+04  0.7818609E-02  0.8104498E-01
        2   -1    0    0  501    0  0.00000000000E+00  0.00000000000E+00  0.20688825530E+04  0.20688825530E+04  0.25500000920E-02 0. -1.
       -2   -1    0    0    0  501  0.00000000000E+00  0.00000000000E+00 -0.15138487099E+04  0.15138487099E+04  0.25500000920E-02 0.  1.
    10030    2    1    2    0    0  0.00000000000E+00  0.00000000000E+00  0.55503384315E+03  0.35827312629E+04  0.35394774664E+04 0.  0.
        2    1    3    3  502    0  0.14496531054E+03 -0.15817854582E+04  0.10673829223E+04  0.19137310365E+04  0.25500000920E-02 0.  1.
       -2    1    3    3    0  502 -0.14496531054E+03  0.15817854582E+04 -0.51234907916E+03  0.16690002265E+04  0.25500000920E-02 0. -1.
</event>
<event>
 5   0  0.6630125E-07  0.3437895E+04  0.7818609E-02  0.8128668E-01
       -1   -1    0    0    0  501  0.00000000000E+00  0.00000000000E+00  0.18338549119E+04  0.18338549119E+04  0.50400001928E-02 0.  1.
        1   -1    0    0  501    0  0.00000000000E+00  0.00000000000E+00 -0.16112402580E+04  0.16112402580E+04  0.50400001928E-02 0. -1.
    10030    2    1    2    0    0  0.00000000000E+00  0.00000000000E+00  0.22261465385E+03  0.34450951699E+04  0.34378952057E+04 0.  0.
        1    1    3    3  502    0 -0.99755282642E+03  0.13434996004E+04  0.50542229074E+03  0.17480144478E+04  0.50400001928E-02 0.  1.
       -1    1    3    3    0  502  0.99755282642E+03 -0.13434996004E+04 -0.28280763690E+03  0.16970807221E+04  0.50400001928E-02 0. -1.
</event>
<event>
 5   0  0.6630125E-07  0.3485920E+04  0.7818609E-02  0.8117135E-01
        1   -1    0    0  501    0  0.00000000000E+00  0.00000000000E+00  0.18905798045E+04  0.18905798045E+04  0.50400001928E-02 0. -1.
       -1   -1    0    0    0  501  0.00000000000E+00  0.00000000000E+00 -0.16068666345E+04  0.16068666345E+04  0.50400001928E-02 0.  1.
    10030    2    1    2    0    0  0.00000000000E+00  0.00000000000E+00  0.28371317003E+03  0.34974464391E+04  0.34859200265E+04 0.  0.
        4    1    3    3  502    0 -0.57225212237E+03  0.28439222311E+03 -0.14850960581E+04  0.16167446746E+04  0.12699999809E+01 0.  1.
       -4    1    3    3    0  502  0.57225212237E+03 -0.28439222311E+03  0.17688092282E+04  0.18807017644E+04  0.12699999809E+01 0. -1.
</event>
<event>
 5   0  0.1999883E-06  0.3541957E+04  0.7818609E-02  0.8103918E-01
        2   -1    0    0  501    0  0.00000000000E+00  0.00000000000E+00  0.17469821060E+04  0.17469821060E+04  0.25500000920E-02 0. -1.
       -2   -1    0    0    0  501  0.00000000000E+00  0.00000000000E+00 -0.17953044121E+04  0.17953044121E+04  0.25500000920E-02 0.  1.
    10030    2    1    2    0    0  0.00000000000E+00  0.00000000000E+00 -0.48322306111E+02  0.35422865182E+04  0.35419569071E+04 0.  0.
        4    1    3    3  502    0  0.68163804169E+03  0.16018436408E+04  0.30118373825E+03  0.17667050480E+04  0.12699999809E+01 0. -1.
       -4    1    3    3    0  502 -0.68163804169E+03 -0.16018436408E+04 -0.34950604436E+03  0.17755814702E+04  0.12699999809E+01 0.  1.
</event>
<event>
 5   0  0.1999883E-06  0.3064804E+04  0.7818609E-02  0.8225464E-01
        2   -1    0    0  501    0  0.00000000000E+00  0.00000000000E+00  0.24629508261E+04  0.24629508261E+04  0.25500000920E-02 0.  1.
       -2   -1    0    0    0  501  0.00000000000E+00  0.00000000000E+00 -0.95343177047E+03  0.95343177047E+03  0.25500000920E-02 0. -1.
    10030    2    1    2    0    0  0.00000000000E+00  0.00000000000E+00  0.15095190556E+04  0.34163825966E+04  0.30648037893E+04 0.  0.
        4    1    3    3  502    0  0.15453424118E+03 -0.47964353914E+03  0.23679470236E+04  0.24209736628E+04  0.12699999809E+01 0.  1.
       -4    1    3    3    0  502 -0.15453424118E+03  0.47964353914E+03 -0.85842796799E+03  0.99540893379E+03  0.12699999809E+01 0. -1.
</event>
<event>
 5   0  0.7378896E-07  0.2265755E+04  0.7818609E-02  0.8491547E-01
       -1   -1    0    0    0  501  0.00000000000E+00  0.00000000000E+00  0.86093440888E+03  0.86093440889E+03  0.50400001928E-02 0. -1.
        1   -1    0    0  501    0  0.00000000000E+00  0.00000000000E+00 -0.14907190471E+04  0.14907190471E+04  0.50400001928E-02 0.  1.
    10030    2    1    2    0    0  0.00000000000E+00  0.00000000000E+00 -0.62978463821E+03  0.23516534560E+04  0.22657549043E+04 0.  0.
        2    1    3    3  502    0  0.36331365555E+03  0.65995671250E+01  0.79880719387E+03  0.87757238994E+03  0.25500000920E-02 0. -1.
       -2    1    3    3    0  502 -0.36331365555E+03 -0.65995671250E+01 -0.14285918321E+04  0.14740810660E+04  0.25500000920E-02 0.  1.
</event>
<event>
 5   0  0.7378896E-07  0.2686060E+04  0.7818609E-02  0.8339542E-01
        1   -1    0    0  501    0  0.00000000000E+00  0.00000000000E+00  0.23399434255E+04  0.23399434255E+04  0.50400001928E-02 0. -1.
       -1   -1    0    0    0  501  0.00000000000E+00  0.00000000000E+00 -0.77084332726E+03  0.77084332728E+03  0.50400001928E-02 0.  1.
    10030    2    1    2    0    0  0.00000000000E+00  0.00000000000E+00  0.15691000982E+04  0.31107867528E+04  0.26860601451E+04 0.  0.
        2    1    3    3  502    0 -0.12536806122E+04 -0.48142104366E+03  0.80280571643E+03  0.15646016480E+04  0.25500000920E-02 0.  1.
       -2    1    3    3    0  502  0.12536806122E+04  0.48142104366E+03  0.76629438178E+03  0.15461851048E+04  0.25500000920E-02 0. -1.
</event>
<event>
 5   0  0.2001768E-06  0.3516775E+04  0.7818609E-02  0.8109826E-01
       -2   -1    0    0    0  501  0.00000000000E+00  0.00000000000E+00  0.12652156571E+04  0.12652156571E+04  0.25500000920E-02 0.  1.
        2   -1    0    0  501    0  0.00000000000E+00  0.00000000000E+00 -0.24437940839E+04  0.24437940839E+04  0.25500000920E-02 0. -1.
    10030    2    1    2    0    0  0.00000000000E+00  0.00000000000E+00 -0.11785784268E+04  0.37090097411E+04  0.35167749645E+04 0.  0.
        2    1    3    3  502    0 -0.60196102581E+03  0.52554598873E+03  0.10626535565E+04  0.13295819809E+04  0.25500000920E-02 0.  1.
       -2    1    3    3    0  502  0.60196102581E+03 -0.52554598873E+03 -0.22412319833E+04  0.23794277602E+04  0.25500000920E-02 0. -1.
</event>
<event>
 5   0  0.2020725E-06  0.3346578E+04  0.7818609E-02  0.8151144E-01
       -2   -1    0    0    0  501  0.00000000000E+00  0.00000000000E+00  0.10595580907E+04  0.10595580907E+04  0.25500000920E-02 0. -1.
        2   -1    0    0  501    0  0.00000000000E+00  0.00000000000E+00 -0.26425135160E+04  0.26425135160E+04  0.25500000920E-02 0.  1.
    10030    2    1    2    0    0  0.00000000000E+00  0.00000000000E+00 -0.15829554253E+04  0.37020716067E+04  0.33465782977E+04 0.  0.
        3    1    3    3  502    0  0.34137757000E+03  0.10104198385E+04 -0.22177841839E+04  0.24609050351E+04  0.10100000352E+00 0.  1.
       -3    1    3    3    0  502 -0.34137757000E+03 -0.10104198385E+04  0.63482875859E+03  0.12411665715E+04  0.10100000352E+00 0. -1.
</event>
<event>
 5   0  0.2001768E-06  0.3485274E+04  0.7818609E-02  0.8117289E-01
       -2   -1    0    0    0  501  0.00000000000E+00  0.00000000000E+00  0.13746920626E+04  0.13746920626E+04  0.25500000920E-02 0. -1.
        2   -1    0    0  501    0  0.00000000000E+00  0.00000000000E+00 -0.22090642202E+04  0.22090642202E+04  0.25500000920E-02 0.  1.
    10030    2    1    2    0    0  0.00000000000E+00  0.00000000000E+00 -0.83437215759E+03  0.35837562828E+04  0.34852736187E+04 0.  0.
        2    1    3    3  502    0 -0.12321191569E+04 -0.11458286869E+04  0.49218840842E+02  0.16832894851E+04  0.25500000920E-02 0. -1.
       -2    1    3    3    0  502  0.12321191569E+04  0.11458286869E+04 -0.88359099844E+03  0.19004667976E+04  0.25500000920E-02 0.  1.
</event>
<event>
 5   0  0.2073287E-06  0.3515342E+04  0.7818609E-02  0.8110164E-01
       -2   -1    0    0    0  501  0.00000000000E+00  0.00000000000E+00  0.28805459658E+04  0.28805459658E+04  0.25500000920E-02 0.  1.
        2   -1    0    0  501    0  0.00000000000E+00  0.00000000000E+00 -0.10725078704E+04  0.10725078704E+04  0.25500000920E-02 0. -1.
    10030    2    1    2    0    0  0.00000000000E+00  0.00000000000E+00  0.18080380954E+04  0.39530538361E+04  0.35153424978E+04 0.  0.
        1    1    3    3  502    0  0.11752310172E+04  0.13069290210E+04  0.88906639972E+03  0.19696879125E+04  0.50400001928E-02 0. -1.
       -1    1    3    3    0  502 -0.11752310172E+04 -0.13069290210E+04  0.91897169569E+03  0.19833659236E+04  0.50400001928E-02 0.  1.
</event>
<event>
 5   0  0.6630125E-07  0.3586006E+04  0.7818609E-02  0.8093705E-01
       -1   -1    0    0    0  501  0.00000000000E+00  0.00000000000E+00  0.13463817872E+04  0.13463817872E+04  0.50400001928E-02 0. -1.
        1   -1    0    0  501    0  0.00000000000E+00  0.00000000000E+00 -0.23877768782E+04  0.23877768782E+04  0.50400001928E-02 0.  1.
    10030    2    1    2    0    0  0.00000000000E+00  0.00000000000E+00 -0.10413950910E+04  0.37341586654E+04  0.35860057449E+04 0.  0.
        5    1    3    3  502    0  0.19924014456E+03 -0.17229003660E+04 -0.47208761155E+02  0.17350311419E+04  0.46999998093E+01 0.  1.
       -5    1    3    3    0  502 -0.19924014456E+03  0.17229003660E+04 -0.99418632984E+03  0.19991275234E+04  0.46999998093E+01 0. -1.
</event>
<event>
 5   0  0.2023479E-06  0.3598579E+04  0.7818609E-02  0.8090817E-01
       -2   -1    0    0    0  501  0.00000000000E+00  0.00000000000E+00  0.11418977769E+04  0.11418977769E+04  0.25500000920E-02 0. -1.
        2   -1    0    0  501    0  0.00000000000E+00  0.00000000000E+00 -0.28351416376E+04  0.28351416376E+04  0.25500000920E-02 0.  1.
    10030    2    1    2    0    0  0.00000000000E+00  0.00000000000E+00 -0.16932438607E+04  0.39770394145E+04  0.35985785711E+04 0.  0.
        5    1    3    3  502    0 -0.13364021822E+04 -0.52816845407E+03  0.35007161513E+03  0.14790216139E+04  0.46999998093E+01 0. -1.
       -5    1    3    3    0  502  0.13364021822E+04  0.52816845407E+03 -0.20433154758E+04  0.24980178006E+04  0.46999998093E+01 0.  1.
</event>
<event>
 5   0  0.1999883E-06  0.3422394E+04  0.7818609E-02  0.8132432E-01
       -2   -1    0    0    0  501  0.00000000000E+00  0.00000000000E+00  0.13455016193E+04  0.13455016193E+04  0.25500000920E-02 0.  1.
        2   -1    0    0  501    0  0.00000000000E+00  0.00000000000E+00 -0.21762846663E+04  0.21762846663E+04  0.25500000920E-02 0. -1.
    10030    2    1    2    0    0  0.00000000000E+00  0.00000000000E+00 -0.83078304698E+03  0.35217862855E+04  0.34223936316E+04 0.  0.
        4    1    3    3  502    0 -0.16871214833E+03 -0.16782311575E+04 -0.11844683957E+03  0.16908444262E+04  0.12699999809E+01 0. -1.
       -4    1    3    3    0  502  0.16871214833E+03  0.16782311575E+04 -0.71233620741E+03  0.18309418593E+04  0.12699999809E+01 0.  1.
</event>
<event>
 5   0  0.2001768E-06  0.3434411E+04  0.7818609E-02  0.8129512E-01
        2   -1    0    0  501    0  0.00000000000E+00  0.00000000000E+00  0.27476167885E+04  0.27476167885E+04  0.25500000920E-02 0. -1.
       -2   -1    0    0    0  501  0.00000000000E+00  0.00000000000E+00 -0.10732191478E+04  0.10732191478E+04  0.25500000920E-02 0.  1.
    10030    2    1    2    0    0  0.00000000000E+00  0.00000000000E+00  0.16743976407E+04  0.38208359364E+04  0.34344111276E+04 0.  0.
        2    1    3    3  502    0 -0.81731458010E+03  0.84390788819E+03 -0.55616258580E+03  0.12998078583E+04  0.25500000920E-02 0.  1.
       -2    1    3    3    0  502  0.81731458010E+03 -0.84390788819E+03  0.22305602265E+04  0.25210280781E+04  0.25500000920E-02 0. -1.
</event>
<event>
 5   0  0.6890600E-07  0.3496017E+04  0.7818609E-02  0.8114734E-01
       -1   -1    0    0    0  501  0.00000000000E+00  0.00000000000E+00  0.19942851620E+04  0.19942851620E+04  0.50400001928E-02 0.  1.
        1   -1    0    0  501    0  0.00000000000E+00  0.00000000000E+00 -0.15321449679E+04  0.15321449679E+04  0.50400001928E-02 0. -1.
    10030    2    1    2    0    0  0.00000000000E+00  0.00000000000E+00  0.46214019411E+03  0.35264301298E+04  0.34960171484E+04 0.  0.
        3    1    3    3  502    0  0.12965604358E+04  0.85214725251E+03  0.10432516294E+04  0.18696518061E+04  0.10100000352E+00 0.  1.
       -3    1    3    3    0  502 -0.12965604358E+04 -0.85214725251E+03 -0.58111143526E+03  0.16567783238E+04  0.10100000352E+00 0. -1.
</event>
<event>
 5   0  0.6630125E-07  0.3507019E+04  0.7818609E-02  0.8112129E-01
        1   -1    0    0  501    0  0.00000000000E+00  0.00000000000E+00  0.27721910970E+04  0.27721910970E+04  0.50400001928E-02 0. -1.
       -1   -1    0    0    0  501  0.00000000000E+00  0.00000000000E+00 -0.11091569447E+04  0.11091569447E+04  0.50400001928E-02 0.  1.
    10030    2    1    2    0    0  0.00000000000E+00  0.00000000000E+00  0.16630341523E+04  0.38813480417E+04  0.35070186810E+04 0.  0.
        5    1    3    3  502    0  0.10280201516E+04 -0.10482970638E+04  0.18924970032E+04  0.23952701649E+04  0.46999998093E+01 0. -1.
       -5    1    3    3    0  502 -0.10280201516E+04  0.10482970638E+04 -0.22946285086E+03  0.14860778768E+04  0.46999998093E+01 0.  1.
</event>
<event>
 5   0  0.2073287E-06  0.3117976E+04  0.7818609E-02  0.8210822E-01
       -2   -1    0    0    0  501  0.00000000000E+00  0.00000000000E+00  0.17214238136E+04  0.17214238136E+04  0.25500000920E-02 0.  1.
        2   -1    0    0  501    0  0.00000000000E+00  0.00000000000E+00 -0.14118799593E+04  0.14118799593E+04  0.25500000920E-02 0. -1.
    10030    2    1    2    0    0  0.00000000000E+00  0.00000000000E+00  0.30954385424E+03  0.31333037729E+04  0.31179761281E+04 0.  0.
        1    1    3    3  502    0 -0.17474494032E+03  0.12747567869E+04 -0.72984128547E+03  0.14792595992E+04  0.50400001928E-02 0. -1.
       -1    1    3    3    0  502  0.17474494032E+03 -0.12747567869E+04  0.10393851397E+04  0.16540441737E+04  0.50400001928E-02 0.  1.
</event>
<event>
 5   0  0.2023479E-06  0.4136060E+04  0.7818609E-02  0.7977648E-01
        2   -1    0    0  501    0  0.00000000000E+00  0.00000000000E+00  0.13142845236E+04  0.13142845236E+04  0.25500000920E-02 0.  1.
       -2   -1    0    0    0  501  0.00000000000E+00  0.00000000000E+00 -0.32540506847E+04  0.32540506847E+04  0.25500000920E-02 0. -1.
    10030    2    1    2    0    0  0.00000000000E+00  0.00000000000E+00 -0.19397661611E+04  0.45683352083E+04  0.41360601804E+04 0.  0.
        5    1    3    3  502    0 -0.33489038387E+03 -0.13819330143E+04  0.68866699462E+03  0.15799287150E+04  0.46999998093E+01 0.  1.
       -5    1    3    3    0  502  0.33489038387E+03  0.13819330143E+04 -0.26284331557E+04  0.29884064933E+04  0.46999998093E+01 0. -1.
</event>
<event>
 5   0  0.2023479E-06  0.2283729E+04  0.7818609E-02  0.8484364E-01
       -2   -1    0    0    0  501  0.00000000000E+00  0.00000000000E+00  0.83541858792E+03  0.83541858793E+03  0.25500000920E-02 0. -1.
        2   -1    0    0  501    0  0.00000000000E+00  0.00000000000E+00 -0.15607194624E+04  0.15607194624E+04  0.25500000920E-02 0.  1.
    10030    2    1    2    0    0  0.00000000000E+00  0.00000000000E+00 -0.72530087450E+03  0.23961380504E+04  0.22837285736E+04 0.  0.
        5    1    3    3  502    0 -0.27779284153E+03  0.18646834331E+02  0.79924872802E+03  0.84636705186E+03  0.46999998093E+01 0. -1.
       -5    1    3    3    0  502  0.27779284153E+03 -0.18646834331E+02 -0.15245496025E+04  0.15497709985E+04  0.46999998093E+01 0.  1.
</event>
<event>
 5   0  0.6630125E-07  0.3466864E+04  0.7818609E-02  0.8121688E-01
        1   -1    0    0  501    0  0.00000000000E+00  0.00000000000E+00  0.24592831626E+04  0.24592831626E+04  0.50400001928E-02 0.  1.
       -1   -1    0    0    0  501  0.00000000000E+00  0.00000000000E+00 -0.12218142897E+04  0.12218142897E+04  0.50400001928E-02 0. -1.
    10030    2    1    2    0    0  0.00000000000E+00  0.00000000000E+00  0.12374688729E+04  0.36810974523E+04  0.34668644684E+04 0.  0.
        4    1    3    3  502    0 -0.64757287641E+03  0.15286171206E+03 -0.10808228510E+04  0.12692111650E+04  0.12699999809E+01 0. -1.
       -4    1    3    3    0  502  0.64757287641E+03 -0.15286171206E+03  0.23182917239E+04  0.24118862874E+04  0.12699999809E+01 0.  1.
</event>
<event>
 5   0  0.6630125E-07  0.3481079E+04  0.7818609E-02  0.8118289E-01
       -1   -1    0    0    0  501  0.00000000000E+00  0.00000000000E+00  0.16316094126E+04  0.16316094126E+04  0.50400001928E-02 0. -1.
        1   -1    0    0  501    0  0.00000000000E+00  0.00000000000E+00 -0.18567421050E+04  0.18567421050E+04  0.50400001928E-02 0.  1.
    10030    2    1    2    0    0  0.00000000000E+00  0.00000000000E+00 -0.22513269240E+03  0.34883515176E+04  0.34810790829E+04 0.  0.
        4    1    3    3  502    0  0.90570093354E+03  0.13766607758E+02 -0.16019393614E+04  0.18402975388E+04  0.12699999809E+01 0.  1.
       -4    1    3    3    0  502 -0.90570093354E+03 -0.13766607758E+02  0.13768066690E+04  0.16480539789E+04  0.12699999809E+01 0. -1.
</event>
<event>
 5   0  0.7378896E-07  0.2911881E+04  0.7818609E-02  0.8269351E-01
        1   -1    0    0  501    0  0.00000000000E+00  0.00000000000E+00  0.18509530992E+04  0.18509530993E+04  0.50400001928E-02 0. -1.
       -1   -1    0    0    0  501  0.00000000000E+00  0.00000000000E+00 -0.11452276442E+04  0.11452276442E+04  0.50400001928E-02 0.  1.
    10030    2    1    2    0    0  0.00000000000E+00  0.00000000000E+00  0.70572545502E+03  0.29961807435E+04  0.29118809436E+04 0.  0.
        2    1    3    3  502    0  0.11521766603E+04  0.54170580323E+03  0.10795715171E+04  0.16692605831E+04  0.25500000920E-02 0. -1.
       -2    1    3    3    0  502 -0.11521766603E+04 -0.54170580323E+03 -0.37384606209E+03  0.13269201604E+04  0.25500000920E-02 0.  1.
</event>
<event>
 5   0  0.2073287E-06  0.3481841E+04  0.7818609E-02  0.8118107E-01
        2   -1    0    0  501    0  0.00000000000E+00  0.00000000000E+00  0.24757627173E+04  0.24757627173E+04  0.25500000920E-02 0. -1.
       -2   -1    0    0    0  501  0.00000000000E+00  0.00000000000E+00 -0.12241899247E+04  0.12241899247E+04  0.25500000920E-02 0.  1.
    10030    2    1    2    0    0  0.00000000000E+00  0.00000000000E+00  0.12515727926E+04  0.36999526421E+04  0.34818407629E+04 0.  0.
        1    1    3    3  502    0 -0.55722529291E+03  0.11232044142E+04  0.19092175362E+04  0.22841190389E+04  0.50400001928E-02 0. -1.
       -1    1    3    3    0  502  0.55722529291E+03 -0.11232044142E+04 -0.65764474362E+03  0.14158336032E+04  0.50400001928E-02 0.  1.
</event>
<event>
 5   0  0.2023479E-06  0.3271816E+04  0.7818609E-02  0.8170104E-01
       -2   -1    0    0    0  501  0.00000000000E+00  0.00000000000E+00  0.14983870108E+04  0.14983870108E+04  0.25500000920E-02 0.  1.
        2   -1    0    0  501    0  0.00000000000E+00  0.00000000000E+00 -0.17860508654E+04  0.17860508654E+04  0.25500000920E-02 0. -1.
    10030    2    1    2    0    0  0.00000000000E+00  0.00000000000E+00 -0.28766385463E+03  0.32844378761E+04  0.32718162646E+04 0.  0.
        5    1    3    3  502    0  0.97565894404E+02  0.10358448462E+04  0.11234483096E+04  0.15312256017E+04  0.46999998093E+01 0.  1.
       -5    1    3    3    0  502 -0.97565894404E+02 -0.10358448462E+04 -0.14111121642E+04  0.17532122744E+04  0.46999998093E+01 0. -1.
</event>
<event>
 5   0  0.2020725E-06  0.3513031E+04  0.7818609E-02  0.8110709E-01
        2   -1    0    0  501    0  0.00000000000E+00  0.00000000000E+00  0.20904927978E+04  0.20904927978E+04  0.25500000920E-02 0. -1.
       -2   -1    0    0    0  501  0.00000000000E+00  0.00000000000E+00 -0.14758948378E+04  0.14758948378E+04  0.25500000920E-02 0.  1.
    10030    2    1    2    0    0  0.00000000000E+00  0.00000000000E+00  0.61459796006E+03  0.35663876356E+04  0.35130314708E+04 0.  0.
        3    1    3    3  502    0  0.10333940394E+04  0.31411580206E+01  0.17492357519E+04  0.20316837435E+04  0.10100000352E+00 0. -1.
       -3    1    3    3    0  502 -0.10333940394E+04 -0.31411580206E+01 -0.11346377919E+04  0.15347038921E+04  0.10100000352E+00 0.  1.
</event>
<event>
 5   0  0.6630125E-07  0.2441615E+04  0.7818609E-02  0.8424086E-01
        1   -1    0    0  501    0  0.00000000000E+00  0.00000000000E+00  0.11316683690E+04  0.11316683690E+04  0.50400001928E-02 0.  1.
       -1   -1    0    0    0  501  0.00000000000E+00  0.00000000000E+00 -0.13169683135E+04  0.13169683135E+04  0.50400001928E-02 0. -1.
    10030    2    1    2    0    0  0.00000000000E+00  0.00000000000E+00 -0.18529994444E+03  0.24486366825E+04  0.24416153533E+04 0.  0.
        4    1    3    3  502    0  0.76653001233E+03  0.45240004158E+03 -0.93059790038E+03  0.12877298329E+04  0.12699999809E+01 0.  1.
       -4    1    3    3    0  502 -0.76653001233E+03 -0.45240004158E+03  0.74529795594E+03  0.11609068496E+04  0.12699999809E+01 0. -1.
</event>
<event>
 5   0  0.2073287E-06  0.2728487E+04  0.7818609E-02  0.8325821E-01
        2   -1    0    0  501    0  0.00000000000E+00  0.00000000000E+00  0.22295140135E+04  0.22295140135E+04  0.25500000920E-02 0.  1.
       -2   -1    0    0    0  501  0.00000000000E+00  0.00000000000E+00 -0.83478319652E+03  0.83478319653E+03  0.25500000920E-02 0. -1.
    10030    2    1    2    0    0  0.00000000000E+00  0.00000000000E+00  0.13947308170E+04  0.30642972100E+04  0.27284873721E+04 0.  0.
        1    1    3    3  502    0 -0.45464129587E+03  0.63901782695E+03 -0.55632003192E+03  0.96152715459E+03  0.50400001928E-02 0. -1.
       -1    1    3    3    0  502  0.45464129587E+03 -0.63901782695E+03  0.19510508489E+04  0.21027700554E+04  0.50400001928E-02 0.  1.
</event>
<event>
 5   0  0.6630125E-07  0.2504241E+04  0.7818609E-02  0.8401476E-01
        1   -1    0    0  501    0  0.00000000000E+00  0.00000000000E+00  0.15205545786E+04  0.15205545786E+04  0.50400001928E-02 0.  1.
       -1   -1    0    0    0  501  0.00000000000E+00  0.00000000000E+00 -0.10310752788E+04  0.10310752788E+04  0.50400001928E-02 0. -1.
    10030    2    1    2    0    0  0.00000000000E+00  0.00000000000E+00  0.48947929978E+03  0.25516298574E+04  0.25042413910E+04 0.  0.
        4    1    3    3  502    0 -0.66050169487E+03 -0.44269867437E+02 -0.83819045661E+03  0.10680763852E+04  0.12699999809E+01 0. -1.
       -4    1    3    3    0  502  0.66050169487E+03  0.44269867437E+02  0.13276697564E+04  0.14835534723E+04  0.12699999809E+01 0.  1.
</event>
<event>
 5   0  0.2020725E-06  0.3522039E+04  0.7818609E-02  0.8108587E-01
        2   -1    0    0  501    0  0.00000000000E+00  0.00000000000E+00  0.21775062180E+04  0.21775062180E+04  0.25500000920E-02 0.  1.
       -2   -1    0    0    0  501  0.00000000000E+00  0.00000000000E+00 -0.14241932030E+04  0.14241932030E+04  0.25500000920E-02 0. -1.
    10030    2    1    2    0    0  0.00000000000E+00  0.00000000000E+00  0.75331301491E+03  0.36016994210E+04  0.35220389295E+04 0.  0.
        3    1    3    3  502    0  0.80699491702E+03 -0.15649774986E+04  0.40547506258E+03  0.18068772520E+04  0.10100000352E+00 0.  1.
       -3    1    3    3    0  502 -0.80699491702E+03  0.15649774986E+04  0.34783795233E+03  0.17948221690E+04  0.10100000352E+00 0. -1.
</event>
<event>
 5   0  0.1999883E-06  0.3466631E+04  0.7818609E-02  0.8121744E-01
       -2   -1    0    0    0  501  0.00000000000E+00  0.00000000000E+00  0.17907181763E+04  0.17907181763E+04  0.25500000920E-02 0. -1.
        2   -1    0    0  501    0  0.00000000000E+00  0.00000000000E+00 -0.16777525415E+04  0.16777525415E+04  0.25500000920E-02 0.  1.
    10030    2    1    2    0    0  0.00000000000E+00  0.00000000000E+00  0.11296563485E+03  0.34684707178E+04  0.34666306243E+04 0.  0.
        4    1    3    3  502    0  0.10811913721E+04 -0.57619471232E+03  0.12832679138E+04  0.17741908806E+04  0.12699999809E+01 0. -1.
       -4    1    3    3    0  502 -0.10811913721E+04  0.57619471232E+03 -0.11703022789E+04  0.16942798371E+04  0.12699999809E+01 0.  1.
</event>
<event>
 5   0  0.6630125E-07  0.3494339E+04  0.7818609E-02  0.8115133E-01
        1   -1    0    0  501    0  0.00000000000E+00  0.00000000000E+00  0.21601769655E+04  0.21601769655E+04  0.50400001928E-02 0. -1.
       -1   -1    0    0    0  501  0.00000000000E+00  0.00000000000E+00 -0.14131258096E+04  0.14131258096E+04  0.50400001928E-02 0.  1.
    10030    2    1    2    0    0  0.00000000000E+00  0.00000000000E+00  0.74705115591E+03  0.35733027750E+04  0.34943393213E+04 0.  0.
        1    1    3    3  502    0 -0.32136824248E+03 -0.15445360317E+04  0.11413136550E+04  0.19471687035E+04  0.50400001928E-02 0. -1.
       -1    1    3    3    0  502  0.32136824248E+03  0.15445360317E+04 -0.39426249910E+03  0.16261340716E+04  0.50400001928E-02 0.  1.
</event>
<event>
 5   0  0.2073287E-06  0.3040625E+04  0.7818609E-02  0.8232224E-01
        2   -1    0    0  501    0  0.00000000000E+00  0.00000000000E+00  0.97837347196E+03  0.97837347196E+03  0.25500000920E-02 0. -1.
       -2   -1    0    0    0  501  0.00000000000E+00  0.00000000000E+00 -0.23624421121E+04  0.23624421121E+04  0.25500000920E-02 0.  1.
    10030    2    1    2    0    0  0.00000000000E+00  0.00000000000E+00 -0.13840686401E+04  0.33408155840E+04  0.30406253906E+04 0.  0.
        1    1    3    3  502    0  0.58818050537E+03  0.79568095239E+03 -0.19602360782E+04  0.21958119152E+04  0.50400001928E-02 0.  1.
       -1    1    3    3    0  502 -0.58818050537E+03 -0.79568095239E+03  0.57616743805E+03  0.11450036688E+04  0.50400001928E-02 0. -1.
</event>
<event>
 5   0  0.6630125E-07  0.3502750E+04  0.7818609E-02  0.8113139E-01
        1   -1    0    0  501    0  0.00000000000E+00  0.00000000000E+00  0.17005077203E+04  0.17005077203E+04  0.50400001928E-02 0.  1.
       -1   -1    0    0    0  501  0.00000000000E+00  0.00000000000E+00 -0.18037635845E+04  0.18037635845E+04  0.50400001928E-02 0. -1.
    10030    2    1    2    0    0  0.00000000000E+00  0.00000000000E+00 -0.10325586415E+03  0.35042713048E+04  0.35027497205E+04 0.  0.
        5    1    3    3  502    0 -0.13112324611E+04 -0.24603683636E+03 -0.11867692762E+04  0.17855834052E+04  0.46999998093E+01 0. -1.
       -5    1    3    3    0  502  0.13112324611E+04  0.24603683636E+03  0.10835134121E+04  0.17186878996E+04  0.46999998093E+01 0.  1.
</event>
<event>
 5   0  0.6630125E-07  0.3508008E+04  0.7818609E-02  0.8111895E-01
        1   -1    0    0  501    0  0.00000000000E+00  0.00000000000E+00  0.14799997538E+04  0.14799997538E+04  0.50400001928E-02 0.  1.
       -1   -1    0    0    0  501  0.00000000000E+00  0.00000000000E+00 -0.20787364043E+04  0.20787364043E+04  0.50400001928E-02 0. -1.
    10030    2    1    2    0    0  0.00000000000E+00  0.00000000000E+00 -0.59873665050E+03  0.35587361580E+04  0.35080076205E+04 0.  0.
        5    1    3    3  502    0  0.17096591451E+03 -0.15923672204E+04  0.42626872065E+03  0.16572838685E+04  0.46999998093E+01 0.  1.
       -5    1    3    3    0  502 -0.17096591451E+03  0.15923672204E+04 -0.10250053711E+04  0.19014522895E+04  0.46999998093E+01 0. -1.
</event>
<event>
 5   0  0.6630125E-07  0.2870732E+04  0.7818609E-02  0.8281639E-01
        1   -1    0    0  501    0  0.00000000000E+00  0.00000000000E+00  0.16755778477E+04  0.16755778477E+04  0.50400001928E-02 0.  1.
       -1   -1    0    0    0  501  0.00000000000E+00  0.00000000000E+00 -0.12295907493E+04  0.12295907493E+04  0.50400001928E-02 0. -1.
    10030    2    1    2    0    0  0.00000000000E+00  0.00000000000E+00  0.44598709839E+03  0.29051685971E+04  0.28707316290E+04 0.  0.
        4    1    3    3  502    0 -0.11637763814E+04  0.33834508801E+03 -0.55527046546E+03  0.13331090605E+04  0.12699999809E+01 0. -1.
       -4    1    3    3    0  502  0.11637763814E+04 -0.33834508801E+03  0.10012575638E+04  0.15720595366E+04  0.12699999809E+01 0.  1.
</event>
<event>
 5   0  0.6890600E-07  0.3600840E+04  0.7818609E-02  0.8090299E-01
       -1   -1    0    0    0  501  0.00000000000E+00  0.00000000000E+00  0.13921239339E+04  0.13921239339E+04  0.50400001928E-02 0.  1.
        1   -1    0    0  501    0  0.00000000000E+00  0.00000000000E+00 -0.23284647992E+04  0.23284647992E+04  0.50400001928E-02 0. -1.
    10030    2    1    2    0    0  0.00000000000E+00  0.00000000000E+00 -0.93634086533E+03  0.37205887331E+04  0.36008396667E+04 0.  0.
        3    1    3    3  502    0  0.91226051786E+03 -0.71641249733E+03 -0.18909324218E+04  0.22183533426E+04  0.10100000352E+00 0. -1.
       -3    1    3    3    0  502 -0.91226051786E+03  0.71641249733E+03  0.95459155644E+03  0.15022353905E+04  0.10100000352E+00 0.  1.
</event>
<event>
 5   0  0.6890600E-07  0.3125817E+04  0.7818609E-02  0.8208688E-01
       -1   -1    0    0    0  501  0.00000000000E+00  0.00000000000E+00  0.12510603270E+04  0.12510603270E+04  0.50400001928E-02 0.  1.
        1   -1    0    0  501    0  0.00000000000E+00  0.00000000000E+00 -0.19524896829E+04  0.19524896829E+04  0.50400001928E-02 0. -1.
    10030    2    1    2    0    0  0.00000000000E+00  0.00000000000E+00 -0.70142935587E+03  0.32035500099E+04  0.31258166172E+04 0.  0.
        3    1    3    3  502    0  0.23062226623E+03  0.47159424940E+03 -0.18594287737E+04  0.19321136459E+04  0.10100000352E+00 0. -1.
       -3    1    3    3    0  502 -0.23062226623E+03 -0.47159424940E+03  0.11579994179E+04  0.12714363640E+04  0.10100000352E+00 0.  1.
</event>
<event>
 5   0  0.6630125E-07  0.3491134E+04  0.7818609E-02  0.8115894E-01
        1   -1    0    0  501    0  0.00000000000E+00  0.00000000000E+00  0.12764424430E+04  0.12764424430E+04  0.50400001928E-02 0.  1.
       -1   -1    0    0    0  501  0.00000000000E+00  0.00000000000E+00 -0.23871068002E+04  0.23871068002E+04  0.50400001928E-02 0. -1.
    10030    2    1    2    0    0  0.00000000000E+00  0.00000000000E+00 -0.11106643572E+04  0.36635492432E+04  0.34911341629E+04 0.  0.
        4    1    3    3  502    0 -0.10004504721E+04  0.14298569761E+04 -0.59744780882E+03  0.18445426578E+04  0.12699999809E+01 0. -1.
       -4    1    3    3    0  502  0.10004504721E+04 -0.14298569761E+04 -0.51321654843E+03  0.18190065854E+04  0.12699999809E+01 0.  1.
</event>
<event>
 5   0  0.6890600E-07  0.2534948E+04  0.7818609E-02  0.8390640E-01
        1   -1    0    0  501    0  0.00000000000E+00  0.00000000000E+00  0.14156860829E+04  0.14156860829E+04  0.50400001928E-02 0. -1.
       -1   -1    0    0    0  501  0.00000000000E+00  0.00000000000E+00 -0.11347783079E+04  0.11347783079E+04  0.50400001928E-02 0.  1.
    10030    2    1    2    0    0  0.00000000000E+00  0.00000000000E+00  0.28090777503E+03  0.25504643908E+04  0.25349476189E+04 0.  0.
        3    1    3    3  502    0 -0.77038695106E+03 -0.35585043249E+03  0.10876859577E+04  0.13795601971E+04  0.10100000352E+00 0. -1.
       -3    1    3    3    0  502  0.77038695106E+03  0.35585043249E+03 -0.80677818266E+03  0.11709041937E+04  0.10100000352E+00 0.  1.
</event>
<event>
 5   0  0.6630125E-07  0.3700473E+04  0.7818609E-02  0.8067857E-01
        1   -1    0    0  501    0  0.00000000000E+00  0.00000000000E+00  0.17536946989E+04  0.17536946989E+04  0.50400001928E-02 0. -1.
       -1   -1    0    0    0  501  0.00000000000E+00  0.00000000000E+00 -0.19520928531E+04  0.19520928531E+04  0.50400001928E-02 0.  1.
    10030    2    1    2    0    0  0.00000000000E+00  0.00000000000E+00 -0.19839815419E+03  0.37057875520E+04  0.37004728823E+04 0.  0.
        1    1    3    3  502    0 -0.80279327672E+03  0.16648481366E+04 -0.14351216022E+02  0.18483512439E+04  0.50400001928E-02 0.  1.
       -1    1    3    3    0  502  0.80279327672E+03 -0.16648481366E+04 -0.18404693817E+03  0.18574363081E+04  0.50400001928E-02 0. -1.
</event>
<event>
 5   0  0.6630125E-07  0.3442599E+04  0.7818609E-02  0.8127530E-01
       -1   -1    0    0    0  501  0.00000000000E+00  0.00000000000E+00  0.12450981629E+04  0.12450981629E+04  0.50400001928E-02 0. -1.
        1   -1    0    0  501    0  0.00000000000E+00  0.00000000000E+00 -0.23796289001E+04  0.23796289001E+04  0.50400001928E-02 0.  1.
    10030    2    1    2    0    0  0.00000000000E+00  0.00000000000E+00 -0.11345307372E+04  0.36247270630E+04  0.34425987694E+04 0.  0.
        5    1    3    3  502    0 -0.86735162065E+02 -0.17187099855E+04 -0.52840079927E+03  0.18001990160E+04  0.46999998093E+01 0. -1.
       -5    1    3    3    0  502  0.86735162065E+02  0.17187099855E+04 -0.60612993797E+03  0.18245280470E+04  0.46999998093E+01 0.  1.
</event>
<event>
 5   0  0.2020725E-06  0.2898111E+04  0.7818609E-02  0.8273440E-01
        2   -1    0    0  501    0  0.00000000000E+00  0.00000000000E+00  0.17521861714E+04  0.17521861714E+04  0.25500000920E-02 0.  1.
       -2   -1    0    0    0  501  0.00000000000E+00  0.00000000000E+00 -0.11983669403E+04  0.11983669403E+04  0.25500000920E-02 0. -1.
    10030    2    1    2    0    0  0.00000000000E+00  0.00000000000E+00  0.55381923105E+03  0.29505531117E+04  0.28981110959E+04 0.  0.
        3    1    3    3  502    0 -0.14931072191E+03 -0.15979101377E+03  0.17352879987E+04  0.17490143820E+04  0.10100000352E+00 0.  1.
       -3    1    3    3    0  502  0.14931072191E+03  0.15979101377E+03 -0.11814687677E+04  0.12015387297E+04  0.10100000352E+00 0. -1.
</event>
<event>
 5   0  0.2001768E-06  0.3499127E+04  0.7818609E-02  0.8113997E-01
       -2   -1    0    0    0  501  0.00000000000E+00  0.00000000000E+00  0.10941933658E+04  0.10941933658E+04  0.25500000920E-02 0.  1.
        2   -1    0    0  501    0  0.00000000000E+00  0.00000000000E+00 -0.27974699356E+04  0.27974699356E+04  0.25500000920E-02 0. -1.
    10030    2    1    2    0    0  0.00000000000E+00  0.00000000000E+00 -0.17032765698E+04  0.38916633014E+04  0.34991273453E+04 0.  0.
        2    1    3    3  502    0 -0.26485182933E+03  0.22474737738E+03 -0.27587338358E+04  0.27805161844E+04  0.25500000920E-02 0. -1.
       -2    1    3    3    0  502  0.26485182933E+03 -0.22474737738E+03  0.10554572660E+04  0.11111471170E+04  0.25500000920E-02 0.  1.
</event>
<event>
 5   0  0.6630125E-07  0.3503810E+04  0.7818609E-02  0.8112888E-01
       -1   -1    0    0    0  501  0.00000000000E+00  0.00000000000E+00  0.17393720195E+04  0.17393720195E+04  0.50400001928E-02 0.  1.
        1   -1    0    0  501    0  0.00000000000E+00  0.00000000000E+00 -0.17645282218E+04  0.17645282218E+04  0.50400001928E-02 0. -1.
    10030    2    1    2    0    0  0.00000000000E+00  0.00000000000E+00 -0.25156202334E+02  0.35039002413E+04  0.35038099359E+04 0.  0.
        5    1    3    3  502    0 -0.82991388298E+03  0.14106572161E+04  0.61228845920E+03  0.17474639000E+04  0.46999998093E+01 0.  1.
       -5    1    3    3    0  502  0.82991388298E+03 -0.14106572161E+04 -0.63744466154E+03  0.17564363413E+04  0.46999998093E+01 0. -1.
</event>
<event>
 5   0  0.2020725E-06  0.2626082E+04  0.7818609E-02  0.8359395E-01
        2   -1    0    0  501    0  0.00000000000E+00  0.00000000000E+00  0.11824225364E+04  0.11824225364E+04  0.25500000920E-02 0. -1.
       -2   -1    0    0    0  501  0.00000000000E+00  0.00000000000E+00 -0.14580887443E+04  0.14580887443E+04  0.25500000920E-02 0.  1.
    10030    2    1    2    0    0  0.00000000000E+00  0.00000000000E+00 -0.27566620794E+03  0.26405112807E+04  0.26260822465E+04 0.  0.
        3    1    3    3  502    0  0.57799434881E+02  0.69596324282E+03 -0.12558649486E+04  0.14369768228E+04  0.10100000352E+00 0.  1.
       -3    1    3    3    0  502 -0.57799434881E+02 -0.69596324282E+03  0.98019874064E+03  0.12035344579E+04  0.10100000352E+00 0. -1.
</event>
<event>
 5   0  0.2073287E-06  0.3509102E+04  0.7818609E-02  0.8111636E-01
        2   -1    0    0  501    0  0.00000000000E+00  0.00000000000E+00  0.22256995231E+04  0.22256995231E+04  0.25500000920E-02 0.  1.
       -2   -1    0    0    0  501  0.00000000000E+00  0.00000000000E+00 -0.13831380797E+04  0.13831380797E+04  0.25500000920E-02 0. -1.
    10030    2    1    2    0    0  0.00000000000E+00  0.00000000000E+00  0.84256144341E+03  0.36088376028E+04  0.35091023150E+04 0.  0.
        1    1    3    3  502    0 -0.15388727077E+04 -0.51232330995E+03 -0.26695206374E+03  0.16437359243E+04  0.50400001928E-02 0. -1.
       -1    1    3    3    0  502  0.15388727077E+04  0.51232330995E+03  0.11095135072E+04  0.19651016785E+04  0.50400001928E-02 0.  1.
</event>
<event>
 5   0  0.1999883E-06  0.3491584E+04  0.7818609E-02  0.8115787E-01
        2   -1    0    0  501    0  0.00000000000E+00  0.00000000000E+00  0.17135650000E+04  0.17135650000E+04  0.25500000920E-02 0. -1.
       -2   -1    0    0    0  501  0.00000000000E+00  0.00000000000E+00 -0.17786247038E+04  0.17786247038E+04  0.25500000920E-02 0.  1.
    10030    2    1    2    0    0  0.00000000000E+00  0.00000000000E+00 -0.65059703826E+02  0.34921897039E+04  0.34915836182E+04 0.  0.
        4    1    3    3  502    0 -0.63416678317E+03 -0.28973888520E+03  0.15682701695E+04  0.17162718514E+04  0.12699999809E+01 0. -1.
       -4    1    3    3    0  502  0.63416678317E+03  0.28973888520E+03 -0.16333298734E+04  0.17759178524E+04  0.12699999809E+01 0.  1.
</event>
<event>
 5   0  0.2001768E-06  0.3547829E+04  0.7818609E-02  0.8102548E-01
        2   -1    0    0  501    0  0.00000000000E+00  0.00000000000E+00  0.20882080660E+04  0.20882080660E+04  0.25500000920E-02 0. -1.
       -2   -1    0    0    0  501  0.00000000000E+00  0.00000000000E+00 -0.15069252461E+04  0.15069252461E+04  0.25500000920E-02 0.  1.
    10030    2    1    2    0    0  0.00000000000E+00  0.00000000000E+00  0.58128281987E+03  0.35951333120E+04  0.35478294512E+04 0.  0.
        2    1    3    3  502    0 -0.12792490069E+04  0.12286739717E+04  0.26469328707E+03  0.17933712071E+04  0.25500000920E-02 0.  1.
       -2    1    3    3    0  502  0.12792490069E+04 -0.12286739717E+04  0.31658953280E+03  0.18017621049E+04  0.25500000920E-02 0. -1.
</event>
<event>
 5   0  0.6630125E-07  0.3471568E+04  0.7818609E-02  0.8120561E-01
        1   -1    0    0  501    0  0.00000000000E+00  0.00000000000E+00  0.13160569278E+04  0.13160569278E+04  0.50400001928E-02 0.  1.
       -1   -1    0    0    0  501  0.00000000000E+00  0.00000000000E+00 -0.22893730812E+04  0.22893730812E+04  0.50400001928E-02 0. -1.
    10030    2    1    2    0    0  0.00000000000E+00  0.00000000000E+00 -0.97331615335E+03  0.36054300090E+04  0.34715675444E+04 0.  0.
        5    1    3    3  502    0  0.50819855499E+03 -0.33742335366E+03 -0.21743743799E+04  0.22583282146E+04  0.46999998093E+01 0. -1.
       -5    1    3    3    0  502 -0.50819855499E+03  0.33742335366E+03  0.12010582266E+04  0.13471017944E+04  0.46999998093E+01 0.  1.
</event>
<event>
 5   0  0.2001768E-06  0.3505158E+04  0.7818609E-02  0.8112569E-01
       -2   -1    0    0    0  501  0.00000000000E+00  0.00000000000E+00  0.24238459782E+04  0.24238459782E+04  0.25500000920E-02 0. -1.
        2   -1    0    0  501    0  0.00000000000E+00  0.00000000000E+00 -0.12672147503E+04  0.12672147503E+04  0.25500000920E-02 0.  1.
    10030    2    1    2    0    0  0.00000000000E+00  0.00000000000E+00  0.11566312278E+04  0.36910607285E+04  0.35051581283E+04 0.  0.
        2    1    3    3  502    0 -0.10046477670E+04 -0.93711822094E+03 -0.56752480188E+03  0.14864696756E+04  0.25500000920E-02 0.  1.
       -2    1    3    3    0  502  0.10046477670E+04  0.93711822094E+03  0.17241560297E+04  0.22045910529E+04  0.25500000920E-02 0. -1.
</event>
<event>
 5   0  0.6630125E-07  0.3367054E+04  0.7818609E-02  0.8146040E-01
        1   -1    0    0  501    0  0.00000000000E+00  0.00000000000E+00  0.19695112836E+04  0.19695112836E+04  0.50400001928E-02 0.  1.
       -1   -1    0    0    0  501  0.00000000000E+00  0.00000000000E+00 -0.14390696682E+04  0.14390696682E+04  0.50400001928E-02 0. -1.
    10030    2    1    2    0    0  0.00000000000E+00  0.00000000000E+00  0.53044161536E+03  0.34085809518E+04  0.33670544691E+04 0.  0.
        5    1    3    3  502    0 -0.16477109527E+04 -0.18467238789E+03 -0.30246254854E+02  0.16583100435E+04  0.46999998093E+01 0.  1.
       -5    1    3    3    0  502  0.16477109527E+04  0.18467238789E+03  0.56068787022E+03  0.17502709083E+04  0.46999998093E+01 0. -1.
</event>
<event>
 5   0  0.6630125E-07  0.3485388E+04  0.7818609E-02  0.8117262E-01
        1   -1    0    0  501    0  0.00000000000E+00  0.00000000000E+00  0.96187883631E+03  0.96187883632E+03  0.50400001928E-02 0.  1.
       -1   -1    0    0    0  501  0.00000000000E+00  0.00000000000E+00 -0.31573435558E+04  0.31573435558E+04  0.50400001928E-02 0. -1.
    10030    2    1    2    0    0  0.00000000000E+00  0.00000000000E+00 -0.21954647195E+04  0.41192223921E+04  0.34853877519E+04 0.  0.
        4    1    3    3  502    0 -0.45014901886E+02  0.12951879088E+04  0.27923873480E+03  0.13257126176E+04  0.12699999809E+01 0.  1.
       -4    1    3    3    0  502  0.45014901886E+02 -0.12951879088E+04 -0.24747034543E+04  0.27935097745E+04  0.12699999809E+01 0. -1.
</event>
<event>
 5   0  0.7378896E-07  0.3723869E+04  0.7818609E-02  0.8062693E-01
       -1   -1    0    0    0  501  0.00000000000E+00  0.00000000000E+00  0.16428995493E+04  0.16428995493E+04  0.50400001928E-02 0. -1.
        1   -1    0    0  501    0  0.00000000000E+00  0.00000000000E+00 -0.21101722181E+04  0.21101722181E+04  0.50400001928E-02 0.  1.
    10030    2    1    2    0    0  0.00000000000E+00  0.00000000000E+00 -0.46727266883E+03  0.37530717674E+04  0.37238694854E+04 0.  0.
        2    1    3    3  502    0 -0.11737020573E+04  0.89575734849E+03  0.90965060031E+03  0.17341920197E+04  0.25500000920E-02 0. -1.
       -2    1    3    3    0  502  0.11737020573E+04 -0.89575734849E+03 -0.13769232691E+04  0.20188797477E+04  0.25500000920E-02 0.  1.
</event>
<event>
 5   0  0.6630125E-07  0.3511810E+04  0.7818609E-02  0.8110997E-01
       -1   -1    0    0    0  501  0.00000000000E+00  0.00000000000E+00  0.14917827700E+04  0.14917827700E+04  0.50400001928E-02 0.  1.
        1   -1    0    0  501    0  0.00000000000E+00  0.00000000000E+00 -0.20667901318E+04  0.20667901318E+04  0.50400001928E-02 0. -1.
    10030    2    1    2    0    0  0.00000000000E+00  0.00000000000E+00 -0.57500736177E+03  0.35585729018E+04  0.35118097373E+04 0.  0.
        4    1    3    3  502    0  0.16051626797E+04  0.66863397973E+03 -0.53484758779E+03  0.18192531935E+04  0.12699999809E+01 0. -1.
       -4    1    3    3    0  502 -0.16051626797E+04 -0.66863397973E+03 -0.40159773976E+02  0.17393197082E+04  0.12699999809E+01 0.  1.
</event>
<event>
 5   0  0.2073287E-06  0.3535206E+04  0.7818609E-02  0.8105497E-01
       -2   -1    0    0    0  501  0.00000000000E+00  0.00000000000E+00  0.12899454608E+04  0.12899454608E+04  0.25500000920E-02 0. -1.
        2   -1    0    0  501    0  0.00000000000E+00  0.00000000000E+00 -0.24221333664E+04  0.24221333664E+04  0.25500000920E-02 0.  1.
    10030    2    1    2    0    0  0.00000000000E+00  0.00000000000E+00 -0.11321879056E+04  0.37120788272E+04  0.35352057601E+04 0.  0.
        1    1    3    3  502    0 -0.91238887920E+03 -0.15111036139E+04 -0.66308611395E+03  0.18856221237E+04  0.50400001928E-02 0. -1.
       -1    1    3    3    0  502  0.91238887920E+03  0.15111036139E+04 -0.46910179163E+03  0.18264567035E+04  0.50400001928E-02 0.  1.
</event>
<event>
 5   0  0.1999883E-06  0.3362320E+04  0.7818609E-02  0.8147217E-01
        2   -1    0    0  501    0  0.00000000000E+00  0.00000000000E+00  0.22186403069E+04  0.22186403069E+04  0.25500000920E-02 0. -1.
       -2   -1    0    0    0  501  0.00000000000E+00  0.00000000000E+00 -0.12738879243E+04  0.12738879243E+04  0.25500000920E-02 0.  1.
    10030    2    1    2    0    0  0.00000000000E+00  0.00000000000E+00  0.94475238263E+03  0.34925282312E+04  0.33623200890E+04 0.  0.
        4    1    3    3  502    0  0.11493125908E+04  0.44836758422E+03 -0.71393065180E+03  0.14253601336E+04  0.12699999809E+01 0.  1.
       -4    1    3    3    0  502 -0.11493125908E+04 -0.44836758422E+03  0.16586830344E+04  0.20671680976E+04  0.12699999809E+01 0. -1.
</event>
<event>
 5   0  0.6890600E-07  0.3580678E+04  0.7818609E-02  0.8094932E-01
       -1   -1    0    0    0  501  0.00000000000E+00  0.00000000000E+00  0.15722997271E+04  0.15722997271E+04  0.50400001928E-02 0.  1.
        1   -1    0    0  501    0  0.00000000000E+00  0.00000000000E+00 -0.20386144762E+04  0.20386144762E+04  0.50400001928E-02 0. -1.
    10030    2    1    2    0    0  0.00000000000E+00  0.00000000000E+00 -0.46631474916E+03  0.36109142033E+04  0.35806775809E+04 0.  0.
        3    1    3    3  502    0  0.74912553489E+03  0.13831227828E+04 -0.10954187669E+04  0.19168098457E+04  0.10100000352E+00 0. -1.
       -3    1    3    3    0  502 -0.74912553489E+03 -0.13831227828E+04  0.62910401778E+03  0.16941043577E+04  0.10100000352E+00 0.  1.
</event>
<event>
 5   0  0.2020725E-06  0.2985818E+04  0.7818609E-02  0.8247792E-01
       -2   -1    0    0    0  501  0.00000000000E+00  0.00000000000E+00  0.25183926728E+04  0.25183926728E+04  0.25500000920E-02 0.  1.
        2   -1    0    0  501    0  0.00000000000E+00  0.00000000000E+00 -0.88499993123E+03  0.88499993124E+03  0.25500000920E-02 0. -1.
    10030    2    1    2    0    0  0.00000000000E+00  0.00000000000E+00  0.16333927416E+04  0.34033926040E+04  0.29858180402E+04 0.  0.
        3    1    3    3  502    0  0.93521805727E+03  0.11552169808E+04  0.97634999693E+03  0.17783189855E+04  0.10100000352E+00 0. -1.
       -3    1    3    3    0  502 -0.93521805727E+03 -0.11552169808E+04  0.65704274462E+03  0.16250736186E+04  0.10100000352E+00 0.  1.
</event>
<event>
 5   0  0.6890600E-07  0.3529594E+04  0.7818609E-02  0.8106812E-01
       -1   -1    0    0    0  501  0.00000000000E+00  0.00000000000E+00  0.10229777559E+04  0.10229777559E+04  0.50400001928E-02 0. -1.
        1   -1    0    0  501    0  0.00000000000E+00  0.00000000000E+00 -0.30445508325E+04  0.30445508325E+04  0.50400001928E-02 0.  1.
    10030    2    1    2    0    0  0.00000000000E+00  0.00000000000E+00 -0.20215730767E+04  0.40675285884E+04  0.35295936187E+04 0.  0.
        3    1    3    3  502    0  0.29927651574E+03 -0.98699921453E+03 -0.26610937509E+04  0.28539715913E+04  0.10100000352E+00 0.  1.
       -3    1    3    3    0  502 -0.29927651574E+03  0.98699921453E+03  0.63952067425E+03  0.12135569972E+04  0.10100000352E+00 0. -1.
</event>
<event>
 5   0  0.7378896E-07  0.3623587E+04  0.7818609E-02  0.8085110E-01
       -1   -1    0    0    0  501  0.00000000000E+00  0.00000000000E+00  0.14670714928E+04  0.14670714928E+04  0.50400001928E-02 0.  1.
        1   -1    0    0  501    0  0.00000000000E+00  0.00000000000E+00 -0.22375157449E+04  0.22375157449E+04  0.50400001928E-02 0. -1.
    10030    2    1    2    0    0  0.00000000000E+00  0.00000000000E+00 -0.77044425210E+03  0.37045872377E+04  0.36235869323E+04 0.  0.
        2    1    3    3  502    0  0.13650430617E+04  0.32035846334E+03 -0.15583137553E+04  0.20962618790E+04  0.25500000920E-02 0. -1.
       -2    1    3    3    0  502 -0.13650430617E+04 -0.32035846334E+03  0.78786950321E+03  0.16083253587E+04  0.25500000920E-02 0.  1.
</event>
<event>
 5   0  0.2001768E-06  0.2521762E+04  0.7818609E-02  0.8395273E-01
       -2   -1    0    0    0  501  0.00000000000E+00  0.00000000000E+00  0.98733014309E+03  0.98733014309E+03  0.25500000920E-02 0.  1.
        2   -1    0    0  501    0  0.00000000000E+00  0.00000000000E+00 -0.16102227000E+04  0.16102227000E+04  0.25500000920E-02 0. -1.
    10030    2    1    2    0    0  0.00000000000E+00  0.00000000000E+00 -0.62289255689E+03  0.25975528431E+04  0.25217624066E+04 0.  0.
        2    1    3    3  502    0  0.79390698591E+03 -0.88204689545E+03 -0.75031042238E+03  0.14040159394E+04  0.25500000920E-02 0. -1.
       -2    1    3    3    0  502 -0.79390698591E+03  0.88204689545E+03  0.12741786549E+03  0.11935369037E+04  0.25500000920E-02 0.  1.
</event>
<event>
 5   0  0.6630125E-07  0.2693222E+04  0.7818609E-02  0.8337208E-01
       -1   -1    0    0    0  501  0.00000000000E+00  0.00000000000E+00  0.10695826249E+04  0.10695826250E+04  0.50400001928E-02 0.  1.
        1   -1    0    0  501    0  0.00000000000E+00  0.00000000000E+00 -0.16953908660E+04  0.16953908660E+04  0.50400001928E-02 0. -1.
    10030    2    1    2    0    0  0.00000000000E+00  0.00000000000E+00 -0.62580824101E+03  0.27649734909E+04  0.26932215748E+04 0.  0.
        5    1    3    3  502    0 -0.56990759492E+03 -0.45387130461E+03  0.84976233142E+03  0.11193354894E+04  0.46999998093E+01 0.  1.
       -5    1    3    3    0  502  0.56990759492E+03  0.45387130461E+03 -0.14755705724E+04  0.16456380015E+04  0.46999998093E+01 0. -1.
</event>
<event>
 5   0  0.6630125E-07  0.3532597E+04  0.7818609E-02  0.8106108E-01
        1   -1    0    0  501    0  0.00000000000E+00  0.00000000000E+00  0.23924984773E+04  0.23924984773E+04  0.50400001928E-02 0. -1.
       -1   -1    0    0    0  501  0.00000000000E+00  0.00000000000E+00 -0.13039967719E+04  0.13039967720E+04  0.50400001928E-02 0.  1.
    10030    2    1    2    0    0  0.00000000000E+00  0.00000000000E+00  0.10885017054E+04  0.36964952493E+04  0.35325969435E+04 0.  0.
        1    1    3    3  502    0 -0.21206916995E+03  0.17476807132E+04  0.69388578231E+03  0.18923104098E+04  0.50400001928E-02 0. -1.
       -1    1    3    3    0  502  0.21206916995E+03 -0.17476807132E+04  0.39461592305E+03  0.18041848395E+04  0.50400001928E-02 0.  1.
</event>
<event>
 5   0  0.1999883E-06  0.3169486E+04  0.7818609E-02  0.8196923E-01
        2   -1    0    0  501    0  0.00000000000E+00  0.00000000000E+00  0.12178472056E+04  0.12178472056E+04  0.25500000920E-02 0. -1.
       -2   -1    0    0    0  501  0.00000000000E+00  0.00000000000E+00 -0.20621720842E+04  0.20621720842E+04  0.25500000920E-02 0.  1.
    10030    2    1    2    0    0  0.00000000000E+00  0.00000000000E+00 -0.84432487862E+03  0.32800192899E+04  0.31694860847E+04 0.  0.
        4    1    3    3  502    0 -0.14831711418E+04 -0.55815039836E+03 -0.41288345132E+03  0.16376210979E+04  0.12699999809E+01 0. -1.
       -4    1    3    3    0  502  0.14831711418E+04  0.55815039836E+03 -0.43144142730E+03  0.16423981920E+04  0.12699999809E+01 0.  1.
</event>
<event>
 5   0  0.6630125E-07  0.2525362E+04  0.7818609E-02  0.8394006E-01
        1   -1    0    0  501    0  0.00000000000E+00  0.00000000000E+00  0.13330675952E+04  0.13330675952E+04  0.50400001928E-02 0. -1.
       -1   -1    0    0    0  501  0.00000000000E+00  0.00000000000E+00 -0.11960104413E+04  0.11960104413E+04  0.50400001928E-02 0.  1.
    10030    2    1    2    0    0  0.00000000000E+00  0.00000000000E+00  0.13705715393E+03  0.25290780366E+04  0.25253615685E+04 0.  0.
        1    1    3    3  502    0 -0.10373957282E+04 -0.55474077539E+02  0.78728632257E+03  0.13034903237E+04  0.50400001928E-02 0. -1.
       -1    1    3    3    0  502  0.10373957282E+04  0.55474077539E+02 -0.65022916864E+03  0.12255877129E+04  0.50400001928E-02 0.  1.
</event>
<event>
 5   0  0.1999883E-06  0.2767464E+04  0.7818609E-02  0.8313441E-01
       -2   -1    0    0    0  501  0.00000000000E+00  0.00000000000E+00  0.11448224758E+04  0.11448224758E+04  0.25500000920E-02 0.  1.
        2   -1    0    0  501    0  0.00000000000E+00  0.00000000000E+00 -0.16724990037E+04  0.16724990037E+04  0.25500000920E-02 0. -1.
    10030    2    1    2    0    0  0.00000000000E+00  0.00000000000E+00 -0.52767652789E+03  0.28173214795E+04  0.27674641462E+04 0.  0.
        4    1    3    3  502    0  0.32430362022E+03 -0.16411555873E+03  0.10953577597E+04  0.11540870804E+04  0.12699999809E+01 0.  1.
       -4    1    3    3    0  502 -0.32430362022E+03  0.16411555873E+03 -0.16230342876E+04  0.16632343990E+04  0.12699999809E+01 0. -1.
</event>
<event>
 5   0  0.2023479E-06  0.3459008E+04  0.7818609E-02  0.8123574E-01
       -2   -1    0    0    0  501  0.00000000000E+00  0.00000000000E+00  0.18578495585E+04  0.18578495585E+04  0.25500000920E-02 0.  1.
        2   -1    0    0  501    0  0.00000000000E+00  0.00000000000E+00 -0.16100251344E+04  0.16100251344E+04  0.25500000920E-02 0. -1.
    10030    2    1    2    0    0  0.00000000000E+00  0.00000000000E+00  0.24782442406E+03  0.34678746929E+04  0.34590082308E+04 0.  0.
        5    1    3    3  502    0  0.13085358954E+04 -0.35259439597E+03  0.12011772725E+04  0.18109218447E+04  0.46999998093E+01 0.  1.
       -5    1    3    3    0  502 -0.13085358954E+04  0.35259439597E+03 -0.95335284844E+03  0.16569528482E+04  0.46999998093E+01 0. -1.
</event>
<event>
 5   0  0.6630125E-07  0.2683132E+04  0.7818609E-02  0.8340499E-01
       -1   -1    0    0    0  501  0.00000000000E+00  0.00000000000E+00  0.12592103219E+04  0.12592103219E+04  0.50400001928E-02 0.  1.
        1   -1    0    0  501    0  0.00000000000E+00  0.00000000000E+00 -0.14293077717E+04  0.14293077718E+04  0.50400001928E-02 0. -1.
    10030    2    1    2    0    0  0.00000000000E+00  0.00000000000E+00 -0.17009744987E+03  0.26885180936E+04  0.26831318263E+04 0.  0.
        4    1    3    3  502    0 -0.26380017486E+03 -0.66722217832E+03  0.10508147986E+04  0.12723951121E+04  0.12699999809E+01 0.  1.
       -4    1    3    3    0  502  0.26380017486E+03  0.66722217832E+03 -0.12209122484E+04  0.14161229815E+04  0.12699999809E+01 0. -1.
</event>
<event>
 5   0  0.2023479E-06  0.3454788E+04  0.7818609E-02  0.8124589E-01
       -2   -1    0    0    0  501  0.00000000000E+00  0.00000000000E+00  0.15294438899E+04  0.15294438899E+04  0.25500000920E-02 0. -1.
        2   -1    0    0  501    0  0.00000000000E+00  0.00000000000E+00 -0.19509634863E+04  0.19509634863E+04  0.25500000920E-02 0.  1.
    10030    2    1    2    0    0  0.00000000000E+00  0.00000000000E+00 -0.42151959648E+03  0.34804073762E+04  0.34547875093E+04 0.  0.
        5    1    3    3  502    0 -0.88928975292E+03 -0.54609841256E+03 -0.15974877524E+04  0.19081532826E+04  0.46999998093E+01 0.  1.
       -5    1    3    3    0  502  0.88928975292E+03  0.54609841256E+03  0.11759681560E+04  0.15722540936E+04  0.46999998093E+01 0. -1.
</event>
<event>
 5   0  0.7378896E-07  0.3492283E+04  0.7818609E-02  0.8115621E-01
       -1   -1    0    0    0  501  0.00000000000E+00  0.00000000000E+00  0.15542768370E+04  0.15542768370E+04  0.50400001928E-02 0. -1.
        1   -1    0    0  501    0  0.00000000000E+00  0.00000000000E+00 -0.19616909664E+04  0.19616909664E+04  0.50400001928E-02 0.  1.
    10030    2    1    2    0    0  0.00000000000E+00  0.00000000000E+00 -0.40741412939E+03  0.35159678034E+04  0.34922833965E+04 0.  0.
        2    1    3    3  502    0 -0.95725435287E+03  0.27399504531E+03 -0.16478695525E+04  0.19253267887E+04  0.25500000920E-02 0.  1.
       -2    1    3    3    0  502  0.95725435287E+03 -0.27399504531E+03  0.12404554231E+04  0.15906410147E+04  0.25500000920E-02 0. -1.
</event>
<event>
 5   0  0.2001768E-06  0.3161507E+04  0.7818609E-02  0.8199058E-01
       -2   -1    0    0    0  501  0.00000000000E+00  0.00000000000E+00  0.10453984456E+04  0.10453984456E+04  0.25500000920E-02 0. -1.
        2   -1    0    0  501    0  0.00000000000E+00  0.00000000000E+00 -0.23902677279E+04  0.23902677279E+04  0.25500000920E-02 0.  1.
    10030    2    1    2    0    0  0.00000000000E+00  0.00000000000E+00 -0.13448692824E+04  0.34356661735E+04  0.31615073413E+04 0.  0.
        2    1    3    3  502    0 -0.96999535558E+03 -0.12423405495E+04 -0.80320764129E+03  0.17690233311E+04  0.25500000920E-02 0. -1.
       -2    1    3    3    0  502  0.96999535558E+03  0.12423405495E+04 -0.54166164109E+03  0.16666428424E+04  0.25500000920E-02 0.  1.
</event>
<event>
 5   0  0.6630125E-07  0.3118961E+04  0.7818609E-02  0.8210553E-01
        1   -1    0    0  501    0  0.00000000000E+00  0.00000000000E+00  0.18905457367E+04  0.18905457367E+04  0.50400001928E-02 0.  1.
       -1   -1    0    0    0  501  0.00000000000E+00  0.00000000000E+00 -0.12863903694E+04  0.12863903694E+04  0.50400001928E-02 0. -1.
    10030    2    1    2    0    0  0.00000000000E+00  0.00000000000E+00  0.60415536729E+03  0.31769361061E+04  0.31189612556E+04 0.  0.
        5    1    3    3  502    0 -0.10598781662E+04  0.10266314166E+04  0.81608012068E+03  0.16862154803E+04  0.46999998093E+01 0.  1.
       -5    1    3    3    0  502  0.10598781662E+04 -0.10266314166E+04 -0.21192475339E+03  0.14907206257E+04  0.46999998093E+01 0. -1.
</event>
</LesHouchesEvents>
